<event>
 5    1  0.2968854E-003  0.3591577E+03  0.7818608E-02  0.1306887E+00
         11   -1    0    0    0    0  0.00000000000E+00  0.00000000000E+00  0.10005705325E+04  0.10005705325E+04  0.51100000000E-03 0. -1.
          2   -1    0    0  501    0 -0.00000000000E+00 -0.00000000000E+00 -0.58196449341E+03  0.58196449341E+03  0.25500000000E-02 0. -1.
         11    1    1    2    0    0  0.11054101692E+03  0.34130975704E+03  0.89751856023E+03  0.96656672435E+03  0.51100000000E-03 0. -1.
         22    1    1    2    0    0  0.21729752432E+02 -0.49992100031E+00 -0.29491839926E+02  0.36636057157E+02  0.00000000000E+00 0.  1.
          2    1    1    2  501    0 -0.13227076935E+03 -0.34080983604E+03 -0.44942068118E+03  0.57933224444E+03  0.25500000000E-02 0. -1.
<mgrwt>
<rscale>  0 0.88354244E+02</rscale>
<asrwt>0</asrwt>
<pdfrwt beam="1">  1       11 0.10000000E+01 0.35915767E+03</pdfrwt>
<pdfrwt beam="2">  1        2 0.89584078E-01 0.88354244E+02</pdfrwt>
<totfact> 0.66746601E+01</totfact>
</mgrwt>
</event>
<event>
 5    1  0.2968854E-003  0.1854330E+03  0.7818608E-02  0.1162646E+00
         11   -1    0    0    0    0  0.00000000000E+00  0.00000000000E+00  0.99994698119E+03  0.99994698119E+03  0.51100000000E-03 0.  1.
          2   -1    0    0  501    0 -0.00000000000E+00 -0.00000000000E+00 -0.13526253770E+04  0.13526253771E+04  0.25500000000E-02 0.  1.
         11    1    1    2    0    0 -0.40082712390E+02 -0.26573055190E+03  0.55303410337E+03  0.61487077467E+03  0.51100000000E-03 0.  1.
         22    1    1    2    0    0 -0.43700621895E+02  0.10117374851E+03  0.40209351978E+03  0.41692333874E+03  0.00000000000E+00 0.  1.
          2    1    1    2  501    0  0.83783334284E+02  0.16455680339E+03 -0.13078060190E+04  0.13207782448E+04  0.25500000000E-02 0.  1.
<mgrwt>
<rscale>  0 0.18543299E+03</rscale>
<asrwt>0</asrwt>
<pdfrwt beam="1">  1       11 0.10000000E+01 0.11020831E+03</pdfrwt>
<pdfrwt beam="2">  1        2 0.20808517E+00 0.18543299E+03</pdfrwt>
<totfact> 0.21099253E+01</totfact>
</mgrwt>
</event>
<event>
 5    1  0.2968854E-003  0.2702235E+03  0.7818608E-02  0.1104617E+00
         11   -1    0    0    0    0  0.00000000000E+00  0.00000000000E+00  0.10002589761E+04  0.10002589761E+04  0.51100000000E-03 0. -1.
         -2   -1    0    0    0  501 -0.00000000000E+00 -0.00000000000E+00 -0.16655813704E+03  0.16655813706E+03  0.25500000000E-02 0.  1.
         11    1    1    2    0    0  0.24241573222E+03  0.63472932119E+02  0.82466727084E+03  0.86189924465E+03  0.51100000000E-03 0. -1.
         22    1    1    2    0    0  0.10015818893E+02  0.14664410725E+02  0.35150925763E+02  0.39382091768E+02  0.00000000000E+00 0. -1.
         -2    1    1    2    0  501 -0.25243155111E+03 -0.78137342844E+02 -0.26117357577E+02  0.26553577671E+03  0.25500000000E-02 0.  1.
<mgrwt>
<rscale>  0 0.26424824E+03</rscale>
<asrwt>0</asrwt>
<pdfrwt beam="1">  1       11 0.10000000E+01 0.27022346E+03</pdfrwt>
<pdfrwt beam="2">  1       -2 0.25630964E-01 0.26424824E+03</pdfrwt>
<totfact> 0.10939723E+02</totfact>
</mgrwt>
</event>
<event>
 5    1  0.2968854E-003  0.2901524E+03  0.7818608E-02  0.1090739E+00
         11   -1    0    0    0    0  0.00000000000E+00  0.00000000000E+00  0.10002521459E+04  0.10002521459E+04  0.51100000000E-03 0. -1.
          2   -1    0    0  501    0 -0.00000000000E+00 -0.00000000000E+00 -0.10732381872E+03  0.10732381875E+03  0.25500000000E-02 0. -1.
         11    1    1    2    0    0  0.22677783321E+03 -0.16119895624E+03  0.18475044213E+03  0.33398505205E+03  0.51100000000E-03 0. -1.
         22    1    1    2    0    0  0.73025458766E+01 -0.87261851450E+01  0.35766138529E+01  0.11927516511E+02  0.00000000000E+00 0. -1.
          2    1    1    2  501    0 -0.23408037909E+03  0.16992514139E+03  0.70460127116E+03  0.76166339604E+03  0.25500000000E-02 0. -1.
<mgrwt>
<rscale>  0 0.28925452E+03</rscale>
<asrwt>0</asrwt>
<pdfrwt beam="1">  1       11 0.10000000E+01 0.29015242E+03</pdfrwt>
<pdfrwt beam="2">  1        2 0.16515520E-01 0.28925452E+03</pdfrwt>
<totfact> 0.42948189E+02</totfact>
</mgrwt>
</event>
<event>
 5    1  0.2968854E-003  0.1247599E+03  0.7818608E-02  0.1235445E+00
         11   -1    0    0    0    0  0.00000000000E+00  0.00000000000E+00  0.99995426894E+03  0.99995426894E+03  0.51100000000E-03 0. -1.
         -2   -1    0    0    0  501 -0.00000000000E+00 -0.00000000000E+00 -0.34394226742E+02  0.34394226836E+02  0.25500000000E-02 0. -1.
         11    1    1    2    0    0  0.26519531708E+02  0.11211377281E+03  0.13650729454E+03  0.17862537636E+03  0.51100000000E-03 0. -1.
         22    1    1    2    0    0 -0.21643593576E+01  0.48618107133E+02  0.22274747885E+03  0.22800185115E+03  0.00000000000E+00 0.  1.
         -2    1    1    2    0  501 -0.24355172350E+02 -0.16073187994E+03  0.60630526881E+03  0.62772126827E+03  0.25500000000E-02 0. -1.
<mgrwt>
<rscale>  0 0.12475994E+03</rscale>
<asrwt>0</asrwt>
<pdfrwt beam="1">  1       11 0.10000000E+01 0.48666259E+02</pdfrwt>
<pdfrwt beam="2">  1       -2 0.52911774E-02 0.12475994E+03</pdfrwt>
<totfact> 0.13468877E+03</totfact>
</mgrwt>
</event>
<event>
 5    1  0.2968854E-003  0.3535543E+02  0.7818608E-02  0.1684903E+00
         11   -1    0    0    0    0  0.00000000000E+00  0.00000000000E+00  0.10001652770E+04  0.10001652770E+04  0.51100000000E-03 0.  1.
          2   -1    0    0  501    0 -0.00000000000E+00 -0.00000000000E+00 -0.31885271753E+01  0.31885281950E+01  0.25500000000E-02 0.  1.
         11    1    1    2    0    0 -0.19191560003E+02 -0.35111399076E+02  0.18872505620E+03  0.19292038036E+03  0.51100000000E-03 0.  1.
         22    1    1    2    0    0 -0.80435527429E+01  0.13254757639E+02  0.89434012710E+02  0.90768000805E+02  0.00000000000E+00 0. -1.
          2    1    1    2  501    0  0.27235112746E+02  0.21856641437E+02  0.71881768089E+03  0.71966542400E+03  0.25500000000E-02 0.  1.
<mgrwt>
<rscale>  0 0.23412935E+02</rscale>
<asrwt>0</asrwt>
<pdfrwt beam="1">  1       11 0.10000000E+01 0.35355433E+02</pdfrwt>
<pdfrwt beam="2">  1        2 0.49062378E-03 0.23412935E+02</pdfrwt>
<totfact> 0.30035521E+04</totfact>
</mgrwt>
</event>
<event>
 5    1  0.2968854E-003  0.4970772E+03  0.7818608E-02  0.1018470E+00
         11   -1    0    0    0    0  0.00000000000E+00  0.00000000000E+00  0.99984673292E+03  0.99984673292E+03  0.51100000000E-03 0. -1.
          2   -1    0    0  501    0 -0.00000000000E+00 -0.00000000000E+00 -0.40704997860E+03  0.40704997861E+03  0.25500000000E-02 0. -1.
         11    1    1    2    0    0 -0.15733076076E+03  0.33391670845E+03  0.52190333959E+03  0.63924676952E+03  0.51100000000E-03 0. -1.
         22    1    1    2    0    0  0.10079294618E+02  0.12548994258E+03  0.22786154650E+03  0.26032710624E+03  0.00000000000E+00 0.  1.
          2    1    1    2  501    0  0.14725146615E+03 -0.45940665103E+03 -0.15696813178E+03  0.50732283577E+03  0.25500000000E-02 0. -1.
<mgrwt>
<rscale>  0 0.48242872E+03</rscale>
<asrwt>0</asrwt>
<pdfrwt beam="1">  1       11 0.10000000E+01 0.49707723E+03</pdfrwt>
<pdfrwt beam="2">  1        2 0.62613474E-01 0.48242872E+03</pdfrwt>
<totfact> 0.96894925E+01</totfact>
</mgrwt>
</event>
<event>
 5    1  0.2968854E-003  0.1114653E+03  0.7818608E-02  0.1274964E+00
         11   -1    0    0    0    0  0.00000000000E+00  0.00000000000E+00  0.10002351371E+04  0.10002351371E+04  0.51100000000E-03 0. -1.
         -2   -1    0    0    0  501 -0.00000000000E+00 -0.00000000000E+00 -0.14339427210E+02  0.14339427437E+02  0.25500000000E-02 0.  1.
         11    1    1    2    0    0 -0.47587395752E+02 -0.53267737239E+02  0.20337905386E+03  0.21555753667E+03  0.51100000000E-03 0. -1.
         22    1    1    2    0    0 -0.38719344216E+02 -0.21727009890E+01  0.78394383522E+02  0.87461920936E+02  0.00000000000E+00 0.  1.
         -2    1    1    2    0  501  0.86306739969E+02  0.55440438228E+02  0.70412227253E+03  0.71155510695E+03  0.25500000000E-02 0.  1.
<mgrwt>
<rscale>  0 0.10257922E+03</rscale>
<asrwt>0</asrwt>
<pdfrwt beam="1">  1       11 0.10000000E+01 0.11146534E+03</pdfrwt>
<pdfrwt beam="2">  1       -2 0.22065844E-02 0.10257922E+03</pdfrwt>
<totfact> 0.47754927E+03</totfact>
</mgrwt>
</event>
<event>
 5    1  0.2968854E-003  0.2605352E+03  0.7818608E-02  0.1118004E+00
         11   -1    0    0    0    0  0.00000000000E+00  0.00000000000E+00  0.10000435157E+04  0.10000435157E+04  0.51100000000E-03 0. -1.
         -2   -1    0    0    0  501 -0.00000000000E+00 -0.00000000000E+00 -0.15254015666E+03  0.15254015668E+03  0.25500000000E-02 0.  1.
         11    1    1    2    0    0  0.15762276003E+03 -0.35029091330E+02  0.71630429732E+03  0.73427775268E+03  0.51100000000E-03 0. -1.
         22    1    1    2    0    0  0.80752064270E+02 -0.10613357409E+02  0.15432800152E+03  0.17450120714E+03  0.00000000000E+00 0.  1.
         -2    1    1    2    0  501 -0.23837482430E+03  0.45642448739E+02 -0.23128939830E+02  0.24380471253E+03  0.25500000000E-02 0.  1.
<mgrwt>
<rscale>  0 0.24270515E+03</rscale>
<asrwt>0</asrwt>
<pdfrwt beam="1">  1       11 0.10000000E+01 0.26053521E+03</pdfrwt>
<pdfrwt beam="2">  1       -2 0.23468737E-01 0.24270515E+03</pdfrwt>
<totfact> 0.12758868E+02</totfact>
</mgrwt>
</event>
<event>
 5    1  0.2968854E-003  0.8309792E+02  0.7818608E-02  0.1320483E+00
         11   -1    0    0    0    0  0.00000000000E+00  0.00000000000E+00  0.10001961121E+04  0.10001961121E+04  0.51100000000E-03 0. -1.
          2   -1    0    0  501    0 -0.00000000000E+00 -0.00000000000E+00 -0.90442079314E+01  0.90442082908E+01  0.25500000000E-02 0. -1.
         11    1    1    2    0    0  0.10312035278E+02 -0.71547977227E+00  0.14405414960E+02  0.17730368392E+02  0.51100000000E-03 0. -1.
         22    1    1    2    0    0 -0.19099086976E+02 -0.81442943111E+02  0.38205787191E+03  0.39110861099E+03  0.00000000000E+00 0. -1.
          2    1    1    2  501    0  0.87870516980E+01  0.82158422884E+02  0.59468861727E+03  0.60040134098E+03  0.25500000000E-02 0. -1.
<mgrwt>
<rscale>  0 0.83097918E+02</rscale>
<asrwt>0</asrwt>
<pdfrwt beam="1">  1       11 0.10000000E+01 0.10336832E+02</pdfrwt>
<pdfrwt beam="2">  1        2 0.13916895E-02 0.83097918E+02</pdfrwt>
<totfact> 0.95959646E+03</totfact>
</mgrwt>
</event>
<event>
 5    1  0.2968854E-003  0.9517111E+02  0.7818608E-02  0.1501066E+00
         11   -1    0    0    0    0  0.00000000000E+00  0.00000000000E+00  0.10002238456E+04  0.10002238456E+04  0.51100000000E-03 0.  1.
          2   -1    0    0  501    0 -0.00000000000E+00 -0.00000000000E+00 -0.11254418005E+02  0.11254418294E+02  0.25500000000E-02 0.  1.
         11    1    1    2    0    0  0.18278055246E+02 -0.95517847049E+02  0.45720568498E+03  0.46743425719E+03  0.51100000000E-03 0.  1.
         22    1    1    2    0    0 -0.17593125806E+02  0.14445340373E+01  0.46340639994E+02  0.49588906715E+02  0.00000000000E+00 0.  1.
          2    1    1    2  501    0 -0.68492943960E+00  0.94073313011E+02  0.48542310262E+03  0.49445510000E+03  0.25500000000E-02 0.  1.
<mgrwt>
<rscale>  0 0.40987693E+02</rscale>
<asrwt>0</asrwt>
<pdfrwt beam="1">  1       11 0.10000000E+01 0.95171110E+02</pdfrwt>
<pdfrwt beam="2">  1        2 0.17318365E-02 0.40987693E+02</pdfrwt>
<totfact> 0.64123398E+03</totfact>
</mgrwt>
</event>
<event>
 5    1  0.3544740E-003  0.2654186E+03  0.7818608E-02  0.1106114E+00
         11   -1    0    0    0    0  0.00000000000E+00  0.00000000000E+00  0.99991070460E+03  0.99991070460E+03  0.51100000000E-03 0. -1.
         -2   -1    0    0    0  501 -0.00000000000E+00 -0.00000000000E+00 -0.18870863788E+04  0.18870863788E+04  0.25500000000E-02 0.  1.
         11    1    1    2    0    0  0.23955543735E+03  0.50452476301E+02  0.93903021095E+03  0.97041743441E+03  0.51100000000E-03 0. -1.
         22    1    1    2    0    0  0.15715306474E+02  0.72895684342E+01  0.33943532602E+02  0.38108687606E+02  0.00000000000E+00 0. -1.
         -2    1    1    2    0  501 -0.25527074382E+03 -0.57742044735E+02 -0.18601494177E+04  0.18784709614E+04  0.25500000000E-02 0.  1.
<mgrwt>
<rscale>  0 0.26171988E+03</rscale>
<asrwt>0</asrwt>
<pdfrwt beam="1">  1       11 0.10000000E+01 0.26541860E+03</pdfrwt>
<pdfrwt beam="2">  1       -2 0.29029505E+00 0.26171988E+03</pdfrwt>
<totfact> 0.33988372E-01</totfact>
</mgrwt>
</event>
<event>
 5    1  0.2968854E-003  0.2859798E+02  0.7818608E-02  0.1742786E+00
         11   -1    0    0    0    0  0.00000000000E+00  0.00000000000E+00  0.10003968137E+04  0.10003968137E+04  0.51100000000E-03 0.  1.
          2   -1    0    0  501    0 -0.00000000000E+00 -0.00000000000E+00 -0.25158044331E+01  0.25158057255E+01  0.25500000000E-02 0.  1.
         11    1    1    2    0    0 -0.30209549541E+02  0.19279109325E+02  0.21574289787E+03  0.21869910590E+03  0.51100000000E-03 0.  1.
         22    1    1    2    0    0  0.31039557540E+01 -0.13822994475E+02  0.64261379961E+02  0.65804518630E+02  0.00000000000E+00 0.  1.
          2    1    1    2  501    0  0.27105593787E+02 -0.54561148499E+01  0.71787673142E+03  0.71840899488E+03  0.25500000000E-02 0.  1.
<mgrwt>
<rscale>  0 0.20128421E+02</rscale>
<asrwt>0</asrwt>
<pdfrwt beam="1">  1       11 0.10000000E+01 0.28597984E+02</pdfrwt>
<pdfrwt beam="2">  1        2 0.38720051E-03 0.20128421E+02</pdfrwt>
<totfact> 0.39285796E+04</totfact>
</mgrwt>
</event>
<event>
 5    1  0.2968854E-003  0.2708598E+03  0.7818608E-02  0.1103052E+00
         11   -1    0    0    0    0  0.00000000000E+00  0.00000000000E+00  0.10000774284E+04  0.10000774284E+04  0.51100000000E-03 0. -1.
          2   -1    0    0  501    0 -0.00000000000E+00 -0.00000000000E+00 -0.21019824093E+03  0.21019824094E+03  0.25500000000E-02 0. -1.
         11    1    1    2    0    0 -0.21308277877E+03 -0.12569151140E+03  0.79342017124E+03  0.83109457632E+03  0.51100000000E-03 0. -1.
         22    1    1    2    0    0 -0.22928725863E+02  0.10017476642E+01  0.92652034135E+02  0.95452236210E+02  0.00000000000E+00 0.  1.
          2    1    1    2  501    0  0.23601150463E+03  0.12468976374E+03 -0.96193017894E+02  0.28372885683E+03  0.25500000000E-02 0. -1.
<mgrwt>
<rscale>  0 0.26692502E+03</rscale>
<asrwt>0</asrwt>
<pdfrwt beam="1">  1       11 0.10000000E+01 0.27085982E+03</pdfrwt>
<pdfrwt beam="2">  1        2 0.32340694E-01 0.26692502E+03</pdfrwt>
<totfact> 0.19980687E+02</totfact>
</mgrwt>
</event>
<event>
 5    1  0.2968854E-003  0.3907528E+03  0.7818608E-02  0.1108528E+00
         11   -1    0    0    0    0  0.00000000000E+00  0.00000000000E+00  0.99990675968E+03  0.99990675968E+03  0.51100000000E-03 0. -1.
          2   -1    0    0  501    0 -0.00000000000E+00 -0.00000000000E+00 -0.37190659250E+03  0.37190659251E+03  0.25500000000E-02 0. -1.
         11    1    1    2    0    0 -0.12459269401E+03 -0.37800382714E+03  0.31085944357E+03  0.50501863964E+03  0.51100000000E-03 0. -1.
         22    1    1    2    0    0 -0.13103422137E+03  0.41068604652E+03 -0.32653985692E+02  0.43231849227E+03  0.00000000000E+00 0. -1.
          2    1    1    2  501    0  0.25562691538E+03 -0.32682219384E+02  0.34979470930E+03  0.43447622028E+03  0.25500000000E-02 0. -1.
<mgrwt>
<rscale>  0 0.25770768E+03</rscale>
<asrwt>0</asrwt>
<pdfrwt beam="1">  1       11 0.10000000E+01 0.39075278E+03</pdfrwt>
<pdfrwt beam="2">  1        2 0.57211062E-01 0.25770768E+03</pdfrwt>
<totfact> 0.10753066E+02</totfact>
</mgrwt>
</event>
<event>
 5    1  0.2968854E-003  0.2025087E+03  0.7818608E-02  0.1152372E+00
         11   -1    0    0    0    0  0.00000000000E+00  0.00000000000E+00  0.10001479365E+04  0.10001479365E+04  0.51100000000E-03 0.  1.
          2   -1    0    0  501    0 -0.00000000000E+00 -0.00000000000E+00 -0.40400285151E+02  0.40400285231E+02  0.25500000000E-02 0.  1.
         11    1    1    2    0    0  0.12726774786E+03  0.13722303776E+02  0.28847778195E+03  0.31560230029E+03  0.51100000000E-03 0.  1.
         22    1    1    2    0    0  0.69423350054E+02 -0.44195751992E+01  0.25717702215E+03  0.26641913388E+03  0.00000000000E+00 0.  1.
          2    1    1    2  501    0 -0.19669109792E+03 -0.93027285771E+01  0.41409284721E+03  0.45852678753E+03  0.25500000000E-02 0.  1.
<mgrwt>
<rscale>  0 0.19691097E+03</rscale>
<asrwt>0</asrwt>
<pdfrwt beam="1">  1       11 0.10000000E+01 0.20250873E+03</pdfrwt>
<pdfrwt beam="2">  1        2 0.62163478E-02 0.19691097E+03</pdfrwt>
<totfact> 0.14191752E+03</totfact>
</mgrwt>
</event>
<event>
 5    1  0.2968854E-003  0.4573785E+02  0.7818608E-02  0.1647387E+00
         11   -1    0    0    0    0  0.00000000000E+00  0.00000000000E+00  0.10007222972E+04  0.10007222972E+04  0.51100000000E-03 0. -1.
          2   -1    0    0  501    0 -0.00000000000E+00 -0.00000000000E+00 -0.43043704600E+01  0.43043712154E+01  0.25500000000E-02 0. -1.
         11    1    1    2    0    0  0.38766355977E+02  0.10609415062E+02  0.18126145394E+03  0.18566395646E+03  0.51100000000E-03 0. -1.
         22    1    1    2    0    0  0.21252477607E+01  0.14596978379E+02  0.38608632410E+02  0.41330557127E+02  0.00000000000E+00 0.  1.
          2    1    1    2  501    0 -0.40891603738E+02 -0.25206393441E+02  0.77654784044E+03  0.77803215487E+03  0.25500000000E-02 0. -1.
<mgrwt>
<rscale>  0 0.25974473E+02</rscale>
<asrwt>0</asrwt>
<pdfrwt beam="1">  1       11 0.10000000E+01 0.45737854E+02</pdfrwt>
<pdfrwt beam="2">  1        2 0.66268919E-03 0.25974473E+02</pdfrwt>
<totfact> 0.20762272E+04</totfact>
</mgrwt>
</event>
<event>
 5    1  0.2968854E-003  0.5096301E+03  0.7818608E-02  0.1303110E+00
         11   -1    0    0    0    0  0.00000000000E+00  0.00000000000E+00  0.10004091102E+04  0.10004091102E+04  0.51100000000E-03 0.  1.
          2   -1    0    0  501    0 -0.00000000000E+00 -0.00000000000E+00 -0.51394819463E+03  0.51394819463E+03  0.25500000000E-02 0.  1.
         11    1    1    2    0    0 -0.48362996381E+03 -0.15334987367E+03  0.75422101175E+03  0.90899035210E+03  0.51100000000E-03 0.  1.
         22    1    1    2    0    0 -0.12555304935E+02 -0.96843895989E+01  0.43599054466E+01  0.16444812538E+02  0.00000000000E+00 0.  1.
          2    1    1    2  501    0  0.49618526874E+03  0.16303426327E+03 -0.27212000163E+03  0.58892214019E+03  0.25500000000E-02 0.  1.
<mgrwt>
<rscale>  0 0.89893607E+02</rscale>
<asrwt>0</asrwt>
<pdfrwt beam="1">  1       11 0.10000000E+01 0.50963007E+03</pdfrwt>
<pdfrwt beam="2">  1        2 0.79101299E-01 0.89893607E+02</pdfrwt>
<totfact> 0.76484067E+01</totfact>
</mgrwt>
</event>
<event>
 5    1  0.2968854E-003  0.1546414E+03  0.7818608E-02  0.1341527E+00
         11   -1    0    0    0    0  0.00000000000E+00  0.00000000000E+00  0.10002401965E+04  0.10002401965E+04  0.51100000000E-03 0. -1.
          2   -1    0    0  501    0 -0.00000000000E+00 -0.00000000000E+00 -0.95247862376E+02  0.95247862410E+02  0.25500000000E-02 0. -1.
         11    1    1    2    0    0  0.13237022477E+03  0.11187239461E+03  0.66650401805E+03  0.68866894452E+03  0.51100000000E-03 0. -1.
         22    1    1    2    0    0 -0.13189391398E+03 -0.36111604994E+02  0.28626519832E+03  0.31725040004E+03  0.00000000000E+00 0. -1.
          2    1    1    2  501    0 -0.47631078976E+00 -0.75760789616E+02 -0.47776882205E+02  0.89568714376E+02  0.25500000000E-02 0. -1.
<mgrwt>
<rscale>  0 0.75762287E+02</rscale>
<asrwt>0</asrwt>
<pdfrwt beam="1">  1       11 0.10000000E+01 0.15464137E+03</pdfrwt>
<pdfrwt beam="2">  1        2 0.14657037E-01 0.75762287E+02</pdfrwt>
<totfact> 0.46761931E+02</totfact>
</mgrwt>
</event>
<event>
 5    1  0.2968854E-003  0.1312172E+03  0.7818608E-02  0.1231648E+00
         11   -1    0    0    0    0  0.00000000000E+00  0.00000000000E+00  0.99999805058E+03  0.99999805058E+03  0.51100000000E-03 0. -1.
          2   -1    0    0  501    0 -0.00000000000E+00 -0.00000000000E+00 -0.17005533535E+02  0.17005533726E+02  0.25500000000E-02 0. -1.
         11    1    1    2    0    0  0.53643227302E+02  0.36787335308E+02  0.22065463867E+03  0.23004211232E+03  0.51100000000E-03 0. -1.
         22    1    1    2    0    0  0.45978354196E+02  0.42327404157E+02  0.34682279465E+03  0.35240838396E+03  0.00000000000E+00 0. -1.
          2    1    1    2  501    0 -0.99621581499E+02 -0.79114739465E+02  0.41551508373E+03  0.43455308803E+03  0.25500000000E-02 0. -1.
<mgrwt>
<rscale>  0 0.12721478E+03</rscale>
<asrwt>0</asrwt>
<pdfrwt beam="1">  1       11 0.10000000E+01 0.13121716E+03</pdfrwt>
<pdfrwt beam="2">  1        2 0.26162308E-02 0.12721478E+03</pdfrwt>
<totfact> 0.43086862E+03</totfact>
</mgrwt>
</event>
<event>
 5    1  0.2968854E-003  0.1076110E+03  0.7818608E-02  0.1412299E+00
         11   -1    0    0    0    0  0.00000000000E+00  0.00000000000E+00  0.99991644176E+03  0.99991644176E+03  0.51100000000E-03 0.  1.
          2   -1    0    0  501    0 -0.00000000000E+00 -0.00000000000E+00 -0.35472916253E+02  0.35472916345E+02  0.25500000000E-02 0.  1.
         11    1    1    2    0    0 -0.94776588118E+02 -0.72203890931E+02  0.71997132576E+03  0.72976346404E+03  0.51100000000E-03 0.  1.
         22    1    1    2    0    0  0.92257354415E+02  0.15575835564E+02  0.22822547562E+03  0.24665946935E+03  0.00000000000E+00 0.  1.
          2    1    1    2  501    0  0.25192337036E+01  0.56628055368E+02  0.16246724125E+02  0.58966424722E+02  0.25500000000E-02 0.  1.
<mgrwt>
<rscale>  0 0.56684065E+02</rscale>
<asrwt>0</asrwt>
<pdfrwt beam="1">  1       11 0.10000000E+01 0.10761098E+03</pdfrwt>
<pdfrwt beam="2">  1        2 0.54569156E-02 0.56684065E+02</pdfrwt>
<totfact> 0.15138320E+03</totfact>
</mgrwt>
</event>
<event>
 5    1  0.2968854E-003  0.1948249E+03  0.7818608E-02  0.1158399E+00
         11   -1    0    0    0    0  0.00000000000E+00  0.00000000000E+00  0.10003241311E+04  0.10003241311E+04  0.51100000000E-03 0. -1.
         -2   -1    0    0    0  501 -0.00000000000E+00 -0.00000000000E+00 -0.10112450097E+03  0.10112450100E+03  0.25500000000E-02 0.  1.
         11    1    1    2    0    0  0.13360720479E+02 -0.13129506459E+03  0.60098530935E+03  0.61530500152E+03  0.51100000000E-03 0. -1.
         22    1    1    2    0    0  0.34207376126E+02 -0.52725198010E+02  0.28910377319E+03  0.29585652394E+03  0.00000000000E+00 0. -1.
         -2    1    1    2    0  501 -0.47568096605E+02  0.18402026260E+03  0.91105475590E+01  0.19028710662E+03  0.25500000000E-02 0.  1.
<mgrwt>
<rscale>  0 0.19006888E+03</rscale>
<asrwt>0</asrwt>
<pdfrwt beam="1">  1       11 0.10000000E+01 0.19482492E+03</pdfrwt>
<pdfrwt beam="2">  1       -2 0.15562658E-01 0.19006888E+03</pdfrwt>
<totfact> 0.25464078E+02</totfact>
</mgrwt>
</event>
<event>
 5    1  0.2968854E-003  0.3922071E+02  0.7818608E-02  0.1600200E+00
         11   -1    0    0    0    0  0.00000000000E+00  0.00000000000E+00  0.10002667302E+04  0.10002667302E+04  0.51100000000E-03 0.  1.
          2   -1    0    0  501    0 -0.00000000000E+00 -0.00000000000E+00 -0.10329435412E+02  0.10329435727E+02  0.25500000000E-02 0.  1.
         11    1    1    2    0    0  0.18399905652E+02  0.39802864251E+02  0.58303579441E+02  0.72952943096E+02  0.51100000000E-03 0.  1.
         22    1    1    2    0    0 -0.36946129569E+02 -0.16464853036E+02  0.14757230022E+03  0.15301533148E+03  0.00000000000E+00 0. -1.
          2    1    1    2  501    0  0.18546223916E+02 -0.23338011214E+02  0.78406141513E+03  0.78462789135E+03  0.25500000000E-02 0.  1.
<mgrwt>
<rscale>  0 0.29809817E+02</rscale>
<asrwt>0</asrwt>
<pdfrwt beam="1">  1       11 0.10000000E+01 0.39220712E+02</pdfrwt>
<pdfrwt beam="2">  1        2 0.15895678E-02 0.29809817E+02</pdfrwt>
<totfact> 0.67857379E+03</totfact>
</mgrwt>
</event>
<event>
 5    1  0.2968854E-003  0.4381458E+03  0.7818608E-02  0.1031950E+00
         11   -1    0    0    0    0  0.00000000000E+00  0.00000000000E+00  0.99997731858E+03  0.99997731858E+03  0.51100000000E-03 0.  1.
         -2   -1    0    0    0  501 -0.00000000000E+00 -0.00000000000E+00 -0.24893762391E+03  0.24893762392E+03  0.25500000000E-02 0. -1.
         11    1    1    2    0    0 -0.18346757029E+03  0.38517165341E+03  0.65107383914E+03  0.77840522606E+03  0.51100000000E-03 0.  1.
         22    1    1    2    0    0 -0.82882417331E+01  0.65075509486E+01  0.26167960557E+02  0.28210021803E+02  0.00000000000E+00 0. -1.
         -2    1    1    2    0  501  0.19175581202E+03 -0.39167920436E+03  0.73797894978E+02  0.44229969465E+03  0.25500000000E-02 0. -1.
<mgrwt>
<rscale>  0 0.43609963E+03</rscale>
<asrwt>0</asrwt>
<pdfrwt beam="1">  1       11 0.10000000E+01 0.43814576E+03</pdfrwt>
<pdfrwt beam="2">  1       -2 0.38297226E-01 0.43609963E+03</pdfrwt>
<totfact> 0.52374435E+01</totfact>
</mgrwt>
</event>
<event>
 5    1  0.2968854E-003  0.3146633E+02  0.7818608E-02  0.1773304E+00
         11   -1    0    0    0    0  0.00000000000E+00  0.00000000000E+00  0.10002207415E+04  0.10002207415E+04  0.51100000000E-03 0. -1.
          2   -1    0    0  501    0 -0.00000000000E+00 -0.00000000000E+00 -0.42432778082E+01  0.42432785744E+01  0.25500000000E-02 0. -1.
         11    1    1    2    0    0 -0.37885218307E+02  0.30509121207E+01  0.11333234408E+03  0.11953584419E+03  0.51100000000E-03 0. -1.
         22    1    1    2    0    0  0.73608296488E+01 -0.82669868112E+01  0.34806088381E+02  0.36523809665E+02  0.00000000000E+00 0.  1.
          2    1    1    2  501    0  0.30524388658E+02  0.52160746905E+01  0.84783903119E+03  0.84840436618E+03  0.25500000000E-02 0. -1.
<mgrwt>
<rscale>  0 0.18662895E+02</rscale>
<asrwt>0</asrwt>
<pdfrwt beam="1">  1       11 0.10000000E+01 0.31466330E+02</pdfrwt>
<pdfrwt beam="2">  1        2 0.65295611E-03 0.18662895E+02</pdfrwt>
<totfact> 0.19475905E+04</totfact>
</mgrwt>
</event>
<event>
 5    1  0.2968854E-003  0.1311319E+03  0.7818608E-02  0.1366926E+00
         11   -1    0    0    0    0  0.00000000000E+00  0.00000000000E+00  0.10001165309E+04  0.10001165309E+04  0.51100000000E-03 0. -1.
          2   -1    0    0  501    0 -0.00000000000E+00 -0.00000000000E+00 -0.40442262622E+02  0.40442262702E+02  0.25500000000E-02 0. -1.
         11    1    1    2    0    0 -0.54692314797E+02 -0.12145110334E+03  0.79345315672E+03  0.80455548703E+03  0.51100000000E-03 0. -1.
         22    1    1    2    0    0 -0.23652613312E+02  0.26193695528E+02  0.74053135394E+02  0.82033058358E+02  0.00000000000E+00 0. -1.
          2    1    1    2  501    0  0.78344928109E+02  0.95257407807E+02  0.92167976194E+02  0.15397024825E+03  0.25500000000E-02 0. -1.
<mgrwt>
<rscale>  0 0.68029149E+02</rscale>
<asrwt>0</asrwt>
<pdfrwt beam="1">  1       11 0.10000000E+01 0.13113194E+03</pdfrwt>
<pdfrwt beam="2">  1        2 0.62226114E-02 0.68029149E+02</pdfrwt>
<totfact> 0.13053807E+03</totfact>
</mgrwt>
</event>
<event>
 5    1  0.2968854E-003  0.1360205E+03  0.7818608E-02  0.1218786E+00
         11   -1    0    0    0    0  0.00000000000E+00  0.00000000000E+00  0.10005708136E+04  0.10005708136E+04  0.51100000000E-03 0.  1.
         -2   -1    0    0    0  501 -0.00000000000E+00 -0.00000000000E+00 -0.70487761533E+02  0.70487761579E+02  0.25500000000E-02 0. -1.
         11    1    1    2    0    0 -0.59710576810E+01 -0.11030647262E+02  0.52699390804E+02  0.54171528502E+02  0.51100000000E-03 0.  1.
         22    1    1    2    0    0  0.22996724355E+02  0.14508731253E+03  0.86917852662E+03  0.88150467312E+03  0.00000000000E+00 0.  1.
         -2    1    1    2    0  501 -0.17025666675E+02 -0.13405666527E+03  0.82051346379E+01  0.13538237356E+03  0.25500000000E-02 0. -1.
<mgrwt>
<rscale>  0 0.13602046E+03</rscale>
<asrwt>0</asrwt>
<pdfrwt beam="1">  1       11 0.10000000E+01 0.12543074E+02</pdfrwt>
<pdfrwt beam="2">  1       -2 0.10850461E-01 0.13602046E+03</pdfrwt>
<totfact> 0.44886455E+02</totfact>
</mgrwt>
</event>
<event>
 5    1  0.2968854E-003  0.2280484E+03  0.7818608E-02  0.1460942E+00
         11   -1    0    0    0    0  0.00000000000E+00  0.00000000000E+00  0.10001230636E+04  0.10001230636E+04  0.51100000000E-03 0. -1.
          2   -1    0    0  501    0 -0.00000000000E+00 -0.00000000000E+00 -0.27561340337E+03  0.27561340338E+03  0.25500000000E-02 0.  1.
         11    1    1    2    0    0  0.19075014146E+03  0.11223364075E+03  0.55192296483E+03  0.59464356188E+03  0.51100000000E-03 0. -1.
         22    1    1    2    0    0 -0.18187943898E+03 -0.15861260064E+03  0.38999157126E+03  0.45861913726E+03  0.00000000000E+00 0. -1.
          2    1    1    2  501    0 -0.88707024780E+01  0.46378959886E+02 -0.21740487591E+03  0.22247376780E+03  0.25500000000E-02 0.  1.
<mgrwt>
<rscale>  0 0.47219671E+02</rscale>
<asrwt>0</asrwt>
<pdfrwt beam="1">  1       11 0.10000000E+01 0.22804837E+03</pdfrwt>
<pdfrwt beam="2">  1        2 0.42407279E-01 0.47219671E+02</pdfrwt>
<totfact> 0.14637740E+02</totfact>
</mgrwt>
</event>
<event>
 5    1  0.2968854E-003  0.4671578E+03  0.7818608E-02  0.1023473E+00
         11   -1    0    0    0    0  0.00000000000E+00  0.00000000000E+00  0.10001301151E+04  0.10001301151E+04  0.51100000000E-03 0.  1.
          2   -1    0    0  501    0 -0.00000000000E+00 -0.00000000000E+00 -0.52017060022E+03  0.52017060023E+03  0.25500000000E-02 0.  1.
         11    1    1    2    0    0  0.43909801946E+03 -0.53483406804E+02  0.78287477478E+03  0.89919989907E+03  0.51100000000E-03 0.  1.
         22    1    1    2    0    0  0.20579494067E+02 -0.13542500352E+02  0.37722174299E+02  0.45054159915E+02  0.00000000000E+00 0.  1.
          2    1    1    2  501    0 -0.45967751352E+03  0.67025907156E+02 -0.34063743422E+03  0.57604665633E+03  0.25500000000E-02 0.  1.
<mgrwt>
<rscale>  0 0.46453836E+03</rscale>
<asrwt>0</asrwt>
<pdfrwt beam="1">  1       11 0.10000000E+01 0.46715776E+03</pdfrwt>
<pdfrwt beam="2">  1        2 0.80036657E-01 0.46453836E+03</pdfrwt>
<totfact> 0.73425584E+01</totfact>
</mgrwt>
</event>
<event>
 5    1  0.2968854E-003  0.1747530E+03  0.7818608E-02  0.1179224E+00
         11   -1    0    0    0    0  0.00000000000E+00  0.00000000000E+00  0.10001567517E+04  0.10001567517E+04  0.51100000000E-03 0. -1.
          2   -1    0    0  501    0 -0.00000000000E+00 -0.00000000000E+00 -0.13140391711E+03  0.13140391713E+03  0.25500000000E-02 0. -1.
         11    1    1    2    0    0  0.85686408102E+02  0.72493017264E+02  0.67417169560E+03  0.68345071017E+03  0.51100000000E-03 0. -1.
         22    1    1    2    0    0  0.24519398938E+02  0.55218136838E+02  0.26019021499E+03  0.26711269445E+03  0.00000000000E+00 0.  1.
          2    1    1    2  501    0 -0.11020580704E+03 -0.12771115410E+03 -0.65609076005E+02  0.18099726420E+03  0.25500000000E-02 0. -1.
<mgrwt>
<rscale>  0 0.16868746E+03</rscale>
<asrwt>0</asrwt>
<pdfrwt beam="1">  1       11 0.10000000E+01 0.17475299E+03</pdfrwt>
<pdfrwt beam="2">  1        2 0.20219156E-01 0.16868746E+03</pdfrwt>
<totfact> 0.33412873E+02</totfact>
</mgrwt>
</event>
<event>
 5    1  0.2968854E-003  0.1954830E+03  0.7818608E-02  0.1274062E+00
         11   -1    0    0    0    0  0.00000000000E+00  0.00000000000E+00  0.99995361033E+03  0.99995361033E+03  0.51100000000E-03 0. -1.
          2   -1    0    0  501    0 -0.00000000000E+00 -0.00000000000E+00 -0.55722525406E+02  0.55722525464E+02  0.25500000000E-02 0. -1.
         11    1    1    2    0    0  0.17920437416E+03  0.31347603349E+02  0.47964273009E+03  0.51298540767E+03  0.51100000000E-03 0. -1.
         22    1    1    2    0    0  0.26559792618E+02  0.47356877486E+02  0.53128020091E+02  0.75965011340E+02  0.00000000000E+00 0.  1.
          2    1    1    2  501    0 -0.20576416678E+03 -0.78704480835E+02  0.41146033474E+03  0.46672571678E+03  0.25500000000E-02 0. -1.
<mgrwt>
<rscale>  0 0.10302435E+03</rscale>
<asrwt>0</asrwt>
<pdfrwt beam="1">  1       11 0.10000000E+01 0.19548299E+03</pdfrwt>
<pdfrwt beam="2">  1        2 0.85722983E-02 0.10302435E+03</pdfrwt>
<totfact> 0.90410369E+02</totfact>
</mgrwt>
</event>
<event>
 5    1  0.2968854E-003  0.1234783E+03  0.7818608E-02  0.1237467E+00
         11   -1    0    0    0    0  0.00000000000E+00  0.00000000000E+00  0.10002890795E+04  0.10002890795E+04  0.51100000000E-03 0. -1.
          2   -1    0    0  501    0 -0.00000000000E+00 -0.00000000000E+00 -0.22727078129E+03  0.22727078130E+03  0.25500000000E-02 0. -1.
         11    1    1    2    0    0  0.77290568080E+02  0.57499860788E+02  0.86875414409E+02  0.12972048232E+03  0.51100000000E-03 0. -1.
         22    1    1    2    0    0 -0.17944884785E+03  0.10582496192E+02  0.86356966865E+03  0.88208075074E+03  0.00000000000E+00 0. -1.
          2    1    1    2  501    0  0.10215827977E+03 -0.68082356980E+02 -0.17742678484E+03  0.21575862774E+03  0.25500000000E-02 0. -1.
<mgrwt>
<rscale>  0 0.12347832E+03</rscale>
<asrwt>0</asrwt>
<pdfrwt beam="1">  1       11 0.10000000E+01 0.96333099E+02</pdfrwt>
<pdfrwt beam="2">  1        2 0.34974842E-01 0.12347832E+03</pdfrwt>
<totfact> 0.18165187E+02</totfact>
</mgrwt>
</event>
<event>
 5    1  0.2968854E-003  0.2123719E+03  0.7818608E-02  0.1141554E+00
         11   -1    0    0    0    0  0.00000000000E+00  0.00000000000E+00  0.99977813281E+03  0.99977813281E+03  0.51100000000E-03 0. -1.
         -2   -1    0    0    0  501 -0.00000000000E+00 -0.00000000000E+00 -0.45100282109E+02  0.45100282181E+02  0.25500000000E-02 0.  1.
         11    1    1    2    0    0  0.18022961855E+03 -0.63626838446E+02  0.45696822011E+03  0.49532922806E+03  0.51100000000E-03 0. -1.
         22    1    1    2    0    0  0.18506252206E+02 -0.42721480764E+01  0.77335765089E+02  0.79633869564E+02  0.00000000000E+00 0. -1.
         -2    1    1    2    0  501 -0.19873587076E+03  0.67898986523E+02  0.42037386549E+03  0.46991531736E+03  0.25500000000E-02 0.  1.
<mgrwt>
<rscale>  0 0.21001481E+03</rscale>
<asrwt>0</asrwt>
<pdfrwt beam="1">  1       11 0.10000000E+01 0.21237188E+03</pdfrwt>
<pdfrwt beam="2">  1       -2 0.69369653E-02 0.21001481E+03</pdfrwt>
<totfact> 0.92772338E+02</totfact>
</mgrwt>
</event>
<event>
 5    1  0.2968854E-003  0.9848692E+02  0.7818608E-02  0.1295850E+00
         11   -1    0    0    0    0  0.00000000000E+00  0.00000000000E+00  0.10002778621E+04  0.10002778621E+04  0.51100000000E-03 0. -1.
         -2   -1    0    0    0  501 -0.00000000000E+00 -0.00000000000E+00 -0.98702883894E+01  0.98702887188E+01  0.25500000000E-02 0. -1.
         11    1    1    2    0    0  0.24030657297E+02 -0.58713424940E+02  0.30698050091E+03  0.31346732955E+03  0.51100000000E-03 0. -1.
         22    1    1    2    0    0  0.11737657100E+02 -0.27084357888E+02  0.66061184146E+02  0.72356168273E+02  0.00000000000E+00 0.  1.
         -2    1    1    2    0  501 -0.35768314397E+02  0.85797782828E+02  0.61736588867E+03  0.62432465301E+03  0.25500000000E-02 0. -1.
<mgrwt>
<rscale>  0 0.92954999E+02</rscale>
<asrwt>0</asrwt>
<pdfrwt beam="1">  1       11 0.10000000E+01 0.98486916E+02</pdfrwt>
<pdfrwt beam="2">  1       -2 0.15189278E-02 0.92954999E+02</pdfrwt>
<totfact> 0.80566254E+03</totfact>
</mgrwt>
</event>
<event>
 5    1  0.2968854E-003  0.1248414E+03  0.7818608E-02  0.1235317E+00
         11   -1    0    0    0    0  0.00000000000E+00  0.00000000000E+00  0.10002404202E+04  0.10002404202E+04  0.51100000000E-03 0. -1.
          2   -1    0    0  501    0 -0.00000000000E+00 -0.00000000000E+00 -0.21991664261E+02  0.21991664409E+02  0.25500000000E-02 0. -1.
         11    1    1    2    0    0 -0.11093801922E+02 -0.16146272516E+02  0.27807721309E+02  0.34015348328E+02  0.51100000000E-03 0. -1.
         22    1    1    2    0    0  0.11176059010E+03 -0.57759876778E+02  0.66282708459E+03  0.67466019367E+03  0.00000000000E+00 0. -1.
          2    1    1    2  501    0 -0.10066678818E+03  0.73906149294E+02  0.28761395003E+03  0.31355654260E+03  0.25500000000E-02 0. -1.
<mgrwt>
<rscale>  0 0.12484137E+03</rscale>
<asrwt>0</asrwt>
<pdfrwt beam="1">  1       11 0.10000000E+01 0.19590175E+02</pdfrwt>
<pdfrwt beam="2">  1        2 0.33841463E-02 0.12484137E+03</pdfrwt>
<totfact> 0.30446886E+03</totfact>
</mgrwt>
</event>
<event>
 5    1  0.2968854E-003  0.6198728E+02  0.7818608E-02  0.1437887E+00
         11   -1    0    0    0    0  0.00000000000E+00  0.00000000000E+00  0.99998436804E+03  0.99998436804E+03  0.51100000000E-03 0. -1.
          2   -1    0    0  501    0 -0.00000000000E+00 -0.00000000000E+00 -0.78116080825E+01  0.78116084987E+01  0.25500000000E-02 0. -1.
         11    1    1    2    0    0  0.48158666794E+02 -0.61439824145E+02  0.45967879353E+03  0.46626033758E+03  0.51100000000E-03 0. -1.
         22    1    1    2    0    0 -0.42111479900E+02  0.66656249652E+01  0.19863384170E+03  0.20315809205E+03  0.00000000000E+00 0. -1.
          2    1    1    2  501    0 -0.60471868946E+01  0.54774199180E+02  0.33386012473E+03  0.33837754691E+03  0.25500000000E-02 0. -1.
<mgrwt>
<rscale>  0 0.51408880E+02</rscale>
<asrwt>0</asrwt>
<pdfrwt beam="1">  1       11 0.10000000E+01 0.61987281E+02</pdfrwt>
<pdfrwt beam="2">  1        2 0.12017671E-02 0.51408880E+02</pdfrwt>
<totfact> 0.10830026E+04</totfact>
</mgrwt>
</event>
<event>
 5    1  0.2968854E-003  0.1892403E+03  0.7818608E-02  0.1162071E+00
         11   -1    0    0    0    0  0.00000000000E+00  0.00000000000E+00  0.10002748290E+04  0.10002748290E+04  0.51100000000E-03 0.  1.
         -2   -1    0    0    0  501 -0.00000000000E+00 -0.00000000000E+00 -0.13918820501E+03  0.13918820503E+03  0.25500000000E-02 0. -1.
         11    1    1    2    0    0  0.14853332009E+03 -0.80908205918E+02  0.81212252851E+03  0.82954884502E+03  0.51100000000E-03 0.  1.
         22    1    1    2    0    0  0.19814570883E+02  0.16973080901E+01  0.11178672979E+03  0.11354193512E+03  0.00000000000E+00 0. -1.
         -2    1    1    2    0  501 -0.16834789097E+03  0.79210897828E+02 -0.62822634277E+02  0.19637225393E+03  0.25500000000E-02 0. -1.
<mgrwt>
<rscale>  0 0.18605209E+03</rscale>
<asrwt>0</asrwt>
<pdfrwt beam="1">  1       11 0.10000000E+01 0.18924033E+03</pdfrwt>
<pdfrwt beam="2">  1       -2 0.21419454E-01 0.18605209E+03</pdfrwt>
<totfact> 0.14854158E+02</totfact>
</mgrwt>
</event>
<event>
 5    1  0.2968854E-003  0.1384489E+03  0.7818608E-02  0.1218153E+00
         11   -1    0    0    0    0  0.00000000000E+00  0.00000000000E+00  0.10005477949E+04  0.10005477949E+04  0.51100000000E-03 0.  1.
          2   -1    0    0  501    0 -0.00000000000E+00 -0.00000000000E+00 -0.18886358979E+02  0.18886359151E+02  0.25500000000E-02 0.  1.
         11    1    1    2    0    0 -0.11041373984E+02  0.12372934386E+02  0.53364424278E+02  0.55881689519E+02  0.51100000000E-03 0.  1.
         22    1    1    2    0    0 -0.11508290815E+03  0.39760648118E+02  0.44470209220E+03  0.46106933936E+03  0.00000000000E+00 0.  1.
          2    1    1    2  501    0  0.12612428213E+03 -0.52133582504E+02  0.48359491945E+03  0.50248312518E+03  0.25500000000E-02 0.  1.
<mgrwt>
<rscale>  0 0.13647434E+03</rscale>
<asrwt>0</asrwt>
<pdfrwt beam="1">  1       11 0.10000000E+01 0.13844895E+03</pdfrwt>
<pdfrwt beam="2">  1        2 0.29071853E-02 0.13647434E+03</pdfrwt>
<totfact> 0.37658113E+03</totfact>
</mgrwt>
</event>
<event>
 5    1  0.2968854E-003  0.2179225E+03  0.7818608E-02  0.1258294E+00
         11   -1    0    0    0    0  0.00000000000E+00  0.00000000000E+00  0.10005870255E+04  0.10005870255E+04  0.51100000000E-03 0.  1.
          2   -1    0    0  501    0 -0.00000000000E+00 -0.00000000000E+00 -0.25329043196E+03  0.25329043197E+03  0.25500000000E-02 0.  1.
         11    1    1    2    0    0  0.17703833948E+03 -0.12624348250E+03  0.87270484972E+03  0.89938520404E+03  0.51100000000E-03 0.  1.
         22    1    1    2    0    0 -0.25920220690E+02 -0.50520143167E+02  0.39701690629E+02  0.69284680450E+02  0.00000000000E+00 0. -1.
          2    1    1    2  501    0 -0.15111811879E+03  0.17676362566E+03 -0.16510994676E+03  0.28520757302E+03  0.25500000000E-02 0.  1.
<mgrwt>
<rscale>  0 0.11123836E+03</rscale>
<asrwt>0</asrwt>
<pdfrwt beam="1">  1       11 0.10000000E+01 0.21792248E+03</pdfrwt>
<pdfrwt beam="2">  1        2 0.38990633E-01 0.11123836E+03</pdfrwt>
<totfact> 0.16160865E+02</totfact>
</mgrwt>
</event>
<event>
 5    1  0.2968854E-003  0.1554291E+03  0.7818608E-02  0.1193956E+00
         11   -1    0    0    0    0  0.00000000000E+00  0.00000000000E+00  0.99991094015E+03  0.99991094015E+03  0.51100000000E-03 0.  1.
          2   -1    0    0  501    0 -0.00000000000E+00 -0.00000000000E+00 -0.52503240673E+02  0.52503240735E+02  0.25500000000E-02 0. -1.
         11    1    1    2    0    0  0.14907616131E+03  0.21198603579E+02  0.81420779163E+03  0.82801413672E+03  0.51100000000E-03 0.  1.
         22    1    1    2    0    0  0.24669888051E+01  0.17424657679E+02  0.36525622547E+02  0.40544122033E+02  0.00000000000E+00 0.  1.
          2    1    1    2  501    0 -0.15154315012E+03 -0.38623261258E+02  0.96674285306E+02  0.18385592213E+03  0.25500000000E-02 0. -1.
<mgrwt>
<rscale>  0 0.15542909E+03</rscale>
<asrwt>0</asrwt>
<pdfrwt beam="1">  1       11 0.10000000E+01 0.17598430E+02</pdfrwt>
<pdfrwt beam="2">  1        2 0.80767020E-02 0.15542909E+03</pdfrwt>
<totfact> 0.10000213E+03</totfact>
</mgrwt>
</event>
<event>
 5    1  0.2968854E-003  0.2263258E+03  0.7818608E-02  0.1131775E+00
         11   -1    0    0    0    0  0.00000000000E+00  0.00000000000E+00  0.10000562744E+04  0.10000562744E+04  0.51100000000E-03 0.  1.
          2   -1    0    0  501    0 -0.00000000000E+00 -0.00000000000E+00 -0.45065372507E+03  0.45065372508E+03  0.25500000000E-02 0.  1.
         11    1    1    2    0    0 -0.10908503457E+03  0.16664058876E+03  0.87876165269E+03  0.90104976157E+03  0.51100000000E-03 0.  1.
         22    1    1    2    0    0 -0.37663308096E+01  0.25523471190E+02  0.79735305911E+02  0.83805440385E+02  0.00000000000E+00 0. -1.
          2    1    1    2  501    0  0.11285136538E+03 -0.19216405995E+03 -0.40909440931E+03  0.46585479748E+03  0.25500000000E-02 0.  1.
<mgrwt>
<rscale>  0 0.22285075E+03</rscale>
<asrwt>0</asrwt>
<pdfrwt beam="1">  1       11 0.10000000E+01 0.22632576E+03</pdfrwt>
<pdfrwt beam="2">  1        2 0.69335242E-01 0.22285075E+03</pdfrwt>
<totfact> 0.87272739E+01</totfact>
</mgrwt>
</event>
<event>
 5    1  0.2968854E-003  0.1211017E+03  0.7818608E-02  0.1259877E+00
         11   -1    0    0    0    0  0.00000000000E+00  0.00000000000E+00  0.99990829161E+03  0.99990829161E+03  0.51100000000E-03 0.  1.
          2   -1    0    0  501    0 -0.00000000000E+00 -0.00000000000E+00 -0.13458463996E+02  0.13458464237E+02  0.25500000000E-02 0.  1.
         11    1    1    2    0    0  0.56725005432E+02  0.29768743158E+02  0.23256013625E+03  0.24122214095E+03  0.51100000000E-03 0.  1.
         22    1    1    2    0    0  0.53143329471E+02 -0.19204779237E+02  0.24909840960E+03  0.25542720035E+03  0.00000000000E+00 0. -1.
          2    1    1    2  501    0 -0.10986833490E+03 -0.10563963922E+02  0.50479128176E+03  0.51671741455E+03  0.25500000000E-02 0.  1.
<mgrwt>
<rscale>  0 0.11037504E+03</rscale>
<asrwt>0</asrwt>
<pdfrwt beam="1">  1       11 0.10000000E+01 0.12110167E+03</pdfrwt>
<pdfrwt beam="2">  1        2 0.20703430E-02 0.11037504E+03</pdfrwt>
<totfact> 0.58169493E+03</totfact>
</mgrwt>
</event>
<event>
 5    1  0.2968854E-003  0.3754016E+02  0.7818608E-02  0.1551744E+00
         11   -1    0    0    0    0  0.00000000000E+00  0.00000000000E+00  0.10000134364E+04  0.10000134364E+04  0.51100000000E-03 0. -1.
          2   -1    0    0  501    0 -0.00000000000E+00 -0.00000000000E+00 -0.14170284484E+02  0.14170284714E+02  0.25500000000E-02 0. -1.
         11    1    1    2    0    0  0.15651596457E+02  0.26661065564E+01 -0.43657564595E+00  0.15883047389E+02  0.51100000000E-03 0. -1.
         22    1    1    2    0    0  0.15161748772E+02  0.13178760028E+02  0.11989585602E+02  0.23394625550E+02  0.00000000000E+00 0.  1.
          2    1    1    2  501    0 -0.30813345229E+02 -0.15844866585E+02  0.97429014200E+03  0.97490604822E+03  0.25500000000E-02 0. -1.
<mgrwt>
<rscale>  0 0.34648550E+02</rscale>
<asrwt>0</asrwt>
<pdfrwt beam="1">  1       11 0.10000000E+01 0.37540159E+02</pdfrwt>
<pdfrwt beam="2">  1        2 0.21800730E-02 0.34648550E+02</pdfrwt>
<totfact> 0.46161255E+03</totfact>
</mgrwt>
</event>
<event>
 5    1  0.2968854E-003  0.4276055E+02  0.7818608E-02  0.1494728E+00
         11   -1    0    0    0    0  0.00000000000E+00  0.00000000000E+00  0.10003946306E+04  0.10003946306E+04  0.51100000000E-03 0. -1.
          2   -1    0    0  501    0 -0.00000000000E+00 -0.00000000000E+00 -0.30290339012E+01  0.30290349746E+01  0.25500000000E-02 0. -1.
         11    1    1    2    0    0 -0.18578803931E+02 -0.14649991351E+02  0.10331034660E+03  0.10598500798E+03  0.51100000000E-03 0. -1.
         22    1    1    2    0    0 -0.91924318289E+01 -0.16714830928E+02  0.77632251190E+02  0.79941558658E+02  0.00000000000E+00 0.  1.
          2    1    1    2  501    0  0.27771235760E+02  0.31364822279E+02  0.81642299890E+03  0.81749709893E+03  0.25500000000E-02 0. -1.
<mgrwt>
<rscale>  0 0.41892644E+02</rscale>
<asrwt>0</asrwt>
<pdfrwt beam="1">  1       11 0.10000000E+01 0.42760548E+02</pdfrwt>
<pdfrwt beam="2">  1        2 0.46618918E-03 0.41892644E+02</pdfrwt>
<totfact> 0.37088979E+04</totfact>
</mgrwt>
</event>
<event>
 5    1  0.2968854E-003  0.4724963E+03  0.7818608E-02  0.1028870E+00
         11   -1    0    0    0    0  0.00000000000E+00  0.00000000000E+00  0.10006314176E+04  0.10006314176E+04  0.51100000000E-03 0. -1.
          2   -1    0    0  501    0 -0.00000000000E+00 -0.00000000000E+00 -0.10113957179E+04  0.10113957179E+04  0.25500000000E-02 0. -1.
         11    1    1    2    0    0 -0.25236329855E+03  0.15685225910E+03  0.41979369408E+03  0.51431178407E+03  0.51100000000E-03 0. -1.
         22    1    1    2    0    0 -0.11975521100E+03  0.89311820070E+02  0.46974033424E+03  0.49292382107E+03  0.00000000000E+00 0. -1.
          2    1    1    2  501    0  0.37211850955E+03 -0.24616407917E+03 -0.90029832865E+03  0.10047915304E+04  0.25500000000E-02 0. -1.
<mgrwt>
<rscale>  0 0.44617142E+03</rscale>
<asrwt>0</asrwt>
<pdfrwt beam="1">  1       11 0.10000000E+01 0.47249632E+03</pdfrwt>
<pdfrwt beam="2">  1        2 0.15569758E+00 0.44617142E+03</pdfrwt>
<totfact> 0.31531534E+01</totfact>
</mgrwt>
</event>
<event>
 5    1  0.2968854E-003  0.4387937E+02  0.7818608E-02  0.1698065E+00
         11   -1    0    0    0    0  0.00000000000E+00  0.00000000000E+00  0.10002495613E+04  0.10002495613E+04  0.51100000000E-03 0.  1.
          2   -1    0    0  501    0 -0.00000000000E+00 -0.00000000000E+00 -0.33680828212E+01  0.33680837865E+01  0.25500000000E-02 0.  1.
         11    1    1    2    0    0 -0.28451535391E+02  0.41218793528E+02  0.28540008417E+03  0.28976143093E+03  0.51100000000E-03 0.  1.
         22    1    1    2    0    0 -0.14451017016E+01 -0.11550828889E+02  0.67299330466E+02  0.68298681160E+02  0.00000000000E+00 0.  1.
          2    1    1    2  501    0  0.29896637093E+02 -0.29667964638E+02  0.64418206385E+03  0.64555753301E+03  0.25500000000E-02 0.  1.
<mgrwt>
<rscale>  0 0.22600753E+02</rscale>
<asrwt>0</asrwt>
<pdfrwt beam="1">  1       11 0.10000000E+01 0.43879373E+02</pdfrwt>
<pdfrwt beam="2">  1        2 0.51829596E-03 0.22600753E+02</pdfrwt>
<totfact> 0.27689202E+04</totfact>
</mgrwt>
</event>
<event>
 5    1  0.2968854E-003  0.1051927E+03  0.7818608E-02  0.1278452E+00
         11   -1    0    0    0    0  0.00000000000E+00  0.00000000000E+00  0.10000988213E+04  0.10000988213E+04  0.51100000000E-03 0.  1.
          2   -1    0    0  501    0 -0.00000000000E+00 -0.00000000000E+00 -0.14120787493E+02  0.14120787723E+02  0.25500000000E-02 0.  1.
         11    1    1    2    0    0  0.19687230052E+02  0.90258849390E+02  0.20297677274E+03  0.22301080061E+03  0.51100000000E-03 0.  1.
         22    1    1    2    0    0 -0.55194566949E+01  0.96235940870E+01  0.45153385924E+02  0.46496303356E+02  0.00000000000E+00 0. -1.
          2    1    1    2  501    0 -0.14167773357E+02 -0.99882443477E+02  0.73784787515E+03  0.74471250506E+03  0.25500000000E-02 0.  1.
<mgrwt>
<rscale>  0 0.10088225E+03</rscale>
<asrwt>0</asrwt>
<pdfrwt beam="1">  1       11 0.10000000E+01 0.10519270E+03</pdfrwt>
<pdfrwt beam="2">  1        2 0.21726435E-02 0.10088225E+03</pdfrwt>
<totfact> 0.53897257E+03</totfact>
</mgrwt>
</event>
<event>
 5    1  0.2968854E-003  0.1598383E+03  0.7818608E-02  0.1675671E+00
         11   -1    0    0    0    0  0.00000000000E+00  0.00000000000E+00  0.10007686775E+04  0.10007686775E+04  0.51100000000E-03 0. -1.
          2   -1    0    0  501    0 -0.00000000000E+00 -0.00000000000E+00 -0.13968623856E+04  0.13968623856E+04  0.25500000000E-02 0. -1.
         11    1    1    2    0    0 -0.13462100728E+03  0.94129399742E+02  0.63911632452E+02  0.17626076211E+03  0.51100000000E-03 0. -1.
         22    1    1    2    0    0  0.11606126953E+03 -0.10935859190E+03  0.87335483473E+03  0.88779400046E+03  0.00000000000E+00 0. -1.
          2    1    1    2  501    0  0.18559737757E+02  0.15229192154E+02 -0.13333601753E+04  0.13335763005E+04  0.25500000000E-02 0. -1.
<mgrwt>
<rscale>  0 0.24008169E+02</rscale>
<asrwt>0</asrwt>
<pdfrwt beam="1">  1       11 0.10000000E+01 0.15983832E+03</pdfrwt>
<pdfrwt beam="2">  1        2 0.21506709E+00 0.24008169E+02</pdfrwt>
<totfact> 0.23410367E+01</totfact>
</mgrwt>
</event>
<event>
 5    1  0.2968854E-003  0.2904327E+02  0.7818608E-02  0.1618448E+00
         11   -1    0    0    0    0  0.00000000000E+00  0.00000000000E+00  0.10002630845E+04  0.10002630845E+04  0.51100000000E-03 0. -1.
         -2   -1    0    0    0  501 -0.00000000000E+00 -0.00000000000E+00 -0.21334536527E+01  0.21334551766E+01  0.25500000000E-02 0. -1.
         11    1    1    2    0    0  0.58095176486E+01 -0.15472099514E+02  0.75321511195E+02  0.77113334824E+02  0.51100000000E-03 0. -1.
         22    1    1    2    0    0  0.25349065469E+01 -0.11502754493E+02  0.33207686870E+02  0.35234777981E+02  0.00000000000E+00 0.  1.
         -2    1    1    2    0  501 -0.83444241955E+01  0.26974854007E+02  0.88960043276E+03  0.89004842685E+03  0.25500000000E-02 0. -1.
<mgrwt>
<rscale>  0 0.28236008E+02</rscale>
<asrwt>0</asrwt>
<pdfrwt beam="1">  1       11 0.10000000E+01 0.29043271E+02</pdfrwt>
<pdfrwt beam="2">  1       -2 0.32831010E-03 0.28236008E+02</pdfrwt>
<totfact> 0.52653145E+04</totfact>
</mgrwt>
</event>
<event>
 5    1  0.2968854E-003  0.4212484E+02  0.7818608E-02  0.1718973E+00
         11   -1    0    0    0    0  0.00000000000E+00  0.00000000000E+00  0.10002890393E+04  0.10002890393E+04  0.51100000000E-03 0. -1.
          2   -1    0    0  501    0 -0.00000000000E+00 -0.00000000000E+00 -0.54078096293E+01  0.54078102306E+01  0.25500000000E-02 0. -1.
         11    1    1    2    0    0  0.31863376304E+02 -0.13419146742E+02  0.98437870638E+02  0.10433294123E+03  0.51100000000E-03 0. -1.
         22    1    1    2    0    0  0.51485099179E+01 -0.95666065665E+01  0.13419525810E+02  0.17265885108E+02  0.00000000000E+00 0. -1.
          2    1    1    2  501    0 -0.37011886222E+02  0.22985753309E+02  0.88302383327E+03  0.88409802324E+03  0.25500000000E-02 0. -1.
<mgrwt>
<rscale>  0 0.21392645E+02</rscale>
<asrwt>0</asrwt>
<pdfrwt beam="1">  1       11 0.10000000E+01 0.42124842E+02</pdfrwt>
<pdfrwt beam="2">  1        2 0.83221121E-03 0.21392645E+02</pdfrwt>
<totfact> 0.14705460E+04</totfact>
</mgrwt>
</event>
<event>
 5    1  0.2968854E-003  0.8371874E+02  0.7818608E-02  0.1549836E+00
         11   -1    0    0    0    0  0.00000000000E+00  0.00000000000E+00  0.10004185767E+04  0.10004185767E+04  0.51100000000E-03 0. -1.
          2   -1    0    0  501    0 -0.00000000000E+00 -0.00000000000E+00 -0.94579663386E+01  0.94579666824E+01  0.25500000000E-02 0. -1.
         11    1    1    2    0    0  0.91961429671E+02 -0.49544502508E+01  0.44547580891E+03  0.45489575449E+03  0.51100000000E-03 0. -1.
         22    1    1    2    0    0 -0.13446675908E+02  0.54696225438E+01  0.27666730491E+02  0.31243844831E+02  0.00000000000E+00 0.  1.
          2    1    1    2  501    0 -0.78514753763E+02 -0.51517229300E+00  0.51781807100E+03  0.52373694411E+03  0.25500000000E-02 0. -1.
<mgrwt>
<rscale>  0 0.34861234E+02</rscale>
<asrwt>0</asrwt>
<pdfrwt beam="1">  1       11 0.10000000E+01 0.83718741E+02</pdfrwt>
<pdfrwt beam="2">  1        2 0.14556808E-02 0.34861234E+02</pdfrwt>
<totfact> 0.78364166E+03</totfact>
</mgrwt>
</event>
<event>
 5    1  0.2968854E-003  0.1051336E+03  0.7818608E-02  0.1273718E+00
         11   -1    0    0    0    0  0.00000000000E+00  0.00000000000E+00  0.10002666754E+04  0.10002666754E+04  0.51100000000E-03 0. -1.
         -2   -1    0    0    0  501 -0.00000000000E+00 -0.00000000000E+00 -0.11470003044E+02  0.11470003328E+02  0.25500000000E-02 0. -1.
         11    1    1    2    0    0  0.41989938832E+02  0.77153900528E+02  0.29221342031E+03  0.30513040219E+03  0.51100000000E-03 0. -1.
         22    1    1    2    0    0  0.62815502471E+01  0.14054725255E+02  0.88671521355E+02  0.89997954837E+02  0.00000000000E+00 0. -1.
         -2    1    1    2    0  501 -0.48271489079E+02 -0.91208625782E+02  0.60791173069E+03  0.61660832170E+03  0.25500000000E-02 0. -1.
<mgrwt>
<rscale>  0 0.10319472E+03</rscale>
<asrwt>0</asrwt>
<pdfrwt beam="1">  1       11 0.10000000E+01 0.10513363E+03</pdfrwt>
<pdfrwt beam="2">  1       -2 0.17650864E-02 0.10319472E+03</pdfrwt>
<totfact> 0.65925116E+03</totfact>
</mgrwt>
</event>
<event>
 5    1  0.2968854E-003  0.2379796E+03  0.7818608E-02  0.1126035E+00
         11   -1    0    0    0    0  0.00000000000E+00  0.00000000000E+00  0.10003395053E+04  0.10003395053E+04  0.51100000000E-03 0. -1.
          2   -1    0    0  501    0 -0.00000000000E+00 -0.00000000000E+00 -0.59644528058E+02  0.59644528112E+02  0.25500000000E-02 0. -1.
         11    1    1    2    0    0 -0.14447230989E+03  0.12479551262E+02  0.34520157803E+03  0.37442237780E+03  0.51100000000E-03 0. -1.
         22    1    1    2    0    0 -0.78792685184E+02  0.46256837749E+02  0.28064247989E+03  0.29514095581E+03  0.00000000000E+00 0. -1.
          2    1    1    2  501    0  0.22326499508E+03 -0.58736389011E+02  0.31485091928E+03  0.39042069975E+03  0.25500000000E-02 0. -1.
<mgrwt>
<rscale>  0 0.23086191E+03</rscale>
<asrwt>0</asrwt>
<pdfrwt beam="1">  1       11 0.10000000E+01 0.23797956E+03</pdfrwt>
<pdfrwt beam="2">  1        2 0.91791963E-02 0.23086191E+03</pdfrwt>
<totfact> 0.87076874E+02</totfact>
</mgrwt>
</event>
<event>
 5    1  0.2968854E-003  0.1153851E+03  0.7818608E-02  0.1250910E+00
         11   -1    0    0    0    0  0.00000000000E+00  0.00000000000E+00  0.10000502819E+04  0.10000502819E+04  0.51100000000E-03 0.  1.
          2   -1    0    0  501    0 -0.00000000000E+00 -0.00000000000E+00 -0.15949563095E+02  0.15949563299E+02  0.25500000000E-02 0.  1.
         11    1    1    2    0    0 -0.10760822642E+03  0.23410778277E+02  0.49960857762E+03  0.51160172572E+03  0.51100000000E-03 0.  1.
         22    1    1    2    0    0 -0.48713150180E+01  0.18836261558E+02  0.86702529363E+02  0.88858669006E+02  0.00000000000E+00 0.  1.
          2    1    1    2  501    0  0.11247954144E+03 -0.42247039835E+02  0.39778961183E+03  0.41553945047E+03  0.25500000000E-02 0.  1.
<mgrwt>
<rscale>  0 0.11538506E+03</rscale>
<asrwt>0</asrwt>
<pdfrwt beam="1">  1       11 0.10000000E+01 0.19455962E+02</pdfrwt>
<pdfrwt beam="2">  1        2 0.24539023E-02 0.11538506E+03</pdfrwt>
<totfact> 0.46467665E+03</totfact>
</mgrwt>
</event>
<event>
 5    1  0.2968854E-003  0.1088435E+03  0.7818608E-02  0.1265320E+00
         11   -1    0    0    0    0  0.00000000000E+00  0.00000000000E+00  0.10002023315E+04  0.10002023315E+04  0.51100000000E-03 0. -1.
         -2   -1    0    0    0  501 -0.00000000000E+00 -0.00000000000E+00 -0.11889369421E+02  0.11889369694E+02  0.25500000000E-02 0.  1.
         11    1    1    2    0    0  0.79129032484E+02  0.38942180785E+02  0.44222736843E+03  0.45093563023E+03  0.51100000000E-03 0. -1.
         22    1    1    2    0    0  0.13722421994E+02  0.15180595709E+02  0.11954934740E+03  0.12128809429E+03  0.00000000000E+00 0. -1.
         -2    1    1    2    0  501 -0.92851454478E+02 -0.54122776494E+02  0.42653624627E+03  0.43986797669E+03  0.25500000000E-02 0.  1.
<mgrwt>
<rscale>  0 0.10747403E+03</rscale>
<asrwt>0</asrwt>
<pdfrwt beam="1">  1       11 0.10000000E+01 0.10884352E+03</pdfrwt>
<pdfrwt beam="2">  1       -2 0.18295038E-02 0.10747403E+03</pdfrwt>
<totfact> 0.62955315E+03</totfact>
</mgrwt>
</event>
<event>
 5    1  0.2968854E-003  0.2118760E+03  0.7818608E-02  0.1145766E+00
         11   -1    0    0    0    0  0.00000000000E+00  0.00000000000E+00  0.10002887310E+04  0.10002887310E+04  0.51100000000E-03 0. -1.
          2   -1    0    0  501    0 -0.00000000000E+00 -0.00000000000E+00 -0.17341805745E+03  0.17341805746E+03  0.25500000000E-02 0. -1.
         11    1    1    2    0    0  0.15971696960E+03 -0.10849513212E+03  0.88903546650E+03  0.90976082833E+03  0.51100000000E-03 0. -1.
         22    1    1    2    0    0  0.37314111047E+01 -0.14875621522E+02  0.34306172856E+02  0.37578199006E+02  0.00000000000E+00 0. -1.
          2    1    1    2  501    0 -0.16344838070E+03  0.12337075364E+03 -0.96470965834E+02  0.22636776110E+03  0.25500000000E-02 0. -1.
<mgrwt>
<rscale>  0 0.20478212E+03</rscale>
<asrwt>0</asrwt>
<pdfrwt beam="1">  1       11 0.10000000E+01 0.21187602E+03</pdfrwt>
<pdfrwt beam="2">  1        2 0.26687404E-01 0.20478212E+03</pdfrwt>
<totfact> 0.24590080E+02</totfact>
</mgrwt>
</event>
<event>
 5    1  0.2968854E-003  0.2301512E+03  0.7818608E-02  0.1132227E+00
         11   -1    0    0    0    0  0.00000000000E+00  0.00000000000E+00  0.10003629681E+04  0.10003629681E+04  0.51100000000E-03 0.  1.
          2   -1    0    0  501    0 -0.00000000000E+00 -0.00000000000E+00 -0.29562241407E+03  0.29562241408E+03  0.25500000000E-02 0.  1.
         11    1    1    2    0    0  0.34883204999E+02 -0.72895847036E+02  0.26777199661E+03  0.27970070553E+03  0.51100000000E-03 0.  1.
         22    1    1    2    0    0 -0.72438211245E+00 -0.14669898314E+03  0.67492822692E+03  0.69068750378E+03  0.00000000000E+00 0.  1.
          2    1    1    2  501    0 -0.34158822887E+02  0.21959483018E+03 -0.23795966954E+03  0.32559717283E+03  0.25500000000E-02 0.  1.
<mgrwt>
<rscale>  0 0.22223572E+03</rscale>
<asrwt>0</asrwt>
<pdfrwt beam="1">  1       11 0.10000000E+01 0.23015118E+03</pdfrwt>
<pdfrwt beam="2">  1        2 0.45496878E-01 0.22223572E+03</pdfrwt>
<totfact> 0.13777066E+02</totfact>
</mgrwt>
</event>
<event>
 5    1  0.2968854E-003  0.6014578E+02  0.7818608E-02  0.1485244E+00
         11   -1    0    0    0    0  0.00000000000E+00  0.00000000000E+00  0.10003947532E+04  0.10003947532E+04  0.51100000000E-03 0. -1.
          2   -1    0    0  501    0 -0.00000000000E+00 -0.00000000000E+00 -0.72977006810E+01  0.72977011265E+01  0.25500000000E-02 0. -1.
         11    1    1    2    0    0  0.69659215931E+02  0.10606643362E+02  0.28103994088E+03  0.28973842620E+03  0.51100000000E-03 0. -1.
         22    1    1    2    0    0 -0.21699503424E+02  0.22379171720E+02  0.17529851909E+03  0.17804849500E+03  0.00000000000E+00 0. -1.
          2    1    1    2  501    0 -0.47959712507E+02 -0.32985815082E+02  0.53675859253E+03  0.53990553310E+03  0.25500000000E-02 0. -1.
<mgrwt>
<rscale>  0 0.43299717E+02</rscale>
<asrwt>0</asrwt>
<pdfrwt beam="1">  1       11 0.10000000E+01 0.60145783E+02</pdfrwt>
<pdfrwt beam="2">  1        2 0.11231664E-02 0.43299717E+02</pdfrwt>
<totfact> 0.11495857E+04</totfact>
</mgrwt>
</event>
<event>
 5    1  0.2968854E-003  0.1271854E+03  0.7818608E-02  0.1418763E+00
         11   -1    0    0    0    0  0.00000000000E+00  0.00000000000E+00  0.10002450810E+04  0.10002450810E+04  0.51100000000E-03 0. -1.
          2   -1    0    0  501    0 -0.00000000000E+00 -0.00000000000E+00 -0.25527635355E+02  0.25527635483E+02  0.25500000000E-02 0. -1.
         11    1    1    2    0    0  0.45675000452E+02  0.10243394664E+03  0.26203045559E+03  0.28502434763E+03  0.51100000000E-03 0. -1.
         22    1    1    2    0    0 -0.10090462458E+03 -0.99994864262E+02  0.57702341264E+03  0.59425308991E+03  0.00000000000E+00 0. -1.
          2    1    1    2  501    0  0.55229624129E+02 -0.24390823734E+01  0.13566357740E+03  0.14649527892E+03  0.25500000000E-02 0. -1.
<mgrwt>
<rscale>  0 0.55283456E+02</rscale>
<asrwt>0</asrwt>
<pdfrwt beam="1">  1       11 0.10000000E+01 0.12718541E+03</pdfrwt>
<pdfrwt beam="2">  1        2 0.39282909E-02 0.55283456E+02</pdfrwt>
<totfact> 0.22956509E+03</totfact>
</mgrwt>
</event>
<event>
 5    1  0.2968854E-003  0.1005974E+03  0.7818608E-02  0.1512485E+00
         11   -1    0    0    0    0  0.00000000000E+00  0.00000000000E+00  0.10001095153E+04  0.10001095153E+04  0.51100000000E-03 0. -1.
          2   -1    0    0  501    0 -0.00000000000E+00 -0.00000000000E+00 -0.12315263589E+02  0.12315263853E+02  0.25500000000E-02 0. -1.
         11    1    1    2    0    0  0.37724059135E+02 -0.90468320408E+02  0.52686412272E+03  0.53590430623E+03  0.51100000000E-03 0. -1.
         22    1    1    2    0    0  0.15450951980E+02  0.73177517740E-01  0.45284139424E+02  0.47847576275E+02  0.00000000000E+00 0.  1.
          2    1    1    2  501    0 -0.53175011115E+02  0.90395142890E+02  0.41564598961E+03  0.42867289668E+03  0.25500000000E-02 0. -1.
<mgrwt>
<rscale>  0 0.39425153E+02</rscale>
<asrwt>0</asrwt>
<pdfrwt beam="1">  1       11 0.10000000E+01 0.10059738E+03</pdfrwt>
<pdfrwt beam="2">  1        2 0.18948634E-02 0.39425153E+02</pdfrwt>
<totfact> 0.56606581E+03</totfact>
</mgrwt>
</event>
<event>
 5    1  0.2968854E-003  0.6089481E+02  0.7818608E-02  0.1479754E+00
         11   -1    0    0    0    0  0.00000000000E+00  0.00000000000E+00  0.10005016370E+04  0.10005016370E+04  0.51100000000E-03 0. -1.
          2   -1    0    0  501    0 -0.00000000000E+00 -0.00000000000E+00 -0.11299275314E+02  0.11299275602E+02  0.25500000000E-02 0. -1.
         11    1    1    2    0    0  0.11769119985E+02 -0.47088056546E+02  0.86944092124E+02  0.99574456614E+02  0.51100000000E-03 0. -1.
         22    1    1    2    0    0  0.32001624946E+02 -0.69214325113E-01  0.64513484240E+02  0.72014571016E+02  0.00000000000E+00 0. -1.
          2    1    1    2  501    0 -0.43770744931E+02  0.47157270871E+02  0.83774478537E+03  0.84021188502E+03  0.25500000000E-02 0. -1.
<mgrwt>
<rscale>  0 0.44144495E+02</rscale>
<asrwt>0</asrwt>
<pdfrwt beam="1">  1       11 0.10000000E+01 0.60894810E+02</pdfrwt>
<pdfrwt beam="2">  1        2 0.17392220E-02 0.44144495E+02</pdfrwt>
<totfact> 0.64546165E+03</totfact>
</mgrwt>
</event>
<event>
 5    1  0.2968854E-003  0.7036191E+02  0.7818608E-02  0.1358867E+00
         11   -1    0    0    0    0  0.00000000000E+00  0.00000000000E+00  0.10002980015E+04  0.10002980015E+04  0.51100000000E-03 0. -1.
          2   -1    0    0  501    0 -0.00000000000E+00 -0.00000000000E+00 -0.96287707947E+01  0.96287711324E+01  0.25500000000E-02 0. -1.
         11    1    1    2    0    0 -0.15220555564E+02 -0.12874621619E+02  0.95439823843E+02  0.97499647020E+02  0.51100000000E-03 0. -1.
         22    1    1    2    0    0  0.54030441029E+02  0.51127543302E+02  0.17518533480E+03  0.19032397582E+03  0.00000000000E+00 0. -1.
          2    1    1    2  501    0 -0.38809885465E+02 -0.38252921682E+02  0.72004407209E+03  0.72210314982E+03  0.25500000000E-02 0. -1.
<mgrwt>
<rscale>  0 0.70361906E+02</rscale>
<asrwt>0</asrwt>
<pdfrwt beam="1">  1       11 0.10000000E+01 0.19935436E+02</pdfrwt>
<pdfrwt beam="2">  1        2 0.14817908E-02 0.70361906E+02</pdfrwt>
<totfact> 0.85986869E+03</totfact>
</mgrwt>
</event>
<event>
 5    1  0.2968854E-003  0.1326392E+03  0.7818608E-02  0.1248442E+00
         11   -1    0    0    0    0  0.00000000000E+00  0.00000000000E+00  0.10003449390E+04  0.10003449390E+04  0.51100000000E-03 0.  1.
          2   -1    0    0  501    0 -0.00000000000E+00 -0.00000000000E+00 -0.16503843310E+02  0.16503843507E+02  0.25500000000E-02 0.  1.
         11    1    1    2    0    0  0.54889311867E+02 -0.15423004995E+02  0.23144508638E+03  0.23836428770E+03  0.51100000000E-03 0.  1.
         22    1    1    2    0    0  0.30135622719E+02 -0.64682992171E+02  0.16799125843E+03  0.18251878846E+03  0.00000000000E+00 0.  1.
          2    1    1    2  501    0 -0.85024934586E+02  0.80105997166E+02  0.58440475089E+03  0.59596570635E+03  0.25500000000E-02 0.  1.
<mgrwt>
<rscale>  0 0.11681699E+03</rscale>
<asrwt>0</asrwt>
<pdfrwt beam="1">  1       11 0.10000000E+01 0.13263925E+03</pdfrwt>
<pdfrwt beam="2">  1        2 0.25399286E-02 0.11681699E+03</pdfrwt>
<totfact> 0.44420098E+03</totfact>
</mgrwt>
</event>
<event>
 5    1  0.2968854E-003  0.3497001E+03  0.7818608E-02  0.1062738E+00
         11   -1    0    0    0    0  0.00000000000E+00  0.00000000000E+00  0.10001258420E+04  0.10001258420E+04  0.51100000000E-03 0. -1.
         -2   -1    0    0    0  501 -0.00000000000E+00 -0.00000000000E+00 -0.18635646103E+03  0.18635646105E+03  0.25500000000E-02 0. -1.
         11    1    1    2    0    0 -0.76078482480E+02 -0.91876906445E+01 -0.30180316111E+02  0.82360188421E+02  0.51100000000E-03 0. -1.
         22    1    1    2    0    0 -0.28996737748E+03  0.10940215087E+03  0.51902480817E+03  0.60451357480E+03  0.00000000000E+00 0. -1.
         -2    1    1    2    0  501  0.36604585996E+03 -0.10021446023E+03  0.32492488894E+03  0.49960853985E+03  0.25500000000E-02 0. -1.
<mgrwt>
<rscale>  0 0.34970007E+03</rscale>
<asrwt>0</asrwt>
<pdfrwt beam="1">  1       11 0.10000000E+01 0.76631293E+02</pdfrwt>
<pdfrwt beam="2">  1       -2 0.28673832E-01 0.34970007E+03</pdfrwt>
<totfact> 0.89782579E+01</totfact>
</mgrwt>
</event>
<event>
 5    1  0.2968854E-003  0.5618895E+02  0.7818608E-02  0.1429654E+00
         11   -1    0    0    0    0  0.00000000000E+00  0.00000000000E+00  0.10002170987E+04  0.10002170987E+04  0.51100000000E-03 0. -1.
          2   -1    0    0  501    0 -0.00000000000E+00 -0.00000000000E+00 -0.44156093575E+01  0.44156100938E+01  0.25500000000E-02 0. -1.
         11    1    1    2    0    0  0.10470818485E+02 -0.10815757889E+02  0.36253143037E+02  0.39254414259E+02  0.51100000000E-03 0. -1.
         22    1    1    2    0    0  0.14518850943E+02 -0.35956515194E+02  0.18518765073E+03  0.18920394816E+03  0.00000000000E+00 0. -1.
          2    1    1    2  501    0 -0.24989669428E+02  0.46772273084E+02  0.77436069553E+03  0.77617434633E+03  0.25500000000E-02 0. -1.
<mgrwt>
<rscale>  0 0.53029512E+02</rscale>
<asrwt>0</asrwt>
<pdfrwt beam="1">  1       11 0.10000000E+01 0.56188951E+02</pdfrwt>
<pdfrwt beam="2">  1        2 0.67947203E-03 0.53029512E+02</pdfrwt>
<totfact> 0.23471962E+04</totfact>
</mgrwt>
</event>
<event>
 5    1  0.2968854E-003  0.2203722E+03  0.7818608E-02  0.1133606E+00
         11   -1    0    0    0    0  0.00000000000E+00  0.00000000000E+00  0.99993996671E+03  0.99993996671E+03  0.51100000000E-03 0.  1.
          2   -1    0    0  501    0 -0.00000000000E+00 -0.00000000000E+00 -0.64701997846E+03  0.64701997846E+03  0.25500000000E-02 0.  1.
         11    1    1    2    0    0 -0.27536652091E+03  0.14511885980E+03  0.72936051362E+03  0.79300249883E+03  0.51100000000E-03 0.  1.
         22    1    1    2    0    0  0.10206777737E+03 -0.12655312119E+02  0.20696328694E+03  0.23110990945E+03  0.00000000000E+00 0.  1.
          2    1    1    2  501    0  0.17329874355E+03 -0.13246354768E+03 -0.58340381232E+03  0.62284753689E+03  0.25500000000E-02 0.  1.
<mgrwt>
<rscale>  0 0.22037220E+03</rscale>
<asrwt>0</asrwt>
<pdfrwt beam="1">  1       11 0.10000000E+01 0.10284935E+03</pdfrwt>
<pdfrwt beam="2">  1        2 0.99535556E-01 0.22037220E+03</pdfrwt>
<totfact> 0.57888317E+01</totfact>
</mgrwt>
</event>
<event>
 5    1  0.2968854E-003  0.2225631E+03  0.7818608E-02  0.1246195E+00
         11   -1    0    0    0    0  0.00000000000E+00  0.00000000000E+00  0.10006547855E+04  0.10006547855E+04  0.51100000000E-03 0. -1.
          2   -1    0    0  501    0 -0.00000000000E+00 -0.00000000000E+00 -0.21061647297E+04  0.21061647297E+04  0.25500000000E-02 0.  1.
         11    1    1    2    0    0  0.10548503313E+03  0.14475155167E+03  0.33035977534E+03  0.37578941588E+03  0.51100000000E-03 0. -1.
         22    1    1    2    0    0 -0.21476575487E+03 -0.18964214189E+03  0.61410553994E+03  0.67765336687E+03  0.00000000000E+00 0. -1.
          2    1    1    2  501    0  0.10928072174E+03  0.44890590217E+02 -0.20499752595E+04  0.20533767325E+04  0.25500000000E-02 0.  1.
<mgrwt>
<rscale>  0 0.11814162E+03</rscale>
<asrwt>0</asrwt>
<pdfrwt beam="1">  1       11 0.10000000E+01 0.22256308E+03</pdfrwt>
<pdfrwt beam="2">  1        2 0.32423750E+00 0.11814162E+03</pdfrwt>
<totfact> 0.89350229E+00</totfact>
</mgrwt>
</event>
<event>
 5    1  0.2968854E-003  0.7282945E+02  0.7818608E-02  0.1358968E+00
         11   -1    0    0    0    0  0.00000000000E+00  0.00000000000E+00  0.10004834319E+04  0.10004834319E+04  0.51100000000E-03 0. -1.
          2   -1    0    0  501    0 -0.00000000000E+00 -0.00000000000E+00 -0.56347572315E+01  0.56347578085E+01  0.25500000000E-02 0. -1.
         11    1    1    2    0    0 -0.54238450757E+02  0.65280908474E+01  0.29200277802E+03  0.29706909614E+03  0.51100000000E-03 0. -1.
         22    1    1    2    0    0 -0.16091944181E+02 -0.60489654350E+01  0.61476612888E+02  0.63835057629E+02  0.00000000000E+00 0.  1.
          2    1    1    2  501    0  0.70330394937E+02 -0.47912541240E+00  0.64136928376E+03  0.64521403593E+03  0.25500000000E-02 0. -1.
<mgrwt>
<rscale>  0 0.70332027E+02</rscale>
<asrwt>0</asrwt>
<pdfrwt beam="1">  1       11 0.10000000E+01 0.72829447E+02</pdfrwt>
<pdfrwt beam="2">  1        2 0.86730483E-03 0.70332027E+02</pdfrwt>
<totfact> 0.17767428E+04</totfact>
</mgrwt>
</event>
<event>
 5    1  0.2968854E-003  0.1885246E+03  0.7818608E-02  0.1168744E+00
         11   -1    0    0    0    0  0.00000000000E+00  0.00000000000E+00  0.10005803157E+04  0.10005803157E+04  0.51100000000E-03 0.  1.
          2   -1    0    0  501    0 -0.00000000000E+00 -0.00000000000E+00 -0.12881965198E+04  0.12881965198E+04  0.25500000000E-02 0.  1.
         11    1    1    2    0    0 -0.59829888239E+02 -0.96317158469E+02  0.68212739122E+03  0.69148708477E+03  0.51100000000E-03 0.  1.
         22    1    1    2    0    0 -0.18124421364E+00 -0.72356083555E+02  0.30325297917E+03  0.31176562519E+03  0.00000000000E+00 0. -1.
          2    1    1    2  501    0  0.60011132452E+02  0.16867324202E+03 -0.12729965745E+04  0.12855241255E+04  0.25500000000E-02 0.  1.
<mgrwt>
<rscale>  0 0.17903072E+03</rscale>
<asrwt>0</asrwt>
<pdfrwt beam="1">  1       11 0.10000000E+01 0.18852460E+03</pdfrwt>
<pdfrwt beam="2">  1        2 0.19829908E+00 0.17903072E+03</pdfrwt>
<totfact> 0.22902372E+01</totfact>
</mgrwt>
</event>
<event>
 5    1  0.2968854E-003  0.2544338E+03  0.7818608E-02  0.1714035E+00
         11   -1    0    0    0    0  0.00000000000E+00  0.00000000000E+00  0.10004375440E+04  0.10004375440E+04  0.51100000000E-03 0. -1.
         -2   -1    0    0    0  501 -0.00000000000E+00 -0.00000000000E+00 -0.16083572103E+03  0.16083572105E+03  0.25500000000E-02 0.  1.
         11    1    1    2    0    0 -0.23290408868E+03  0.10114293199E+03  0.37324913697E+03  0.45143008924E+03  0.51100000000E-03 0. -1.
         22    1    1    2    0    0  0.22458777025E+03 -0.12115283483E+03  0.55910879284E+03  0.61458955260E+03  0.00000000000E+00 0.  1.
         -2    1    1    2    0  501  0.83163184345E+01  0.20009902840E+02 -0.92756106862E+02  0.95253623189E+02  0.25500000000E-02 0.  1.
<mgrwt>
<rscale>  0 0.21669272E+02</rscale>
<asrwt>0</asrwt>
<pdfrwt beam="1">  1       11 0.10000000E+01 0.25443384E+03</pdfrwt>
<pdfrwt beam="2">  1       -2 0.24754783E-01 0.21669272E+02</pdfrwt>
<totfact> 0.10663367E+02</totfact>
</mgrwt>
</event>
<event>
 5    1  0.2968854E-003  0.1296700E+03  0.7818608E-02  0.1227946E+00
         11   -1    0    0    0    0  0.00000000000E+00  0.00000000000E+00  0.10000323262E+04  0.10000323262E+04  0.51100000000E-03 0.  1.
          2   -1    0    0  501    0 -0.00000000000E+00 -0.00000000000E+00 -0.47583536217E+02  0.47583536286E+02  0.25500000000E-02 0.  1.
         11    1    1    2    0    0  0.16393935593E+02 -0.86474649596E+02  0.39154136535E+03  0.40131193220E+03  0.51100000000E-03 0.  1.
         22    1    1    2    0    0 -0.10654581909E+03 -0.22721635848E+02  0.45923778665E+03  0.47198265751E+03  0.00000000000E+00 0.  1.
          2    1    1    2  501    0  0.90151883494E+02  0.10919628544E+03  0.10166963801E+03  0.17432127280E+03  0.25500000000E-02 0.  1.
<mgrwt>
<rscale>  0 0.12966997E+03</rscale>
<asrwt>0</asrwt>
<pdfrwt beam="1">  1       11 0.10000000E+01 0.88014920E+02</pdfrwt>
<pdfrwt beam="2">  1        2 0.73207805E-02 0.12966997E+03</pdfrwt>
<totfact> 0.11186860E+03</totfact>
</mgrwt>
</event>
<event>
 5    1  0.2968854E-003  0.4521816E+02  0.7818608E-02  0.1486005E+00
         11   -1    0    0    0    0  0.00000000000E+00  0.00000000000E+00  0.10000893233E+04  0.10000893233E+04  0.51100000000E-03 0.  1.
          2   -1    0    0  501    0 -0.00000000000E+00 -0.00000000000E+00 -0.29410296894E+01  0.29410307949E+01  0.25500000000E-02 0.  1.
         11    1    1    2    0    0 -0.28483007441E+02  0.89067596611E+01  0.14755107005E+03  0.15053880016E+03  0.51100000000E-03 0.  1.
         22    1    1    2    0    0 -0.14515229049E+02 -0.49004685979E+01  0.68095546330E+02  0.69797635324E+02  0.00000000000E+00 0.  1.
          2    1    1    2  501    0  0.42998236491E+02 -0.40062910631E+01  0.78150167725E+03  0.78269391863E+03  0.25500000000E-02 0.  1.
<mgrwt>
<rscale>  0 0.43184473E+02</rscale>
<asrwt>0</asrwt>
<pdfrwt beam="1">  1       11 0.10000000E+01 0.45218156E+02</pdfrwt>
<pdfrwt beam="2">  1        2 0.45250659E-03 0.43184473E+02</pdfrwt>
<totfact> 0.38874273E+04</totfact>
</mgrwt>
</event>
<event>
 5    1  0.2968854E-003  0.1070805E+03  0.7818608E-02  0.1268940E+00
         11   -1    0    0    0    0  0.00000000000E+00  0.00000000000E+00  0.10001540010E+04  0.10001540010E+04  0.51100000000E-03 0.  1.
          2   -1    0    0  501    0 -0.00000000000E+00 -0.00000000000E+00 -0.11406246531E+02  0.11406246816E+02  0.25500000000E-02 0.  1.
         11    1    1    2    0    0  0.81866026531E+02  0.38135363576E+02  0.48324185716E+03  0.49160862967E+03  0.51100000000E-03 0.  1.
         22    1    1    2    0    0  0.15981240571E+02  0.15818327139E+01  0.61814263616E+02  0.63866309047E+02  0.00000000000E+00 0. -1.
          2    1    1    2  501    0 -0.97847267102E+02 -0.39717196290E+02  0.44369163370E+03  0.45608530911E+03  0.25500000000E-02 0.  1.
<mgrwt>
<rscale>  0 0.10560087E+03</rscale>
<asrwt>0</asrwt>
<pdfrwt beam="1">  1       11 0.10000000E+01 0.10708050E+03</pdfrwt>
<pdfrwt beam="2">  1        2 0.17550774E-02 0.10560087E+03</pdfrwt>
<totfact> 0.72384764E+03</totfact>
</mgrwt>
</event>
<event>
 5    1  0.2968854E-003  0.1948337E+03  0.7818608E-02  0.1156739E+00
         11   -1    0    0    0    0  0.00000000000E+00  0.00000000000E+00  0.10003397801E+04  0.10003397801E+04  0.51100000000E-03 0.  1.
          2   -1    0    0  501    0 -0.00000000000E+00 -0.00000000000E+00 -0.38128713141E+02  0.38128713227E+02  0.25500000000E-02 0.  1.
         11    1    1    2    0    0 -0.43013427388E+02 -0.17133985613E+03  0.35226290248E+03  0.39407696418E+03  0.51100000000E-03 0.  1.
         22    1    1    2    0    0 -0.49149083565E+01 -0.14501244603E+02  0.59746017659E+02  0.61676811245E+02  0.00000000000E+00 0. -1.
          2    1    1    2  501    0  0.47928335745E+02  0.18584110073E+03  0.55020214678E+03  0.58271471786E+03  0.25500000000E-02 0.  1.
<mgrwt>
<rscale>  0 0.19192196E+03</rscale>
<asrwt>0</asrwt>
<pdfrwt beam="1">  1       11 0.10000000E+01 0.19483366E+03</pdfrwt>
<pdfrwt beam="2">  1        2 0.58679488E-02 0.19192196E+03</pdfrwt>
<totfact> 0.15269953E+03</totfact>
</mgrwt>
</event>
<event>
 5    1  0.2968854E-003  0.7790985E+02  0.7818608E-02  0.1335090E+00
         11   -1    0    0    0    0  0.00000000000E+00  0.00000000000E+00  0.10000865193E+04  0.10000865193E+04  0.51100000000E-03 0.  1.
          2   -1    0    0  501    0 -0.00000000000E+00 -0.00000000000E+00 -0.11285359204E+02  0.11285359492E+02  0.25500000000E-02 0.  1.
         11    1    1    2    0    0  0.38622447857E+02  0.26423404250E+02  0.20501418831E+03  0.21028720165E+03  0.51100000000E-03 0.  1.
         22    1    1    2    0    0  0.22240969661E+02 -0.79162579416E+02  0.46933265255E+03  0.47648138837E+03  0.00000000000E+00 0.  1.
          2    1    1    2  501    0 -0.60863417518E+02  0.52739175167E+02  0.31445431927E+03  0.32460328880E+03  0.25500000000E-02 0.  1.
<mgrwt>
<rscale>  0 0.77909848E+02</rscale>
<asrwt>0</asrwt>
<pdfrwt beam="1">  1       11 0.10000000E+01 0.46796281E+02</pdfrwt>
<pdfrwt beam="2">  1        2 0.17363593E-02 0.77909848E+02</pdfrwt>
<totfact> 0.70484075E+03</totfact>
</mgrwt>
</event>
<event>
 5    1  0.2968854E-003  0.4354517E+03  0.7818608E-02  0.1040704E+00
         11   -1    0    0    0    0  0.00000000000E+00  0.00000000000E+00  0.10003685526E+04  0.10003685526E+04  0.51100000000E-03 0. -1.
          2   -1    0    0  501    0 -0.00000000000E+00 -0.00000000000E+00 -0.22738549493E+03  0.22738549495E+03  0.25500000000E-02 0. -1.
         11    1    1    2    0    0 -0.25741143645E+03  0.62735663866E+02  0.42366990306E+03  0.49969250334E+03  0.51100000000E-03 0. -1.
         22    1    1    2    0    0 -0.15130018420E+03 -0.78367171939E+02  0.25766582340E+03  0.30890910625E+03  0.00000000000E+00 0. -1.
          2    1    1    2  501    0  0.40871162065E+03  0.15631508073E+02  0.91647331179E+02  0.41915243793E+03  0.25500000000E-02 0. -1.
<mgrwt>
<rscale>  0 0.40901043E+03</rscale>
<asrwt>0</asrwt>
<pdfrwt beam="1">  1       11 0.10000000E+01 0.43545171E+03</pdfrwt>
<pdfrwt beam="2">  1        2 0.34995276E-01 0.40901043E+03</pdfrwt>
<totfact> 0.18396502E+02</totfact>
</mgrwt>
</event>
<event>
 5    1  0.2968854E-003  0.3033106E+03  0.7818608E-02  0.1086484E+00
         11   -1    0    0    0    0  0.00000000000E+00  0.00000000000E+00  0.99994621470E+03  0.99994621470E+03  0.51100000000E-03 0. -1.
         -2   -1    0    0    0  501 -0.00000000000E+00 -0.00000000000E+00 -0.25923690742E+03  0.25923690743E+03  0.25500000000E-02 0.  1.
         11    1    1    2    0    0 -0.18694891269E+03 -0.20631322004E+03  0.82585843892E+03  0.87152578956E+03  0.51100000000E-03 0. -1.
         22    1    1    2    0    0 -0.12882998753E+01 -0.24096245338E+02  0.54040111525E+02  0.59182957087E+02  0.00000000000E+00 0. -1.
         -2    1    1    2    0  501  0.18823721257E+03  0.23040946537E+03 -0.13918924317E+03  0.32847437548E+03  0.25500000000E-02 0.  1.
<mgrwt>
<rscale>  0 0.29752608E+03</rscale>
<asrwt>0</asrwt>
<pdfrwt beam="1">  1       11 0.10000000E+01 0.30331059E+03</pdfrwt>
<pdfrwt beam="2">  1       -2 0.39880455E-01 0.29752608E+03</pdfrwt>
<totfact> 0.48438986E+01</totfact>
</mgrwt>
</event>
<event>
 5    1  0.2968854E-003  0.3410231E+03  0.7818608E-02  0.1069354E+00
         11   -1    0    0    0    0  0.00000000000E+00  0.00000000000E+00  0.10000458177E+04  0.10000458177E+04  0.51100000000E-03 0.  1.
          2   -1    0    0  501    0 -0.00000000000E+00 -0.00000000000E+00 -0.33455234088E+03  0.33455234089E+03  0.25500000000E-02 0.  1.
         11    1    1    2    0    0 -0.11752702246E+03  0.27767497891E+03  0.75898380610E+03  0.81668379000E+03  0.51100000000E-03 0.  1.
         22    1    1    2    0    0 -0.33289180722E+02  0.20403462990E+02  0.11681545469E+03  0.12316785826E+03  0.00000000000E+00 0. -1.
          2    1    1    2  501    0  0.15081620318E+03 -0.29807844190E+03 -0.21030578394E+03  0.39474651035E+03  0.25500000000E-02 0.  1.
<mgrwt>
<rscale>  0 0.33406030E+03</rscale>
<asrwt>0</asrwt>
<pdfrwt beam="1">  1       11 0.10000000E+01 0.34102313E+03</pdfrwt>
<pdfrwt beam="2">  1        2 0.51471948E-01 0.33406030E+03</pdfrwt>
<totfact> 0.12052976E+02</totfact>
</mgrwt>
</event>
<event>
 5    1  0.2968854E-003  0.1207392E+03  0.7818608E-02  0.1429071E+00
         11   -1    0    0    0    0  0.00000000000E+00  0.00000000000E+00  0.10003564215E+04  0.10003564215E+04  0.51100000000E-03 0.  1.
         -2   -1    0    0    0  501 -0.00000000000E+00 -0.00000000000E+00 -0.67864105240E+02  0.67864105288E+02  0.25500000000E-02 0. -1.
         11    1    1    2    0    0 -0.12274007908E+03  0.83573171953E+02  0.65013129534E+03  0.66687352869E+03  0.51100000000E-03 0.  1.
         22    1    1    2    0    0  0.73419862045E+02 -0.63771079596E+02  0.32114954285E+03  0.33555067517E+03  0.00000000000E+00 0. -1.
         -2    1    1    2    0  501  0.49320217038E+02 -0.19802092357E+02 -0.38788521933E+02  0.65796322926E+02  0.25500000000E-02 0. -1.
<mgrwt>
<rscale>  0 0.53147029E+02</rscale>
<asrwt>0</asrwt>
<pdfrwt beam="1">  1       11 0.10000000E+01 0.12073921E+03</pdfrwt>
<pdfrwt beam="2">  1       -2 0.10444353E-01 0.53147029E+02</pdfrwt>
<totfact> 0.44717018E+02</totfact>
</mgrwt>
</event>
<event>
 5    1  0.2968854E-003  0.1660686E+03  0.7818608E-02  0.1593192E+00
         11   -1    0    0    0    0  0.00000000000E+00  0.00000000000E+00  0.99995739104E+03  0.99995739104E+03  0.51100000000E-03 0. -1.
          2   -1    0    0  501    0 -0.00000000000E+00 -0.00000000000E+00 -0.31675357115E+03  0.31675357117E+03  0.25500000000E-02 0.  1.
         11    1    1    2    0    0 -0.14087145435E+02 -0.16713406416E+03  0.51453417448E+03  0.54118172528E+03  0.51100000000E-03 0. -1.
         22    1    1    2    0    0 -0.16278699375E+02  0.16490253559E+03  0.45673206836E+03  0.48586214564E+03  0.00000000000E+00 0. -1.
          2    1    1    2  501    0  0.30365844810E+02  0.22315285730E+01 -0.28806242295E+03  0.28966709129E+03  0.25500000000E-02 0.  1.
<mgrwt>
<rscale>  0 0.30447730E+02</rscale>
<asrwt>0</asrwt>
<pdfrwt beam="1">  1       11 0.10000000E+01 0.16606857E+03</pdfrwt>
<pdfrwt beam="2">  1        2 0.48729241E-01 0.30447730E+02</pdfrwt>
<totfact> 0.12640362E+02</totfact>
</mgrwt>
</event>
<event>
 5    1  0.4332532E-003  0.1640813E+03  0.7818608E-02  0.1184165E+00
         11   -1    0    0    0    0  0.00000000000E+00  0.00000000000E+00  0.10003477832E+04  0.10003477832E+04  0.51100000000E-03 0.  1.
          2   -1    0    0  501    0 -0.00000000000E+00 -0.00000000000E+00 -0.19818684437E+04  0.19818684437E+04  0.25500000000E-02 0.  1.
         11    1    1    2    0    0 -0.72420038360E+02  0.14057251848E+03  0.89089884445E+03  0.90482376514E+03  0.51100000000E-03 0.  1.
         22    1    1    2    0    0 -0.20397857416E+02 -0.52341757531E+01  0.97956295956E+02  0.10019433667E+03  0.00000000000E+00 0.  1.
          2    1    1    2  501    0  0.92817895776E+02 -0.13533834272E+03 -0.19703758009E+04  0.19771981250E+04  0.25500000000E-02 0.  1.
<mgrwt>
<rscale>  0 0.16408128E+03</rscale>
<asrwt>0</asrwt>
<pdfrwt beam="1">  1       11 0.10000000E+01 0.21058708E+02</pdfrwt>
<pdfrwt beam="2">  1        2 0.30500887E+00 0.16408128E+03</pdfrwt>
<totfact> 0.10000014E+01</totfact>
</mgrwt>
</event>
<event>
 5    1  0.3883002E-003  0.2002235E+03  0.7818608E-02  0.1149551E+00
         11   -1    0    0    0    0  0.00000000000E+00  0.00000000000E+00  0.10009135954E+04  0.10009135954E+04  0.51100000000E-03 0. -1.
          2   -1    0    0  501    0 -0.00000000000E+00 -0.00000000000E+00 -0.12003143508E+04  0.12003143508E+04  0.25500000000E-02 0. -1.
         11    1    1    2    0    0  0.16885666484E+03 -0.87905377177E+02  0.95655830347E+03  0.97531723892E+03  0.51100000000E-03 0. -1.
         22    1    1    2    0    0  0.42215798141E+01 -0.12934093785E+02  0.24796859764E+02  0.28284214190E+02  0.00000000000E+00 0.  1.
          2    1    1    2  501    0 -0.17307824465E+03  0.10083947096E+03 -0.11807559186E+04  0.11976264931E+04  0.25500000000E-02 0. -1.
<mgrwt>
<rscale>  0 0.20022352E+03</rscale>
<asrwt>0</asrwt>
<pdfrwt beam="1">  1       11 0.10000000E+01 0.13605606E+02</pdfrwt>
<pdfrwt beam="2">  1        2 0.18483245E+00 0.20022352E+03</pdfrwt>
<totfact> 0.25432356E+01</totfact>
</mgrwt>
</event>
<event>
 5    1  0.2968854E-003  0.1174323E+03  0.7818608E-02  0.1588006E+00
         11   -1    0    0    0    0  0.00000000000E+00  0.00000000000E+00  0.10001799192E+04  0.10001799192E+04  0.51100000000E-03 0. -1.
         -2   -1    0    0    0  501 -0.00000000000E+00 -0.00000000000E+00 -0.38247850784E+03  0.38247850784E+03  0.25500000000E-02 0.  1.
         11    1    1    2    0    0  0.10054306685E+03 -0.49184525046E+02  0.37317859660E+03  0.38960273453E+03  0.51100000000E-03 0. -1.
         22    1    1    2    0    0 -0.12038436722E+03  0.25454086236E+02  0.61201616167E+03  0.62426283609E+03  0.00000000000E+00 0. -1.
         -2    1    1    2    0  501  0.19841300374E+02  0.23730438809E+02 -0.36749334690E+03  0.36879285643E+03  0.25500000000E-02 0.  1.
<mgrwt>
<rscale>  0 0.30932361E+02</rscale>
<asrwt>0</asrwt>
<pdfrwt beam="1">  1       11 0.10000000E+01 0.11743233E+03</pdfrwt>
<pdfrwt beam="2">  1       -2 0.58853433E-01 0.30932361E+02</pdfrwt>
<totfact> 0.22510185E+01</totfact>
</mgrwt>
</event>
<event>
 5    1  0.2968854E-003  0.3988763E+03  0.7818608E-02  0.1045753E+00
         11   -1    0    0    0    0  0.00000000000E+00  0.00000000000E+00  0.10005737252E+04  0.10005737252E+04  0.51100000000E-03 0.  1.
          2   -1    0    0  501    0 -0.00000000000E+00 -0.00000000000E+00 -0.33369636213E+03  0.33369636214E+03  0.25500000000E-02 0.  1.
         11    1    1    2    0    0 -0.30764133556E+03  0.21337442663E+03  0.79804212448E+03  0.88150046496E+03  0.51100000000E-03 0.  1.
         22    1    1    2    0    0 -0.12839261788E+02  0.16423153028E+02  0.21453719906E+02  0.29913687443E+02  0.00000000000E+00 0.  1.
          2    1    1    2  501    0  0.32048059735E+03 -0.22979757966E+03 -0.15261848129E+03  0.42285593496E+03  0.25500000000E-02 0.  1.
<mgrwt>
<rscale>  0 0.39435357E+03</rscale>
<asrwt>0</asrwt>
<pdfrwt beam="1">  1       11 0.10000000E+01 0.39887632E+03</pdfrwt>
<pdfrwt beam="2">  1        2 0.51367354E-01 0.39435357E+03</pdfrwt>
<totfact> 0.12073667E+02</totfact>
</mgrwt>
</event>
<event>
 5    1  0.2968854E-003  0.1317419E+03  0.7818608E-02  0.1224894E+00
         11   -1    0    0    0    0  0.00000000000E+00  0.00000000000E+00  0.10003811016E+04  0.10003811016E+04  0.51100000000E-03 0. -1.
          2   -1    0    0  501    0 -0.00000000000E+00 -0.00000000000E+00 -0.46133847339E+02  0.46133847410E+02  0.25500000000E-02 0. -1.
         11    1    1    2    0    0 -0.53502868742E+02  0.42446858377E+02  0.34148096296E+03  0.34824350793E+03  0.51100000000E-03 0. -1.
         22    1    1    2    0    0 -0.62441784871E+02 -0.11327506984E+03  0.51471696385E+03  0.53072004938E+03  0.00000000000E+00 0. -1.
          2    1    1    2  501    0  0.11594465361E+03  0.70828211463E+02  0.98049327458E+02  0.16755139170E+03  0.25500000000E-02 0. -1.
<mgrwt>
<rscale>  0 0.13174185E+03</rscale>
<asrwt>0</asrwt>
<pdfrwt beam="1">  1       11 0.10000000E+01 0.68295628E+02</pdfrwt>
<pdfrwt beam="2">  1        2 0.71002197E-02 0.13174185E+03</pdfrwt>
<totfact> 0.11641605E+03</totfact>
</mgrwt>
</event>
<event>
 5    1  0.2968854E-003  0.2373223E+03  0.7818608E-02  0.1123518E+00
         11   -1    0    0    0    0  0.00000000000E+00  0.00000000000E+00  0.10002993953E+04  0.10002993953E+04  0.51100000000E-03 0. -1.
          2   -1    0    0  501    0 -0.00000000000E+00 -0.00000000000E+00 -0.16008359634E+03  0.16008359636E+03  0.25500000000E-02 0. -1.
         11    1    1    2    0    0  0.19467217725E+03 -0.90995796889E+02  0.77169032386E+03  0.80105146376E+03  0.51100000000E-03 0. -1.
         22    1    1    2    0    0  0.20173692723E+02 -0.29599591366E+01  0.11794010757E+03  0.11968963285E+03  0.00000000000E+00 0. -1.
          2    1    1    2  501    0 -0.21484586997E+03  0.93955756025E+02 -0.49414632518E+02  0.23964189502E+03  0.25500000000E-02 0. -1.
<mgrwt>
<rscale>  0 0.23449186E+03</rscale>
<asrwt>0</asrwt>
<pdfrwt beam="1">  1       11 0.10000000E+01 0.23732228E+03</pdfrwt>
<pdfrwt beam="2">  1        2 0.24635618E-01 0.23449186E+03</pdfrwt>
<totfact> 0.26960975E+02</totfact>
</mgrwt>
</event>
<event>
 5    1  0.2968854E-003  0.2600181E+03  0.7818608E-02  0.1174478E+00
         11   -1    0    0    0    0  0.00000000000E+00  0.00000000000E+00  0.10001015712E+04  0.10001015712E+04  0.51100000000E-03 0. -1.
          2   -1    0    0  501    0 -0.00000000000E+00 -0.00000000000E+00 -0.11410150465E+03  0.11410150468E+03  0.25500000000E-02 0. -1.
         11    1    1    2    0    0  0.23882032269E+03  0.84425650517E+02  0.21817561983E+03  0.33431039183E+03  0.51100000000E-03 0. -1.
         22    1    1    2    0    0  0.32245532769E+02 -0.11087234107E+03  0.11167039301E+03  0.16063227283E+03  0.00000000000E+00 0. -1.
          2    1    1    2  501    0 -0.27106585546E+03  0.26446690557E+02  0.55615405372E+03  0.61926041123E+03  0.25500000000E-02 0. -1.
<mgrwt>
<rscale>  0 0.17327230E+03</rscale>
<asrwt>0</asrwt>
<pdfrwt beam="1">  1       11 0.10000000E+01 0.26001805E+03</pdfrwt>
<pdfrwt beam="2">  1        2 0.17555860E-01 0.17327230E+03</pdfrwt>
<totfact> 0.39319595E+02</totfact>
</mgrwt>
</event>
<event>
 5    1  0.2968854E-003  0.3763506E+02  0.7818608E-02  0.1706295E+00
         11   -1    0    0    0    0  0.00000000000E+00  0.00000000000E+00  0.10003376904E+04  0.10003376904E+04  0.51100000000E-03 0. -1.
          2   -1    0    0  501    0 -0.00000000000E+00 -0.00000000000E+00 -0.57923553211E+01  0.57923558824E+01  0.25500000000E-02 0. -1.
         11    1    1    2    0    0  0.29818475390E+02  0.10680325680E+02  0.82625001306E+02  0.88487861723E+02  0.51100000000E-03 0. -1.
         22    1    1    2    0    0  0.88442058109E+01 -0.95189761655E+01  0.14824516202E+02  0.19712867988E+02  0.00000000000E+00 0. -1.
          2    1    1    2  501    0 -0.38662681201E+02 -0.11613495147E+01  0.89709581758E+03  0.89792931658E+03  0.25500000000E-02 0. -1.
<mgrwt>
<rscale>  0 0.22113586E+02</rscale>
<asrwt>0</asrwt>
<pdfrwt beam="1">  1       11 0.10000000E+01 0.37635060E+02</pdfrwt>
<pdfrwt beam="2">  1        2 0.89143253E-03 0.22113586E+02</pdfrwt>
<totfact> 0.13552253E+04</totfact>
</mgrwt>
</event>
<event>
 5    1  0.2968854E-003  0.3566842E+03  0.7818608E-02  0.1059905E+00
         11   -1    0    0    0    0  0.00000000000E+00  0.00000000000E+00  0.10000412121E+04  0.10000412121E+04  0.51100000000E-03 0. -1.
          2   -1    0    0  501    0 -0.00000000000E+00 -0.00000000000E+00 -0.49500157861E+03  0.49500157862E+03  0.25500000000E-02 0. -1.
         11    1    1    2    0    0 -0.20364708317E+03  0.24984463618E+03  0.73802098690E+03  0.80533809907E+03  0.51100000000E-03 0. -1.
         22    1    1    2    0    0 -0.66220878307E+02 -0.11230634254E+02  0.14974266727E+03  0.16411641682E+03  0.00000000000E+00 0. -1.
          2    1    1    2  501    0  0.26986796147E+03 -0.23861400193E+03 -0.38272402072E+03  0.52558827478E+03  0.25500000000E-02 0. -1.
<mgrwt>
<rscale>  0 0.35668421E+03</rscale>
<asrwt>0</asrwt>
<pdfrwt beam="1">  1       11 0.10000000E+01 0.67166449E+02</pdfrwt>
<pdfrwt beam="2">  1        2 0.76157225E-01 0.35668421E+03</pdfrwt>
<totfact> 0.78071207E+01</totfact>
</mgrwt>
</event>
<event>
 5    1  0.2968854E-003  0.1467564E+03  0.7818608E-02  0.1204516E+00
         11   -1    0    0    0    0  0.00000000000E+00  0.00000000000E+00  0.10002139971E+04  0.10002139971E+04  0.51100000000E-03 0. -1.
          2   -1    0    0  501    0 -0.00000000000E+00 -0.00000000000E+00 -0.47901146038E+02  0.47901146106E+02  0.25500000000E-02 0. -1.
         11    1    1    2    0    0 -0.22771436350E+01 -0.27210480761E+02 -0.17553626677E+02  0.32461137628E+02  0.51100000000E-03 0. -1.
         22    1    1    2    0    0  0.36175529115E+02 -0.12609460826E+03  0.59399223340E+03  0.60830526258E+03  0.00000000000E+00 0. -1.
          2    1    1    2  501    0 -0.33898385480E+02  0.15330508902E+03  0.37587424432E+03  0.40734874298E+03  0.25500000000E-02 0. -1.
<mgrwt>
<rscale>  0 0.14675637E+03</rscale>
<asrwt>0</asrwt>
<pdfrwt beam="1">  1       11 0.10000000E+01 0.27305611E+02</pdfrwt>
<pdfrwt beam="2">  1        2 0.73709839E-02 0.14675637E+03</pdfrwt>
<totfact> 0.11183209E+03</totfact>
</mgrwt>
</event>
<event>
 5    1  0.2968854E-003  0.3100511E+03  0.7818608E-02  0.1097357E+00
         11   -1    0    0    0    0  0.00000000000E+00  0.00000000000E+00  0.10003568936E+04  0.10003568936E+04  0.51100000000E-03 0.  1.
          2   -1    0    0  501    0 -0.00000000000E+00 -0.00000000000E+00 -0.96121670258E+02  0.96121670292E+02  0.25500000000E-02 0.  1.
         11    1    1    2    0    0  0.12944899164E+03 -0.39246626888E+02  0.38215402846E+03  0.40538751908E+03  0.51100000000E-03 0.  1.
         22    1    1    2    0    0  0.14436332898E+03  0.80936429615E+02  0.26941196695E+03  0.31618710336E+03  0.00000000000E+00 0.  1.
          2    1    1    2  501    0 -0.27381232062E+03 -0.41689802727E+02  0.25266922798E+03  0.37490394150E+03  0.25500000000E-02 0.  1.
<mgrwt>
<rscale>  0 0.27696792E+03</rscale>
<asrwt>0</asrwt>
<pdfrwt beam="1">  1       11 0.10000000E+01 0.31005111E+03</pdfrwt>
<pdfrwt beam="2">  1        2 0.14793227E-01 0.27696792E+03</pdfrwt>
<totfact> 0.48882611E+02</totfact>
</mgrwt>
</event>
<event>
 5    1  0.2968854E-003  0.9100354E+02  0.7818608E-02  0.1446571E+00
         11   -1    0    0    0    0  0.00000000000E+00  0.00000000000E+00  0.10002151426E+04  0.10002151426E+04  0.51100000000E-03 0. -1.
          2   -1    0    0  501    0 -0.00000000000E+00 -0.00000000000E+00 -0.14958909388E+02  0.14958909605E+02  0.25500000000E-02 0. -1.
         11    1    1    2    0    0 -0.83212167647E+02 -0.27566919488E+01  0.30664263706E+03  0.31774450594E+03  0.51100000000E-03 0. -1.
         22    1    1    2    0    0  0.88658995035E+02  0.52230518719E+02  0.54955847279E+03  0.55910907657E+03  0.00000000000E+00 0. -1.
          2    1    1    2  501    0 -0.54468273873E+01 -0.49473826770E+02  0.12905512339E+03  0.13832046972E+03  0.25500000000E-02 0. -1.
<mgrwt>
<rscale>  0 0.49772758E+02</rscale>
<asrwt>0</asrwt>
<pdfrwt beam="1">  1       11 0.10000000E+01 0.91003542E+02</pdfrwt>
<pdfrwt beam="2">  1        2 0.23018657E-02 0.49772758E+02</pdfrwt>
<totfact> 0.45433263E+03</totfact>
</mgrwt>
</event>
<event>
 5    1  0.2968854E-003  0.1550971E+03  0.7818608E-02  0.1196900E+00
         11   -1    0    0    0    0  0.00000000000E+00  0.00000000000E+00  0.10004524947E+04  0.10004524947E+04  0.51100000000E-03 0. -1.
         -2   -1    0    0    0  501 -0.00000000000E+00 -0.00000000000E+00 -0.25261713500E+02  0.25261713629E+02  0.25500000000E-02 0.  1.
         11    1    1    2    0    0  0.12085150553E+02 -0.11913614052E+03  0.43607754778E+03  0.45222018809E+03  0.51100000000E-03 0. -1.
         22    1    1    2    0    0  0.64387433236E+01 -0.32683543116E+02  0.18174363061E+03  0.18477126041E+03  0.00000000000E+00 0.  1.
         -2    1    1    2    0  501 -0.18523893876E+02  0.15181968364E+03  0.35736960279E+03  0.38872275981E+03  0.25500000000E-02 0.  1.
<mgrwt>
<rscale>  0 0.15294558E+03</rscale>
<asrwt>0</asrwt>
<pdfrwt beam="1">  1       11 0.10000000E+01 0.15509706E+03</pdfrwt>
<pdfrwt beam="2">  1       -2 0.38881759E-02 0.15294558E+03</pdfrwt>
<totfact> 0.21748367E+03</totfact>
</mgrwt>
</event>
<event>
 5    1  0.2968854E-003  0.1894455E+03  0.7818608E-02  0.1172295E+00
         11   -1    0    0    0    0  0.00000000000E+00  0.00000000000E+00  0.99993189643E+03  0.99993189643E+03  0.51100000000E-03 0.  1.
          2   -1    0    0  501    0 -0.00000000000E+00 -0.00000000000E+00 -0.12027628561E+03  0.12027628564E+03  0.25500000000E-02 0. -1.
         11    1    1    2    0    0 -0.99379143586E+02 -0.11347902039E+03  0.77248279899E+03  0.78707266309E+03  0.51100000000E-03 0.  1.
         22    1    1    2    0    0 -0.37437278192E+02  0.36659393716E+01  0.14825604194E+03  0.15295372791E+03  0.00000000000E+00 0. -1.
          2    1    1    2  501    0  0.13681642178E+03  0.10981308101E+03 -0.41083230113E+02  0.18018179107E+03  0.25500000000E-02 0. -1.
<mgrwt>
<rscale>  0 0.17543559E+03</rscale>
<asrwt>0</asrwt>
<pdfrwt beam="1">  1       11 0.10000000E+01 0.18944551E+03</pdfrwt>
<pdfrwt beam="2">  1        2 0.18502783E-01 0.17543559E+03</pdfrwt>
<totfact> 0.37023165E+02</totfact>
</mgrwt>
</event>
<event>
 5    1  0.2968854E-003  0.2794722E+03  0.7818608E-02  0.1101422E+00
         11   -1    0    0    0    0  0.00000000000E+00  0.00000000000E+00  0.99993665747E+03  0.99993665747E+03  0.51100000000E-03 0.  1.
          2   -1    0    0  501    0 -0.00000000000E+00 -0.00000000000E+00 -0.11253306433E+03  0.11253306436E+03  0.25500000000E-02 0.  1.
         11    1    1    2    0    0  0.90737707585E+02 -0.19468638202E+03  0.58621575713E+03  0.62432766464E+03  0.51100000000E-03 0.  1.
         22    1    1    2    0    0  0.56586390152E+02 -0.31280680783E+02  0.18216613623E+03  0.19330028900E+03  0.00000000000E+00 0.  1.
          2    1    1    2  501    0 -0.14732409774E+03  0.22596706280E+03  0.11902169978E+03  0.29484176819E+03  0.25500000000E-02 0.  1.
<mgrwt>
<rscale>  0 0.26975082E+03</rscale>
<asrwt>0</asrwt>
<pdfrwt beam="1">  1       11 0.10000000E+01 0.27947225E+03</pdfrwt>
<pdfrwt beam="2">  1        2 0.17311682E-01 0.26975082E+03</pdfrwt>
<totfact> 0.40545477E+02</totfact>
</mgrwt>
</event>
<event>
 5    1  0.2968854E-003  0.1567527E+03  0.7818608E-02  0.1210189E+00
         11   -1    0    0    0    0  0.00000000000E+00  0.00000000000E+00  0.10003733011E+04  0.10003733011E+04  0.51100000000E-03 0.  1.
          2   -1    0    0  501    0 -0.00000000000E+00 -0.00000000000E+00 -0.22465273902E+02  0.22465274047E+02  0.25500000000E-02 0.  1.
         11    1    1    2    0    0 -0.11140187100E+03 -0.45464216340E-01  0.28662731985E+03  0.30751520192E+03  0.51100000000E-03 0.  1.
         22    1    1    2    0    0 -0.28009492543E+02  0.28867831519E+02  0.19055842395E+03  0.19475727537E+03  0.00000000000E+00 0.  1.
          2    1    1    2  501    0  0.13941136355E+03 -0.28822367302E+02  0.50072228343E+03  0.52056609789E+03  0.25500000000E-02 0.  1.
<mgrwt>
<rscale>  0 0.14235961E+03</rscale>
<asrwt>0</asrwt>
<pdfrwt beam="1">  1       11 0.10000000E+01 0.15675269E+03</pdfrwt>
<pdfrwt beam="2">  1        2 0.34574861E-02 0.14235961E+03</pdfrwt>
<totfact> 0.29967790E+03</totfact>
</mgrwt>
</event>
<event>
 5    1  0.2968854E-003  0.1373933E+03  0.7818608E-02  0.1216880E+00
         11   -1    0    0    0    0  0.00000000000E+00  0.00000000000E+00  0.10003064085E+04  0.10003064085E+04  0.51100000000E-03 0.  1.
          2   -1    0    0  501    0 -0.00000000000E+00 -0.00000000000E+00 -0.30688799678E+02  0.30688799784E+02  0.25500000000E-02 0.  1.
         11    1    1    2    0    0 -0.12827401556E+03 -0.21251736160E+02  0.53718073380E+03  0.55269250051E+03  0.51100000000E-03 0.  1.
         22    1    1    2    0    0 -0.12836817070E+02  0.46770076941E+02  0.19484043814E+03  0.20078600625E+03  0.00000000000E+00 0.  1.
          2    1    1    2  501    0  0.14111083263E+03 -0.25518340781E+02  0.23759643689E+03  0.27751670153E+03  0.25500000000E-02 0.  1.
<mgrwt>
<rscale>  0 0.13739331E+03</rscale>
<asrwt>0</asrwt>
<pdfrwt beam="1">  1       11 0.10000000E+01 0.48499732E+02</pdfrwt>
<pdfrwt beam="2">  1        2 0.47228003E-02 0.13739331E+03</pdfrwt>
<totfact> 0.19765609E+03</totfact>
</mgrwt>
</event>
<event>
 5    1  0.2968854E-003  0.2736046E+03  0.7818608E-02  0.1099234E+00
         11   -1    0    0    0    0  0.00000000000E+00  0.00000000000E+00  0.10004686476E+04  0.10004686476E+04  0.51100000000E-03 0. -1.
         -2   -1    0    0    0  501 -0.00000000000E+00 -0.00000000000E+00 -0.43533190048E+03  0.43533190049E+03  0.25500000000E-02 0.  1.
         11    1    1    2    0    0 -0.16834244529E+03 -0.12981953024E+03  0.52119771786E+03  0.56288484650E+03  0.51100000000E-03 0. -1.
         22    1    1    2    0    0 -0.11382011868E+03  0.11540415913E+03  0.39225224954E+03  0.42442309861E+03  0.00000000000E+00 0. -1.
         -2    1    1    2    0  501  0.28216256397E+03  0.14415371116E+02 -0.34831322032E+03  0.44849260294E+03  0.25500000000E-02 0.  1.
<mgrwt>
<rscale>  0 0.27360461E+03</rscale>
<asrwt>0</asrwt>
<pdfrwt beam="1">  1       11 0.10000000E+01 0.16208991E+03</pdfrwt>
<pdfrwt beam="2">  1       -2 0.67005524E-01 0.27360461E+03</pdfrwt>
<totfact> 0.16992808E+01</totfact>
</mgrwt>
</event>
<event>
 5    1  0.2968854E-003  0.2354091E+03  0.7818608E-02  0.1133927E+00
         11   -1    0    0    0    0  0.00000000000E+00  0.00000000000E+00  0.10004170647E+04  0.10004170647E+04  0.51100000000E-03 0.  1.
          2   -1    0    0  501    0 -0.00000000000E+00 -0.00000000000E+00 -0.11966120670E+03  0.11966120672E+03  0.25500000000E-02 0.  1.
         11    1    1    2    0    0  0.15511538193E+03  0.86965333648E+02  0.39186379243E+02  0.18209701614E+03  0.51100000000E-03 0.  1.
         22    1    1    2    0    0  0.16907327546E+02  0.50082001954E+02 -0.13928579971E+02  0.54663241621E+02  0.00000000000E+00 0.  1.
          2    1    1    2  501    0 -0.17202270948E+03 -0.13704733560E+03  0.85549805876E+03  0.88331801370E+03  0.25500000000E-02 0.  1.
<mgrwt>
<rscale>  0 0.21994041E+03</rscale>
<asrwt>0</asrwt>
<pdfrwt beam="1">  1       11 0.10000000E+01 0.23540914E+03</pdfrwt>
<pdfrwt beam="2">  1        2 0.18417094E-01 0.21994041E+03</pdfrwt>
<totfact> 0.37489321E+02</totfact>
</mgrwt>
</event>
<event>
 5    1  0.2968854E-003  0.4475640E+02  0.7818608E-02  0.1475868E+00
         11   -1    0    0    0    0  0.00000000000E+00  0.00000000000E+00  0.10003225971E+04  0.10003225971E+04  0.51100000000E-03 0.  1.
          2   -1    0    0  501    0 -0.00000000000E+00 -0.00000000000E+00 -0.90051465453E+01  0.90051469064E+01  0.25500000000E-02 0.  1.
         11    1    1    2    0    0  0.24477922771E+02 -0.10649740045E+02  0.36129043385E+02  0.44920968850E+02  0.51100000000E-03 0.  1.
         22    1    1    2    0    0 -0.32631720319E+02 -0.32388342395E+02  0.12709036351E+03  0.13515100589E+03  0.00000000000E+00 0.  1.
          2    1    1    2  501    0  0.81537975475E+01  0.43038082440E+02  0.82809804367E+03  0.82925576928E+03  0.25500000000E-02 0.  1.
<mgrwt>
<rscale>  0 0.44756397E+02</rscale>
<asrwt>0</asrwt>
<pdfrwt beam="1">  1       11 0.10000000E+01 0.26694314E+02</pdfrwt>
<pdfrwt beam="2">  1        2 0.13858541E-02 0.44756397E+02</pdfrwt>
<totfact> 0.87415232E+03</totfact>
</mgrwt>
</event>
<event>
 5    1  0.2968854E-003  0.1159050E+03  0.7818608E-02  0.1250010E+00
         11   -1    0    0    0    0  0.00000000000E+00  0.00000000000E+00  0.10003444738E+04  0.10003444738E+04  0.51100000000E-03 0.  1.
          2   -1    0    0  501    0 -0.00000000000E+00 -0.00000000000E+00 -0.36747347973E+02  0.36747348062E+02  0.25500000000E-02 0.  1.
         11    1    1    2    0    0 -0.24182022923E+01 -0.62205584040E+02  0.27340856995E+03  0.28040618487E+03  0.51100000000E-03 0.  1.
         22    1    1    2    0    0  0.11789424122E+03  0.51812425986E+02  0.58863325263E+03  0.60255513084E+03  0.00000000000E+00 0.  1.
          2    1    1    2  501    0 -0.11547603893E+03  0.10393158054E+02  0.10155530321E+03  0.15413050612E+03  0.25500000000E-02 0.  1.
<mgrwt>
<rscale>  0 0.11590495E+03</rscale>
<asrwt>0</asrwt>
<pdfrwt beam="1">  1       11 0.10000000E+01 0.62252569E+02</pdfrwt>
<pdfrwt beam="2">  1        2 0.56553855E-02 0.11590495E+03</pdfrwt>
<totfact> 0.15421079E+03</totfact>
</mgrwt>
</event>
<event>
 5    1  0.2968854E-003  0.1535744E+03  0.7818608E-02  0.1196148E+00
         11   -1    0    0    0    0  0.00000000000E+00  0.00000000000E+00  0.99980721439E+03  0.99980721439E+03  0.51100000000E-03 0.  1.
          2   -1    0    0  501    0 -0.00000000000E+00 -0.00000000000E+00 -0.12682107703E+03  0.12682107706E+03  0.25500000000E-02 0.  1.
         11    1    1    2    0    0  0.40444370295E+02 -0.48637193307E+01  0.22579753309E+03  0.22944264818E+03  0.51100000000E-03 0.  1.
         22    1    1    2    0    0  0.77587951883E+02  0.10590163745E+03  0.71551140503E+03  0.72745557791E+03  0.00000000000E+00 0.  1.
          2    1    1    2  501    0 -0.11803232218E+03 -0.10103791812E+03 -0.68322800764E+02  0.16973006536E+03  0.25500000000E-02 0.  1.
<mgrwt>
<rscale>  0 0.15357435E+03</rscale>
<asrwt>0</asrwt>
<pdfrwt beam="1">  1       11 0.10000000E+01 0.40735769E+02</pdfrwt>
<pdfrwt beam="2">  1        2 0.19507173E-01 0.15357435E+03</pdfrwt>
<totfact> 0.34701129E+02</totfact>
</mgrwt>
</event>
<event>
 5    1  0.2968854E-003  0.2005334E+03  0.7818608E-02  0.1149290E+00
         11   -1    0    0    0    0  0.00000000000E+00  0.00000000000E+00  0.10002197796E+04  0.10002197796E+04  0.51100000000E-03 0.  1.
          2   -1    0    0  501    0 -0.00000000000E+00 -0.00000000000E+00 -0.95798030215E+02  0.95798030249E+02  0.25500000000E-02 0.  1.
         11    1    1    2    0    0  0.17333180372E+03 -0.98331249869E+02  0.84347386912E+03  0.86669551560E+03  0.51100000000E-03 0.  1.
         22    1    1    2    0    0  0.64103165615E+01  0.89297948170E+01  0.22336151059E+02  0.24894518233E+02  0.00000000000E+00 0.  1.
          2    1    1    2  501    0 -0.17974212029E+03  0.89401455052E+02  0.38611729219E+02  0.20442777602E+03  0.25500000000E-02 0.  1.
<mgrwt>
<rscale>  0 0.20053343E+03</rscale>
<asrwt>0</asrwt>
<pdfrwt beam="1">  1       11 0.10000000E+01 0.10992424E+02</pdfrwt>
<pdfrwt beam="2">  1        2 0.14741397E-01 0.20053343E+03</pdfrwt>
<totfact> 0.48508270E+02</totfact>
</mgrwt>
</event>
<event>
 5    1  0.2968854E-003  0.8284068E+02  0.7818608E-02  0.1326581E+00
         11   -1    0    0    0    0  0.00000000000E+00  0.00000000000E+00  0.10000469703E+04  0.10000469703E+04  0.51100000000E-03 0. -1.
          2   -1    0    0  501    0 -0.00000000000E+00 -0.00000000000E+00 -0.84768874960E+01  0.84768878795E+01  0.25500000000E-02 0. -1.
         11    1    1    2    0    0 -0.20776038916E+02  0.54733076011E+02  0.16560027882E+03  0.17564397442E+03  0.51100000000E-03 0. -1.
         22    1    1    2    0    0 -0.10406651624E+02  0.19890815369E+02  0.10406413038E+03  0.10645790796E+03  0.00000000000E+00 0. -1.
          2    1    1    2  501    0  0.31182690540E+02 -0.74623891380E+02  0.72190567360E+03  0.72642197581E+03  0.25500000000E-02 0. -1.
<mgrwt>
<rscale>  0 0.80876977E+02</rscale>
<asrwt>0</asrwt>
<pdfrwt beam="1">  1       11 0.10000000E+01 0.82840681E+02</pdfrwt>
<pdfrwt beam="2">  1        2 0.13041978E-02 0.80876977E+02</pdfrwt>
<totfact> 0.10437885E+04</totfact>
</mgrwt>
</event>
<event>
 5    1  0.2968854E-003  0.1440800E+03  0.7818608E-02  0.1207942E+00
         11   -1    0    0    0    0  0.00000000000E+00  0.00000000000E+00  0.10001215695E+04  0.10001215695E+04  0.51100000000E-03 0. -1.
          2   -1    0    0  501    0 -0.00000000000E+00 -0.00000000000E+00 -0.12600455354E+03  0.12600455356E+03  0.25500000000E-02 0. -1.
         11    1    1    2    0    0 -0.13858849361E+03  0.80693175572E+02  0.78998343485E+03  0.80609676000E+03  0.51100000000E-03 0. -1.
         22    1    1    2    0    0  0.32346101332E+02  0.15556097498E+02  0.15571236244E+03  0.15979550137E+03  0.00000000000E+00 0. -1.
          2    1    1    2  501    0  0.10624239228E+03 -0.96249273071E+02 -0.71578781340E+02  0.16023386168E+03  0.25500000000E-02 0. -1.
<mgrwt>
<rscale>  0 0.14407996E+03</rscale>
<asrwt>0</asrwt>
<pdfrwt beam="1">  1       11 0.10000000E+01 0.35892373E+02</pdfrwt>
<pdfrwt beam="2">  1        2 0.19387672E-01 0.14407996E+03</pdfrwt>
<totfact> 0.34871131E+02</totfact>
</mgrwt>
</event>
<event>
 5    1  0.2968854E-003  0.2962810E+03  0.7818608E-02  0.1094477E+00
         11   -1    0    0    0    0  0.00000000000E+00  0.00000000000E+00  0.10000301735E+04  0.10000301735E+04  0.51100000000E-03 0. -1.
          2   -1    0    0  501    0 -0.00000000000E+00 -0.00000000000E+00 -0.41576872654E+03  0.41576872655E+03  0.25500000000E-02 0. -1.
         11    1    1    2    0    0 -0.15382164165E+03 -0.18898148998E+03  0.70060498895E+03  0.74176981034E+03  0.51100000000E-03 0. -1.
         22    1    1    2    0    0  0.68409612681E+00 -0.48090139912E+02  0.22559235216E+03  0.23066217483E+03  0.00000000000E+00 0.  1.
          2    1    1    2  501    0  0.15313754552E+03  0.23707162990E+03 -0.34193589412E+03  0.44336691492E+03  0.25500000000E-02 0. -1.
<mgrwt>
<rscale>  0 0.28223052E+03</rscale>
<asrwt>0</asrwt>
<pdfrwt beam="1">  1       11 0.10000000E+01 0.29628103E+03</pdfrwt>
<pdfrwt beam="2">  1        2 0.63966348E-01 0.28223052E+03</pdfrwt>
<totfact> 0.95124872E+01</totfact>
</mgrwt>
</event>
<event>
 5    1  0.2968854E-003  0.1305152E+03  0.7818608E-02  0.1226693E+00
         11   -1    0    0    0    0  0.00000000000E+00  0.00000000000E+00  0.10001909911E+04  0.10001909911E+04  0.51100000000E-03 0. -1.
          2   -1    0    0  501    0 -0.00000000000E+00 -0.00000000000E+00 -0.59124991209E+02  0.59124991264E+02  0.25500000000E-02 0. -1.
         11    1    1    2    0    0 -0.16591271500E+02  0.78332582348E+02  0.38986491735E+03  0.39800240894E+03  0.51100000000E-03 0. -1.
         22    1    1    2    0    0 -0.99587554056E+02 -0.14663307763E+01  0.50472785841E+03  0.51446092379E+03  0.00000000000E+00 0. -1.
          2    1    1    2  501    0  0.11617882556E+03 -0.76866251572E+02  0.46473224145E+02  0.14685264964E+03  0.25500000000E-02 0. -1.
<mgrwt>
<rscale>  0 0.13051523E+03</rscale>
<asrwt>0</asrwt>
<pdfrwt beam="1">  1       11 0.10000000E+01 0.80070367E+02</pdfrwt>
<pdfrwt beam="2">  1        2 0.90978895E-02 0.13051523E+03</pdfrwt>
<totfact> 0.85272125E+02</totfact>
</mgrwt>
</event>
<event>
 5    1  0.2968854E-003  0.1570894E+03  0.7818608E-02  0.1192023E+00
         11   -1    0    0    0    0  0.00000000000E+00  0.00000000000E+00  0.10006615436E+04  0.10006615436E+04  0.51100000000E-03 0.  1.
          2   -1    0    0  501    0 -0.00000000000E+00 -0.00000000000E+00 -0.12543222542E+04  0.12543222542E+04  0.25500000000E-02 0.  1.
         11    1    1    2    0    0 -0.12000376221E+02 -0.80405816877E+02  0.25835046473E+03  0.27083955959E+03  0.51100000000E-03 0.  1.
         22    1    1    2    0    0  0.16841000337E+03  0.93559709734E+02  0.71838889851E+03  0.74377278655E+03  0.00000000000E+00 0.  1.
          2    1    1    2  501    0 -0.15640962715E+03 -0.13153892857E+02 -0.12304000739E+04  0.12403714517E+04  0.25500000000E-02 0.  1.
<mgrwt>
<rscale>  0 0.15708936E+03</rscale>
<asrwt>0</asrwt>
<pdfrwt beam="1">  1       11 0.10000000E+01 0.81296399E+02</pdfrwt>
<pdfrwt beam="2">  1        2 0.19310031E+00 0.15708936E+03</pdfrwt>
<totfact> 0.24101974E+01</totfact>
</mgrwt>
</event>
<event>
 5    1  0.2968854E-003  0.9926615E+02  0.7818608E-02  0.1281847E+00
         11   -1    0    0    0    0  0.00000000000E+00  0.00000000000E+00  0.10000315653E+04  0.10000315653E+04  0.51100000000E-03 0. -1.
          2   -1    0    0  501    0 -0.00000000000E+00 -0.00000000000E+00 -0.18159452029E+02  0.18159452208E+02  0.25500000000E-02 0. -1.
         11    1    1    2    0    0  0.11379366362E+02 -0.81190250543E+02  0.44798878140E+03  0.45542869367E+03  0.51100000000E-03 0. -1.
         22    1    1    2    0    0 -0.49550791655E+02 -0.26504432541E+02  0.25995749299E+03  0.26596177181E+03  0.00000000000E+00 0. -1.
          2    1    1    2  501    0  0.38171425293E+02  0.10769468308E+03  0.27392583890E+03  0.29680055205E+03  0.25500000000E-02 0. -1.
<mgrwt>
<rscale>  0 0.99266147E+02</rscale>
<asrwt>0</asrwt>
<pdfrwt beam="1">  1       11 0.10000000E+01 0.56194002E+02</pdfrwt>
<pdfrwt beam="2">  1        2 0.27938500E-02 0.99266147E+02</pdfrwt>
<totfact> 0.38379555E+03</totfact>
</mgrwt>
</event>
<event>
 5    1  0.2968854E-003  0.1664117E+03  0.7818608E-02  0.1184531E+00
         11   -1    0    0    0    0  0.00000000000E+00  0.00000000000E+00  0.10000859977E+04  0.10000859977E+04  0.51100000000E-03 0.  1.
          2   -1    0    0  501    0 -0.00000000000E+00 -0.00000000000E+00 -0.22005657176E+03  0.22005657177E+03  0.25500000000E-02 0.  1.
         11    1    1    2    0    0  0.30869620593E+02  0.12385582512E+03  0.76637317209E+03  0.77693052314E+03  0.51100000000E-03 0.  1.
         22    1    1    2    0    0 -0.57030974549E+01  0.37945230822E+02  0.19508115046E+03  0.19881906630E+03  0.00000000000E+00 0.  1.
          2    1    1    2  501    0 -0.25166523138E+02 -0.16180105594E+03 -0.18142489658E+03  0.24439298005E+03  0.25500000000E-02 0.  1.
<mgrwt>
<rscale>  0 0.16374656E+03</rscale>
<asrwt>0</asrwt>
<pdfrwt beam="1">  1       11 0.10000000E+01 0.16641168E+03</pdfrwt>
<pdfrwt beam="2">  1        2 0.33857768E-01 0.16374656E+03</pdfrwt>
<totfact> 0.18886528E+02</totfact>
</mgrwt>
</event>
<event>
 5    1  0.2968854E-003  0.9753473E+02  0.7818608E-02  0.1289149E+00
         11   -1    0    0    0    0  0.00000000000E+00  0.00000000000E+00  0.10003954515E+04  0.10003954515E+04  0.51100000000E-03 0. -1.
         -2   -1    0    0    0  501 -0.00000000000E+00 -0.00000000000E+00 -0.95006585785E+01  0.95006589207E+01  0.25500000000E-02 0.  1.
         11    1    1    2    0    0 -0.70690061742E+02 -0.24819792862E+02  0.45161714359E+03  0.45778941811E+03  0.51100000000E-03 0. -1.
         22    1    1    2    0    0 -0.22278756931E+02  0.12671754329E+01  0.11128561384E+03  0.11350082198E+03  0.00000000000E+00 0.  1.
         -2    1    1    2    0  501  0.92968818673E+02  0.23552617429E+02  0.42799203546E+03  0.43860587029E+03  0.25500000000E-02 0.  1.
<mgrwt>
<rscale>  0 0.95905824E+02</rscale>
<asrwt>0</asrwt>
<pdfrwt beam="1">  1       11 0.10000000E+01 0.97534733E+02</pdfrwt>
<pdfrwt beam="2">  1       -2 0.14622178E-02 0.95905824E+02</pdfrwt>
<totfact> 0.85447801E+03</totfact>
</mgrwt>
</event>
<event>
 5    1  0.2968854E-003  0.1517343E+03  0.7818608E-02  0.1540051E+00
         11   -1    0    0    0    0  0.00000000000E+00  0.00000000000E+00  0.10004187569E+04  0.10004187569E+04  0.51100000000E-03 0.  1.
          2   -1    0    0  501    0 -0.00000000000E+00 -0.00000000000E+00 -0.16369451723E+04  0.16369451723E+04  0.25500000000E-02 0.  1.
         11    1    1    2    0    0  0.77051685911E+02 -0.15177089385E+03  0.44591968587E+02  0.17595400020E+03  0.51100000000E-03 0.  1.
         22    1    1    2    0    0 -0.41862655499E+02  0.14425934187E+03  0.88360051947E+03  0.89627736647E+03  0.00000000000E+00 0.  1.
          2    1    1    2  501    0 -0.35189030413E+02  0.75115519845E+01 -0.15647189035E+04  0.15651325625E+04  0.25500000000E-02 0.  1.
<mgrwt>
<rscale>  0 0.35981819E+02</rscale>
<asrwt>0</asrwt>
<pdfrwt beam="1">  1       11 0.10000000E+01 0.15173431E+03</pdfrwt>
<pdfrwt beam="2">  1        2 0.25194317E+00 0.35981819E+02</pdfrwt>
<totfact> 0.17304417E+01</totfact>
</mgrwt>
</event>
<event>
 5    1  0.2968854E-003  0.2774073E+03  0.7818608E-02  0.1097114E+00
         11   -1    0    0    0    0  0.00000000000E+00  0.00000000000E+00  0.10002738738E+04  0.10002738738E+04  0.51100000000E-03 0. -1.
          2   -1    0    0  501    0 -0.00000000000E+00 -0.00000000000E+00 -0.14505584788E+03  0.14505584790E+03  0.25500000000E-02 0. -1.
         11    1    1    2    0    0  0.84517805576E+02 -0.26212056261E+03  0.75649292882E+03  0.80506645698E+03  0.51100000000E-03 0. -1.
         22    1    1    2    0    0  0.26627006451E+02  0.72334971952E+01  0.51205430916E+02  0.58166288428E+02  0.00000000000E+00 0. -1.
          2    1    1    2  501    0 -0.11114481203E+03  0.25488706542E+03  0.47519666190E+02  0.28209697630E+03  0.25500000000E-02 0. -1.
<mgrwt>
<rscale>  0 0.27740726E+03</rscale>
<asrwt>0</asrwt>
<pdfrwt beam="1">  1       11 0.10000000E+01 0.27592045E+02</pdfrwt>
<pdfrwt beam="2">  1        2 0.22322395E-01 0.27740726E+03</pdfrwt>
<totfact> 0.30251585E+02</totfact>
</mgrwt>
</event>
<event>
 5    1  0.2968854E-003  0.1421711E+03  0.7818608E-02  0.1359573E+00
         11   -1    0    0    0    0  0.00000000000E+00  0.00000000000E+00  0.10002464631E+04  0.10002464631E+04  0.51100000000E-03 0. -1.
         -2   -1    0    0    0  501 -0.00000000000E+00 -0.00000000000E+00 -0.25561478209E+03  0.25561478210E+03  0.25500000000E-02 0. -1.
         11    1    1    2    0    0  0.69970106336E+02 -0.19063842134E+03  0.13218493235E+03  0.24230493147E+03  0.51100000000E-03 0. -1.
         22    1    1    2    0    0 -0.30802415396E+02  0.13243728599E+03  0.80095653093E+03  0.81241601901E+03  0.00000000000E+00 0. -1.
         -2    1    1    2    0  501 -0.39167690940E+02  0.58201135352E+02 -0.18850978223E+03  0.20114029475E+03  0.25500000000E-02 0. -1.
<mgrwt>
<rscale>  0 0.70153262E+02</rscale>
<asrwt>0</asrwt>
<pdfrwt beam="1">  1       11 0.10000000E+01 0.14217107E+03</pdfrwt>
<pdfrwt beam="2">  1       -2 0.39335042E-01 0.70153262E+02</pdfrwt>
<totfact> 0.49191159E+01</totfact>
</mgrwt>
</event>
<event>
 5    1  0.2968854E-003  0.6289009E+02  0.7818608E-02  0.1635386E+00
         11   -1    0    0    0    0  0.00000000000E+00  0.00000000000E+00  0.10002836191E+04  0.10002836191E+04  0.51100000000E-03 0.  1.
          2   -1    0    0  501    0 -0.00000000000E+00 -0.00000000000E+00 -0.57745901404E+01  0.57745907035E+01  0.25500000000E-02 0.  1.
         11    1    1    2    0    0  0.52185989088E+01 -0.64359972036E+02  0.27335460295E+03  0.28087751553E+03  0.51100000000E-03 0.  1.
         22    1    1    2    0    0 -0.11287533215E+02  0.21392938877E+01  0.60972020604E+02  0.62044921476E+02  0.00000000000E+00 0.  1.
          2    1    1    2  501    0  0.60689343060E+01  0.62220678149E+02  0.66018240541E+03  0.66313577281E+03  0.25500000000E-02 0.  1.
<mgrwt>
<rscale>  0 0.26879559E+02</rscale>
<asrwt>0</asrwt>
<pdfrwt beam="1">  1       11 0.10000000E+01 0.62890091E+02</pdfrwt>
<pdfrwt beam="2">  1        2 0.88865047E-03 0.26879559E+02</pdfrwt>
<totfact> 0.14227771E+04</totfact>
</mgrwt>
</event>
<event>
 5    1  0.2968854E-003  0.5707842E+03  0.7818608E-02  0.1000982E+00
         11   -1    0    0    0    0  0.00000000000E+00  0.00000000000E+00  0.10009192084E+04  0.10009192084E+04  0.51100000000E-03 0. -1.
          2   -1    0    0  501    0 -0.00000000000E+00 -0.00000000000E+00 -0.14732144193E+04  0.14732144193E+04  0.25500000000E-02 0. -1.
         11    1    1    2    0    0  0.13909247519E+03 -0.55165712928E+02  0.13887228016E+03  0.20414573895E+03  0.51100000000E-03 0. -1.
         22    1    1    2    0    0  0.40516669720E+03 -0.38258075900E+02  0.72098464396E+03  0.82791460291E+03  0.00000000000E+00 0. -1.
          2    1    1    2  501    0 -0.54425917238E+03  0.93423788827E+02 -0.13321521350E+04  0.14420732859E+04  0.25500000000E-02 0. -1.
<mgrwt>
<rscale>  0 0.55221921E+03</rscale>
<asrwt>0</asrwt>
<pdfrwt beam="1">  1       11 0.10000000E+01 0.57078421E+03</pdfrwt>
<pdfrwt beam="2">  1        2 0.22685670E+00 0.55221921E+03</pdfrwt>
<totfact> 0.16788149E+01</totfact>
</mgrwt>
</event>
<event>
 5    1  0.2968854E-003  0.1367891E+03  0.7818608E-02  0.1236762E+00
         11   -1    0    0    0    0  0.00000000000E+00  0.00000000000E+00  0.10000276497E+04  0.10000276497E+04  0.51100000000E-03 0. -1.
          2   -1    0    0  501    0 -0.00000000000E+00 -0.00000000000E+00 -0.17064622449E+02  0.17064622640E+02  0.25500000000E-02 0.  1.
         11    1    1    2    0    0 -0.64012832308E+02 -0.16610837647E+02  0.20640342014E+03  0.21673932378E+03  0.51100000000E-03 0. -1.
         22    1    1    2    0    0 -0.59042863143E+02  0.31247492310E+02  0.34230872397E+03  0.34876600748E+03  0.00000000000E+00 0.  1.
          2    1    1    2  501    0  0.12305569545E+03 -0.14636654664E+02  0.43425088316E+03  0.45158694111E+03  0.25500000000E-02 0.  1.
<mgrwt>
<rscale>  0 0.12392310E+03</rscale>
<asrwt>0</asrwt>
<pdfrwt beam="1">  1       11 0.10000000E+01 0.13678912E+03</pdfrwt>
<pdfrwt beam="2">  1        2 0.26253991E-02 0.12392310E+03</pdfrwt>
<totfact> 0.42760941E+03</totfact>
</mgrwt>
</event>
<event>
 5    1  0.2968854E-003  0.1535852E+03  0.7818608E-02  0.1208754E+00
         11   -1    0    0    0    0  0.00000000000E+00  0.00000000000E+00  0.10003059118E+04  0.10003059118E+04  0.51100000000E-03 0. -1.
          2   -1    0    0  501    0 -0.00000000000E+00 -0.00000000000E+00 -0.47668394031E+02  0.47668394099E+02  0.25500000000E-02 0. -1.
         11    1    1    2    0    0 -0.53420292148E+02  0.36329885136E+02  0.36784571718E+03  0.37347564822E+03  0.51100000000E-03 0. -1.
         22    1    1    2    0    0 -0.88071309151E+02 -0.12675159097E+02  0.50000549477E+03  0.50786091596E+03  0.00000000000E+00 0. -1.
          2    1    1    2  501    0  0.14149160130E+03 -0.23654726039E+02  0.84786305801E+02  0.16663774170E+03  0.25500000000E-02 0. -1.
<mgrwt>
<rscale>  0 0.14345529E+03</rscale>
<asrwt>0</asrwt>
<pdfrwt beam="1">  1       11 0.10000000E+01 0.15358520E+03</pdfrwt>
<pdfrwt beam="2">  1        2 0.73358423E-02 0.14345529E+03</pdfrwt>
<totfact> 0.11234141E+03</totfact>
</mgrwt>
</event>
<event>
 5    1  0.2968854E-003  0.2256366E+03  0.7818608E-02  0.1136689E+00
         11   -1    0    0    0    0  0.00000000000E+00  0.00000000000E+00  0.99977569786E+03  0.99977569786E+03  0.51100000000E-03 0.  1.
          2   -1    0    0  501    0 -0.00000000000E+00 -0.00000000000E+00 -0.48865662773E+02  0.48865662839E+02  0.25500000000E-02 0.  1.
         11    1    1    2    0    0  0.15756622571E+03 -0.48585579969E+02  0.31228323182E+03  0.35314089390E+03  0.51100000000E-03 0.  1.
         22    1    1    2    0    0  0.42082411985E+02 -0.34579771005E+02  0.18678192195E+03  0.19456149755E+03  0.00000000000E+00 0.  1.
          2    1    1    2  501    0 -0.19964863770E+03  0.83165350974E+02  0.45184488132E+03  0.50093896926E+03  0.25500000000E-02 0.  1.
<mgrwt>
<rscale>  0 0.21627772E+03</rscale>
<asrwt>0</asrwt>
<pdfrwt beam="1">  1       11 0.10000000E+01 0.22563661E+03</pdfrwt>
<pdfrwt beam="2">  1        2 0.75161078E-02 0.21627772E+03</pdfrwt>
<totfact> 0.11178140E+03</totfact>
</mgrwt>
</event>
<event>
 5    1  0.2968854E-003  0.7731922E+02  0.7818608E-02  0.1346701E+00
         11   -1    0    0    0    0  0.00000000000E+00  0.00000000000E+00  0.10002206842E+04  0.10002206842E+04  0.51100000000E-03 0. -1.
          2   -1    0    0  501    0 -0.00000000000E+00 -0.00000000000E+00 -0.78467463455E+01  0.78467467599E+01  0.25500000000E-02 0. -1.
         11    1    1    2    0    0  0.21723619098E+02 -0.10921502689E+02  0.83107084347E+02  0.86590890494E+02  0.51100000000E-03 0. -1.
         22    1    1    2    0    0  0.52303913206E+02  0.77896346325E+01  0.15906731570E+03  0.16762693300E+03  0.00000000000E+00 0. -1.
          2    1    1    2  501    0 -0.74027532304E+02  0.31318680566E+01  0.75019953780E+03  0.75384960746E+03  0.25500000000E-02 0. -1.
<mgrwt>
<rscale>  0 0.74093752E+02</rscale>
<asrwt>0</asrwt>
<pdfrwt beam="1">  1       11 0.10000000E+01 0.77319220E+02</pdfrwt>
<pdfrwt beam="2">  1        2 0.12074582E-02 0.74093752E+02</pdfrwt>
<totfact> 0.11432997E+04</totfact>
</mgrwt>
</event>
<event>
 5    1  0.2968854E-003  0.8618880E+02  0.7818608E-02  0.1412664E+00
         11   -1    0    0    0    0  0.00000000000E+00  0.00000000000E+00  0.10015772810E+04  0.10015772810E+04  0.51100000000E-03 0.  1.
          2   -1    0    0  501    0 -0.00000000000E+00 -0.00000000000E+00 -0.18201740972E+04  0.18201740972E+04  0.25500000000E-02 0.  1.
         11    1    1    2    0    0  0.34957135842E+02 -0.60722016547E+02  0.40674526341E+03  0.41273584040E+03  0.51100000000E-03 0.  1.
         22    1    1    2    0    0 -0.33678418493E+02  0.11731116633E+03  0.58509736406E+03  0.59769145137E+03  0.00000000000E+00 0. -1.
          2    1    1    2  501    0 -0.12787173487E+01 -0.56589149780E+02 -0.18104394437E+04  0.18113240865E+04  0.25500000000E-02 0.  1.
<mgrwt>
<rscale>  0 0.56603595E+02</rscale>
<asrwt>0</asrwt>
<pdfrwt beam="1">  1       11 0.10000000E+01 0.86188799E+02</pdfrwt>
<pdfrwt beam="2">  1        2 0.28046846E+00 0.56603595E+02</pdfrwt>
<totfact> 0.13433301E+01</totfact>
</mgrwt>
</event>
<event>
 5    1  0.2968854E-003  0.5379677E+03  0.7818608E-02  0.1007637E+00
         11   -1    0    0    0    0  0.00000000000E+00  0.00000000000E+00  0.99977626401E+03  0.99977626401E+03  0.51100000000E-03 0.  1.
          2   -1    0    0  501    0 -0.00000000000E+00 -0.00000000000E+00 -0.85166126194E+03  0.85166126194E+03  0.25500000000E-02 0.  1.
         11    1    1    2    0    0  0.20119463008E+03 -0.39084528890E+03  0.70319408524E+03  0.82928959992E+03  0.51100000000E-03 0.  1.
         22    1    1    2    0    0 -0.90683255666E+01 -0.96929129893E+02  0.12816832869E+03  0.16094909515E+03  0.00000000000E+00 0.  1.
          2    1    1    2  501    0 -0.19212630452E+03  0.48777441879E+03 -0.68324741185E+03  0.86119883088E+03  0.25500000000E-02 0.  1.
<mgrwt>
<rscale>  0 0.52424841E+03</rscale>
<asrwt>0</asrwt>
<pdfrwt beam="1">  1       11 0.10000000E+01 0.53796767E+03</pdfrwt>
<pdfrwt beam="2">  1        2 0.13099549E+00 0.52424841E+03</pdfrwt>
<totfact> 0.39850712E+01</totfact>
</mgrwt>
</event>
<event>
 5    1  0.2968854E-003  0.3182061E+02  0.7818608E-02  0.1710130E+00
         11   -1    0    0    0    0  0.00000000000E+00  0.00000000000E+00  0.10001741012E+04  0.10001741012E+04  0.51100000000E-03 0.  1.
          2   -1    0    0  501    0 -0.00000000000E+00 -0.00000000000E+00 -0.35608887157E+01  0.35608896287E+01  0.25500000000E-02 0.  1.
         11    1    1    2    0    0  0.29007546450E+02  0.21450887739E+02  0.13115186437E+03  0.13602349012E+03  0.51100000000E-03 0.  1.
         22    1    1    2    0    0  0.19554813919E+01 -0.14933533452E+02  0.69122739616E+02  0.70744522480E+02  0.00000000000E+00 0.  1.
          2    1    1    2  501    0 -0.30963027842E+02 -0.65173542875E+01  0.79633860854E+03  0.79696697827E+03  0.25500000000E-02 0.  1.
<mgrwt>
<rscale>  0 0.21891792E+02</rscale>
<asrwt>0</asrwt>
<pdfrwt beam="1">  1       11 0.10000000E+01 0.31820605E+02</pdfrwt>
<pdfrwt beam="2">  1        2 0.54792447E-03 0.21891792E+02</pdfrwt>
<totfact> 0.25529026E+04</totfact>
</mgrwt>
</event>
<event>
 5    1  0.2968854E-003  0.1670713E+03  0.7818608E-02  0.1183147E+00
         11   -1    0    0    0    0  0.00000000000E+00  0.00000000000E+00  0.10003964517E+04  0.10003964517E+04  0.51100000000E-03 0. -1.
         -2   -1    0    0    0  501 -0.00000000000E+00 -0.00000000000E+00 -0.29190297142E+02  0.29190297253E+02  0.25500000000E-02 0.  1.
         11    1    1    2    0    0  0.13587682258E+03 -0.71913299377E+02  0.54699570103E+03  0.56818863987E+03  0.51100000000E-03 0. -1.
         22    1    1    2    0    0  0.12717849314E+02  0.14973550293E+00  0.63116358764E+02  0.64385098086E+02  0.00000000000E+00 0. -1.
         -2    1    1    2    0  501 -0.14859467189E+03  0.71763563874E+02  0.36109409475E+03  0.39701301098E+03  0.25500000000E-02 0.  1.
<mgrwt>
<rscale>  0 0.16501632E+03</rscale>
<asrwt>0</asrwt>
<pdfrwt beam="1">  1       11 0.10000000E+01 0.16707127E+03</pdfrwt>
<pdfrwt beam="2">  1       -2 0.44925952E-02 0.16501632E+03</pdfrwt>
<totfact> 0.17644888E+03</totfact>
</mgrwt>
</event>
<event>
 5    1  0.2968854E-003  0.2983224E+03  0.7818608E-02  0.1090423E+00
         11   -1    0    0    0    0  0.00000000000E+00  0.00000000000E+00  0.10000696414E+04  0.10000696414E+04  0.51100000000E-03 0.  1.
          2   -1    0    0  501    0 -0.00000000000E+00 -0.00000000000E+00 -0.10247609568E+03  0.10247609571E+03  0.25500000000E-02 0.  1.
         11    1    1    2    0    0  0.11985485415E+02 -0.27658936412E+03  0.22643549141E+03  0.35765676280E+03  0.51100000000E-03 0.  1.
         22    1    1    2    0    0 -0.15936726145E+02 -0.13241779529E+02  0.10049246652E+02  0.23028489390E+02  0.00000000000E+00 0. -1.
          2    1    1    2  501    0  0.39512407297E+01  0.28983114365E+03  0.66110880769E+03  0.72186048496E+03  0.25500000000E-02 0.  1.
<mgrwt>
<rscale>  0 0.28985808E+03</rscale>
<asrwt>0</asrwt>
<pdfrwt beam="1">  1       11 0.10000000E+01 0.29832236E+03</pdfrwt>
<pdfrwt beam="2">  1        2 0.15766651E-01 0.28985808E+03</pdfrwt>
<totfact> 0.45377627E+02</totfact>
</mgrwt>
</event>
<event>
 5    1  0.8664229E-003  0.1717423E+03  0.7818608E-02  0.1178154E+00
         11   -1    0    0    0    0  0.00000000000E+00  0.00000000000E+00  0.10006881169E+04  0.10006881169E+04  0.51100000000E-03 0. -1.
          2   -1    0    0  501    0 -0.00000000000E+00 -0.00000000000E+00 -0.14675318172E+04  0.14675318172E+04  0.25500000000E-02 0. -1.
         11    1    1    2    0    0 -0.15013098232E+03  0.37831972900E+02  0.92830774111E+03  0.94113008252E+03  0.51100000000E-03 0. -1.
         22    1    1    2    0    0 -0.15543255294E+02 -0.10582044927E+01  0.60043977459E+02  0.62032183671E+02  0.00000000000E+00 0.  1.
          2    1    1    2  501    0  0.16567423761E+03 -0.36773768407E+02 -0.14551954189E+04  0.14650576679E+04  0.25500000000E-02 0. -1.
<mgrwt>
<rscale>  0 0.16970640E+03</rscale>
<asrwt>0</asrwt>
<pdfrwt beam="1">  1       11 0.10000000E+01 0.17174229E+03</pdfrwt>
<pdfrwt beam="2">  1        2 0.22592948E+00 0.16970640E+03</pdfrwt>
<totfact> 0.18411749E+01</totfact>
</mgrwt>
</event>
<event>
 5    1  0.2968854E-003  0.1370992E+03  0.7818608E-02  0.1219482E+00
         11   -1    0    0    0    0  0.00000000000E+00  0.00000000000E+00  0.10003160567E+04  0.10003160567E+04  0.51100000000E-03 0. -1.
          2   -1    0    0  501    0 -0.00000000000E+00 -0.00000000000E+00 -0.18599001653E+02  0.18599001828E+02  0.25500000000E-02 0. -1.
         11    1    1    2    0    0  0.73117814596E+02 -0.95888424131E+02  0.39573405192E+03  0.41369825301E+03  0.51100000000E-03 0. -1.
         22    1    1    2    0    0  0.10628040475E+02 -0.10663928959E+02  0.79649947537E+02  0.81060401972E+02  0.00000000000E+00 0.  1.
          2    1    1    2  501    0 -0.83745855071E+02  0.10655235309E+03  0.50633305562E+03  0.52415640358E+03  0.25500000000E-02 0. -1.
<mgrwt>
<rscale>  0 0.13552407E+03</rscale>
<asrwt>0</asrwt>
<pdfrwt beam="1">  1       11 0.10000000E+01 0.13709916E+03</pdfrwt>
<pdfrwt beam="2">  1        2 0.28622892E-02 0.13552407E+03</pdfrwt>
<totfact> 0.38428047E+03</totfact>
</mgrwt>
</event>
<event>
 5    1  0.2968854E-003  0.2408278E+03  0.7818608E-02  0.1130699E+00
         11   -1    0    0    0    0  0.00000000000E+00  0.00000000000E+00  0.99997533034E+03  0.99997533034E+03  0.51100000000E-03 0.  1.
          2   -1    0    0  501    0 -0.00000000000E+00 -0.00000000000E+00 -0.59690265322E+02  0.59690265377E+02  0.25500000000E-02 0.  1.
         11    1    1    2    0    0  0.15936946419E+03 -0.32821621894E+01  0.36907083304E+03  0.40202323130E+03  0.51100000000E-03 0.  1.
         22    1    1    2    0    0  0.58656425877E+02 -0.49505566648E+02  0.27833838240E+03  0.28872760959E+03  0.00000000000E+00 0.  1.
          2    1    1    2  501    0 -0.21802589006E+03  0.52787728837E+02  0.29287584958E+03  0.36891475483E+03  0.25500000000E-02 0.  1.
<mgrwt>
<rscale>  0 0.22432528E+03</rscale>
<asrwt>0</asrwt>
<pdfrwt beam="1">  1       11 0.10000000E+01 0.24082781E+03</pdfrwt>
<pdfrwt beam="2">  1        2 0.91828909E-02 0.22432528E+03</pdfrwt>
<totfact> 0.86900695E+02</totfact>
</mgrwt>
</event>
<event>
 5    1  0.3398362E-003  0.2087577E+03  0.7818608E-02  0.1148686E+00
         11   -1    0    0    0    0  0.00000000000E+00  0.00000000000E+00  0.10000312556E+04  0.10000312556E+04  0.51100000000E-03 0. -1.
          2   -1    0    0  501    0 -0.00000000000E+00 -0.00000000000E+00 -0.86178190159E+03  0.86178190159E+03  0.25500000000E-02 0. -1.
         11    1    1    2    0    0 -0.18013544394E+03  0.51011769246E+02  0.91427444951E+03  0.93324634893E+03  0.51100000000E-03 0. -1.
         22    1    1    2    0    0 -0.16978566204E+02 -0.10402301899E+02  0.62828902674E+02  0.65908653501E+02  0.00000000000E+00 0. -1.
          2    1    1    2  501    0  0.19711401014E+03 -0.40609467347E+02 -0.83885399814E+03  0.86265815479E+03  0.25500000000E-02 0. -1.
<mgrwt>
<rscale>  0 0.20125373E+03</rscale>
<asrwt>0</asrwt>
<pdfrwt beam="1">  1       11 0.10000000E+01 0.20875765E+03</pdfrwt>
<pdfrwt beam="2">  1        2 0.13258597E+00 0.20125373E+03</pdfrwt>
<totfact> 0.40722201E+01</totfact>
</mgrwt>
</event>
<event>
 5    1  0.2968854E-003  0.2664196E+03  0.7818608E-02  0.1104820E+00
         11   -1    0    0    0    0  0.00000000000E+00  0.00000000000E+00  0.10001055293E+04  0.10001055293E+04  0.51100000000E-03 0.  1.
         -2   -1    0    0    0  501 -0.00000000000E+00 -0.00000000000E+00 -0.50639861189E+03  0.50639861190E+03  0.25500000000E-02 0.  1.
         11    1    1    2    0    0  0.22117903835E+03 -0.87600913277E+02  0.81100128310E+03  0.84517286291E+03  0.51100000000E-03 0.  1.
         22    1    1    2    0    0  0.26553638447E+02 -0.33586121480E+01  0.13502596264E+03  0.13765313864E+03  0.00000000000E+00 0.  1.
         -2    1    1    2    0  501 -0.24773267679E+03  0.90959525425E+02 -0.45232032838E+03  0.52367813960E+03  0.25500000000E-02 0.  1.
<mgrwt>
<rscale>  0 0.26390361E+03</rscale>
<asrwt>0</asrwt>
<pdfrwt beam="1">  1       11 0.10000000E+01 0.26641959E+03</pdfrwt>
<pdfrwt beam="2">  1       -2 0.77915698E-01 0.26390361E+03</pdfrwt>
<totfact> 0.12267652E+01</totfact>
</mgrwt>
</event>
<event>
 5    1  0.2968854E-003  0.1813826E+02  0.7818608E-02  0.1785104E+00
         11   -1    0    0    0    0  0.00000000000E+00  0.00000000000E+00  0.10003096268E+04  0.10003096268E+04  0.51100000000E-03 0.  1.
          2   -1    0    0  501    0 -0.00000000000E+00 -0.00000000000E+00 -0.41038889211E+01  0.41038897133E+01  0.25500000000E-02 0.  1.
         11    1    1    2    0    0 -0.63606885917E+01  0.16816370217E+02  0.30590760026E+02  0.35482999674E+02  0.51100000000E-03 0.  1.
         22    1    1    2    0    0 -0.17046190832E+02 -0.60493980159E+01  0.53947314581E+02  0.56898862807E+02  0.00000000000E+00 0. -1.
          2    1    1    2  501    0  0.23406879424E+02 -0.10766972201E+02  0.91166766326E+03  0.91203165402E+03  0.25500000000E-02 0.  1.
<mgrwt>
<rscale>  0 0.18138261E+02</rscale>
<asrwt>0</asrwt>
<pdfrwt beam="1">  1       11 0.10000000E+01 0.17979127E+02</pdfrwt>
<pdfrwt beam="2">  1        2 0.63156306E-03 0.18138261E+02</pdfrwt>
<totfact> 0.20182361E+04</totfact>
</mgrwt>
</event>
<event>
 5    1  0.2968854E-003  0.2751260E+02  0.7818608E-02  0.1653892E+00
         11   -1    0    0    0    0  0.00000000000E+00  0.00000000000E+00  0.99998645943E+03  0.99998645943E+03  0.51100000000E-03 0.  1.
          2   -1    0    0  501    0 -0.00000000000E+00 -0.00000000000E+00 -0.38332557033E+01  0.38332565514E+01  0.25500000000E-02 0.  1.
         11    1    1    2    0    0 -0.19056188680E+02  0.43661656450E+02  0.28509128994E+03  0.28904415263E+03  0.51100000000E-03 0.  1.
         22    1    1    2    0    0  0.13862608678E+02 -0.19147181620E+02  0.85376692447E+02  0.88588747008E+02  0.00000000000E+00 0. -1.
          2    1    1    2  501    0  0.51935800024E+01 -0.24514474830E+02  0.62568522135E+03  0.62618681635E+03  0.25500000000E-02 0.  1.
<mgrwt>
<rscale>  0 0.25502173E+02</rscale>
<asrwt>0</asrwt>
<pdfrwt beam="1">  1       11 0.10000000E+01 0.27512600E+02</pdfrwt>
<pdfrwt beam="2">  1        2 0.58972371E-03 0.25502173E+02</pdfrwt>
<totfact> 0.24100913E+04</totfact>
</mgrwt>
</event>
<event>
 5    1  0.2968854E-003  0.2236366E+03  0.7818608E-02  0.1131200E+00
         11   -1    0    0    0    0  0.00000000000E+00  0.00000000000E+00  0.10004958873E+04  0.10004958873E+04  0.51100000000E-03 0. -1.
          2   -1    0    0  501    0 -0.00000000000E+00 -0.00000000000E+00 -0.52182979309E+03  0.52182979310E+03  0.25500000000E-02 0. -1.
         11    1    1    2    0    0  0.15876237527E+03  0.22461636779E+03  0.87839261993E+03  0.92045184514E+03  0.51100000000E-03 0. -1.
         22    1    1    2    0    0 -0.79367725742E+02 -0.16872745321E+02  0.53383081581E+02  0.97127127123E+02  0.00000000000E+00 0.  1.
          2    1    1    2  501    0 -0.79394649526E+02 -0.20774362247E+03 -0.45310960735E+03  0.50474670809E+03  0.25500000000E-02 0. -1.
<mgrwt>
<rscale>  0 0.22363664E+03</rscale>
<asrwt>0</asrwt>
<pdfrwt beam="1">  1       11 0.10000000E+01 0.81141392E+02</pdfrwt>
<pdfrwt beam="2">  1        2 0.80321315E-01 0.22363664E+03</pdfrwt>
<totfact> 0.74090082E+01</totfact>
</mgrwt>
</event>
<event>
 5    1  0.2968854E-003  0.4607945E+02  0.7818608E-02  0.1478525E+00
         11   -1    0    0    0    0  0.00000000000E+00  0.00000000000E+00  0.10000657635E+04  0.10000657635E+04  0.51100000000E-03 0. -1.
         -2   -1    0    0    0  501 -0.00000000000E+00 -0.00000000000E+00 -0.27886985309E+01  0.27886996967E+01  0.25500000000E-02 0. -1.
         11    1    1    2    0    0 -0.14717781937E+02  0.84282001321E+01  0.85627977540E+02  0.87291455484E+02  0.51100000000E-03 0. -1.
         22    1    1    2    0    0 -0.29045659876E+02 -0.13214934854E+01  0.16090791456E+03  0.16351377211E+03  0.00000000000E+00 0. -1.
         -2    1    1    2    0  501  0.43763441814E+02 -0.71067066468E+01  0.75074117286E+03  0.75204923559E+03  0.25500000000E-02 0. -1.
<mgrwt>
<rscale>  0 0.44336713E+02</rscale>
<asrwt>0</asrwt>
<pdfrwt beam="1">  1       11 0.10000000E+01 0.46079454E+02</pdfrwt>
<pdfrwt beam="2">  1       -2 0.42905884E-03 0.44336713E+02</pdfrwt>
<totfact> 0.41050532E+04</totfact>
</mgrwt>
</event>
<event>
 5    1  0.2968854E-003  0.6266217E+02  0.7818608E-02  0.1588521E+00
         11   -1    0    0    0    0  0.00000000000E+00  0.00000000000E+00  0.10002695076E+04  0.10002695076E+04  0.51100000000E-03 0.  1.
          2   -1    0    0  501    0 -0.00000000000E+00 -0.00000000000E+00 -0.66253830228E+01  0.66253835135E+01  0.25500000000E-02 0.  1.
         11    1    1    2    0    0 -0.57401317642E+02 -0.21622887690E+02  0.23842614733E+03  0.24618994348E+03  0.51100000000E-03 0.  1.
         22    1    1    2    0    0 -0.57772274364E+01  0.14082364089E+02  0.42336509679E+02  0.44989658667E+02  0.00000000000E+00 0.  1.
          2    1    1    2  501    0  0.63178545078E+02  0.75405236004E+01  0.71288146761E+03  0.71571528901E+03  0.25500000000E-02 0.  1.
<mgrwt>
<rscale>  0 0.30883684E+02</rscale>
<asrwt>0</asrwt>
<pdfrwt beam="1">  1       11 0.10000000E+01 0.62662165E+02</pdfrwt>
<pdfrwt beam="2">  1        2 0.10195644E-02 0.30883684E+02</pdfrwt>
<totfact> 0.12233321E+04</totfact>
</mgrwt>
</event>
<event>
 5    1  0.2968854E-003  0.1504731E+03  0.7818608E-02  0.1367081E+00
         11   -1    0    0    0    0  0.00000000000E+00  0.00000000000E+00  0.10002139021E+04  0.10002139021E+04  0.51100000000E-03 0.  1.
          2   -1    0    0  501    0 -0.00000000000E+00 -0.00000000000E+00 -0.63602941800E+02  0.63602941851E+02  0.25500000000E-02 0.  1.
         11    1    1    2    0    0 -0.14772191881E+03  0.92162584284E+02  0.91111801838E+02  0.19651225833E+03  0.51100000000E-03 0.  1.
         22    1    1    2    0    0  0.30617307210E+02 -0.24685988936E+01  0.53541327474E+02  0.61726714062E+02  0.00000000000E+00 0.  1.
          2    1    1    2  501    0  0.11710461160E+03 -0.89693985391E+02  0.79195783100E+03  0.80557787157E+03  0.25500000000E-02 0.  1.
<mgrwt>
<rscale>  0 0.67985504E+02</rscale>
<asrwt>0</asrwt>
<pdfrwt beam="1">  1       11 0.10000000E+01 0.15047308E+03</pdfrwt>
<pdfrwt beam="2">  1        2 0.97871607E-02 0.67985504E+02</pdfrwt>
<totfact> 0.74763142E+02</totfact>
</mgrwt>
</event>
<event>
 5    1  0.2968854E-003  0.6262343E+02  0.7818608E-02  0.1407758E+00
         11   -1    0    0    0    0  0.00000000000E+00  0.00000000000E+00  0.10003194504E+04  0.10003194504E+04  0.51100000000E-03 0. -1.
          2   -1    0    0  501    0 -0.00000000000E+00 -0.00000000000E+00 -0.41255008350E+01  0.41255016230E+01  0.25500000000E-02 0. -1.
         11    1    1    2    0    0 -0.24148331948E+02  0.19753232620E+02  0.15608002572E+03  0.15916754243E+03  0.51100000000E-03 0. -1.
         22    1    1    2    0    0 -0.31075579459E+02 -0.30412659270E+01  0.18390310346E+03  0.18653496294E+03  0.00000000000E+00 0.  1.
          2    1    1    2  501    0  0.55223911407E+02 -0.16711966693E+02  0.65621082038E+03  0.65874244665E+03  0.25500000000E-02 0. -1.
<mgrwt>
<rscale>  0 0.57697229E+02</rscale>
<asrwt>0</asrwt>
<pdfrwt beam="1">  1       11 0.10000000E+01 0.62623431E+02</pdfrwt>
<pdfrwt beam="2">  1        2 0.63489523E-03 0.57697229E+02</pdfrwt>
<totfact> 0.26163334E+04</totfact>
</mgrwt>
</event>
<event>
 5    1  0.2968854E-003  0.1102614E+03  0.7818608E-02  0.1260087E+00
         11   -1    0    0    0    0  0.00000000000E+00  0.00000000000E+00  0.10004172640E+04  0.10004172640E+04  0.51100000000E-03 0.  1.
          2   -1    0    0  501    0 -0.00000000000E+00 -0.00000000000E+00 -0.14821800245E+04  0.14821800245E+04  0.25500000000E-02 0. -1.
         11    1    1    2    0    0  0.69470329154E+02 -0.69516320268E+02  0.17233734183E+03  0.19839053608E+03  0.51100000000E-03 0.  1.
         22    1    1    2    0    0 -0.16274958230E+03  0.12784953946E+03  0.79980337699E+03  0.82614670193E+03  0.00000000000E+00 0.  1.
          2    1    1    2  501    0  0.93279253146E+02 -0.58333219194E+02 -0.14539034793E+04  0.14580600505E+04  0.25500000000E-02 0. -1.
<mgrwt>
<rscale>  0 0.11026141E+03</rscale>
<asrwt>0</asrwt>
<pdfrwt beam="1">  1       11 0.10000000E+01 0.98278408E+02</pdfrwt>
<pdfrwt beam="2">  1        2 0.22812284E+00 0.11026141E+03</pdfrwt>
<totfact> 0.18709903E+01</totfact>
</mgrwt>
</event>
<event>
 5    1  0.2968854E-003  0.1848998E+03  0.7818608E-02  0.1165114E+00
         11   -1    0    0    0    0  0.00000000000E+00  0.00000000000E+00  0.10003439829E+04  0.10003439829E+04  0.51100000000E-03 0.  1.
          2   -1    0    0  501    0 -0.00000000000E+00 -0.00000000000E+00 -0.55996885372E+02  0.55996885430E+02  0.25500000000E-02 0.  1.
         11    1    1    2    0    0  0.10037798022E+03 -0.14093230321E+03  0.76494199354E+03  0.78426647671E+03  0.51100000000E-03 0.  1.
         22    1    1    2    0    0  0.10882457183E+02 -0.41178845637E+01  0.41456880891E+02  0.43058771706E+02  0.00000000000E+00 0.  1.
          2    1    1    2  501    0 -0.11126043741E+03  0.14505018778E+03  0.13794822310E+03  0.22901561993E+03  0.25500000000E-02 0.  1.
<mgrwt>
<rscale>  0 0.18280712E+03</rscale>
<asrwt>0</asrwt>
<pdfrwt beam="1">  1       11 0.10000000E+01 0.18489976E+03</pdfrwt>
<pdfrwt beam="2">  1        2 0.86178686E-02 0.18280712E+03</pdfrwt>
<totfact> 0.93064223E+02</totfact>
</mgrwt>
</event>
<event>
 5    1  0.2968854E-003  0.1666287E+03  0.7818608E-02  0.1184098E+00
         11   -1    0    0    0    0  0.00000000000E+00  0.00000000000E+00  0.10003297562E+04  0.10003297562E+04  0.51100000000E-03 0.  1.
         -2   -1    0    0    0  501 -0.00000000000E+00 -0.00000000000E+00 -0.27496725221E+02  0.27496725340E+02  0.25500000000E-02 0. -1.
         11    1    1    2    0    0 -0.10510250770E+03 -0.10136346425E+03  0.43867069330E+03  0.46233436620E+03  0.51100000000E-03 0.  1.
         22    1    1    2    0    0 -0.88195582815E+01 -0.16807530221E+02  0.89768399986E+02  0.91753165158E+02  0.00000000000E+00 0.  1.
         -2    1    1    2    0  501  0.11392206598E+03  0.11817099448E+03  0.44439393765E+03  0.47373895014E+03  0.25500000000E-02 0. -1.
<mgrwt>
<rscale>  0 0.16414208E+03</rscale>
<asrwt>0</asrwt>
<pdfrwt beam="1">  1       11 0.10000000E+01 0.16662868E+03</pdfrwt>
<pdfrwt beam="2">  1       -2 0.42316603E-02 0.16414208E+03</pdfrwt>
<totfact> 0.19291735E+03</totfact>
</mgrwt>
</event>
<event>
 5    1  0.2968854E-003  0.8029410E+02  0.7818608E-02  0.1341330E+00
         11   -1    0    0    0    0  0.00000000000E+00  0.00000000000E+00  0.10002370133E+04  0.10002370133E+04  0.51100000000E-03 0. -1.
          2   -1    0    0  501    0 -0.00000000000E+00 -0.00000000000E+00 -0.91302548175E+01  0.91302551736E+01  0.25500000000E-02 0. -1.
         11    1    1    2    0    0  0.10450988889E+02 -0.53647429133E+01  0.35112029411E+02  0.37025102902E+02  0.51100000000E-03 0. -1.
         22    1    1    2    0    0  0.60582691361E+02  0.31895459952E+02  0.17884929109E+03  0.19150627087E+03  0.00000000000E+00 0. -1.
          2    1    1    2  501    0 -0.71033680250E+02 -0.26530717039E+02  0.77714543795E+03  0.78083589467E+03  0.25500000000E-02 0. -1.
<mgrwt>
<rscale>  0 0.75826530E+02</rscale>
<asrwt>0</asrwt>
<pdfrwt beam="1">  1       11 0.10000000E+01 0.80294098E+02</pdfrwt>
<pdfrwt beam="2">  1        2 0.14049875E-02 0.75826530E+02</pdfrwt>
<totfact> 0.93450098E+03</totfact>
</mgrwt>
</event>
<event>
 5    1  0.2968854E-003  0.2469588E+02  0.7818608E-02  0.1665409E+00
         11   -1    0    0    0    0  0.00000000000E+00  0.00000000000E+00  0.10006029981E+04  0.10006029981E+04  0.51100000000E-03 0.  1.
          2   -1    0    0  501    0 -0.00000000000E+00 -0.00000000000E+00 -0.24148623073E+01  0.24148636537E+01  0.25500000000E-02 0.  1.
         11    1    1    2    0    0  0.10036215328E+02  0.66486410857E+01  0.51321773324E+02  0.52714841020E+02  0.51100000000E-03 0.  1.
         22    1    1    2    0    0  0.84513061095E+00 -0.25333485986E+02  0.10006012014E+03  0.10322077020E+03  0.00000000000E+00 0.  1.
          2    1    1    2  501    0 -0.10881345939E+02  0.18684844900E+02  0.84680624228E+03  0.84708225049E+03  0.25500000000E-02 0.  1.
<mgrwt>
<rscale>  0 0.24695876E+02</rscale>
<asrwt>0</asrwt>
<pdfrwt beam="1">  1       11 0.10000000E+01 0.12038696E+02</pdfrwt>
<pdfrwt beam="2">  1        2 0.37174140E-03 0.24695876E+02</pdfrwt>
<totfact> 0.43902756E+04</totfact>
</mgrwt>
</event>
<event>
 5    1  0.2968854E-003  0.1149898E+03  0.7818608E-02  0.1716605E+00
         11   -1    0    0    0    0  0.00000000000E+00  0.00000000000E+00  0.99986592751E+03  0.99986592752E+03  0.51100000000E-03 0. -1.
          2   -1    0    0  501    0 -0.00000000000E+00 -0.00000000000E+00 -0.15667565618E+03  0.15667565620E+03  0.25500000000E-02 0.  1.
         11    1    1    2    0    0  0.46150862068E+02 -0.99222970135E+02  0.62174434517E+03  0.63130114100E+03  0.51100000000E-03 0. -1.
         22    1    1    2    0    0 -0.43420529152E+02  0.12057377387E+03  0.36149920398E+03  0.38354276394E+03  0.00000000000E+00 0. -1.
          2    1    1    2  501    0 -0.27303329155E+01 -0.21350803731E+02 -0.14005327782E+03  0.14169767878E+03  0.25500000000E-02 0.  1.
<mgrwt>
<rscale>  0 0.21524673E+02</rscale>
<asrwt>0</asrwt>
<pdfrwt beam="1">  1       11 0.10000000E+01 0.11498978E+03</pdfrwt>
<pdfrwt beam="2">  1        2 0.24100715E-01 0.21524673E+02</pdfrwt>
<totfact> 0.25422681E+02</totfact>
</mgrwt>
</event>
<event>
 5    1  0.2968854E-003  0.1765308E+03  0.7818608E-02  0.1171203E+00
         11   -1    0    0    0    0  0.00000000000E+00  0.00000000000E+00  0.99999518440E+03  0.99999518440E+03  0.51100000000E-03 0. -1.
          2   -1    0    0  501    0 -0.00000000000E+00 -0.00000000000E+00 -0.54047592890E+03  0.54047592890E+03  0.25500000000E-02 0. -1.
         11    1    1    2    0    0 -0.86627099556E+02 -0.62766506455E+02  0.40477159504E+03  0.41866924041E+03  0.51100000000E-03 0. -1.
         22    1    1    2    0    0  0.30781219203E+01 -0.96107017119E+02  0.56902792238E+03  0.57709514816E+03  0.00000000000E+00 0. -1.
          2    1    1    2  501    0  0.83548977636E+02  0.15887352357E+03 -0.51428026193E+03  0.54470672474E+03  0.25500000000E-02 0. -1.
<mgrwt>
<rscale>  0 0.17653080E+03</rscale>
<asrwt>0</asrwt>
<pdfrwt beam="1">  1       11 0.10000000E+01 0.96156298E+02</pdfrwt>
<pdfrwt beam="2">  1        2 0.83149740E-01 0.17653080E+03</pdfrwt>
<totfact> 0.71562734E+01</totfact>
</mgrwt>
</event>
<event>
 5    1  0.2968854E-003  0.4685375E+03  0.7818608E-02  0.1027573E+00
         11   -1    0    0    0    0  0.00000000000E+00  0.00000000000E+00  0.10003793436E+04  0.10003793436E+04  0.51100000000E-03 0. -1.
          2   -1    0    0  501    0 -0.00000000000E+00 -0.00000000000E+00 -0.28344872715E+03  0.28344872716E+03  0.25500000000E-02 0. -1.
         11    1    1    2    0    0 -0.30303583273E+03 -0.84167121537E+02  0.42046189952E+03  0.52507430828E+03  0.51100000000E-03 0. -1.
         22    1    1    2    0    0 -0.14543103702E+03  0.41413428522E+02  0.26755247656E+03  0.30732651416E+03  0.00000000000E+00 0. -1.
          2    1    1    2  501    0  0.44846686975E+03  0.42753693014E+02  0.28916240331E+02  0.45142724828E+03  0.25500000000E-02 0. -1.
<mgrwt>
<rscale>  0 0.45050018E+03</rscale>
<asrwt>0</asrwt>
<pdfrwt beam="1">  1       11 0.10000000E+01 0.46853746E+03</pdfrwt>
<pdfrwt beam="2">  1        2 0.43624037E-01 0.45050018E+03</pdfrwt>
<totfact> 0.14440429E+02</totfact>
</mgrwt>
</event>
<event>
 5    1  0.2968854E-003  0.1054638E+03  0.7818608E-02  0.1269209E+00
         11   -1    0    0    0    0  0.00000000000E+00  0.00000000000E+00  0.10001990005E+04  0.10001990005E+04  0.51100000000E-03 0. -1.
          2   -1    0    0  501    0 -0.00000000000E+00 -0.00000000000E+00 -0.29710403337E+02  0.29710403446E+02  0.25500000000E-02 0. -1.
         11    1    1    2    0    0 -0.50867289141E+02  0.98399704155E+02  0.39604800655E+03  0.41124689223E+03  0.51100000000E-03 0. -1.
         22    1    1    2    0    0  0.82730059643E+02  0.98644675987E+01  0.41525484527E+03  0.42353058569E+03  0.00000000000E+00 0. -1.
          2    1    1    2  501    0 -0.31862770502E+02 -0.10826417175E+03  0.15918574538E+03  0.19513192606E+03  0.25500000000E-02 0. -1.
<mgrwt>
<rscale>  0 0.10546378E+03</rscale>
<asrwt>0</asrwt>
<pdfrwt beam="1">  1       11 0.10000000E+01 0.83316088E+02</pdfrwt>
<pdfrwt beam="2">  1        2 0.45717408E-02 0.10546378E+03</pdfrwt>
<totfact> 0.20151338E+03</totfact>
</mgrwt>
</event>
<event>
 5    1  0.2968854E-003  0.2046145E+03  0.7818608E-02  0.1147983E+00
         11   -1    0    0    0    0  0.00000000000E+00  0.00000000000E+00  0.10000938568E+04  0.10000938568E+04  0.51100000000E-03 0.  1.
          2   -1    0    0  501    0 -0.00000000000E+00 -0.00000000000E+00 -0.18155023846E+03  0.18155023848E+03  0.25500000000E-02 0.  1.
         11    1    1    2    0    0  0.13666523373E+03  0.12991034479E+03  0.86277471091E+03  0.88313888239E+03  0.51100000000E-03 0.  1.
         22    1    1    2    0    0  0.36069285137E+01  0.15576017473E+02  0.66270939609E+02  0.68172279485E+02  0.00000000000E+00 0. -1.
          2    1    1    2  501    0 -0.14027216224E+03 -0.14548636226E+03 -0.11050203216E+03  0.23033293343E+03  0.25500000000E-02 0.  1.
<mgrwt>
<rscale>  0 0.20209543E+03</rscale>
<asrwt>0</asrwt>
<pdfrwt beam="1">  1       11 0.10000000E+01 0.20461453E+03</pdfrwt>
<pdfrwt beam="2">  1        2 0.27933427E-01 0.20209543E+03</pdfrwt>
<totfact> 0.23374341E+02</totfact>
</mgrwt>
</event>
<event>
 5    1  0.2968854E-003  0.1070322E+03  0.7818608E-02  0.1266167E+00
         11   -1    0    0    0    0  0.00000000000E+00  0.00000000000E+00  0.10001651252E+04  0.10001651252E+04  0.51100000000E-03 0.  1.
          2   -1    0    0  501    0 -0.00000000000E+00 -0.00000000000E+00 -0.63089621925E+02  0.63089621976E+02  0.25500000000E-02 0.  1.
         11    1    1    2    0    0  0.42432243807E+02  0.66064943672E+02  0.26928935183E+03  0.28050281123E+03  0.51100000000E-03 0.  1.
         22    1    1    2    0    0  0.41080984728E+02 -0.13179936938E+03  0.66207866833E+03  0.67631862619E+03  0.00000000000E+00 0.  1.
          2    1    1    2  501    0 -0.83513228536E+02  0.65734425708E+02  0.57074831520E+01  0.10643330980E+03  0.25500000000E-02 0.  1.
<mgrwt>
<rscale>  0 0.10703215E+03</rscale>
<asrwt>0</asrwt>
<pdfrwt beam="1">  1       11 0.10000000E+01 0.78517973E+02</pdfrwt>
<pdfrwt beam="2">  1        2 0.97076981E-02 0.10703215E+03</pdfrwt>
<totfact> 0.77784174E+02</totfact>
</mgrwt>
</event>
<event>
 5    1  0.2968854E-003  0.6504676E+02  0.7818608E-02  0.1382354E+00
         11   -1    0    0    0    0  0.00000000000E+00  0.00000000000E+00  0.10002576438E+04  0.10002576438E+04  0.51100000000E-03 0. -1.
          2   -1    0    0  501    0 -0.00000000000E+00 -0.00000000000E+00 -0.56058938388E+01  0.56058944188E+01  0.25500000000E-02 0. -1.
         11    1    1    2    0    0  0.71056746185E+01 -0.98139516256E+01  0.42891234319E+02  0.44569745792E+02  0.51100000000E-03 0. -1.
         22    1    1    2    0    0  0.71902236077E+01 -0.52414069307E+02  0.20178095280E+03  0.20860126291E+03  0.00000000000E+00 0. -1.
          2    1    1    2  501    0 -0.14295898226E+02  0.62228020933E+02  0.74997956283E+03  0.75269252950E+03  0.25500000000E-02 0. -1.
<mgrwt>
<rscale>  0 0.63849035E+02</rscale>
<asrwt>0</asrwt>
<pdfrwt beam="1">  1       11 0.10000000E+01 0.65046756E+02</pdfrwt>
<pdfrwt beam="2">  1        2 0.86266743E-03 0.63849035E+02</pdfrwt>
<totfact> 0.17594314E+04</totfact>
</mgrwt>
</event>
<event>
 5    1  0.2968854E-003  0.2464101E+03  0.7818608E-02  0.1123312E+00
         11   -1    0    0    0    0  0.00000000000E+00  0.00000000000E+00  0.10002178667E+04  0.10002178667E+04  0.51100000000E-03 0.  1.
          2   -1    0    0  501    0 -0.00000000000E+00 -0.00000000000E+00 -0.67536704926E+03  0.67536704926E+03  0.25500000000E-02 0.  1.
         11    1    1    2    0    0  0.82855972334E+02  0.16622276592E+03  0.80822729887E+03  0.82929276296E+03  0.51100000000E-03 0.  1.
         22    1    1    2    0    0 -0.71481471764E+01  0.56028668522E+02  0.15560495573E+03  0.16553914930E+03  0.00000000000E+00 0. -1.
          2    1    1    2  501    0 -0.75707825157E+02 -0.22225143444E+03 -0.63898143720E+03  0.68075300366E+03  0.25500000000E-02 0.  1.
<mgrwt>
<rscale>  0 0.23479220E+03</rscale>
<asrwt>0</asrwt>
<pdfrwt beam="1">  1       11 0.10000000E+01 0.24641006E+03</pdfrwt>
<pdfrwt beam="2">  1        2 0.10392526E+00 0.23479220E+03</pdfrwt>
<totfact> 0.54892328E+01</totfact>
</mgrwt>
</event>
<event>
 5    1  0.2968854E-003  0.1140181E+03  0.7818608E-02  0.1253305E+00
         11   -1    0    0    0    0  0.00000000000E+00  0.00000000000E+00  0.10001255172E+04  0.10001255172E+04  0.51100000000E-03 0.  1.
          2   -1    0    0  501    0 -0.00000000000E+00 -0.00000000000E+00 -0.61801150037E+02  0.61801150090E+02  0.25500000000E-02 0.  1.
         11    1    1    2    0    0  0.66703977919E+02  0.41097142790E+02  0.37145667731E+03  0.37962937048E+03  0.51100000000E-03 0.  1.
         22    1    1    2    0    0 -0.13699386569E+03  0.47032985415E+02  0.54946353372E+03  0.56823375106E+03  0.00000000000E+00 0.  1.
          2    1    1    2  501    0  0.70289887768E+02 -0.88130128206E+02  0.17404156176E+02  0.11406354579E+03  0.25500000000E-02 0.  1.
<mgrwt>
<rscale>  0 0.11401806E+03</rscale>
<asrwt>0</asrwt>
<pdfrwt beam="1">  1       11 0.10000000E+01 0.78347915E+02</pdfrwt>
<pdfrwt beam="2">  1        2 0.95090624E-02 0.11401806E+03</pdfrwt>
<totfact> 0.80087880E+02</totfact>
</mgrwt>
</event>
<event>
 5    1  0.2968854E-003  0.1826310E+03  0.7818608E-02  0.1171907E+00
         11   -1    0    0    0    0  0.00000000000E+00  0.00000000000E+00  0.10003236728E+04  0.10003236728E+04  0.51100000000E-03 0. -1.
         -2   -1    0    0    0  501 -0.00000000000E+00 -0.00000000000E+00 -0.39664714661E+02  0.39664714743E+02  0.25500000000E-02 0.  1.
         11    1    1    2    0    0 -0.11731927892E+03  0.37083883280E+02  0.52536490841E+03  0.53958068405E+03  0.51100000000E-03 0. -1.
         22    1    1    2    0    0 -0.56809200523E+02 -0.12723365569E+02  0.18922051621E+03  0.19797366757E+03  0.00000000000E+00 0.  1.
         -2    1    1    2    0  501  0.17412847945E+03 -0.24360517711E+02  0.24607353347E+03  0.30243403588E+03  0.25500000000E-02 0.  1.
<mgrwt>
<rscale>  0 0.17582424E+03</rscale>
<asrwt>0</asrwt>
<pdfrwt beam="1">  1       11 0.10000000E+01 0.18263103E+03</pdfrwt>
<pdfrwt beam="2">  1       -2 0.61042388E-02 0.17582424E+03</pdfrwt>
<totfact> 0.11150878E+03</totfact>
</mgrwt>
</event>
<event>
 5    1  0.2968854E-003  0.1901805E+03  0.7818608E-02  0.1158299E+00
         11   -1    0    0    0    0  0.00000000000E+00  0.00000000000E+00  0.10001870664E+04  0.10001870664E+04  0.51100000000E-03 0. -1.
          2   -1    0    0  501    0 -0.00000000000E+00 -0.00000000000E+00 -0.66618498313E+03  0.66618498313E+03  0.25500000000E-02 0. -1.
         11    1    1    2    0    0 -0.19113471446E+03  0.36111663440E+02  0.91446954561E+03  0.93492838291E+03  0.51100000000E-03 0. -1.
         22    1    1    2    0    0  0.22385906614E+01 -0.14543972549E+02  0.60815735103E+02  0.62570696510E+02  0.00000000000E+00 0. -1.
          2    1    1    2  501    0  0.18889612380E+03 -0.21567690891E+02 -0.64128319742E+03  0.66887297014E+03  0.25500000000E-02 0. -1.
<mgrwt>
<rscale>  0 0.19018047E+03</rscale>
<asrwt>0</asrwt>
<pdfrwt beam="1">  1       11 0.10000000E+01 0.14715245E+02</pdfrwt>
<pdfrwt beam="2">  1        2 0.10250917E+00 0.19018047E+03</pdfrwt>
<totfact> 0.56128624E+01</totfact>
</mgrwt>
</event>
<event>
 5    1  0.2968854E-003  0.1369924E+04  0.7818608E-02  0.8978356E-01
         11   -1    0    0    0    0  0.00000000000E+00  0.00000000000E+00  0.10015272862E+04  0.10015272862E+04  0.51100000000E-03 0. -1.
          2   -1    0    0  501    0 -0.00000000000E+00 -0.00000000000E+00 -0.25623119745E+04  0.25623119745E+04  0.25500000000E-02 0. -1.
         11    1    1    2    0    0 -0.11854833072E+04 -0.63571099904E+03  0.13513523338E+03  0.13519469950E+04  0.51100000000E-03 0. -1.
         22    1    1    2    0    0 -0.23397424658E+02 -0.16295290638E+01  0.10497009075E+02  0.25695953867E+02  0.00000000000E+00 0.  1.
          2    1    1    2  501    0  0.12088807319E+04  0.63734052811E+03 -0.17064169307E+04  0.21861963119E+04  0.25500000000E-02 0. -1.
<mgrwt>
<rscale>  0 0.13666000E+04</rscale>
<asrwt>0</asrwt>
<pdfrwt beam="1">  1       11 0.10000000E+01 0.13699238E+04</pdfrwt>
<pdfrwt beam="2">  1        2 0.39480389E+00 0.13666000E+04</pdfrwt>
<totfact> 0.38408607E+00</totfact>
</mgrwt>
</event>
<event>
 5    1  0.2968854E-003  0.5475704E+02  0.7818608E-02  0.1614453E+00
         11   -1    0    0    0    0  0.00000000000E+00  0.00000000000E+00  0.10001456823E+04  0.10001456823E+04  0.51100000000E-03 0. -1.
          2   -1    0    0  501    0 -0.00000000000E+00 -0.00000000000E+00 -0.91064500377E+01  0.91064503947E+01  0.25500000000E-02 0. -1.
         11    1    1    2    0    0 -0.50497188930E+02  0.50838432684E+02  0.20640192495E+03  0.21848630838E+03  0.51100000000E-03 0. -1.
         22    1    1    2    0    0  0.23402175004E+02 -0.41776597387E+02  0.20880905236E+03  0.21422923757E+03  0.00000000000E+00 0. -1.
          2    1    1    2  501    0  0.27095013926E+02 -0.90618352970E+01  0.57582825494E+03  0.57653658672E+03  0.25500000000E-02 0. -1.
<mgrwt>
<rscale>  0 0.28570206E+02</rscale>
<asrwt>0</asrwt>
<pdfrwt beam="1">  1       11 0.10000000E+01 0.54757038E+02</pdfrwt>
<pdfrwt beam="2">  1        2 0.14011964E-02 0.28570206E+02</pdfrwt>
<totfact> 0.79354542E+03</totfact>
</mgrwt>
</event>
<event>
 5    1  0.2968854E-003  0.6007087E+02  0.7818608E-02  0.1521544E+00
         11   -1    0    0    0    0  0.00000000000E+00  0.00000000000E+00  0.10003202576E+04  0.10003202576E+04  0.51100000000E-03 0. -1.
          2   -1    0    0  501    0 -0.00000000000E+00 -0.00000000000E+00 -0.69571965122E+01  0.69571969795E+01  0.25500000000E-02 0. -1.
         11    1    1    2    0    0 -0.48040767732E+02  0.15624779937E+02  0.13739406455E+03  0.14638708306E+03  0.51100000000E-03 0. -1.
         22    1    1    2    0    0 -0.15828032286E+02 -0.18501671174E+02  0.14275254159E+03  0.14481411040E+03  0.00000000000E+00 0. -1.
          2    1    1    2  501    0  0.63868800018E+02  0.28768912366E+01  0.71321645490E+03  0.71607626107E+03  0.25500000000E-02 0. -1.
<mgrwt>
<rscale>  0 0.38244232E+02</rscale>
<asrwt>0</asrwt>
<pdfrwt beam="1">  1       11 0.10000000E+01 0.60070871E+02</pdfrwt>
<pdfrwt beam="2">  1        2 0.10706807E-02 0.38244232E+02</pdfrwt>
<totfact> 0.11967229E+04</totfact>
</mgrwt>
</event>
<event>
 5    1  0.2968854E-003  0.3236454E+02  0.7818608E-02  0.1689167E+00
         11   -1    0    0    0    0  0.00000000000E+00  0.00000000000E+00  0.10002299625E+04  0.10002299625E+04  0.51100000000E-03 0. -1.
          2   -1    0    0  501    0 -0.00000000000E+00 -0.00000000000E+00 -0.64621747261E+01  0.64621752292E+01  0.25500000000E-02 0. -1.
         11    1    1    2    0    0  0.18517716068E+02  0.42806506617E+02  0.12074823688E+03  0.12944280407E+03  0.51100000000E-03 0. -1.
         22    1    1    2    0    0 -0.13031730521E+01 -0.16500739217E+02  0.35816518993E+02  0.39456250297E+02  0.00000000000E+00 0. -1.
          2    1    1    2  501    0 -0.17214543016E+02 -0.26305767400E+02  0.83720303193E+03  0.83779308339E+03  0.25500000000E-02 0. -1.
<mgrwt>
<rscale>  0 0.23145227E+02</rscale>
<asrwt>0</asrwt>
<pdfrwt beam="1">  1       11 0.10000000E+01 0.32364544E+02</pdfrwt>
<pdfrwt beam="2">  1        2 0.99440936E-03 0.23145227E+02</pdfrwt>
<totfact> 0.11877113E+04</totfact>
</mgrwt>
</event>
<event>
 5    1  0.2968854E-003  0.1138856E+03  0.7818608E-02  0.1253539E+00
         11   -1    0    0    0    0  0.00000000000E+00  0.00000000000E+00  0.10003988649E+04  0.10003988649E+04  0.51100000000E-03 0. -1.
          2   -1    0    0  501    0 -0.00000000000E+00 -0.00000000000E+00 -0.30208122586E+03  0.30208122588E+03  0.25500000000E-02 0. -1.
         11    1    1    2    0    0 -0.12691131602E+03 -0.73543192140E+02  0.49689221230E+03  0.51808971606E+03  0.51100000000E-03 0. -1.
         22    1    1    2    0    0  0.14100922474E+02  0.88680783309E+02  0.47744915322E+03  0.48581973123E+03  0.00000000000E+00 0. -1.
          2    1    1    2  501    0  0.11281039354E+03 -0.15137591169E+02 -0.27602372649E+03  0.29857064348E+03  0.25500000000E-02 0. -1.
<mgrwt>
<rscale>  0 0.11388561E+03</rscale>
<asrwt>0</asrwt>
<pdfrwt beam="1">  1       11 0.10000000E+01 0.89794863E+02</pdfrwt>
<pdfrwt beam="2">  1        2 0.46492570E-01 0.11388561E+03</pdfrwt>
<totfact> 0.13427231E+02</totfact>
</mgrwt>
</event>
<event>
 5    1  0.2968854E-003  0.1601817E+03  0.7818608E-02  0.1262730E+00
         11   -1    0    0    0    0  0.00000000000E+00  0.00000000000E+00  0.10000977945E+04  0.10000977945E+04  0.51100000000E-03 0. -1.
          2   -1    0    0  501    0 -0.00000000000E+00 -0.00000000000E+00 -0.12883320923E+03  0.12883320926E+03  0.25500000000E-02 0. -1.
         11    1    1    2    0    0 -0.26573996792E+02 -0.15267431701E+03  0.68048210481E+03  0.69790509337E+03  0.51100000000E-03 0. -1.
         22    1    1    2    0    0  0.13536468611E+03  0.15600850273E+03  0.23559801043E+03  0.31331880519E+03  0.00000000000E+00 0.  1.
          2    1    1    2  501    0 -0.10879068932E+03 -0.33341857156E+01 -0.44815529981E+02  0.11770710519E+03  0.25500000000E-02 0. -1.
<mgrwt>
<rscale>  0 0.10884177E+03</rscale>
<asrwt>0</asrwt>
<pdfrwt beam="1">  1       11 0.10000000E+01 0.16018166E+03</pdfrwt>
<pdfrwt beam="2">  1        2 0.19822431E-01 0.10884177E+03</pdfrwt>
<totfact> 0.33683183E+02</totfact>
</mgrwt>
</event>
<event>
 5    1  0.2968854E-003  0.1106365E+03  0.7818608E-02  0.1264874E+00
         11   -1    0    0    0    0  0.00000000000E+00  0.00000000000E+00  0.10001946618E+04  0.10001946618E+04  0.51100000000E-03 0.  1.
          2   -1    0    0  501    0 -0.00000000000E+00 -0.00000000000E+00 -0.13612736187E+02  0.13612736426E+02  0.25500000000E-02 0.  1.
         11    1    1    2    0    0  0.49084788462E+00  0.81113278977E+02  0.20339253497E+03  0.21897061045E+03  0.51100000000E-03 0.  1.
         22    1    1    2    0    0 -0.15680369035E+01  0.26589491953E+02  0.11675672121E+03  0.11975638509E+03  0.00000000000E+00 0. -1.
          2    1    1    2  501    0  0.10771890188E+01 -0.10770277093E+03  0.66643266948E+03  0.67508040273E+03  0.25500000000E-02 0.  1.
<mgrwt>
<rscale>  0 0.10770816E+03</rscale>
<asrwt>0</asrwt>
<pdfrwt beam="1">  1       11 0.10000000E+01 0.11063648E+03</pdfrwt>
<pdfrwt beam="2">  1        2 0.20946747E-02 0.10770816E+03</pdfrwt>
<totfact> 0.57084397E+03</totfact>
</mgrwt>
</event>
<event>
 5    1  0.2968854E-003  0.2878142E+03  0.7818608E-02  0.1091496E+00
         11   -1    0    0    0    0  0.00000000000E+00  0.00000000000E+00  0.10003501835E+04  0.10003501835E+04  0.51100000000E-03 0. -1.
          2   -1    0    0  501    0 -0.00000000000E+00 -0.00000000000E+00 -0.19068201511E+03  0.19068201513E+03  0.25500000000E-02 0.  1.
         11    1    1    2    0    0  0.34206512191E+02  0.15962960865E+02  0.12258875387E+03  0.12826887452E+03  0.51100000000E-03 0. -1.
         22    1    1    2    0    0  0.15265474988E+03 -0.23673180690E+03  0.71858169691E+03  0.77181932872E+03  0.00000000000E+00 0. -1.
          2    1    1    2  501    0 -0.18686126207E+03  0.22076884604E+03 -0.31502282390E+02  0.29094399538E+03  0.25500000000E-02 0.  1.
<mgrwt>
<rscale>  0 0.28781418E+03</rscale>
<asrwt>0</asrwt>
<pdfrwt beam="1">  1       11 0.10000000E+01 0.37747869E+02</pdfrwt>
<pdfrwt beam="2">  1        2 0.29345967E-01 0.28781418E+03</pdfrwt>
<totfact> 0.22264215E+02</totfact>
</mgrwt>
</event>
<event>
 5    1  0.2968854E-003  0.3194314E+03  0.7818608E-02  0.1075911E+00
         11   -1    0    0    0    0  0.00000000000E+00  0.00000000000E+00  0.10002487979E+04  0.10002487979E+04  0.51100000000E-03 0. -1.
          2   -1    0    0  501    0 -0.00000000000E+00 -0.00000000000E+00 -0.26304278929E+03  0.26304278930E+03  0.25500000000E-02 0. -1.
         11    1    1    2    0    0 -0.72170533994E+02  0.30669594502E+03  0.84693860108E+03  0.90364593878E+03  0.51100000000E-03 0. -1.
         22    1    1    2    0    0  0.93301444537E+01  0.70728851664E+01  0.12471190320E+02  0.17105785224E+02  0.00000000000E+00 0.  1.
          2    1    1    2  501    0  0.62840389540E+02 -0.31376883018E+03 -0.12220378279E+03  0.34253986321E+03  0.25500000000E-02 0. -1.
<mgrwt>
<rscale>  0 0.31943137E+03</rscale>
<asrwt>0</asrwt>
<pdfrwt beam="1">  1       11 0.10000000E+01 0.11708002E+02</pdfrwt>
<pdfrwt beam="2">  1        2 0.40478189E-01 0.31943137E+03</pdfrwt>
<totfact> 0.15656327E+02</totfact>
</mgrwt>
</event>
<event>
 5    1  0.2968854E-003  0.5014906E+03  0.7818608E-02  0.1013391E+00
         11   -1    0    0    0    0  0.00000000000E+00  0.00000000000E+00  0.10001442058E+04  0.10001442058E+04  0.51100000000E-03 0. -1.
          2   -1    0    0  501    0 -0.00000000000E+00 -0.00000000000E+00 -0.64668822484E+03  0.64668822485E+03  0.25500000000E-02 0. -1.
         11    1    1    2    0    0  0.43475149151E+03 -0.24042185517E+03  0.76483003668E+03  0.91201782483E+03  0.51100000000E-03 0. -1.
         22    1    1    2    0    0 -0.53214316310E+01 -0.19862977637E+02  0.49265181352E+02  0.53384582127E+02  0.00000000000E+00 0.  1.
          2    1    1    2  501    0 -0.42943005987E+03  0.26028483280E+03 -0.46063923705E+03  0.68143002372E+03  0.25500000000E-02 0. -1.
<mgrwt>
<rscale>  0 0.50149057E+03</rscale>
<asrwt>0</asrwt>
<pdfrwt beam="1">  1       11 0.10000000E+01 0.20563451E+02</pdfrwt>
<pdfrwt beam="2">  1        2 0.99504840E-01 0.50149057E+03</pdfrwt>
<totfact> 0.56662329E+01</totfact>
</mgrwt>
</event>
<event>
 5    1  0.2968854E-003  0.1562713E+03  0.7818608E-02  0.1196224E+00
         11   -1    0    0    0    0  0.00000000000E+00  0.00000000000E+00  0.99995911060E+03  0.99995911060E+03  0.51100000000E-03 0. -1.
          2   -1    0    0  501    0 -0.00000000000E+00 -0.00000000000E+00 -0.45695262859E+02  0.45695262930E+02  0.25500000000E-02 0. -1.
         11    1    1    2    0    0 -0.46189656420E+02  0.59799664813E+01  0.27120583408E+03  0.27517603238E+03  0.51100000000E-03 0. -1.
         22    1    1    2    0    0 -0.10559446413E+03 -0.28938727621E+02  0.56846671135E+03  0.57891453836E+03  0.00000000000E+00 0. -1.
          2    1    1    2  501    0  0.15178412055E+03  0.22958761140E+02  0.11459130231E+03  0.19156380278E+03  0.25500000000E-02 0. -1.
<mgrwt>
<rscale>  0 0.15351066E+03</rscale>
<asrwt>0</asrwt>
<pdfrwt beam="1">  1       11 0.10000000E+01 0.15627130E+03</pdfrwt>
<pdfrwt beam="2">  1        2 0.70297528E-02 0.15351066E+03</pdfrwt>
<totfact> 0.11913821E+03</totfact>
</mgrwt>
</event>
<event>
 5    1  0.2968854E-003  0.4252413E+03  0.7818608E-02  0.1039867E+00
         11   -1    0    0    0    0  0.00000000000E+00  0.00000000000E+00  0.10002277832E+04  0.10002277832E+04  0.51100000000E-03 0. -1.
          2   -1    0    0  501    0 -0.00000000000E+00 -0.00000000000E+00 -0.18563305255E+03  0.18563305257E+03  0.25500000000E-02 0. -1.
         11    1    1    2    0    0 -0.11217075367E+01  0.39391958371E+03  0.24842333979E+03  0.46571241385E+03  0.51100000000E-03 0. -1.
         22    1    1    2    0    0  0.26268900592E+02  0.16815587118E+02  0.23261021582E+02  0.38908793781E+02  0.00000000000E+00 0.  1.
          2    1    1    2  501    0 -0.25147193056E+02 -0.41073517083E+03  0.54291036928E+03  0.68123962815E+03  0.25500000000E-02 0. -1.
<mgrwt>
<rscale>  0 0.41150427E+03</rscale>
<asrwt>0</asrwt>
<pdfrwt beam="1">  1       11 0.10000000E+01 0.42524131E+03</pdfrwt>
<pdfrwt beam="2">  1        2 0.28565436E-01 0.41150427E+03</pdfrwt>
<totfact> 0.23058860E+02</totfact>
</mgrwt>
</event>
<event>
 5    1  0.2968854E-003  0.5793895E+03  0.7818608E-02  0.1005345E+00
         11   -1    0    0    0    0  0.00000000000E+00  0.00000000000E+00  0.10002218350E+04  0.10002218350E+04  0.51100000000E-03 0. -1.
          2   -1    0    0  501    0 -0.00000000000E+00 -0.00000000000E+00 -0.42575634118E+03  0.42575634119E+03  0.25500000000E-02 0. -1.
         11    1    1    2    0    0  0.17478967343E+03  0.29597156878E+03  0.25028511481E+03  0.42519788118E+03  0.51100000000E-03 0. -1.
         22    1    1    2    0    0  0.81750780353E+02  0.17199805232E+03  0.41761643233E+03  0.45898802233E+03  0.00000000000E+00 0. -1.
          2    1    1    2  501    0 -0.25654045379E+03 -0.46796962110E+03 -0.93436053298E+02  0.54179227270E+03  0.25500000000E-02 0. -1.
<mgrwt>
<rscale>  0 0.53367459E+03</rscale>
<asrwt>0</asrwt>
<pdfrwt beam="1">  1       11 0.10000000E+01 0.57938954E+03</pdfrwt>
<pdfrwt beam="2">  1        2 0.65515504E-01 0.53367459E+03</pdfrwt>
<totfact> 0.92003907E+01</totfact>
</mgrwt>
</event>
<event>
 5    1  0.2968854E-003  0.1862925E+03  0.7818608E-02  0.1161848E+00
         11   -1    0    0    0    0  0.00000000000E+00  0.00000000000E+00  0.10003184306E+04  0.10003184306E+04  0.51100000000E-03 0. -1.
          2   -1    0    0  501    0 -0.00000000000E+00 -0.00000000000E+00 -0.62185758974E+03  0.62185758975E+03  0.25500000000E-02 0. -1.
         11    1    1    2    0    0  0.37232239222E+02  0.17012583650E+03  0.94350747696E+03  0.95944536008E+03  0.51100000000E-03 0. -1.
         22    1    1    2    0    0  0.11967698035E+02  0.97437713217E+01  0.32922184102E+02  0.36359827858E+02  0.00000000000E+00 0.  1.
          2    1    1    2  501    0 -0.49199937258E+02 -0.17986960782E+03 -0.59796882025E+03  0.62637083237E+03  0.25500000000E-02 0. -1.
<mgrwt>
<rscale>  0 0.18629250E+03</rscale>
<asrwt>0</asrwt>
<pdfrwt beam="1">  1       11 0.10000000E+01 0.15432656E+02</pdfrwt>
<pdfrwt beam="2">  1        2 0.95700860E-01 0.18629250E+03</pdfrwt>
<totfact> 0.60877222E+01</totfact>
</mgrwt>
</event>
<event>
 5    1  0.2968854E-003  0.2236318E+03  0.7818608E-02  0.1136034E+00
         11   -1    0    0    0    0  0.00000000000E+00  0.00000000000E+00  0.99979536429E+03  0.99979536430E+03  0.51100000000E-03 0.  1.
          2   -1    0    0  501    0 -0.00000000000E+00 -0.00000000000E+00 -0.65665750444E+03  0.65665750444E+03  0.25500000000E-02 0.  1.
         11    1    1    2    0    0 -0.45398947404E+02  0.17449033370E+03  0.82413277711E+03  0.84362478347E+03  0.51100000000E-03 0.  1.
         22    1    1    2    0    0  0.12482631458E+02  0.40139000693E+02  0.14461841705E+03  0.15060359230E+03  0.00000000000E+00 0. -1.
          2    1    1    2  501    0  0.32916315946E+02 -0.21462933439E+03 -0.62561333430E+03  0.66222449297E+03  0.25500000000E-02 0.  1.
<mgrwt>
<rscale>  0 0.21713875E+03</rscale>
<asrwt>0</asrwt>
<pdfrwt beam="1">  1       11 0.10000000E+01 0.22363181E+03</pdfrwt>
<pdfrwt beam="2">  1        2 0.10100356E+00 0.21713875E+03</pdfrwt>
<totfact> 0.56915581E+01</totfact>
</mgrwt>
</event>
<event>
 5    1  0.2968854E-003  0.8804242E+02  0.7818608E-02  0.1315589E+00
         11   -1    0    0    0    0  0.00000000000E+00  0.00000000000E+00  0.10001802977E+04  0.10001802977E+04  0.51100000000E-03 0. -1.
          2   -1    0    0  501    0 -0.00000000000E+00 -0.00000000000E+00 -0.88854703239E+01  0.88854706898E+01  0.25500000000E-02 0. -1.
         11    1    1    2    0    0  0.82865298487E+01  0.49792484160E+02  0.13955183520E+03  0.14840037994E+03  0.51100000000E-03 0. -1.
         22    1    1    2    0    0 -0.17641263826E+01  0.34896879592E+02  0.16290210748E+03  0.16660732568E+03  0.00000000000E+00 0.  1.
          2    1    1    2  501    0 -0.65224034661E+01 -0.84689363752E+02  0.68884088464E+03  0.69405806273E+03  0.25500000000E-02 0. -1.
<mgrwt>
<rscale>  0 0.84940156E+02</rscale>
<asrwt>0</asrwt>
<pdfrwt beam="1">  1       11 0.10000000E+01 0.88042417E+02</pdfrwt>
<pdfrwt beam="2">  1        2 0.13672419E-02 0.84940156E+02</pdfrwt>
<totfact> 0.98616683E+03</totfact>
</mgrwt>
</event>
<event>
 5    1  0.2968854E-003  0.5507379E+03  0.7818608E-02  0.1003223E+00
         11   -1    0    0    0    0  0.00000000000E+00  0.00000000000E+00  0.10004980221E+04  0.10004980221E+04  0.51100000000E-03 0. -1.
          2   -1    0    0  501    0 -0.00000000000E+00 -0.00000000000E+00 -0.17621064455E+04  0.17621064455E+04  0.25500000000E-02 0.  1.
         11    1    1    2    0    0 -0.11075994103E+03  0.48966379380E+03  0.78545290618E+03  0.93218810511E+03  0.51100000000E-03 0. -1.
         22    1    1    2    0    0 -0.34871183697E+02  0.33021854140E+02  0.92053601876E+02  0.10382826167E+03  0.00000000000E+00 0.  1.
          2    1    1    2  501    0  0.14563112472E+03 -0.52268564794E+03 -0.16391149315E+04  0.17265881007E+04  0.25500000000E-02 0.  1.
<mgrwt>
<rscale>  0 0.54259443E+03</rscale>
<asrwt>0</asrwt>
<pdfrwt beam="1">  1       11 0.10000000E+01 0.55073791E+03</pdfrwt>
<pdfrwt beam="2">  1        2 0.27122830E+00 0.54259443E+03</pdfrwt>
<totfact> 0.11705762E+01</totfact>
</mgrwt>
</event>
<event>
 5    1  0.2968854E-003  0.3506914E+03  0.7818608E-02  0.1218828E+00
         11   -1    0    0    0    0  0.00000000000E+00  0.00000000000E+00  0.10003016161E+04  0.10003016161E+04  0.51100000000E-03 0.  1.
          2   -1    0    0  501    0 -0.00000000000E+00 -0.00000000000E+00 -0.71074062197E+03  0.71074062198E+03  0.25500000000E-02 0.  1.
         11    1    1    2    0    0 -0.13884880246E+03  0.27056885528E+03  0.39266709186E+03  0.49666280355E+03  0.51100000000E-03 0.  1.
         22    1    1    2    0    0  0.25138890059E+03 -0.34691165286E+03  0.46379978355E+03  0.63139077714E+03  0.00000000000E+00 0.  1.
          2    1    1    2  501    0 -0.11254009812E+03  0.76342797584E+02 -0.56690588128E+03  0.58298865740E+03  0.25500000000E-02 0.  1.
<mgrwt>
<rscale>  0 0.13599080E+03</rscale>
<asrwt>0</asrwt>
<pdfrwt beam="1">  1       11 0.10000000E+01 0.35069136E+03</pdfrwt>
<pdfrwt beam="2">  1        2 0.10937769E+00 0.13599080E+03</pdfrwt>
<totfact> 0.52474203E+01</totfact>
</mgrwt>
</event>
<event>
 5    1  0.2968854E-003  0.2136750E+03  0.7818608E-02  0.1138688E+00
         11   -1    0    0    0    0  0.00000000000E+00  0.00000000000E+00  0.10002925876E+04  0.10002925876E+04  0.51100000000E-03 0.  1.
          2   -1    0    0  501    0 -0.00000000000E+00 -0.00000000000E+00 -0.16836245528E+03  0.16836245530E+03  0.25500000000E-02 0.  1.
         11    1    1    2    0    0  0.16675237199E+03 -0.13560388233E+03  0.88610933878E+03  0.91180289906E+03  0.51100000000E-03 0.  1.
         22    1    1    2    0    0 -0.86745218136E+01 -0.80442925742E+01  0.26109216695E+02  0.28664423388E+02  0.00000000000E+00 0. -1.
          2    1    1    2  501    0 -0.15807785018E+03  0.14364817490E+03 -0.80288423146E+02  0.22818772045E+03  0.25500000000E-02 0.  1.
<mgrwt>
<rscale>  0 0.21367500E+03</rscale>
<asrwt>0</asrwt>
<pdfrwt beam="1">  1       11 0.10000000E+01 0.11830383E+02</pdfrwt>
<pdfrwt beam="2">  1        2 0.25909494E-01 0.21367500E+03</pdfrwt>
<totfact> 0.25433574E+02</totfact>
</mgrwt>
</event>
<event>
 5    1  0.2968854E-003  0.1081850E+03  0.7818608E-02  0.1365718E+00
         11   -1    0    0    0    0  0.00000000000E+00  0.00000000000E+00  0.10001427322E+04  0.10001427322E+04  0.51100000000E-03 0. -1.
         -2   -1    0    0    0  501 -0.00000000000E+00 -0.00000000000E+00 -0.21294954286E+03  0.21294954288E+03  0.25500000000E-02 0.  1.
         11    1    1    2    0    0  0.37781985086E+02  0.14528386398E+03  0.51072610955E+03  0.53233076044E+03  0.51100000000E-03 0. -1.
         22    1    1    2    0    0  0.54377147543E+01 -0.92304607063E+02  0.46817892144E+03  0.47722239230E+03  0.00000000000E+00 0. -1.
         -2    1    1    2    0  501 -0.43219699840E+02 -0.52979256921E+02 -0.19171184161E+03  0.20353912238E+03  0.25500000000E-02 0.  1.
<mgrwt>
<rscale>  0 0.68372100E+02</rscale>
<asrwt>0</asrwt>
<pdfrwt beam="1">  1       11 0.10000000E+01 0.10818503E+03</pdfrwt>
<pdfrwt beam="2">  1       -2 0.32766143E-01 0.68372100E+02</pdfrwt>
<totfact> 0.68662464E+01</totfact>
</mgrwt>
</event>
<event>
 5    1  0.2968854E-003  0.2300249E+03  0.7818608E-02  0.1134644E+00
         11   -1    0    0    0    0  0.00000000000E+00  0.00000000000E+00  0.10004597883E+04  0.10004597883E+04  0.51100000000E-03 0. -1.
         -2   -1    0    0    0  501 -0.00000000000E+00 -0.00000000000E+00 -0.50962163648E+02  0.50962163712E+02  0.25500000000E-02 0. -1.
         11    1    1    2    0    0  0.74437338833E+02 -0.21449770549E+02  0.13535240547E+03  0.15595282535E+03  0.51100000000E-03 0. -1.
         22    1    1    2    0    0  0.90583428263E+02 -0.12250004672E+03  0.29470757425E+03  0.33175920974E+03  0.00000000000E+00 0. -1.
         -2    1    1    2    0  501 -0.16502076710E+03  0.14394981727E+03  0.51943764498E+03  0.56370991697E+03  0.25500000000E-02 0. -1.
<mgrwt>
<rscale>  0 0.21898266E+03</rscale>
<asrwt>0</asrwt>
<pdfrwt beam="1">  1       11 0.10000000E+01 0.23002487E+03</pdfrwt>
<pdfrwt beam="2">  1       -2 0.78439375E-02 0.21898266E+03</pdfrwt>
<totfact> 0.76865155E+02</totfact>
</mgrwt>
</event>
<event>
 5    1  0.2968854E-003  0.1744236E+03  0.7818608E-02  0.1221218E+00
         11   -1    0    0    0    0  0.00000000000E+00  0.00000000000E+00  0.10008462276E+04  0.10008462276E+04  0.51100000000E-03 0. -1.
          2   -1    0    0  501    0 -0.00000000000E+00 -0.00000000000E+00 -0.16688448606E+04  0.16688448606E+04  0.25500000000E-02 0. -1.
         11    1    1    2    0    0 -0.40564979501E+02 -0.13164946454E+03  0.37256621005E+03  0.39721868026E+03  0.51100000000E-03 0. -1.
         22    1    1    2    0    0  0.13848583156E+03  0.22355522708E+03  0.58498969002E+03  0.64137992059E+03  0.00000000000E+00 0. -1.
          2    1    1    2  501    0 -0.97920852061E+02 -0.91905762541E+02 -0.16255545330E+04  0.16310924873E+04  0.25500000000E-02 0. -1.
<mgrwt>
<rscale>  0 0.13429506E+03</rscale>
<asrwt>0</asrwt>
<pdfrwt beam="1">  1       11 0.10000000E+01 0.17442356E+03</pdfrwt>
<pdfrwt beam="2">  1        2 0.25696262E+00 0.13429506E+03</pdfrwt>
<totfact> 0.14740485E+01</totfact>
</mgrwt>
</event>
<event>
 5    1  0.2968854E-003  0.9938299E+02  0.7818608E-02  0.1438973E+00
         11   -1    0    0    0    0  0.00000000000E+00  0.00000000000E+00  0.10001583264E+04  0.10001583264E+04  0.51100000000E-03 0. -1.
          2   -1    0    0  501    0 -0.00000000000E+00 -0.00000000000E+00 -0.19057123423E+03  0.19057123425E+03  0.25500000000E-02 0.  1.
         11    1    1    2    0    0 -0.11977792010E+03  0.36276684162E+02  0.52169203582E+03  0.53649354908E+03  0.51100000000E-03 0. -1.
         22    1    1    2    0    0  0.70773729358E+02 -0.51110837668E+02  0.46332985082E+03  0.47148254385E+03  0.00000000000E+00 0. -1.
          2    1    1    2  501    0  0.49004190746E+02  0.14834153507E+02 -0.17543479451E+03  0.18275346769E+03  0.25500000000E-02 0.  1.
<mgrwt>
<rscale>  0 0.51200223E+02</rscale>
<asrwt>0</asrwt>
<pdfrwt beam="1">  1       11 0.10000000E+01 0.99382986E+02</pdfrwt>
<pdfrwt beam="2">  1        2 0.29323292E-01 0.51200223E+02</pdfrwt>
<totfact> 0.21472378E+02</totfact>
</mgrwt>
</event>
<event>
 5    1  0.2968854E-003  0.6619133E+02  0.7818608E-02  0.1382021E+00
         11   -1    0    0    0    0  0.00000000000E+00  0.00000000000E+00  0.10002572001E+04  0.10002572001E+04  0.51100000000E-03 0. -1.
          2   -1    0    0  501    0 -0.00000000000E+00 -0.00000000000E+00 -0.48875164394E+01  0.48875171047E+01  0.25500000000E-02 0. -1.
         11    1    1    2    0    0 -0.28025275377E+02  0.45117289411E+02  0.27319361853E+03  0.27830871181E+03  0.51100000000E-03 0. -1.
         22    1    1    2    0    0 -0.11557997573E+02  0.50913245478E+01  0.47953572941E+02  0.49588850071E+02  0.00000000000E+00 0. -1.
          2    1    1    2  501    0  0.39583272950E+02 -0.50208613959E+02  0.67422249220E+03  0.67724715534E+03  0.25500000000E-02 0. -1.
<mgrwt>
<rscale>  0 0.63935439E+02</rscale>
<asrwt>0</asrwt>
<pdfrwt beam="1">  1       11 0.10000000E+01 0.66191332E+02</pdfrwt>
<pdfrwt beam="2">  1        2 0.75211903E-03 0.63935439E+02</pdfrwt>
<totfact> 0.21200067E+04</totfact>
</mgrwt>
</event>
<event>
 5    1  0.2968854E-003  0.2262579E+03  0.7818608E-02  0.1129302E+00
         11   -1    0    0    0    0  0.00000000000E+00  0.00000000000E+00  0.99989675897E+03  0.99989675897E+03  0.51100000000E-03 0. -1.
          2   -1    0    0  501    0 -0.00000000000E+00 -0.00000000000E+00 -0.52136323761E+03  0.52136323761E+03  0.25500000000E-02 0. -1.
         11    1    1    2    0    0  0.21344108606E+01 -0.69828979769E+02  0.10886334304E+03  0.12935172818E+03  0.51100000000E-03 0. -1.
         22    1    1    2    0    0  0.29640662272E+02 -0.15624621332E+03  0.84752618254E+03  0.86231785215E+03  0.00000000000E+00 0. -1.
          2    1    1    2  501    0 -0.31775073133E+02  0.22607519309E+03 -0.47785600422E+03  0.52959041625E+03  0.25500000000E-02 0. -1.
<mgrwt>
<rscale>  0 0.22625793E+03</rscale>
<asrwt>0</asrwt>
<pdfrwt beam="1">  1       11 0.10000000E+01 0.69861593E+02</pdfrwt>
<pdfrwt beam="2">  1        2 0.80201446E-01 0.22625793E+03</pdfrwt>
<totfact> 0.74199866E+01</totfact>
</mgrwt>
</event>
<event>
 5    1  0.2968854E-003  0.1847197E+03  0.7818608E-02  0.1177101E+00
         11   -1    0    0    0    0  0.00000000000E+00  0.00000000000E+00  0.10002488821E+04  0.10002488821E+04  0.51100000000E-03 0. -1.
          2   -1    0    0  501    0 -0.00000000000E+00 -0.00000000000E+00 -0.96901279613E+02  0.96901279646E+02  0.25500000000E-02 0. -1.
         11    1    1    2    0    0  0.70170337928E+02  0.23293857576E+02  0.31909501196E+03  0.32754863270E+03  0.51100000000E-03 0. -1.
         22    1    1    2    0    0  0.50472237102E+02  0.97495878018E+02  0.58867598724E+03  0.59882577675E+03  0.00000000000E+00 0. -1.
          2    1    1    2  501    0 -0.12064257503E+03 -0.12078973559E+03 -0.44233966904E+01  0.17077575232E+03  0.25500000000E-02 0. -1.
<mgrwt>
<rscale>  0 0.17071846E+03</rscale>
<asrwt>0</asrwt>
<pdfrwt beam="1">  1       11 0.10000000E+01 0.18471968E+03</pdfrwt>
<pdfrwt beam="2">  1        2 0.14911599E-01 0.17071846E+03</pdfrwt>
<totfact> 0.47552736E+02</totfact>
</mgrwt>
</event>
<event>
 5    1  0.2968854E-003  0.3051603E+02  0.7818608E-02  0.1796740E+00
         11   -1    0    0    0    0  0.00000000000E+00  0.00000000000E+00  0.10003979090E+04  0.10003979090E+04  0.51100000000E-03 0. -1.
          2   -1    0    0  501    0 -0.00000000000E+00 -0.00000000000E+00 -0.59904063706E+01  0.59904069134E+01  0.25500000000E-02 0. -1.
         11    1    1    2    0    0  0.36233452452E+02 -0.16689095847E+02  0.10734975548E+03  0.11452230786E+03  0.51100000000E-03 0. -1.
         22    1    1    2    0    0 -0.84972317008E+01  0.56412241075E+01  0.99451272019E+01  0.14245417195E+02  0.00000000000E+00 0. -1.
          2    1    1    2  501    0 -0.27736220752E+02  0.11047871739E+02  0.87711261990E+03  0.87762059081E+03  0.25500000000E-02 0. -1.
<mgrwt>
<rscale>  0 0.17642078E+02</rscale>
<asrwt>0</asrwt>
<pdfrwt beam="1">  1       11 0.10000000E+01 0.30516028E+02</pdfrwt>
<pdfrwt beam="2">  1        2 0.92196771E-03 0.17642078E+02</pdfrwt>
<totfact> 0.12286861E+04</totfact>
</mgrwt>
</event>
<event>
 5    1  0.2968854E-003  0.9375185E+02  0.7818608E-02  0.1315582E+00
         11   -1    0    0    0    0  0.00000000000E+00  0.00000000000E+00  0.99994228506E+03  0.99994228506E+03  0.51100000000E-03 0. -1.
         -2   -1    0    0    0  501 -0.00000000000E+00 -0.00000000000E+00 -0.80487303213E+01  0.80487307252E+01  0.25500000000E-02 0. -1.
         11    1    1    2    0    0  0.23005549673E-01 -0.71213411605E+02  0.36413357947E+03  0.37103182373E+03  0.51100000000E-03 0. -1.
         22    1    1    2    0    0  0.19378223798E+02 -0.11484162070E+02  0.11071578440E+03  0.11298400972E+03  0.00000000000E+00 0. -1.
         -2    1    1    2    0  501 -0.19401229348E+02  0.82697573675E+02  0.51704419087E+03  0.52397518234E+03  0.25500000000E-02 0. -1.
<mgrwt>
<rscale>  0 0.84942901E+02</rscale>
<asrwt>0</asrwt>
<pdfrwt beam="1">  1       11 0.10000000E+01 0.93751846E+02</pdfrwt>
<pdfrwt beam="2">  1       -2 0.12381947E-02 0.84942901E+02</pdfrwt>
<totfact> 0.10630334E+04</totfact>
</mgrwt>
</event>
<event>
 5    1  0.2968854E-003  0.2263532E+03  0.7818608E-02  0.1129233E+00
         11   -1    0    0    0    0  0.00000000000E+00  0.00000000000E+00  0.10001359756E+04  0.10001359756E+04  0.51100000000E-03 0. -1.
          2   -1    0    0  501    0 -0.00000000000E+00 -0.00000000000E+00 -0.56919604986E+02  0.56919605043E+02  0.25500000000E-02 0. -1.
         11    1    1    2    0    0 -0.15797311987E+03 -0.15906579973E+03  0.54043488785E+03  0.58508743214E+03  0.51100000000E-03 0. -1.
         22    1    1    2    0    0  0.42159696900E+01 -0.91495912227E+01  0.56706652467E+02  0.57594564448E+02  0.00000000000E+00 0.  1.
          2    1    1    2  501    0  0.15375715018E+03  0.16821539095E+03  0.34607483025E+03  0.41437358401E+03  0.25500000000E-02 0. -1.
<mgrwt>
<rscale>  0 0.22635318E+03</rscale>
<asrwt>0</asrwt>
<pdfrwt beam="1">  1       11 0.10000000E+01 0.10074196E+02</pdfrwt>
<pdfrwt beam="2">  1        2 0.87580528E-02 0.22635318E+03</pdfrwt>
<totfact> 0.92282744E+02</totfact>
</mgrwt>
</event>
<event>
 5    1  0.2968854E-003  0.4473774E+02  0.7818608E-02  0.1484911E+00
         11   -1    0    0    0    0  0.00000000000E+00  0.00000000000E+00  0.10002280030E+04  0.10002280030E+04  0.51100000000E-03 0.  1.
          2   -1    0    0  501    0 -0.00000000000E+00 -0.00000000000E+00 -0.39788774479E+01  0.39788782650E+01  0.25500000000E-02 0.  1.
         11    1    1    2    0    0 -0.11394938720E+02 -0.20232276893E+02  0.66547556213E+02  0.70482387125E+02  0.51100000000E-03 0.  1.
         22    1    1    2    0    0 -0.17520470911E+02 -0.12065528402E+02  0.75947933255E+02  0.78870986062E+02  0.00000000000E+00 0.  1.
          2    1    1    2  501    0  0.28915409631E+02  0.32297805295E+02  0.85375363606E+03  0.85485350806E+03  0.25500000000E-02 0.  1.
<mgrwt>
<rscale>  0 0.43350307E+02</rscale>
<asrwt>0</asrwt>
<pdfrwt beam="1">  1       11 0.10000000E+01 0.44737742E+02</pdfrwt>
<pdfrwt beam="2">  1        2 0.61227461E-03 0.43350307E+02</pdfrwt>
<totfact> 0.25909186E+04</totfact>
</mgrwt>
</event>
<event>
 5    1  0.2968854E-003  0.5697266E+02  0.7818608E-02  0.1603413E+00
         11   -1    0    0    0    0  0.00000000000E+00  0.00000000000E+00  0.99995698175E+03  0.99995698175E+03  0.51100000000E-03 0. -1.
          2   -1    0    0  501    0 -0.00000000000E+00 -0.00000000000E+00 -0.10742909722E+02  0.10742910024E+02  0.25500000000E-02 0. -1.
         11    1    1    2    0    0  0.63510495681E+01 -0.48225117980E+02  0.17339949660E+03  0.18009270740E+03  0.51100000000E-03 0. -1.
         22    1    1    2    0    0  0.56080781789E+01  0.75218343372E+02  0.19482720230E+03  0.20891837755E+03  0.00000000000E+00 0. -1.
          2    1    1    2  501    0 -0.11959127747E+02 -0.26993225391E+02  0.62098737313E+03  0.62168880683E+03  0.25500000000E-02 0. -1.
<mgrwt>
<rscale>  0 0.29523803E+02</rscale>
<asrwt>0</asrwt>
<pdfrwt beam="1">  1       11 0.10000000E+01 0.56972665E+02</pdfrwt>
<pdfrwt beam="2">  1        2 0.16526842E-02 0.29523803E+02</pdfrwt>
<totfact> 0.64386760E+03</totfact>
</mgrwt>
</event>
<event>
 5    1  0.2968854E-003  0.5120238E+02  0.7818608E-02  0.1448229E+00
         11   -1    0    0    0    0  0.00000000000E+00  0.00000000000E+00  0.99979701972E+03  0.99979701972E+03  0.51100000000E-03 0. -1.
          2   -1    0    0  501    0 -0.00000000000E+00 -0.00000000000E+00 -0.60486616477E+01  0.60486621852E+01  0.25500000000E-02 0. -1.
         11    1    1    2    0    0 -0.69064492571E+01 -0.27496103736E+02  0.53433684415E+02  0.60488787328E+02  0.51100000000E-03 0. -1.
         22    1    1    2    0    0 -0.12230217782E+02 -0.18121112318E+02  0.63693211695E+02  0.67340761465E+02  0.00000000000E+00 0. -1.
          2    1    1    2  501    0  0.19136667040E+02  0.45617216054E+02  0.87662146196E+03  0.87801613311E+03  0.25500000000E-02 0. -1.
<mgrwt>
<rscale>  0 0.49468600E+02</rscale>
<asrwt>0</asrwt>
<pdfrwt beam="1">  1       11 0.10000000E+01 0.51202380E+02</pdfrwt>
<pdfrwt beam="2">  1        2 0.93037446E-03 0.49468600E+02</pdfrwt>
<totfact> 0.15162143E+04</totfact>
</mgrwt>
</event>
<event>
 5    1  0.2968854E-003  0.1200059E+03  0.7818608E-02  0.1243087E+00
         11   -1    0    0    0    0  0.00000000000E+00  0.00000000000E+00  0.10003450033E+04  0.10003450033E+04  0.51100000000E-03 0. -1.
          2   -1    0    0  501    0 -0.00000000000E+00 -0.00000000000E+00 -0.16974495352E+04  0.16974495352E+04  0.25500000000E-02 0.  1.
         11    1    1    2    0    0  0.65749246634E+01 -0.80752337819E+02  0.34433872912E+03  0.35374189753E+03  0.51100000000E-03 0. -1.
         22    1    1    2    0    0 -0.12117020017E+03  0.44929114163E+02  0.64273594129E+03  0.65559921669E+03  0.00000000000E+00 0. -1.
          2    1    1    2  501    0  0.11459527550E+03  0.35823223656E+02 -0.16841792023E+04  0.16884534243E+04  0.25500000000E-02 0.  1.
<mgrwt>
<rscale>  0 0.12000591E+03</rscale>
<asrwt>0</asrwt>
<pdfrwt beam="1">  1       11 0.10000000E+01 0.81019564E+02</pdfrwt>
<pdfrwt beam="2">  1        2 0.26123617E+00 0.12000591E+03</pdfrwt>
<totfact> 0.14410799E+01</totfact>
</mgrwt>
</event>
<event>
 5    1  0.2968854E-003  0.1992608E+03  0.7818608E-02  0.1169773E+00
         11   -1    0    0    0    0  0.00000000000E+00  0.00000000000E+00  0.10002983818E+04  0.10002983818E+04  0.51100000000E-03 0.  1.
          2   -1    0    0  501    0 -0.00000000000E+00 -0.00000000000E+00 -0.47619351768E+02  0.47619351836E+02  0.25500000000E-02 0.  1.
         11    1    1    2    0    0 -0.78168672997E+02  0.79220240172E+02  0.51469989264E+03  0.52659487975E+03  0.51100000000E-03 0.  1.
         22    1    1    2    0    0 -0.83276960390E+02 -0.43067496233E+01  0.24499460598E+03  0.25879713519E+03  0.00000000000E+00 0.  1.
          2    1    1    2  501    0  0.16144563339E+03 -0.74913490549E+02  0.19298453140E+03  0.26252571869E+03  0.25500000000E-02 0.  1.
<mgrwt>
<rscale>  0 0.17797956E+03</rscale>
<asrwt>0</asrwt>
<pdfrwt beam="1">  1       11 0.10000000E+01 0.19926085E+03</pdfrwt>
<pdfrwt beam="2">  1        2 0.73282399E-02 0.17797956E+03</pdfrwt>
<totfact> 0.11408031E+03</totfact>
</mgrwt>
</event>
<event>
 5    1  0.2968854E-003  0.2370708E+03  0.7818608E-02  0.1123797E+00
         11   -1    0    0    0    0  0.00000000000E+00  0.00000000000E+00  0.10001558058E+04  0.10001558058E+04  0.51100000000E-03 0.  1.
          2   -1    0    0  501    0 -0.00000000000E+00 -0.00000000000E+00 -0.55594878401E+02  0.55594878460E+02  0.25500000000E-02 0.  1.
         11    1    1    2    0    0 -0.20709425718E+03 -0.60913200770E+02  0.39415317621E+03  0.44939423194E+03  0.51100000000E-03 0.  1.
         22    1    1    2    0    0 -0.19291149667E+02  0.13687739998E+01  0.58007802555E+02  0.61146767331E+02  0.00000000000E+00 0.  1.
          2    1    1    2  501    0  0.22638540684E+03  0.59544426770E+02  0.49239994867E+03  0.54520968503E+03  0.25500000000E-02 0.  1.
<mgrwt>
<rscale>  0 0.23408522E+03</rscale>
<asrwt>0</asrwt>
<pdfrwt beam="1">  1       11 0.10000000E+01 0.23707079E+03</pdfrwt>
<pdfrwt beam="2">  1        2 0.85543906E-02 0.23408522E+03</pdfrwt>
<totfact> 0.95242202E+02</totfact>
</mgrwt>
</event>
<event>
 5    1  0.2968854E-003  0.2605057E+03  0.7818608E-02  0.1108319E+00
         11   -1    0    0    0    0  0.00000000000E+00  0.00000000000E+00  0.10002124268E+04  0.10002124268E+04  0.51100000000E-03 0. -1.
          2   -1    0    0  501    0 -0.00000000000E+00 -0.00000000000E+00 -0.16543230563E+03  0.16543230565E+03  0.25500000000E-02 0. -1.
         11    1    1    2    0    0 -0.19949832774E+03  0.13247522859E+03  0.81264027224E+03  0.84719152559E+03  0.51100000000E-03 0. -1.
         22    1    1    2    0    0 -0.20355374996E+02  0.26371937092E+01  0.54634614839E+02  0.58362978167E+02  0.00000000000E+00 0.  1.
          2    1    1    2  501    0  0.21985370273E+03 -0.13511242229E+03 -0.32494765871E+02  0.26009022873E+03  0.25500000000E-02 0. -1.
<mgrwt>
<rscale>  0 0.25805235E+03</rscale>
<asrwt>0</asrwt>
<pdfrwt beam="1">  1       11 0.10000000E+01 0.26050572E+03</pdfrwt>
<pdfrwt beam="2">  1        2 0.25456530E-01 0.25805235E+03</pdfrwt>
<totfact> 0.26037972E+02</totfact>
</mgrwt>
</event>
<event>
 5    1  0.2968854E-003  0.5710640E+03  0.7818608E-02  0.9975796E-01
         11   -1    0    0    0    0  0.00000000000E+00  0.00000000000E+00  0.99978350975E+03  0.99978350975E+03  0.51100000000E-03 0.  1.
          2   -1    0    0  501    0 -0.00000000000E+00 -0.00000000000E+00 -0.10132455857E+04  0.10132455857E+04  0.25500000000E-02 0.  1.
         11    1    1    2    0    0  0.20023840593E+03 -0.50276067257E+03  0.77408636188E+03  0.94449637837E+03  0.51100000000E-03 0.  1.
         22    1    1    2    0    0 -0.38889918037E+01 -0.29416723557E+02  0.49306818688E+02  0.57546765775E+02  0.00000000000E+00 0.  1.
          2    1    1    2  501    0 -0.19634941413E+03  0.53217739613E+03 -0.83685525656E+03  0.10109859513E+04  0.25500000000E-02 0.  1.
<mgrwt>
<rscale>  0 0.56724410E+03</rscale>
<asrwt>0</asrwt>
<pdfrwt beam="1">  1       11 0.10000000E+01 0.57106404E+03</pdfrwt>
<pdfrwt beam="2">  1        2 0.15585018E+00 0.56724410E+03</pdfrwt>
<totfact> 0.31133876E+01</totfact>
</mgrwt>
</event>
<event>
 5    1  0.2968854E-003  0.2588131E+03  0.7818608E-02  0.1124263E+00
         11   -1    0    0    0    0  0.00000000000E+00  0.00000000000E+00  0.10003121737E+04  0.10003121737E+04  0.51100000000E-03 0.  1.
          2   -1    0    0  501    0 -0.00000000000E+00 -0.00000000000E+00 -0.79088916507E+03  0.79088916507E+03  0.25500000000E-02 0.  1.
         11    1    1    2    0    0  0.91666283417E+01  0.25628278622E+03  0.80910158163E+03  0.84876985278E+03  0.51100000000E-03 0.  1.
         22    1    1    2    0    0 -0.19135657230E+03  0.87706691940E+02  0.19137417059E+02  0.21136707952E+03  0.00000000000E+00 0.  1.
          2    1    1    2  501    0  0.18218994396E+03 -0.34398947816E+03 -0.61881599009E+03  0.73106440644E+03  0.25500000000E-02 0.  1.
<mgrwt>
<rscale>  0 0.23340926E+03</rscale>
<asrwt>0</asrwt>
<pdfrwt beam="1">  1       11 0.10000000E+01 0.25881311E+03</pdfrwt>
<pdfrwt beam="2">  1        2 0.12171324E+00 0.23340926E+03</pdfrwt>
<totfact> 0.45196235E+01</totfact>
</mgrwt>
</event>
<event>
 5    1  0.2968854E-003  0.3143757E+03  0.7818608E-02  0.1080675E+00
         11   -1    0    0    0    0  0.00000000000E+00  0.00000000000E+00  0.10004329541E+04  0.10004329541E+04  0.51100000000E-03 0. -1.
          2   -1    0    0  501    0 -0.00000000000E+00 -0.00000000000E+00 -0.98012407681E+03  0.98012407682E+03  0.25500000000E-02 0. -1.
         11    1    1    2    0    0  0.13968575434E+03 -0.24203552688E+03  0.86250310186E+03  0.90664486265E+03  0.51100000000E-03 0. -1.
         22    1    1    2    0    0 -0.91687456277E+00 -0.34403025221E+02  0.87546934792E+02  0.94068456960E+02  0.00000000000E+00 0. -1.
          2    1    1    2  501    0 -0.13876887978E+03  0.27643855210E+03 -0.92974115939E+03  0.97984371129E+03  0.25500000000E-02 0. -1.
<mgrwt>
<rscale>  0 0.30931388E+03</rscale>
<asrwt>0</asrwt>
<pdfrwt beam="1">  1       11 0.10000000E+01 0.31437569E+03</pdfrwt>
<pdfrwt beam="2">  1        2 0.15085360E+00 0.30931388E+03</pdfrwt>
<totfact> 0.33560020E+01</totfact>
</mgrwt>
</event>
<event>
 5    1  0.2968854E-003  0.1690819E+03  0.7818608E-02  0.1178809E+00
         11   -1    0    0    0    0  0.00000000000E+00  0.00000000000E+00  0.10002150596E+04  0.10002150596E+04  0.51100000000E-03 0.  1.
          2   -1    0    0  501    0 -0.00000000000E+00 -0.00000000000E+00 -0.32664113650E+02  0.32664113750E+02  0.25500000000E-02 0.  1.
         11    1    1    2    0    0  0.14874227159E+02  0.44043584116E+01  0.15287698180E+02  0.21779686005E+02  0.51100000000E-03 0.  1.
         22    1    1    2    0    0 -0.91265929152E+02 -0.14846167256E+03  0.42996688956E+03  0.46394166029E+03  0.00000000000E+00 0.  1.
          2    1    1    2  501    0  0.76391701993E+02  0.14405731415E+03  0.52229635824E+03  0.54715782708E+03  0.25500000000E-02 0.  1.
<mgrwt>
<rscale>  0 0.16908185E+03</rscale>
<asrwt>0</asrwt>
<pdfrwt beam="1">  1       11 0.10000000E+01 0.15512616E+02</pdfrwt>
<pdfrwt beam="2">  1        2 0.50263288E-02 0.16908185E+03</pdfrwt>
<totfact> 0.18522533E+03</totfact>
</mgrwt>
</event>
<event>
 5    1  0.2968854E-003  0.3681849E+02  0.7818608E-02  0.1722060E+00
         11   -1    0    0    0    0  0.00000000000E+00  0.00000000000E+00  0.10001266801E+04  0.10001266801E+04  0.51100000000E-03 0. -1.
          2   -1    0    0  501    0 -0.00000000000E+00 -0.00000000000E+00 -0.14778594912E+02  0.14778595132E+02  0.25500000000E-02 0. -1.
         11    1    1    2    0    0 -0.45818412048E+02 -0.38788700224E+01  0.31148711219E+02  0.55539307937E+02  0.51100000000E-03 0. -1.
         22    1    1    2    0    0  0.94509369061E+01  0.77663214053E+01  0.14566491416E+02  0.19021530662E+02  0.00000000000E+00 0.  1.
          2    1    1    2  501    0  0.36367475142E+02 -0.38874513829E+01  0.93963288254E+03  0.94034443662E+03  0.25500000000E-02 0. -1.
<mgrwt>
<rscale>  0 0.21222271E+02</rscale>
<asrwt>0</asrwt>
<pdfrwt beam="1">  1       11 0.10000000E+01 0.36818489E+02</pdfrwt>
<pdfrwt beam="2">  1        2 0.22739180E-02 0.21222271E+02</pdfrwt>
<totfact> 0.40200126E+03</totfact>
</mgrwt>
</event>
<event>
 5    1  0.2968854E-003  0.3777132E+02  0.7818608E-02  0.1536299E+00
         11   -1    0    0    0    0  0.00000000000E+00  0.00000000000E+00  0.10003327102E+04  0.10003327102E+04  0.51100000000E-03 0.  1.
         -2   -1    0    0    0  501 -0.00000000000E+00 -0.00000000000E+00 -0.23856083578E+01  0.23856097207E+01  0.25500000000E-02 0.  1.
         11    1    1    2    0    0  0.10643517953E+02  0.23511564522E+02  0.14510543636E+03  0.14738271881E+03  0.51100000000E-03 0.  1.
         22    1    1    2    0    0  0.55223459655E+01  0.91294954871E+01  0.32934281038E+02  0.34619515599E+02  0.00000000000E+00 0.  1.
         -2    1    1    2    0  501 -0.16165863919E+02 -0.32641060009E+02  0.81990738448E+03  0.82071608555E+03  0.25500000000E-02 0.  1.
<mgrwt>
<rscale>  0 0.36424909E+02</rscale>
<asrwt>0</asrwt>
<pdfrwt beam="1">  1       11 0.10000000E+01 0.37771317E+02</pdfrwt>
<pdfrwt beam="2">  1       -2 0.36713888E-03 0.36424909E+02</pdfrwt>
<totfact> 0.48411726E+04</totfact>
</mgrwt>
</event>
<event>
 5    1  0.2968854E-003  0.1093097E+03  0.7818608E-02  0.1563837E+00
         11   -1    0    0    0    0  0.00000000000E+00  0.00000000000E+00  0.99980119686E+03  0.99980119686E+03  0.51100000000E-03 0. -1.
          2   -1    0    0  501    0 -0.00000000000E+00 -0.00000000000E+00 -0.25816798984E+02  0.25816799110E+02  0.25500000000E-02 0.  1.
         11    1    1    2    0    0  0.82051576416E+02 -0.59378526421E+02  0.47764765152E+03  0.48826790761E+03  0.51100000000E-03 0. -1.
         22    1    1    2    0    0 -0.80169652092E+02  0.92667314150E+02  0.48776967124E+03  0.50292510020E+03  0.00000000000E+00 0. -1.
          2    1    1    2  501    0 -0.18819243244E+01 -0.33288787729E+02  0.85670751133E+01  0.34424988165E+02  0.25500000000E-02 0.  1.
<mgrwt>
<rscale>  0 0.33341941E+02</rscale>
<asrwt>0</asrwt>
<pdfrwt beam="1">  1       11 0.10000000E+01 0.10930973E+03</pdfrwt>
<pdfrwt beam="2">  1        2 0.39710255E-02 0.33341941E+02</pdfrwt>
<totfact> 0.21276740E+03</totfact>
</mgrwt>
</event>
<event>
 5    1  0.2968854E-003  0.4650479E+02  0.7818608E-02  0.1465160E+00
         11   -1    0    0    0    0  0.00000000000E+00  0.00000000000E+00  0.10003084144E+04  0.10003084144E+04  0.51100000000E-03 0.  1.
          2   -1    0    0  501    0 -0.00000000000E+00 -0.00000000000E+00 -0.75262799363E+01  0.75262803683E+01  0.25500000000E-02 0.  1.
         11    1    1    2    0    0  0.24705867272E+01  0.25628418969E+02  0.51114744076E+02  0.57233178488E+02  0.51100000000E-03 0.  1.
         22    1    1    2    0    0  0.46073713396E+02 -0.21172908598E+01  0.14608969841E+03  0.15319748682E+03  0.00000000000E+00 0.  1.
          2    1    1    2  501    0 -0.48544300124E+02 -0.23511128109E+02  0.79557769201E+03  0.79740402949E+03  0.25500000000E-02 0.  1.
<mgrwt>
<rscale>  0 0.46504792E+02</rscale>
<asrwt>0</asrwt>
<pdfrwt beam="1">  1       11 0.10000000E+01 0.25747239E+02</pdfrwt>
<pdfrwt beam="2">  1        2 0.11582463E-02 0.46504792E+02</pdfrwt>
<totfact> 0.11177550E+04</totfact>
</mgrwt>
</event>
<event>
 5    1  0.2968854E-003  0.4947486E+03  0.7818608E-02  0.1015586E+00
         11   -1    0    0    0    0  0.00000000000E+00  0.00000000000E+00  0.99956548036E+03  0.99956548036E+03  0.51100000000E-03 0. -1.
          2   -1    0    0  501    0 -0.00000000000E+00 -0.00000000000E+00 -0.85600428054E+03  0.85600428054E+03  0.25500000000E-02 0. -1.
         11    1    1    2    0    0  0.39162215804E+03  0.27184393077E+03  0.82175224049E+03  0.95002304294E+03  0.51100000000E-03 0. -1.
         22    1    1    2    0    0  0.17644534288E+02  0.32661241311E+01  0.34494836884E+02  0.38883041660E+02  0.00000000000E+00 0.  1.
          2    1    1    2  501    0 -0.40926669233E+03 -0.27511005490E+03 -0.71268587755E+03  0.86666367630E+03  0.25500000000E-02 0. -1.
<mgrwt>
<rscale>  0 0.49313768E+03</rscale>
<asrwt>0</asrwt>
<pdfrwt beam="1">  1       11 0.10000000E+01 0.49474861E+03</pdfrwt>
<pdfrwt beam="2">  1        2 0.13163574E+00 0.49313768E+03</pdfrwt>
<totfact> 0.39683229E+01</totfact>
</mgrwt>
</event>
<event>
 5    1  0.2968854E-003  0.1808335E+03  0.7818608E-02  0.1168918E+00
         11   -1    0    0    0    0  0.00000000000E+00  0.00000000000E+00  0.99993153890E+03  0.99993153890E+03  0.51100000000E-03 0.  1.
          2   -1    0    0  501    0 -0.00000000000E+00 -0.00000000000E+00 -0.22845835671E+03  0.22845835672E+03  0.25500000000E-02 0.  1.
         11    1    1    2    0    0 -0.54287224823E+02 -0.14754605989E+03  0.82795530680E+03  0.84274962630E+03  0.51100000000E-03 0.  1.
         22    1    1    2    0    0 -0.16833597772E+02 -0.16558192067E+02  0.12713732521E+03  0.12931141945E+03  0.00000000000E+00 0.  1.
          2    1    1    2  501    0  0.71120822595E+02  0.16410425195E+03 -0.18361944982E+03  0.25632884987E+03  0.25500000000E-02 0.  1.
<mgrwt>
<rscale>  0 0.17885295E+03</rscale>
<asrwt>0</asrwt>
<pdfrwt beam="1">  1       11 0.10000000E+01 0.18083346E+03</pdfrwt>
<pdfrwt beam="2">  1        2 0.35145032E-01 0.17885295E+03</pdfrwt>
<totfact> 0.18161434E+02</totfact>
</mgrwt>
</event>
<event>
 5    1  0.2968854E-003  0.3007033E+03  0.7818608E-02  0.1094955E+00
         11   -1    0    0    0    0  0.00000000000E+00  0.00000000000E+00  0.10000854059E+04  0.10000854059E+04  0.51100000000E-03 0.  1.
          2   -1    0    0  501    0 -0.00000000000E+00 -0.00000000000E+00 -0.24656151874E+03  0.24656151876E+03  0.25500000000E-02 0. -1.
         11    1    1    2    0    0  0.72100802817E+02  0.15280991174E+03  0.66134253914E+03  0.68258578140E+03  0.51100000000E-03 0.  1.
         22    1    1    2    0    0  0.11168580053E+02  0.11593283092E+03  0.22468108955E+03  0.25307459467E+03  0.00000000000E+00 0. -1.
          2    1    1    2  501    0 -0.83269382869E+02 -0.26874274266E+03 -0.13249974157E+03  0.31098654855E+03  0.25500000000E-02 0. -1.
<mgrwt>
<rscale>  0 0.28134756E+03</rscale>
<asrwt>0</asrwt>
<pdfrwt beam="1">  1       11 0.10000000E+01 0.30070329E+03</pdfrwt>
<pdfrwt beam="2">  1        2 0.37935780E-01 0.28134756E+03</pdfrwt>
<totfact> 0.16790516E+02</totfact>
</mgrwt>
</event>
<event>
 5    1  0.2968854E-003  0.1186787E+03  0.7818608E-02  0.1245293E+00
         11   -1    0    0    0    0  0.00000000000E+00  0.00000000000E+00  0.10001641426E+04  0.10001641426E+04  0.51100000000E-03 0. -1.
          2   -1    0    0  501    0 -0.00000000000E+00 -0.00000000000E+00 -0.46202713858E+02  0.46202713928E+02  0.25500000000E-02 0. -1.
         11    1    1    2    0    0  0.87814048355E+02  0.14541214337E+03  0.59020717378E+03  0.61416651366E+03  0.51100000000E-03 0. -1.
         22    1    1    2    0    0 -0.94228147316E+02 -0.32874422782E+02  0.26193309953E+03  0.28030094551E+03  0.00000000000E+00 0. -1.
          2    1    1    2  501    0  0.64140989614E+01 -0.11253772059E+03  0.10182115545E+03  0.15189939738E+03  0.25500000000E-02 0. -1.
<mgrwt>
<rscale>  0 0.11867871E+03</rscale>
<asrwt>0</asrwt>
<pdfrwt beam="1">  1       11 0.10000000E+01 0.99798153E+02</pdfrwt>
<pdfrwt beam="2">  1        2 0.71092764E-02 0.11867871E+03</pdfrwt>
<totfact> 0.11537000E+03</totfact>
</mgrwt>
</event>
<event>
 5    1  0.2968854E-003  0.1079030E+03  0.7818608E-02  0.1267487E+00
         11   -1    0    0    0    0  0.00000000000E+00  0.00000000000E+00  0.10000631811E+04  0.10000631811E+04  0.51100000000E-03 0.  1.
          2   -1    0    0  501    0 -0.00000000000E+00 -0.00000000000E+00 -0.11582400060E+02  0.11582400340E+02  0.25500000000E-02 0.  1.
         11    1    1    2    0    0  0.72471809703E+02 -0.47724621897E+02  0.33358736306E+03  0.34468874587E+03  0.51100000000E-03 0.  1.
         22    1    1    2    0    0  0.17994918139E+02 -0.81823529736E+01  0.11552424586E+03  0.11720332487E+03  0.00000000000E+00 0. -1.
          2    1    1    2  501    0 -0.90466727842E+02  0.55906974870E+02  0.53936917211E+03  0.54975351069E+03  0.25500000000E-02 0.  1.
<mgrwt>
<rscale>  0 0.10634763E+03</rscale>
<asrwt>0</asrwt>
<pdfrwt beam="1">  1       11 0.10000000E+01 0.10790296E+03</pdfrwt>
<pdfrwt beam="2">  1        2 0.17820203E-02 0.10634763E+03</pdfrwt>
<totfact> 0.70966138E+03</totfact>
</mgrwt>
</event>
<event>
 5    1  0.2968854E-003  0.1933883E+03  0.7818608E-02  0.1155440E+00
         11   -1    0    0    0    0  0.00000000000E+00  0.00000000000E+00  0.99989483537E+03  0.99989483537E+03  0.51100000000E-03 0. -1.
         -2   -1    0    0    0  501 -0.00000000000E+00 -0.00000000000E+00 -0.13425572601E+03  0.13425572603E+03  0.25500000000E-02 0.  1.
         11    1    1    2    0    0 -0.15885440095E+02 -0.34947760560E+02  0.32759020576E+02  0.50466291765E+02  0.51100000000E-03 0. -1.
         22    1    1    2    0    0  0.86378493173E+02 -0.14758023021E+03  0.86817818748E+03  0.88485848227E+03  0.00000000000E+00 0. -1.
         -2    1    1    2    0  501 -0.70493053078E+02  0.18252799077E+03 -0.35298098685E+02  0.19882578737E+03  0.25500000000E-02 0.  1.
<mgrwt>
<rscale>  0 0.19338829E+03</rscale>
<asrwt>0</asrwt>
<pdfrwt beam="1">  1       11 0.10000000E+01 0.38388731E+02</pdfrwt>
<pdfrwt beam="2">  1       -2 0.20652554E-01 0.19338829E+03</pdfrwt>
<totfact> 0.15831042E+02</totfact>
</mgrwt>
</event>
<event>
 5    1  0.2968854E-003  0.1032946E+03  0.7818608E-02  0.1280394E+00
         11   -1    0    0    0    0  0.00000000000E+00  0.00000000000E+00  0.10003574050E+04  0.10003574050E+04  0.51100000000E-03 0.  1.
          2   -1    0    0  501    0 -0.00000000000E+00 -0.00000000000E+00 -0.11082211167E+02  0.11082211460E+02  0.25500000000E-02 0.  1.
         11    1    1    2    0    0 -0.68740554814E+02  0.31593704605E+02  0.29128535944E+03  0.30094947528E+03  0.51100000000E-03 0.  1.
         22    1    1    2    0    0 -0.26838375117E+02 -0.23474985944E+01  0.78641576791E+02  0.83128254696E+02  0.00000000000E+00 0.  1.
          2    1    1    2  501    0  0.95578929931E+02 -0.29246206010E+02  0.61934825761E+03  0.62736188649E+03  0.25500000000E-02 0.  1.
<mgrwt>
<rscale>  0 0.99953351E+02</rscale>
<asrwt>0</asrwt>
<pdfrwt beam="1">  1       11 0.10000000E+01 0.10329455E+03</pdfrwt>
<pdfrwt beam="2">  1        2 0.17055649E-02 0.99953351E+02</pdfrwt>
<totfact> 0.74711700E+03</totfact>
</mgrwt>
</event>
<event>
 5    1  0.2968854E-003  0.3466638E+03  0.7818608E-02  0.1070502E+00
         11   -1    0    0    0    0  0.00000000000E+00  0.00000000000E+00  0.99996212866E+03  0.99996212866E+03  0.51100000000E-03 0. -1.
          2   -1    0    0  501    0 -0.00000000000E+00 -0.00000000000E+00 -0.19483615575E+03  0.19483615576E+03  0.25500000000E-02 0. -1.
         11    1    1    2    0    0  0.20145712534E+03  0.17589919044E+03  0.59327728159E+03  0.65077141256E+03  0.51100000000E-03 0. -1.
         22    1    1    2    0    0  0.78848933439E+02  0.96282438782E+00  0.19706766084E+03  0.21225867305E+03  0.00000000000E+00 0.  1.
          2    1    1    2  501    0 -0.28030605878E+03 -0.17686201483E+03  0.14781030484E+02  0.33176819882E+03  0.25500000000E-02 0. -1.
<mgrwt>
<rscale>  0 0.33143877E+03</rscale>
<asrwt>0</asrwt>
<pdfrwt beam="1">  1       11 0.10000000E+01 0.34666382E+03</pdfrwt>
<pdfrwt beam="2">  1        2 0.29973657E-01 0.33143877E+03</pdfrwt>
<totfact> 0.21790423E+02</totfact>
</mgrwt>
</event>
<event>
 5    1  0.2968854E-003  0.7833690E+02  0.7818608E-02  0.1333838E+00
         11   -1    0    0    0    0  0.00000000000E+00  0.00000000000E+00  0.10003390401E+04  0.10003390401E+04  0.51100000000E-03 0.  1.
          2   -1    0    0  501    0 -0.00000000000E+00 -0.00000000000E+00 -0.21275503412E+02  0.21275503565E+02  0.25500000000E-02 0.  1.
         11    1    1    2    0    0 -0.74384608959E+02  0.56663354476E+01  0.26639457570E+03  0.27664281550E+03  0.51100000000E-03 0.  1.
         22    1    1    2    0    0  0.40055757184E+01 -0.78791767483E+02  0.11957240706E+03  0.14325413707E+03  0.00000000000E+00 0.  1.
          2    1    1    2  501    0  0.70379033241E+02  0.73125432035E+02  0.59309655393E+03  0.60171759109E+03  0.25500000000E-02 0.  1.
<mgrwt>
<rscale>  0 0.78336900E+02</rscale>
<asrwt>0</asrwt>
<pdfrwt beam="1">  1       11 0.10000000E+01 0.74600117E+02</pdfrwt>
<pdfrwt beam="2">  1        2 0.32742640E-02 0.78336900E+02</pdfrwt>
<totfact> 0.30278243E+03</totfact>
</mgrwt>
</event>
<event>
 5    1  0.2968854E-003  0.2247999E+03  0.7818608E-02  0.1131120E+00
         11   -1    0    0    0    0  0.00000000000E+00  0.00000000000E+00  0.10004999832E+04  0.10004999832E+04  0.51100000000E-03 0.  1.
         -2   -1    0    0    0  501 -0.00000000000E+00 -0.00000000000E+00 -0.62982624404E+02  0.62982624455E+02  0.25500000000E-02 0. -1.
         11    1    1    2    0    0  0.66403067126E+02  0.20139640447E+03  0.66949024190E+03  0.70227278393E+03  0.51100000000E-03 0.  1.
         22    1    1    2    0    0 -0.12943686513E+01  0.12668026455E+02  0.39009083705E+02  0.41034898513E+02  0.00000000000E+00 0.  1.
         -2    1    1    2    0  501 -0.65108698475E+02 -0.21406443093E+03  0.22901803324E+03  0.32017492525E+03  0.25500000000E-02 0. -1.
<mgrwt>
<rscale>  0 0.22374701E+03</rscale>
<asrwt>0</asrwt>
<pdfrwt beam="1">  1       11 0.10000000E+01 0.22479995E+03</pdfrwt>
<pdfrwt beam="2">  1       -2 0.96944789E-02 0.22374701E+03</pdfrwt>
<totfact> 0.55161551E+02</totfact>
</mgrwt>
</event>
<event>
 5    1  0.2968854E-003  0.1047455E+03  0.7818608E-02  0.1272694E+00
         11   -1    0    0    0    0  0.00000000000E+00  0.00000000000E+00  0.10002979118E+04  0.10002979118E+04  0.51100000000E-03 0.  1.
          2   -1    0    0  501    0 -0.00000000000E+00 -0.00000000000E+00 -0.11162395511E+02  0.11162395802E+02  0.25500000000E-02 0.  1.
         11    1    1    2    0    0  0.51334699897E+02 -0.77507998615E+02  0.35135545744E+03  0.36344655554E+03  0.51100000000E-03 0.  1.
         22    1    1    2    0    0  0.37917187683E+01 -0.10330369103E+02  0.62316380255E+02  0.63280525481E+02  0.00000000000E+00 0.  1.
          2    1    1    2  501    0 -0.55126418665E+02  0.87838367717E+02  0.57546367862E+03  0.58473322660E+03  0.25500000000E-02 0.  1.
<mgrwt>
<rscale>  0 0.10370391E+03</rscale>
<asrwt>0</asrwt>
<pdfrwt beam="1">  1       11 0.10000000E+01 0.10474546E+03</pdfrwt>
<pdfrwt beam="2">  1        2 0.17178032E-02 0.10370391E+03</pdfrwt>
<totfact> 0.74351331E+03</totfact>
</mgrwt>
</event>
<event>
 5    1  0.2968854E-003  0.2340388E+03  0.7818608E-02  0.1125124E+00
         11   -1    0    0    0    0  0.00000000000E+00  0.00000000000E+00  0.10001476773E+04  0.10001476773E+04  0.51100000000E-03 0. -1.
         -2   -1    0    0    0  501 -0.00000000000E+00 -0.00000000000E+00 -0.20573426128E+03  0.20573426129E+03  0.25500000000E-02 0.  1.
         11    1    1    2    0    0  0.21137987405E+03  0.57872446465E+02  0.88480013757E+03  0.91153823543E+03  0.51100000000E-03 0. -1.
         22    1    1    2    0    0  0.12922556724E+02  0.20430514113E+01  0.30066636460E+02  0.32789772176E+02  0.00000000000E+00 0.  1.
         -2    1    1    2    0  501 -0.22430243077E+03 -0.59915497877E+02 -0.12045335803E+03  0.26155393097E+03  0.25500000000E-02 0.  1.
<mgrwt>
<rscale>  0 0.23216685E+03</rscale>
<asrwt>0</asrwt>
<pdfrwt beam="1">  1       11 0.10000000E+01 0.23403883E+03</pdfrwt>
<pdfrwt beam="2">  1       -2 0.31656098E-01 0.23216685E+03</pdfrwt>
<totfact> 0.74589692E+01</totfact>
</mgrwt>
</event>
<event>
 5    1  0.3943450E-003  0.1895753E+03  0.7818608E-02  0.1161451E+00
         11   -1    0    0    0    0  0.00000000000E+00  0.00000000000E+00  0.10004407552E+04  0.10004407552E+04  0.51100000000E-03 0. -1.
          2   -1    0    0  501    0 -0.00000000000E+00 -0.00000000000E+00 -0.61452650164E+03  0.61452650165E+03  0.25500000000E-02 0. -1.
         11    1    1    2    0    0 -0.24185770532E+02  0.16461785797E+03  0.86911492017E+03  0.88489814957E+03  0.51100000000E-03 0. -1.
         22    1    1    2    0    0  0.85032360798E+01  0.21445446854E+02  0.10781660038E+03  0.11025711556E+03  0.00000000000E+00 0. -1.
          2    1    1    2  501    0  0.15682534452E+02 -0.18606330482E+03 -0.59101726695E+03  0.61981199176E+03  0.25500000000E-02 0. -1.
<mgrwt>
<rscale>  0 0.18672304E+03</rscale>
<asrwt>0</asrwt>
<pdfrwt beam="1">  1       11 0.10000000E+01 0.18957533E+03</pdfrwt>
<pdfrwt beam="2">  1        2 0.94584206E-01 0.18672304E+03</pdfrwt>
<totfact> 0.61708841E+01</totfact>
</mgrwt>
</event>
<event>
 5    1  0.2968854E-003  0.1765760E+03  0.7818608E-02  0.1175056E+00
         11   -1    0    0    0    0  0.00000000000E+00  0.00000000000E+00  0.10000719656E+04  0.10000719656E+04  0.51100000000E-03 0.  1.
         -2   -1    0    0    0  501 -0.00000000000E+00 -0.00000000000E+00 -0.48759384768E+02  0.48759384835E+02  0.25500000000E-02 0. -1.
         11    1    1    2    0    0 -0.78342190001E+02  0.13681356616E+03  0.69836730717E+03  0.71594158026E+03  0.51100000000E-03 0.  1.
         22    1    1    2    0    0  0.25772820610E+01  0.18385788240E+02  0.10151293372E+03  0.10319668263E+03  0.00000000000E+00 0. -1.
         -2    1    1    2    0  501  0.75764907940E+02 -0.15519935440E+03  0.15143233992E+03  0.22969308753E+03  0.25500000000E-02 0. -1.
<mgrwt>
<rscale>  0 0.17270542E+03</rscale>
<asrwt>0</asrwt>
<pdfrwt beam="1">  1       11 0.10000000E+01 0.17657603E+03</pdfrwt>
<pdfrwt beam="2">  1       -2 0.75019834E-02 0.17270542E+03</pdfrwt>
<totfact> 0.81123696E+02</totfact>
</mgrwt>
</event>
<event>
 5    1  0.2968854E-003  0.1420980E+03  0.7818608E-02  0.1214459E+00
         11   -1    0    0    0    0  0.00000000000E+00  0.00000000000E+00  0.10004051619E+04  0.10004051619E+04  0.51100000000E-03 0. -1.
         -2   -1    0    0    0  501 -0.00000000000E+00 -0.00000000000E+00 -0.22567041497E+02  0.22567041641E+02  0.25500000000E-02 0.  1.
         11    1    1    2    0    0  0.70830560610E+02 -0.10183458574E+03  0.58829868652E+03  0.60123422701E+03  0.51100000000E-03 0. -1.
         22    1    1    2    0    0  0.16981124703E+02 -0.61262341285E+01  0.85185733016E+02  0.87077542744E+02  0.00000000000E+00 0. -1.
         -2    1    1    2    0  501 -0.87811685313E+02  0.10796081987E+03  0.30435370088E+03  0.33466043380E+03  0.25500000000E-02 0.  1.
<mgrwt>
<rscale>  0 0.13916332E+03</rscale>
<asrwt>0</asrwt>
<pdfrwt beam="1">  1       11 0.10000000E+01 0.14209796E+03</pdfrwt>
<pdfrwt beam="2">  1       -2 0.34732591E-02 0.13916332E+03</pdfrwt>
<totfact> 0.25476757E+03</totfact>
</mgrwt>
</event>
<event>
 5    1  0.2968854E-003  0.1351229E+03  0.7818608E-02  0.1220046E+00
         11   -1    0    0    0    0  0.00000000000E+00  0.00000000000E+00  0.10002115534E+04  0.10002115534E+04  0.51100000000E-03 0. -1.
          2   -1    0    0  501    0 -0.00000000000E+00 -0.00000000000E+00 -0.64561761954E+02  0.64561762004E+02  0.25500000000E-02 0. -1.
         11    1    1    2    0    0 -0.73469296021E+00  0.99854631187E+02  0.51780615128E+03  0.52734684738E+03  0.51100000000E-03 0. -1.
         22    1    1    2    0    0  0.11954914064E+03 -0.13207194547E+02  0.35973342164E+03  0.37930800369E+03  0.00000000000E+00 0. -1.
          2    1    1    2  501    0 -0.11881444768E+03 -0.86647436640E+02  0.58110218500E+02  0.15811846431E+03  0.25500000000E-02 0. -1.
<mgrwt>
<rscale>  0 0.13512287E+03</rscale>
<asrwt>0</asrwt>
<pdfrwt beam="1">  1       11 0.10000000E+01 0.99857334E+02</pdfrwt>
<pdfrwt beam="2">  1        2 0.99346798E-02 0.13512287E+03</pdfrwt>
<totfact> 0.76663754E+02</totfact>
</mgrwt>
</event>
<event>
 5    1  0.2968854E-003  0.2056543E+03  0.7818608E-02  0.1145054E+00
         11   -1    0    0    0    0  0.00000000000E+00  0.00000000000E+00  0.10002168875E+04  0.10002168875E+04  0.51100000000E-03 0. -1.
          2   -1    0    0  501    0 -0.00000000000E+00 -0.00000000000E+00 -0.59730709321E+02  0.59730709376E+02  0.25500000000E-02 0. -1.
         11    1    1    2    0    0 -0.17387970601E+03  0.72600181496E+02  0.46418836618E+03  0.50097482753E+03  0.51100000000E-03 0. -1.
         22    1    1    2    0    0  0.15309881069E+01  0.68001253732E+02  0.14186740174E+03  0.15733046148E+03  0.00000000000E+00 0. -1.
          2    1    1    2  501    0  0.17234871791E+03 -0.14060143523E+03  0.33443041021E+03  0.40164230782E+03  0.25500000000E-02 0. -1.
<mgrwt>
<rscale>  0 0.20565433E+03</rscale>
<asrwt>0</asrwt>
<pdfrwt beam="1">  1       11 0.10000000E+01 0.68018486E+02</pdfrwt>
<pdfrwt beam="2">  1        2 0.91913327E-02 0.20565433E+03</pdfrwt>
<totfact> 0.86401326E+02</totfact>
</mgrwt>
</event>
<event>
 5    1  0.2968854E-003  0.1490937E+03  0.7818608E-02  0.1201591E+00
         11   -1    0    0    0    0  0.00000000000E+00  0.00000000000E+00  0.10002499301E+04  0.10002499301E+04  0.51100000000E-03 0.  1.
          2   -1    0    0  501    0 -0.00000000000E+00 -0.00000000000E+00 -0.36541888790E+03  0.36541888791E+03  0.25500000000E-02 0.  1.
         11    1    1    2    0    0 -0.17490773655E+03  0.84977439510E+02  0.68955348952E+03  0.71644811148E+03  0.51100000000E-03 0.  1.
         22    1    1    2    0    0  0.29785831796E+02 -0.54898251886E+02  0.27802796139E+03  0.28495712160E+03  0.00000000000E+00 0. -1.
          2    1    1    2  501    0  0.14512190475E+03 -0.30079187623E+02 -0.33275040874E+03  0.36426358491E+03  0.25500000000E-02 0.  1.
<mgrwt>
<rscale>  0 0.14909365E+03</rscale>
<asrwt>0</asrwt>
<pdfrwt beam="1">  1       11 0.10000000E+01 0.62458097E+02</pdfrwt>
<pdfrwt beam="2">  1        2 0.56232339E-01 0.14909365E+03</pdfrwt>
<totfact> 0.10979931E+02</totfact>
</mgrwt>
</event>
<event>
 5    1  0.2968854E-003  0.2626196E+03  0.7818608E-02  0.1106467E+00
         11   -1    0    0    0    0  0.00000000000E+00  0.00000000000E+00  0.10001570459E+04  0.10001570459E+04  0.51100000000E-03 0. -1.
          2   -1    0    0  501    0 -0.00000000000E+00 -0.00000000000E+00 -0.77182935640E+02  0.77182935682E+02  0.25500000000E-02 0. -1.
         11    1    1    2    0    0  0.11698581628E+02  0.24166625651E+03  0.61131083853E+03  0.65744990505E+03  0.51100000000E-03 0. -1.
         22    1    1    2    0    0 -0.97883581205E+00  0.19241495990E+02  0.31317866179E+02  0.36769580219E+02  0.00000000000E+00 0. -1.
          2    1    1    2  501    0 -0.10719745816E+02 -0.26090775250E+03  0.28034540552E+03  0.38312049628E+03  0.25500000000E-02 0. -1.
<mgrwt>
<rscale>  0 0.26112788E+03</rscale>
<asrwt>0</asrwt>
<pdfrwt beam="1">  1       11 0.10000000E+01 0.26261958E+03</pdfrwt>
<pdfrwt beam="2">  1        2 0.11876162E-01 0.26112788E+03</pdfrwt>
<totfact> 0.63620003E+02</totfact>
</mgrwt>
</event>
<event>
 5    1  0.2968854E-003  0.4262184E+03  0.7818608E-02  0.1040074E+00
         11   -1    0    0    0    0  0.00000000000E+00  0.00000000000E+00  0.10004832860E+04  0.10004832860E+04  0.51100000000E-03 0. -1.
          2   -1    0    0  501    0 -0.00000000000E+00 -0.00000000000E+00 -0.10840115751E+04  0.10840115751E+04  0.25500000000E-02 0. -1.
         11    1    1    2    0    0 -0.93780017961E+02 -0.33918806066E+03  0.78990252961E+03  0.86474807808E+03  0.51100000000E-03 0. -1.
         22    1    1    2    0    0  0.28641599866E+02 -0.66502396768E+02  0.12254850437E+03  0.14234130090E+03  0.00000000000E+00 0. -1.
          2    1    1    2  501    0  0.65138418095E+02  0.40569045743E+03 -0.99597932316E+03  0.10774054821E+04  0.25500000000E-02 0. -1.
<mgrwt>
<rscale>  0 0.41088655E+03</rscale>
<asrwt>0</asrwt>
<pdfrwt beam="1">  1       11 0.10000000E+01 0.42621840E+03</pdfrwt>
<pdfrwt beam="2">  1        2 0.16685160E+00 0.41088655E+03</pdfrwt>
<totfact> 0.28581789E+01</totfact>
</mgrwt>
</event>
<event>
 5    1  0.2968854E-003  0.1812627E+03  0.7818608E-02  0.1169287E+00
         11   -1    0    0    0    0  0.00000000000E+00  0.00000000000E+00  0.10002276301E+04  0.10002276301E+04  0.51100000000E-03 0. -1.
          2   -1    0    0  501    0 -0.00000000000E+00 -0.00000000000E+00 -0.44876558414E+02  0.44876558486E+02  0.25500000000E-02 0. -1.
         11    1    1    2    0    0  0.14235843991E+02 -0.36380743634E+02  0.12092689165E+03  0.12708080455E+03  0.51100000000E-03 0. -1.
         22    1    1    2    0    0  0.22223461033E+02 -0.13833108316E+03  0.63553991530E+03  0.65079978083E+03  0.00000000000E+00 0. -1.
          2    1    1    2  501    0 -0.36459305024E+02  0.17471182679E+03  0.19888426473E+03  0.26722360320E+03  0.25500000000E-02 0. -1.
<mgrwt>
<rscale>  0 0.17847550E+03</rscale>
<asrwt>0</asrwt>
<pdfrwt beam="1">  1       11 0.10000000E+01 0.18126272E+03</pdfrwt>
<pdfrwt beam="2">  1        2 0.69056573E-02 0.17847550E+03</pdfrwt>
<totfact> 0.12310519E+03</totfact>
</mgrwt>
</event>
<event>
 5    1  0.2968854E-003  0.4683572E+03  0.7818608E-02  0.1022385E+00
         11   -1    0    0    0    0  0.00000000000E+00  0.00000000000E+00  0.99991843400E+03  0.99991843400E+03  0.51100000000E-03 0.  1.
          2   -1    0    0  501    0 -0.00000000000E+00 -0.00000000000E+00 -0.28446775620E+03  0.28446775621E+03  0.25500000000E-02 0.  1.
         11    1    1    2    0    0  0.35124674636E+02  0.39318520343E+02 -0.46026594703E+02  0.69986686094E+02  0.51100000000E-03 0.  1.
         22    1    1    2    0    0  0.44584442780E+03 -0.72359975305E+02  0.46588437726E+03  0.64889249711E+03  0.00000000000E+00 0.  1.
          2    1    1    2  501    0 -0.48096910244E+03  0.33041454962E+02  0.29559289525E+03  0.56550700701E+03  0.25500000000E-02 0.  1.
<mgrwt>
<rscale>  0 0.46835722E+03</rscale>
<asrwt>0</asrwt>
<pdfrwt beam="1">  1       11 0.10000000E+01 0.52722781E+02</pdfrwt>
<pdfrwt beam="2">  1        2 0.43760699E-01 0.46835722E+03</pdfrwt>
<totfact> 0.14391515E+02</totfact>
</mgrwt>
</event>
<event>
 5    1  0.2968854E-003  0.2619141E+03  0.7818608E-02  0.1105999E+00
         11   -1    0    0    0    0  0.00000000000E+00  0.00000000000E+00  0.10000929488E+04  0.10000929488E+04  0.51100000000E-03 0. -1.
          2   -1    0    0  501    0 -0.00000000000E+00 -0.00000000000E+00 -0.68071080030E+03  0.68071080031E+03  0.25500000000E-02 0. -1.
         11    1    1    2    0    0  0.25538059504E+03 -0.95360490798E+01  0.94897158849E+03  0.98278037237E+03  0.51100000000E-03 0. -1.
         22    1    1    2    0    0  0.61262889996E+01 -0.79064542539E+01  0.51885304804E+01  0.11267842931E+02  0.00000000000E+00 0. -1.
          2    1    1    2  501    0 -0.26150688404E+03  0.17442503334E+02 -0.63477797051E+03  0.68675553378E+03  0.25500000000E-02 0. -1.
<mgrwt>
<rscale>  0 0.26191407E+03</rscale>
<asrwt>0</asrwt>
<pdfrwt beam="1">  1       11 0.10000000E+01 0.10002172E+02</pdfrwt>
<pdfrwt beam="2">  1        2 0.10473447E+00 0.26191407E+03</pdfrwt>
<totfact> 0.54212981E+01</totfact>
</mgrwt>
</event>
<event>
 5    1  0.2968854E-003  0.1854676E+03  0.7818608E-02  0.1162614E+00
         11   -1    0    0    0    0  0.00000000000E+00  0.00000000000E+00  0.10000473180E+04  0.10000473180E+04  0.51100000000E-03 0. -1.
          2   -1    0    0  501    0 -0.00000000000E+00 -0.00000000000E+00 -0.10594029053E+03  0.10594029057E+03  0.25500000000E-02 0. -1.
         11    1    1    2    0    0  0.11130071269E+03  0.13930361136E+02  0.25458924246E+03  0.27820421633E+03  0.51100000000E-03 0. -1.
         22    1    1    2    0    0  0.28342721209E+02  0.12749630197E+03  0.61360424343E+03  0.62735060725E+03  0.00000000000E+00 0. -1.
          2    1    1    2  501    0 -0.13964343390E+03 -0.14142666311E+03  0.25913541617E+02  0.20043278503E+03  0.25500000000E-02 0. -1.
<mgrwt>
<rscale>  0 0.18546760E+03</rscale>
<asrwt>0</asrwt>
<pdfrwt beam="1">  1       11 0.10000000E+01 0.11216908E+03</pdfrwt>
<pdfrwt beam="2">  1        2 0.16299277E-01 0.18546760E+03</pdfrwt>
<totfact> 0.42970561E+02</totfact>
</mgrwt>
</event>
<event>
 5    1  0.2968854E-003  0.1249115E+03  0.7818608E-02  0.1744451E+00
         11   -1    0    0    0    0  0.00000000000E+00  0.00000000000E+00  0.10000781540E+04  0.10000781540E+04  0.51100000000E-03 0.  1.
          2   -1    0    0  501    0 -0.00000000000E+00 -0.00000000000E+00 -0.71916672780E+02  0.71916672825E+02  0.25500000000E-02 0. -1.
         11    1    1    2    0    0  0.69119514574E+02 -0.93712634943E+02  0.22247321786E+03  0.25110535221E+03  0.51100000000E-03 0.  1.
         22    1    1    2    0    0 -0.61984593794E+02  0.11244393180E+03  0.75595100504E+03  0.76677744470E+03  0.00000000000E+00 0.  1.
          2    1    1    2  501    0 -0.71349207801E+01 -0.18731296856E+02 -0.50262741672E+02  0.54112029932E+02  0.25500000000E-02 0. -1.
<mgrwt>
<rscale>  0 0.20044166E+02</rscale>
<asrwt>0</asrwt>
<pdfrwt beam="1">  1       11 0.10000000E+01 0.12491146E+03</pdfrwt>
<pdfrwt beam="2">  1        2 0.11064968E-01 0.20044166E+02</pdfrwt>
<totfact> 0.58669811E+02</totfact>
</mgrwt>
</event>
<event>
 5    1  0.2968854E-003  0.1522349E+03  0.7818608E-02  0.1202755E+00
         11   -1    0    0    0    0  0.00000000000E+00  0.00000000000E+00  0.10000140364E+04  0.10000140364E+04  0.51100000000E-03 0.  1.
          2   -1    0    0  501    0 -0.00000000000E+00 -0.00000000000E+00 -0.30777484076E+02  0.30777484182E+02  0.25500000000E-02 0.  1.
         11    1    1    2    0    0  0.59403025507E+02  0.87170289489E+02  0.54157793964E+03  0.55175542001E+03  0.51100000000E-03 0.  1.
         22    1    1    2    0    0  0.49072546323E+01  0.46302090116E+02  0.21418007222E+03  0.21918272750E+03  0.00000000000E+00 0. -1.
          2    1    1    2  501    0 -0.64310280140E+02 -0.13347237961E+03  0.21347854044E+03  0.25985337305E+03  0.25500000000E-02 0.  1.
<mgrwt>
<rscale>  0 0.14815765E+03</rscale>
<asrwt>0</asrwt>
<pdfrwt beam="1">  1       11 0.10000000E+01 0.15223487E+03</pdfrwt>
<pdfrwt beam="2">  1        2 0.47350639E-02 0.14815765E+03</pdfrwt>
<totfact> 0.19822207E+03</totfact>
</mgrwt>
</event>
<event>
 5    1  0.2968854E-003  0.6768091E+02  0.7818608E-02  0.1372420E+00
         11   -1    0    0    0    0  0.00000000000E+00  0.00000000000E+00  0.10003229319E+04  0.10003229319E+04  0.51100000000E-03 0.  1.
         -2   -1    0    0    0  501 -0.00000000000E+00 -0.00000000000E+00 -0.56320151493E+01  0.56320157265E+01  0.25500000000E-02 0.  1.
         11    1    1    2    0    0 -0.52645468914E+02 -0.16201889704E+02  0.21091514871E+03  0.21798909739E+03  0.51100000000E-03 0.  1.
         22    1    1    2    0    0 -0.95022608676E+01 -0.74576545230E+01  0.64400256793E+02  0.65523298509E+02  0.00000000000E+00 0.  1.
         -2    1    1    2    0  501  0.62147729782E+02  0.23659544227E+02  0.71937551125E+03  0.72244255172E+03  0.25500000000E-02 0.  1.
<mgrwt>
<rscale>  0 0.66498980E+02</rscale>
<asrwt>0</asrwt>
<pdfrwt beam="1">  1       11 0.10000000E+01 0.67680914E+02</pdfrwt>
<pdfrwt beam="2">  1       -2 0.86674370E-03 0.66498980E+02</pdfrwt>
<totfact> 0.16861431E+04</totfact>
</mgrwt>
</event>
<event>
 5    1  0.2968854E-003  0.2248333E+03  0.7818608E-02  0.1130330E+00
         11   -1    0    0    0    0  0.00000000000E+00  0.00000000000E+00  0.99999258293E+03  0.99999258293E+03  0.51100000000E-03 0. -1.
          2   -1    0    0  501    0 -0.00000000000E+00 -0.00000000000E+00 -0.13076329969E+03  0.13076329972E+03  0.25500000000E-02 0. -1.
         11    1    1    2    0    0  0.11089784207E+03  0.18943517282E+03  0.79994187437E+03  0.82951251856E+03  0.51100000000E-03 0. -1.
         22    1    1    2    0    0 -0.10071148000E+02  0.12395084660E+02  0.73876554968E+02  0.75583143092E+02  0.00000000000E+00 0.  1.
          2    1    1    2  501    0 -0.10082669407E+03 -0.20183025748E+03 -0.45891460990E+01  0.22566022100E+03  0.25500000000E-02 0. -1.
<mgrwt>
<rscale>  0 0.22483328E+03</rscale>
<asrwt>0</asrwt>
<pdfrwt beam="1">  1       11 0.10000000E+01 0.15970790E+02</pdfrwt>
<pdfrwt beam="2">  1        2 0.20117281E-01 0.22483328E+03</pdfrwt>
<totfact> 0.33886918E+02</totfact>
</mgrwt>
</event>
<event>
 5    1  0.2968854E-003  0.9707107E+02  0.7818608E-02  0.1547642E+00
         11   -1    0    0    0    0  0.00000000000E+00  0.00000000000E+00  0.10004698576E+04  0.10004698576E+04  0.51100000000E-03 0. -1.
         -2   -1    0    0    0  501 -0.00000000000E+00 -0.00000000000E+00 -0.10606200929E+03  0.10606200932E+03  0.25500000000E-02 0.  1.
         11    1    1    2    0    0 -0.15503967478E+02 -0.89104285033E+02  0.37993381304E+03  0.39055044349E+03  0.51100000000E-03 0. -1.
         22    1    1    2    0    0  0.50477005513E+02  0.92182112764E+02  0.60751408777E+03  0.61653778217E+03  0.00000000000E+00 0. -1.
         -2    1    1    2    0  501 -0.34973038036E+02 -0.30778277309E+01 -0.93040052496E+02  0.99443641265E+02  0.25500000000E-02 0.  1.
<mgrwt>
<rscale>  0 0.35108210E+02</rscale>
<asrwt>0</asrwt>
<pdfrwt beam="1">  1       11 0.10000000E+01 0.97071074E+02</pdfrwt>
<pdfrwt beam="2">  1       -2 0.16324899E-01 0.35108210E+02</pdfrwt>
<totfact> 0.21597748E+02</totfact>
</mgrwt>
</event>
<event>
 5    1  0.2968854E-003  0.1535341E+03  0.7818608E-02  0.1204346E+00
         11   -1    0    0    0    0  0.00000000000E+00  0.00000000000E+00  0.10001904201E+04  0.10001904201E+04  0.51100000000E-03 0. -1.
          2   -1    0    0  501    0 -0.00000000000E+00 -0.00000000000E+00 -0.23193904014E+02  0.23193904155E+02  0.25500000000E-02 0. -1.
         11    1    1    2    0    0 -0.32426314088E+02  0.53868338307E+02  0.29217985144E+03  0.29886841470E+03  0.51100000000E-03 0. -1.
         22    1    1    2    0    0 -0.76508762115E+02  0.44672295986E+02  0.29142399105E+03  0.30459341305E+03  0.00000000000E+00 0.  1.
          2    1    1    2  501    0  0.10893507620E+03 -0.98540634293E+02  0.39339267363E+03  0.41992249654E+03  0.25500000000E-02 0. -1.
<mgrwt>
<rscale>  0 0.14689148E+03</rscale>
<asrwt>0</asrwt>
<pdfrwt beam="1">  1       11 0.10000000E+01 0.15353414E+03</pdfrwt>
<pdfrwt beam="2">  1        2 0.35689723E-02 0.14689148E+03</pdfrwt>
<totfact> 0.28808452E+03</totfact>
</mgrwt>
</event>
<event>
 5    1  0.2968854E-003  0.2359310E+03  0.7818608E-02  0.1129592E+00
         11   -1    0    0    0    0  0.00000000000E+00  0.00000000000E+00  0.10000220822E+04  0.10000220822E+04  0.51100000000E-03 0.  1.
          2   -1    0    0  501    0 -0.00000000000E+00 -0.00000000000E+00 -0.80535719010E+02  0.80535719050E+02  0.25500000000E-02 0.  1.
         11    1    1    2    0    0 -0.18272070029E+03  0.44730206646E+02  0.61093376042E+03  0.63923994346E+03  0.51100000000E-03 0.  1.
         22    1    1    2    0    0 -0.26896504762E+02  0.39358234230E+02  0.16953182301E+03  0.17610659154E+03  0.00000000000E+00 0.  1.
          2    1    1    2  501    0  0.20961720505E+03 -0.84088440875E+02  0.13902077979E+03  0.26521126628E+03  0.25500000000E-02 0.  1.
<mgrwt>
<rscale>  0 0.22585446E+03</rscale>
<asrwt>0</asrwt>
<pdfrwt beam="1">  1       11 0.10000000E+01 0.23593102E+03</pdfrwt>
<pdfrwt beam="2">  1        2 0.12390384E-01 0.22585446E+03</pdfrwt>
<totfact> 0.60043926E+02</totfact>
</mgrwt>
</event>
<event>
 5    1  0.2968854E-003  0.4379008E+03  0.7818608E-02  0.1389160E+00
         11   -1    0    0    0    0  0.00000000000E+00  0.00000000000E+00  0.99995653250E+03  0.99995653250E+03  0.51100000000E-03 0. -1.
          2   -1    0    0  501    0 -0.00000000000E+00 -0.00000000000E+00 -0.34060450196E+03  0.34060450197E+03  0.25500000000E-02 0. -1.
         11    1    1    2    0    0 -0.39753190625E+03  0.15324235324E+03  0.66877284411E+03  0.79295141864E+03  0.51100000000E-03 0. -1.
         22    1    1    2    0    0  0.44308687822E+03 -0.19546979659E+03  0.28356669977E+01  0.48429584351E+03  0.00000000000E+00 0. -1.
          2    1    1    2  501    0 -0.45554971975E+02  0.42227443351E+02 -0.12256480565E+02  0.63313772324E+02  0.25500000000E-02 0. -1.
<mgrwt>
<rscale>  0 0.62116121E+02</rscale>
<asrwt>0</asrwt>
<pdfrwt beam="1">  1       11 0.10000000E+01 0.43790080E+03</pdfrwt>
<pdfrwt beam="2">  1        2 0.52398413E-01 0.62116121E+02</pdfrwt>
<totfact> 0.11818618E+02</totfact>
</mgrwt>
</event>
<event>
 5    1  0.2968854E-003  0.2421163E+03  0.7818608E-02  0.1123942E+00
         11   -1    0    0    0    0  0.00000000000E+00  0.00000000000E+00  0.10001603449E+04  0.10001603449E+04  0.51100000000E-03 0. -1.
          2   -1    0    0  501    0 -0.00000000000E+00 -0.00000000000E+00 -0.72663533238E+02  0.72663533283E+02  0.25500000000E-02 0. -1.
         11    1    1    2    0    0  0.12873690009E+03 -0.47543921175E+02  0.35764492635E+03  0.38307115165E+03  0.51100000000E-03 0. -1.
         22    1    1    2    0    0  0.10191650062E+03  0.88629114191E+01  0.36428469963E+03  0.37837662016E+03  0.00000000000E+00 0.  1.
          2    1    1    2  501    0 -0.23065340071E+03  0.38681009756E+02  0.20556718566E+03  0.31137610634E+03  0.25500000000E-02 0. -1.
<mgrwt>
<rscale>  0 0.23387435E+03</rscale>
<asrwt>0</asrwt>
<pdfrwt beam="1">  1       11 0.10000000E+01 0.24211634E+03</pdfrwt>
<pdfrwt beam="2">  1        2 0.11180797E-01 0.23387435E+03</pdfrwt>
<totfact> 0.68183092E+02</totfact>
</mgrwt>
</event>
<event>
 5    1  0.2968854E-003  0.1411174E+03  0.7818608E-02  0.1211833E+00
         11   -1    0    0    0    0  0.00000000000E+00  0.00000000000E+00  0.10001182589E+04  0.10001182589E+04  0.51100000000E-03 0.  1.
          2   -1    0    0  501    0 -0.00000000000E+00 -0.00000000000E+00 -0.53195318042E+02  0.53195318103E+02  0.25500000000E-02 0.  1.
         11    1    1    2    0    0 -0.11208254703E+03 -0.77125820137E+02  0.79583105850E+03  0.80737721243E+03  0.51100000000E-03 0.  1.
         22    1    1    2    0    0  0.55843558973E+01 -0.16673332847E+02  0.89534644164E+02  0.91244931720E+02  0.00000000000E+00 0. -1.
          2    1    1    2  501    0  0.10649819113E+03  0.93799152984E+02  0.61557238182E+02  0.15469143284E+03  0.25500000000E-02 0.  1.
<mgrwt>
<rscale>  0 0.14111741E+03</rscale>
<asrwt>0</asrwt>
<pdfrwt beam="1">  1       11 0.10000000E+01 0.17583659E+02</pdfrwt>
<pdfrwt beam="2">  1        2 0.81848627E-02 0.14111741E+03</pdfrwt>
<totfact> 0.97749418E+02</totfact>
</mgrwt>
</event>
<event>
 5    1  0.2968854E-003  0.2117696E+03  0.7818608E-02  0.1140172E+00
         11   -1    0    0    0    0  0.00000000000E+00  0.00000000000E+00  0.10003158683E+04  0.10003158683E+04  0.51100000000E-03 0.  1.
         -2   -1    0    0    0  501 -0.00000000000E+00 -0.00000000000E+00 -0.10100262965E+03  0.10100262968E+03  0.25500000000E-02 0. -1.
         11    1    1    2    0    0  0.18795520265E+03 -0.11487326132E+02  0.45283390864E+03  0.49042600428E+03  0.51100000000E-03 0.  1.
         22    1    1    2    0    0  0.92126384776E+01 -0.97152749894E+02  0.35453809864E+03  0.36772379975E+03  0.00000000000E+00 0.  1.
         -2    1    1    2    0  501 -0.19716784113E+03  0.10864007603E+03  0.91941231425E+02  0.24316869399E+03  0.25500000000E-02 0. -1.
<mgrwt>
<rscale>  0 0.21176958E+03</rscale>
<asrwt>0</asrwt>
<pdfrwt beam="1">  1       11 0.10000000E+01 0.97588573E+02</pdfrwt>
<pdfrwt beam="2">  1       -2 0.15543774E-01 0.21176958E+03</pdfrwt>
<totfact> 0.25620617E+02</totfact>
</mgrwt>
</event>
<event>
 5    1  0.2968854E-003  0.1415560E+03  0.7818608E-02  0.1211250E+00
         11   -1    0    0    0    0  0.00000000000E+00  0.00000000000E+00  0.10000487233E+04  0.10000487233E+04  0.51100000000E-03 0. -1.
          2   -1    0    0  501    0 -0.00000000000E+00 -0.00000000000E+00 -0.68383884345E+02  0.68383884393E+02  0.25500000000E-02 0. -1.
         11    1    1    2    0    0  0.72697431377E+02  0.33864792329E+02  0.30167849780E+03  0.31215646193E+03  0.51100000000E-03 0. -1.
         22    1    1    2    0    0  0.72501188852E+02 -0.71203968604E+02  0.59328708893E+03  0.60192690372E+03  0.00000000000E+00 0.  1.
          2    1    1    2  501    0 -0.14519862023E+03  0.37339176275E+02  0.36699252231E+02  0.15434924205E+03  0.25500000000E-02 0. -1.
<mgrwt>
<rscale>  0 0.14155604E+03</rscale>
<asrwt>0</asrwt>
<pdfrwt beam="1">  1       11 0.10000000E+01 0.80198134E+02</pdfrwt>
<pdfrwt beam="2">  1        2 0.10521110E-01 0.14155604E+03</pdfrwt>
<totfact> 0.71647318E+02</totfact>
</mgrwt>
</event>
<event>
 5    1  0.2968854E-003  0.7709424E+02  0.7818608E-02  0.1342652E+00
         11   -1    0    0    0    0  0.00000000000E+00  0.00000000000E+00  0.10000235726E+04  0.10000235726E+04  0.51100000000E-03 0. -1.
          2   -1    0    0  501    0 -0.00000000000E+00 -0.00000000000E+00 -0.64046892001E+01  0.64046897078E+01  0.25500000000E-02 0. -1.
         11    1    1    2    0    0 -0.40197970005E+02  0.25061885737E+02  0.21137336104E+03  0.21661641828E+03  0.51100000000E-03 0. -1.
         22    1    1    2    0    0 -0.29474080120E+02  0.37517483419E+01  0.13753322234E+03  0.14070602070E+03  0.00000000000E+00 0. -1.
          2    1    1    2  501    0  0.69672050125E+02 -0.28813634078E+02  0.64471230002E+03  0.64910582333E+03  0.25500000000E-02 0. -1.
<mgrwt>
<rscale>  0 0.75395093E+02</rscale>
<asrwt>0</asrwt>
<pdfrwt beam="1">  1       11 0.10000000E+01 0.77094238E+02</pdfrwt>
<pdfrwt beam="2">  1        2 0.98536004E-03 0.75395093E+02</pdfrwt>
<totfact> 0.15113203E+04</totfact>
</mgrwt>
</event>
<event>
 5    1  0.2968854E-003  0.2238719E+03  0.7818608E-02  0.1135907E+00
         11   -1    0    0    0    0  0.00000000000E+00  0.00000000000E+00  0.10003296198E+04  0.10003296198E+04  0.51100000000E-03 0. -1.
          2   -1    0    0  501    0 -0.00000000000E+00 -0.00000000000E+00 -0.22498689873E+03  0.22498689874E+03  0.25500000000E-02 0. -1.
         11    1    1    2    0    0 -0.12684245429E+03 -0.13087819352E+03  0.73850209019E+03  0.76065987600E+03  0.51100000000E-03 0. -1.
         22    1    1    2    0    0 -0.63886657669E+01 -0.40794647802E+02  0.19280303099E+03  0.19717511785E+03  0.00000000000E+00 0.  1.
          2    1    1    2  501    0  0.13323112005E+03  0.17167284132E+03 -0.15596240010E+03  0.26748152469E+03  0.25500000000E-02 0. -1.
<mgrwt>
<rscale>  0 0.21730646E+03</rscale>
<asrwt>0</asrwt>
<pdfrwt beam="1">  1       11 0.10000000E+01 0.22387194E+03</pdfrwt>
<pdfrwt beam="2">  1        2 0.34624777E-01 0.21730646E+03</pdfrwt>
<totfact> 0.18499891E+02</totfact>
</mgrwt>
</event>
<event>
 5    1  0.2968854E-003  0.7351279E+02  0.7818608E-02  0.1569180E+00
         11   -1    0    0    0    0  0.00000000000E+00  0.00000000000E+00  0.10002035459E+04  0.10002035459E+04  0.51100000000E-03 0. -1.
          2   -1    0    0  501    0 -0.00000000000E+00 -0.00000000000E+00 -0.28680821990E+02  0.28680822104E+02  0.25500000000E-02 0. -1.
         11    1    1    2    0    0 -0.56727479996E+02 -0.26030924364E+02  0.14318801933E+02  0.64036271745E+02  0.51100000000E-03 0. -1.
         22    1    1    2    0    0 -0.14092306042E+02  0.39039681192E+01  0.20341035712E+02  0.25051782182E+02  0.00000000000E+00 0. -1.
          2    1    1    2  501    0  0.70819786037E+02  0.22126956245E+02  0.93686288626E+03  0.93979631407E+03  0.25500000000E-02 0. -1.
<mgrwt>
<rscale>  0 0.32786917E+02</rscale>
<asrwt>0</asrwt>
<pdfrwt beam="1">  1       11 0.10000000E+01 0.73512795E+02</pdfrwt>
<pdfrwt beam="2">  1        2 0.44133322E-02 0.32786917E+02</pdfrwt>
<totfact> 0.18590136E+03</totfact>
</mgrwt>
</event>
<event>
 5    1  0.2968854E-003  0.1826375E+03  0.7818608E-02  0.1165275E+00
         11   -1    0    0    0    0  0.00000000000E+00  0.00000000000E+00  0.10003193993E+04  0.10003193993E+04  0.51100000000E-03 0.  1.
         -2   -1    0    0    0  501 -0.00000000000E+00 -0.00000000000E+00 -0.10747474907E+03  0.10747474910E+03  0.25500000000E-02 0. -1.
         11    1    1    2    0    0  0.13842509799E+03  0.52024286843E+01  0.81528638146E+03  0.82697065051E+03  0.51100000000E-03 0.  1.
         22    1    1    2    0    0  0.48079598515E+02  0.16002285015E+02  0.78121322199E+02  0.93116389004E+02  0.00000000000E+00 0. -1.
         -2    1    1    2    0  501 -0.18650469650E+03 -0.21204713699E+02 -0.56305340780E+00  0.18770710891E+03  0.25500000000E-02 0. -1.
<mgrwt>
<rscale>  0 0.18263751E+03</rscale>
<asrwt>0</asrwt>
<pdfrwt beam="1">  1       11 0.10000000E+01 0.50672684E+02</pdfrwt>
<pdfrwt beam="2">  1       -2 0.16539857E-01 0.18263751E+03</pdfrwt>
<totfact> 0.22982598E+02</totfact>
</mgrwt>
</event>
<event>
 5    1  0.2968854E-003  0.1405181E+03  0.7818608E-02  0.1212634E+00
         11   -1    0    0    0    0  0.00000000000E+00  0.00000000000E+00  0.10000976253E+04  0.10000976253E+04  0.51100000000E-03 0.  1.
          2   -1    0    0  501    0 -0.00000000000E+00 -0.00000000000E+00 -0.29394399650E+02  0.29394399761E+02  0.25500000000E-02 0.  1.
         11    1    1    2    0    0 -0.14334737132E+03 -0.32990661650E+01  0.32798338585E+03  0.35795593876E+03  0.51100000000E-03 0.  1.
         22    1    1    2    0    0  0.92234211018E+01  0.49623381196E+02  0.21691808286E+03  0.22271283333E+03  0.00000000000E+00 0.  1.
          2    1    1    2  501    0  0.13412395022E+03 -0.46324315031E+02  0.42580175693E+03  0.44882325296E+03  0.25500000000E-02 0.  1.
<mgrwt>
<rscale>  0 0.14051808E+03</rscale>
<asrwt>0</asrwt>
<pdfrwt beam="1">  1       11 0.10000000E+01 0.50473275E+02</pdfrwt>
<pdfrwt beam="2">  1        2 0.45226567E-02 0.14051808E+03</pdfrwt>
<totfact> 0.20961886E+03</totfact>
</mgrwt>
</event>
<event>
 5    1  0.2968854E-003  0.6184878E+02  0.7818608E-02  0.1544697E+00
         11   -1    0    0    0    0  0.00000000000E+00  0.00000000000E+00  0.10000799886E+04  0.10000799886E+04  0.51100000000E-03 0. -1.
          2   -1    0    0  501    0 -0.00000000000E+00 -0.00000000000E+00 -0.94375261292E+01  0.94375264737E+01  0.25500000000E-02 0. -1.
         11    1    1    2    0    0  0.39340857495E+01  0.64301955596E+02  0.26181669033E+03  0.26962603335E+03  0.51100000000E-03 0. -1.
         22    1    1    2    0    0  0.19085211027E+02 -0.69509166096E+01  0.20442206820E+02  0.28817431206E+02  0.00000000000E+00 0. -1.
          2    1    1    2  501    0 -0.23019296777E+02 -0.57351038986E+02  0.70838356534E+03  0.71107405054E+03  0.25500000000E-02 0. -1.
<mgrwt>
<rscale>  0 0.35443563E+02</rscale>
<asrwt>0</asrwt>
<pdfrwt beam="1">  1       11 0.10000000E+01 0.61848777E+02</pdfrwt>
<pdfrwt beam="2">  1        2 0.14520432E-02 0.35443563E+02</pdfrwt>
<totfact> 0.78861236E+03</totfact>
</mgrwt>
</event>
<event>
 5    1  0.2968854E-003  0.1247640E+03  0.7818608E-02  0.1507425E+00
         11   -1    0    0    0    0  0.00000000000E+00  0.00000000000E+00  0.10003362405E+04  0.10003362405E+04  0.51100000000E-03 0. -1.
          2   -1    0    0  501    0 -0.00000000000E+00 -0.00000000000E+00 -0.31982510160E+03  0.31982510161E+03  0.25500000000E-02 0. -1.
         11    1    1    2    0    0  0.91445564234E+02 -0.92361587394E+02  0.61963051893E+03  0.63311526126E+03  0.51100000000E-03 0. -1.
         22    1    1    2    0    0 -0.10728499675E+03  0.55514786575E+02  0.36284777492E+03  0.38242707778E+03  0.00000000000E+00 0. -1.
          2    1    1    2  501    0  0.15839432513E+02  0.36846800820E+02 -0.30196715495E+03  0.30461900307E+03  0.25500000000E-02 0. -1.
<mgrwt>
<rscale>  0 0.40107036E+02</rscale>
<asrwt>0</asrwt>
<pdfrwt beam="1">  1       11 0.10000000E+01 0.12476402E+03</pdfrwt>
<pdfrwt beam="2">  1        2 0.49220405E-01 0.40107036E+02</pdfrwt>
<totfact> 0.12556218E+02</totfact>
</mgrwt>
</event>
<event>
 5    1  0.2968854E-003  0.1008901E+03  0.7818608E-02  0.1599736E+00
         11   -1    0    0    0    0  0.00000000000E+00  0.00000000000E+00  0.10001467300E+04  0.10001467300E+04  0.51100000000E-03 0. -1.
         -2   -1    0    0    0  501 -0.00000000000E+00 -0.00000000000E+00 -0.43833735295E+02  0.43833735369E+02  0.25500000000E-02 0.  1.
         11    1    1    2    0    0  0.63944108165E+02  0.10200375380E+03  0.47257538305E+03  0.48766905523E+03  0.51100000000E-03 0. -1.
         22    1    1    2    0    0 -0.49075659665E+02 -0.76118642372E+02  0.50912903511E+03  0.51712169020E+03  0.00000000000E+00 0. -1.
         -2    1    1    2    0  501 -0.14868448500E+02 -0.25885111431E+02 -0.25391423476E+02  0.39189719918E+02  0.25500000000E-02 0.  1.
<mgrwt>
<rscale>  0 0.29851462E+02</rscale>
<asrwt>0</asrwt>
<pdfrwt beam="1">  1       11 0.10000000E+01 0.10089008E+03</pdfrwt>
<pdfrwt beam="2">  1       -2 0.67446409E-02 0.29851462E+02</pdfrwt>
<totfact> 0.81379074E+02</totfact>
</mgrwt>
</event>
<event>
 5    1  0.2968854E-003  0.3884375E+02  0.7818608E-02  0.1561308E+00
         11   -1    0    0    0    0  0.00000000000E+00  0.00000000000E+00  0.10000297993E+04  0.10000297993E+04  0.51100000000E-03 0. -1.
          2   -1    0    0  501    0 -0.00000000000E+00 -0.00000000000E+00 -0.39941170493E+01  0.39941178633E+01  0.25500000000E-02 0. -1.
         11    1    1    2    0    0  0.30471354490E+02 -0.59047828019E+01  0.12953067986E+03  0.13319747344E+03  0.51100000000E-03 0. -1.
         22    1    1    2    0    0 -0.35904234610E+01 -0.28857924390E+02  0.13972227469E+03  0.14271644960E+03  0.00000000000E+00 0. -1.
          2    1    1    2  501    0 -0.26880931029E+02  0.34762707192E+02  0.72678272773E+03  0.72810999416E+03  0.25500000000E-02 0. -1.
<mgrwt>
<rscale>  0 0.33609405E+02</rscale>
<asrwt>0</asrwt>
<pdfrwt beam="1">  1       11 0.10000000E+01 0.38843750E+02</pdfrwt>
<pdfrwt beam="2">  1        2 0.61449790E-03 0.33609405E+02</pdfrwt>
<totfact> 0.24372818E+04</totfact>
</mgrwt>
</event>
<event>
 5    1  0.2968854E-003  0.5928857E+03  0.7818608E-02  0.9920277E-01
         11   -1    0    0    0    0  0.00000000000E+00  0.00000000000E+00  0.10007906588E+04  0.10007906588E+04  0.51100000000E-03 0. -1.
          2   -1    0    0  501    0 -0.00000000000E+00 -0.00000000000E+00 -0.17781268712E+04  0.17781268712E+04  0.25500000000E-02 0. -1.
         11    1    1    2    0    0  0.32908371314E+03  0.17321655008E+03 -0.13468899389E+03  0.39552647010E+03  0.51100000000E-03 0. -1.
         22    1    1    2    0    0 -0.68952353435E+03  0.29065314947E+03  0.63227493038E+03  0.97963949763E+03  0.00000000000E+00 0. -1.
          2    1    1    2  501    0  0.36043982122E+03 -0.46386969955E+03 -0.12749221489E+04  0.14037515623E+04  0.25500000000E-02 0. -1.
<mgrwt>
<rscale>  0 0.59288573E+03</rscale>
<asrwt>0</asrwt>
<pdfrwt beam="1">  1       11 0.10000000E+01 0.37188735E+03</pdfrwt>
<pdfrwt beam="2">  1        2 0.27377426E+00 0.59288573E+03</pdfrwt>
<totfact> 0.11383615E+01</totfact>
</mgrwt>
</event>
<event>
 5    1  0.2968854E-003  0.4788327E+02  0.7818608E-02  0.1457105E+00
         11   -1    0    0    0    0  0.00000000000E+00  0.00000000000E+00  0.10000825718E+04  0.10000825718E+04  0.51100000000E-03 0. -1.
          2   -1    0    0  501    0 -0.00000000000E+00 -0.00000000000E+00 -0.72623599797E+01  0.72623604274E+01  0.25500000000E-02 0. -1.
         11    1    1    2    0    0 -0.59725415471E+01 -0.30846475567E+02  0.86566892712E+02  0.92092362450E+02  0.51100000000E-03 0. -1.
         22    1    1    2    0    0  0.47042028871E+02  0.19062281677E+02  0.16181151870E+03  0.16958564399E+03  0.00000000000E+00 0. -1.
          2    1    1    2  501    0 -0.41069487324E+02  0.11784193890E+02  0.74444180044E+03  0.74566692582E+03  0.25500000000E-02 0. -1.
<mgrwt>
<rscale>  0 0.47883271E+02</rscale>
<asrwt>0</asrwt>
<pdfrwt beam="1">  1       11 0.10000000E+01 0.31419378E+02</pdfrwt>
<pdfrwt beam="2">  1        2 0.11173784E-02 0.47883271E+02</pdfrwt>
<totfact> 0.11789342E+04</totfact>
</mgrwt>
</event>
<event>
 5    1  0.2968854E-003  0.1514797E+03  0.7818608E-02  0.1582872E+00
         11   -1    0    0    0    0  0.00000000000E+00  0.00000000000E+00  0.99994288453E+03  0.99994288453E+03  0.51100000000E-03 0.  1.
          2   -1    0    0  501    0 -0.00000000000E+00 -0.00000000000E+00 -0.13923676498E+03  0.13923676500E+03  0.25500000000E-02 0.  1.
         11    1    1    2    0    0  0.16504221777E+03 -0.21777916733E+02  0.65598312499E+02  0.17893113174E+03  0.51100000000E-03 0.  1.
         22    1    1    2    0    0 -0.14990772438E+03 -0.57601886601E+01  0.86800164793E+03  0.88087023245E+03  0.00000000000E+00 0.  1.
          2    1    1    2  501    0 -0.15134493383E+02  0.27538105393E+02 -0.72893840882E+02  0.79378285341E+02  0.25500000000E-02 0.  1.
<mgrwt>
<rscale>  0 0.31422924E+02</rscale>
<asrwt>0</asrwt>
<pdfrwt beam="1">  1       11 0.10000000E+01 0.15147974E+03</pdfrwt>
<pdfrwt beam="2">  1        2 0.21419817E-01 0.31422924E+02</pdfrwt>
<totfact> 0.29344516E+02</totfact>
</mgrwt>
</event>
<event>
 5    1  0.2968854E-003  0.1721365E+03  0.7818608E-02  0.1175638E+00
         11   -1    0    0    0    0  0.00000000000E+00  0.00000000000E+00  0.10002662749E+04  0.10002662749E+04  0.51100000000E-03 0.  1.
          2   -1    0    0  501    0 -0.00000000000E+00 -0.00000000000E+00 -0.35815297248E+03  0.35815297249E+03  0.25500000000E-02 0.  1.
         11    1    1    2    0    0  0.15475408787E+03  0.31028964120E+02  0.86887266291E+03  0.88309191406E+03  0.51100000000E-03 0.  1.
         22    1    1    2    0    0  0.28993202311E+01  0.39176044949E+02  0.99093071954E+02  0.10659552273E+03  0.00000000000E+00 0. -1.
          2    1    1    2  501    0 -0.15765340810E+03 -0.70205009069E+02 -0.32585243247E+03  0.36873181059E+03  0.25500000000E-02 0.  1.
<mgrwt>
<rscale>  0 0.17213648E+03</rscale>
<asrwt>0</asrwt>
<pdfrwt beam="1">  1       11 0.10000000E+01 0.39283184E+02</pdfrwt>
<pdfrwt beam="2">  1        2 0.55115128E-01 0.17213648E+03</pdfrwt>
<totfact> 0.11213814E+02</totfact>
</mgrwt>
</event>
<event>
 5    1  0.2968854E-003  0.1311568E+03  0.7818608E-02  0.1231661E+00
         11   -1    0    0    0    0  0.00000000000E+00  0.00000000000E+00  0.10004108272E+04  0.10004108272E+04  0.51100000000E-03 0. -1.
          2   -1    0    0  501    0 -0.00000000000E+00 -0.00000000000E+00 -0.18000481898E+02  0.18000482079E+02  0.25500000000E-02 0. -1.
         11    1    1    2    0    0  0.16064882274E+02  0.39831687609E+02  0.25511027455E+03  0.25870039807E+03  0.51100000000E-03 0. -1.
         22    1    1    2    0    0  0.63273673676E+02  0.59601154669E+02  0.38090180762E+03  0.39069430821E+03  0.00000000000E+00 0.  1.
          2    1    1    2  501    0 -0.79338555951E+02 -0.99432842278E+02  0.34639826316E+03  0.36901660303E+03  0.25500000000E-02 0. -1.
<mgrwt>
<rscale>  0 0.12720651E+03</rscale>
<asrwt>0</asrwt>
<pdfrwt beam="1">  1       11 0.10000000E+01 0.13115684E+03</pdfrwt>
<pdfrwt beam="2">  1        2 0.27704425E-02 0.12720651E+03</pdfrwt>
<totfact> 0.39885927E+03</totfact>
</mgrwt>
</event>
<event>
 5    1  0.2968854E-003  0.1922520E+03  0.7818608E-02  0.1158495E+00
         11   -1    0    0    0    0  0.00000000000E+00  0.00000000000E+00  0.99994255533E+03  0.99994255533E+03  0.51100000000E-03 0.  1.
          2   -1    0    0  501    0 -0.00000000000E+00 -0.00000000000E+00 -0.51286871403E+02  0.51286871466E+02  0.25500000000E-02 0.  1.
         11    1    1    2    0    0 -0.38927156127E+02 -0.17278601343E+03  0.67879731201E+03  0.70152414122E+03  0.51100000000E-03 0.  1.
         22    1    1    2    0    0  0.33873011285E+01 -0.13822988287E+02  0.79548316636E+02  0.80811406953E+02  0.00000000000E+00 0. -1.
          2    1    1    2  501    0  0.35539854998E+02  0.18660900171E+03  0.19031005528E+03  0.26889387862E+03  0.25500000000E-02 0.  1.
<mgrwt>
<rscale>  0 0.18996316E+03</rscale>
<asrwt>0</asrwt>
<pdfrwt beam="1">  1       11 0.10000000E+01 0.19225196E+03</pdfrwt>
<pdfrwt beam="2">  1        2 0.78898344E-02 0.18996316E+03</pdfrwt>
<totfact> 0.10427344E+03</totfact>
</mgrwt>
</event>
<event>
 5    1  0.2968854E-003  0.1322472E+03  0.7818608E-02  0.1483498E+00
         11   -1    0    0    0    0  0.00000000000E+00  0.00000000000E+00  0.10003949275E+04  0.10003949275E+04  0.51100000000E-03 0. -1.
          2   -1    0    0  501    0 -0.00000000000E+00 -0.00000000000E+00 -0.20060339674E+02  0.20060339836E+02  0.25500000000E-02 0. -1.
         11    1    1    2    0    0  0.10791552707E+03  0.76265538994E+02  0.54794556994E+03  0.56365462922E+03  0.51100000000E-03 0. -1.
         22    1    1    2    0    0  0.82151866019E+01 -0.11768062134E+02  0.36568293391E+02  0.39283796391E+02  0.00000000000E+00 0.  1.
          2    1    1    2  501    0 -0.11613071367E+03 -0.64497476860E+02  0.39582072449E+03  0.41751684172E+03  0.25500000000E-02 0. -1.
<mgrwt>
<rscale>  0 0.43566003E+02</rscale>
<asrwt>0</asrwt>
<pdfrwt beam="1">  1       11 0.10000000E+01 0.13224721E+03</pdfrwt>
<pdfrwt beam="2">  1        2 0.30874249E-02 0.43566003E+02</pdfrwt>
<totfact> 0.30411447E+03</totfact>
</mgrwt>
</event>
<event>
 5    1  0.2968854E-003  0.8245131E+02  0.7818608E-02  0.1620744E+00
         11   -1    0    0    0    0  0.00000000000E+00  0.00000000000E+00  0.10002230725E+04  0.10002230725E+04  0.51100000000E-03 0.  1.
          2   -1    0    0  501    0 -0.00000000000E+00 -0.00000000000E+00 -0.97583811665E+01  0.97583814997E+01  0.25500000000E-02 0.  1.
         11    1    1    2    0    0  0.22814110890E+02  0.85110068157E+02  0.52703261881E+03  0.53434781617E+03  0.51100000000E-03 0.  1.
         22    1    1    2    0    0 -0.42018998666E+02 -0.64670540841E+02  0.29672309091E+03  0.30658191040E+03  0.00000000000E+00 0.  1.
          2    1    1    2  501    0  0.19204887776E+02 -0.20439527316E+02  0.16670898162E+03  0.16905172744E+03  0.25500000000E-02 0.  1.
<mgrwt>
<rscale>  0 0.28046426E+02</rscale>
<asrwt>0</asrwt>
<pdfrwt beam="1">  1       11 0.10000000E+01 0.82451311E+02</pdfrwt>
<pdfrwt beam="2">  1        2 0.15016243E-02 0.28046426E+02</pdfrwt>
<totfact> 0.72245284E+03</totfact>
</mgrwt>
</event>
<event>
 5    1  0.2968854E-003  0.5090655E+03  0.7818608E-02  0.1013071E+00
         11   -1    0    0    0    0  0.00000000000E+00  0.00000000000E+00  0.99961306143E+03  0.99961306143E+03  0.51100000000E-03 0.  1.
          2   -1    0    0  501    0 -0.00000000000E+00 -0.00000000000E+00 -0.28121502201E+03  0.28121502202E+03  0.25500000000E-02 0.  1.
         11    1    1    2    0    0  0.12014834865E+03  0.47086350663E+03  0.51469907587E+03  0.70785818231E+03  0.51100000000E-03 0.  1.
         22    1    1    2    0    0 -0.87229540767E+01  0.19352350629E+02  0.38212885687E+02  0.43713019058E+02  0.00000000000E+00 0.  1.
          2    1    1    2  501    0 -0.11142539457E+03 -0.49021585725E+03  0.16548607787E+03  0.52925688208E+03  0.25500000000E-02 0.  1.
<mgrwt>
<rscale>  0 0.50271981E+03</rscale>
<asrwt>0</asrwt>
<pdfrwt beam="1">  1       11 0.10000000E+01 0.50906545E+03</pdfrwt>
<pdfrwt beam="2">  1        2 0.43247108E-01 0.50271981E+03</pdfrwt>
<totfact> 0.14580721E+02</totfact>
</mgrwt>
</event>
<event>
 5    1  0.2968854E-003  0.6763881E+02  0.7818608E-02  0.1437022E+00
         11   -1    0    0    0    0  0.00000000000E+00  0.00000000000E+00  0.10002095871E+04  0.10002095871E+04  0.51100000000E-03 0. -1.
          2   -1    0    0  501    0 -0.00000000000E+00 -0.00000000000E+00 -0.82770087704E+01  0.82770091632E+01  0.25500000000E-02 0. -1.
         11    1    1    2    0    0 -0.58379981340E+02  0.37715370554E+02  0.36137784442E+03  0.36800083945E+03  0.51100000000E-03 0. -1.
         22    1    1    2    0    0  0.28652218936E+02  0.26939092716E+02  0.17174559896E+03  0.17619084859E+03  0.00000000000E+00 0. -1.
          2    1    1    2  501    0  0.29727762405E+02 -0.64654463271E+02  0.45880913490E+03  0.46429490817E+03  0.25500000000E-02 0. -1.
<mgrwt>
<rscale>  0 0.51575908E+02</rscale>
<asrwt>0</asrwt>
<pdfrwt beam="1">  1       11 0.10000000E+01 0.67638809E+02</pdfrwt>
<pdfrwt beam="2">  1        2 0.12736528E-02 0.51575908E+02</pdfrwt>
<totfact> 0.10025089E+04</totfact>
</mgrwt>
</event>
<event>
 5    1  0.2968854E-003  0.2215487E+03  0.7818608E-02  0.1132734E+00
         11   -1    0    0    0    0  0.00000000000E+00  0.00000000000E+00  0.10001868698E+04  0.10001868698E+04  0.51100000000E-03 0. -1.
          2   -1    0    0  501    0 -0.00000000000E+00 -0.00000000000E+00 -0.26627156198E+03  0.26627156199E+03  0.25500000000E-02 0. -1.
         11    1    1    2    0    0 -0.58186320552E+02 -0.38765507158E+02  0.45217060078E+02  0.83264608129E+02  0.51100000000E-03 0. -1.
         22    1    1    2    0    0 -0.13816872233E+03 -0.72092929995E+02  0.87618845985E+03  0.88994056181E+03  0.00000000000E+00 0. -1.
          2    1    1    2  501    0  0.19635504288E+03  0.11085843715E+03 -0.18749021209E+03  0.29325326186E+03  0.25500000000E-02 0. -1.
<mgrwt>
<rscale>  0 0.22154874E+03</rscale>
<asrwt>0</asrwt>
<pdfrwt beam="1">  1       11 0.10000000E+01 0.69917218E+02</pdfrwt>
<pdfrwt beam="2">  1        2 0.40972510E-01 0.22154874E+03</pdfrwt>
<totfact> 0.15421327E+02</totfact>
</mgrwt>
</event>
<event>
 5    1  0.2968854E-003  0.3664947E+03  0.7818608E-02  0.1056041E+00
         11   -1    0    0    0    0  0.00000000000E+00  0.00000000000E+00  0.10000374982E+04  0.10000374982E+04  0.51100000000E-03 0. -1.
          2   -1    0    0  501    0 -0.00000000000E+00 -0.00000000000E+00 -0.27216652079E+03  0.27216652080E+03  0.25500000000E-02 0. -1.
         11    1    1    2    0    0 -0.13053131115E+03 -0.25703043311E+02  0.43658073728E+02  0.14001820249E+03  0.51100000000E-03 0. -1.
         22    1    1    2    0    0 -0.24760309375E+03  0.12863990518E+03  0.68569014642E+03  0.74028811563E+03  0.00000000000E+00 0. -1.
          2    1    1    2  501    0  0.37813440491E+03 -0.10293686187E+03 -0.14772427358E+01  0.39189770089E+03  0.25500000000E-02 0. -1.
<mgrwt>
<rscale>  0 0.36649474E+03</rscale>
<asrwt>0</asrwt>
<pdfrwt beam="1">  1       11 0.10000000E+01 0.13303792E+03</pdfrwt>
<pdfrwt beam="2">  1        2 0.41873341E-01 0.36649474E+03</pdfrwt>
<totfact> 0.15096284E+02</totfact>
</mgrwt>
</event>
<event>
 5    1  0.2968854E-003  0.1313418E+03  0.7818608E-02  0.1229288E+00
         11   -1    0    0    0    0  0.00000000000E+00  0.00000000000E+00  0.99999507933E+03  0.99999507933E+03  0.51100000000E-03 0.  1.
         -2   -1    0    0    0  501 -0.00000000000E+00 -0.00000000000E+00 -0.24140917442E+02  0.24140917577E+02  0.25500000000E-02 0. -1.
         11    1    1    2    0    0  0.46088301232E+01  0.11231459394E+03  0.66901862194E+03  0.67839643707E+03  0.51100000000E-03 0.  1.
         22    1    1    2    0    0 -0.93789713288E+01  0.16370115895E+02  0.10242886550E+03  0.10415190005E+03  0.00000000000E+00 0.  1.
         -2    1    1    2    0  501  0.47701412056E+01 -0.12868470984E+03  0.20440667446E+03  0.24158765979E+03  0.25500000000E-02 0. -1.
<mgrwt>
<rscale>  0 0.12877309E+03</rscale>
<asrwt>0</asrwt>
<pdfrwt beam="1">  1       11 0.10000000E+01 0.13134182E+03</pdfrwt>
<pdfrwt beam="2">  1       -2 0.37139689E-02 0.12877309E+03</pdfrwt>
<totfact> 0.22894684E+03</totfact>
</mgrwt>
</event>
<event>
 5    1  0.2968854E-003  0.3716835E+03  0.7818608E-02  0.1058476E+00
         11   -1    0    0    0    0  0.00000000000E+00  0.00000000000E+00  0.10004977733E+04  0.10004977733E+04  0.51100000000E-03 0. -1.
          2   -1    0    0  501    0 -0.00000000000E+00 -0.00000000000E+00 -0.14292825333E+04  0.14292825333E+04  0.25500000000E-02 0. -1.
         11    1    1    2    0    0 -0.18311188001E+03 -0.21287933193E+03  0.65550672464E+03  0.71311754754E+03  0.51100000000E-03 0. -1.
         22    1    1    2    0    0 -0.18853486244E+02 -0.85459560623E+02  0.28637012338E+03  0.29944388124E+03  0.00000000000E+00 0.  1.
          2    1    1    2  501    0  0.20196536626E+03  0.29833889255E+03 -0.13706616080E+04  0.14172188778E+04  0.25500000000E-02 0. -1.
<mgrwt>
<rscale>  0 0.36027226E+03</rscale>
<asrwt>0</asrwt>
<pdfrwt beam="1">  1       11 0.10000000E+01 0.37168354E+03</pdfrwt>
<pdfrwt beam="2">  1        2 0.21999907E+00 0.36027226E+03</pdfrwt>
<totfact> 0.18293985E+01</totfact>
</mgrwt>
</event>
<event>
 5    1  0.2968854E-003  0.4363847E+02  0.7818608E-02  0.1483025E+00
         11   -1    0    0    0    0  0.00000000000E+00  0.00000000000E+00  0.10004443719E+04  0.10004443719E+04  0.51100000000E-03 0. -1.
          2   -1    0    0  501    0 -0.00000000000E+00 -0.00000000000E+00 -0.46286654184E+01  0.46286661209E+01  0.25500000000E-02 0. -1.
         11    1    1    2    0    0  0.33127205597E+02 -0.58509487411E+01  0.17698358173E+03  0.18015225104E+03  0.51100000000E-03 0. -1.
         22    1    1    2    0    0 -0.10095729836E+02  0.45461435379E+02  0.25403783483E+03  0.25827095731E+03  0.00000000000E+00 0. -1.
          2    1    1    2  501    0 -0.23031475760E+02 -0.39610486638E+02  0.56479428993E+03  0.56664982967E+03  0.25500000000E-02 0. -1.
<mgrwt>
<rscale>  0 0.43638470E+02</rscale>
<asrwt>0</asrwt>
<pdfrwt beam="1">  1       11 0.10000000E+01 0.33639954E+02</pdfrwt>
<pdfrwt beam="2">  1        2 0.71241884E-03 0.43638470E+02</pdfrwt>
<totfact> 0.21170041E+04</totfact>
</mgrwt>
</event>
<event>
 5    1  0.2968854E-003  0.7109329E+02  0.7818608E-02  0.1361877E+00
         11   -1    0    0    0    0  0.00000000000E+00  0.00000000000E+00  0.99963644573E+03  0.99963644573E+03  0.51100000000E-03 0.  1.
          2   -1    0    0  501    0 -0.00000000000E+00 -0.00000000000E+00 -0.54218401106E+01  0.54218407103E+01  0.25500000000E-02 0.  1.
         11    1    1    2    0    0 -0.15817142865E+02  0.74524989734E+01  0.59954640263E+02  0.62452226852E+02  0.51100000000E-03 0.  1.
         22    1    1    2    0    0 -0.49300674592E+02  0.16772582692E+02  0.29284896488E+03  0.29744309082E+03  0.00000000000E+00 0.  1.
          2    1    1    2  501    0  0.65117817457E+02 -0.24225081665E+02  0.64141100047E+03  0.64516296877E+03  0.25500000000E-02 0.  1.
<mgrwt>
<rscale>  0 0.69477944E+02</rscale>
<asrwt>0</asrwt>
<pdfrwt beam="1">  1       11 0.10000000E+01 0.71093290E+02</pdfrwt>
<pdfrwt beam="2">  1        2 0.83382602E-03 0.69477944E+02</pdfrwt>
<totfact> 0.18704875E+04</totfact>
</mgrwt>
</event>
<event>
 5    1  0.2968854E-003  0.2637059E+03  0.7818608E-02  0.1106122E+00
         11   -1    0    0    0    0  0.00000000000E+00  0.00000000000E+00  0.10004750276E+04  0.10004750276E+04  0.51100000000E-03 0.  1.
          2   -1    0    0  501    0 -0.00000000000E+00 -0.00000000000E+00 -0.72621910409E+02  0.72621910453E+02  0.25500000000E-02 0.  1.
         11    1    1    2    0    0  0.15622075019E+03  0.19738680847E+03  0.32016319134E+03  0.40727256725E+03  0.51100000000E-03 0.  1.
         22    1    1    2    0    0  0.83784895860E+01  0.60763736032E+01  0.25315153238E+02  0.27349193542E+02  0.00000000000E+00 0. -1.
          2    1    1    2  501    0 -0.16459923978E+03 -0.20346318207E+03  0.58237477263E+03  0.63847517728E+03  0.25500000000E-02 0.  1.
<mgrwt>
<rscale>  0 0.26170628E+03</rscale>
<asrwt>0</asrwt>
<pdfrwt beam="1">  1       11 0.10000000E+01 0.26370587E+03</pdfrwt>
<pdfrwt beam="2">  1        2 0.11177909E-01 0.26170628E+03</pdfrwt>
<totfact> 0.68546645E+02</totfact>
</mgrwt>
</event>
<event>
 5    1  0.2968854E-003  0.1365956E+03  0.7818608E-02  0.1491607E+00
         11   -1    0    0    0    0  0.00000000000E+00  0.00000000000E+00  0.10000914444E+04  0.10000914444E+04  0.51100000000E-03 0. -1.
          2   -1    0    0  501    0 -0.00000000000E+00 -0.00000000000E+00 -0.26779042702E+02  0.26779042824E+02  0.25500000000E-02 0. -1.
         11    1    1    2    0    0  0.11514040970E+03 -0.54665116522E+02  0.45915681453E+03  0.47651922232E+03  0.51100000000E-03 0. -1.
         22    1    1    2    0    0 -0.15065773260E+03  0.31601608646E+02  0.40512464097E+03  0.43338480451E+03  0.00000000000E+00 0. -1.
          2    1    1    2  501    0  0.35517322902E+02  0.23063507876E+02  0.10903094618E+03  0.11696646038E+03  0.25500000000E-02 0. -1.
<mgrwt>
<rscale>  0 0.42348620E+02</rscale>
<asrwt>0</asrwt>
<pdfrwt beam="1">  1       11 0.10000000E+01 0.13659564E+03</pdfrwt>
<pdfrwt beam="2">  1        2 0.41202294E-02 0.42348620E+02</pdfrwt>
<totfact> 0.20929309E+03</totfact>
</mgrwt>
</event>
<event>
 5    1  0.2968854E-003  0.8072614E+02  0.7818608E-02  0.1332151E+00
         11   -1    0    0    0    0  0.00000000000E+00  0.00000000000E+00  0.10002755314E+04  0.10002755314E+04  0.51100000000E-03 0. -1.
         -2   -1    0    0    0  501 -0.00000000000E+00 -0.00000000000E+00 -0.64900748847E+01  0.64900753856E+01  0.25500000000E-02 0. -1.
         11    1    1    2    0    0  0.58067353362E+02  0.26632847281E+02  0.34637261186E+03  0.35221458278E+03  0.51100000000E-03 0. -1.
         22    1    1    2    0    0  0.16759310102E+02 -0.15536888561E+01  0.87516095302E+02  0.89119893184E+02  0.00000000000E+00 0. -1.
         -2    1    1    2    0  501 -0.74826663464E+02 -0.25079158425E+02  0.55989674939E+03  0.56543113086E+03  0.25500000000E-02 0. -1.
<mgrwt>
<rscale>  0 0.78917639E+02</rscale>
<asrwt>0</asrwt>
<pdfrwt beam="1">  1       11 0.10000000E+01 0.80726139E+02</pdfrwt>
<pdfrwt beam="2">  1       -2 0.99874818E-03 0.78917639E+02</pdfrwt>
<totfact> 0.14235011E+04</totfact>
</mgrwt>
</event>
<event>
 5    1  0.2968854E-003  0.2602204E+03  0.7818608E-02  0.1389474E+00
         11   -1    0    0    0    0  0.00000000000E+00  0.00000000000E+00  0.10001834296E+04  0.10001834296E+04  0.51100000000E-03 0.  1.
          2   -1    0    0  501    0 -0.00000000000E+00 -0.00000000000E+00 -0.20896616701E+03  0.20896616702E+03  0.25500000000E-02 0. -1.
         11    1    1    2    0    0  0.41594107604E+02  0.25560770533E+03  0.86650649720E+03  0.90437761941E+03  0.51100000000E-03 0.  1.
         22    1    1    2    0    0  0.80163002239E+01  0.12429164826E+02  0.11461669104E+02  0.18711361955E+02  0.00000000000E+00 0.  1.
          2    1    1    2  501    0 -0.49610407828E+02 -0.26803687015E+03 -0.86750903675E+02  0.28606061529E+03  0.25500000000E-02 0. -1.
<mgrwt>
<rscale>  0 0.62037645E+02</rscale>
<asrwt>0</asrwt>
<pdfrwt beam="1">  1       11 0.10000000E+01 0.26022040E+03</pdfrwt>
<pdfrwt beam="2">  1        2 0.32154537E-01 0.62037645E+02</pdfrwt>
<totfact> 0.19594786E+02</totfact>
</mgrwt>
</event>
<event>
 5    1  0.2968854E-003  0.2494583E+03  0.7818608E-02  0.1115630E+00
         11   -1    0    0    0    0  0.00000000000E+00  0.00000000000E+00  0.99999490069E+03  0.99999490069E+03  0.51100000000E-03 0. -1.
          2   -1    0    0  501    0 -0.00000000000E+00 -0.00000000000E+00 -0.69912399897E+02  0.69912399943E+02  0.25500000000E-02 0. -1.
         11    1    1    2    0    0  0.11886605906E+03  0.16243212997E+03  0.51073485875E+03  0.54896578471E+03  0.51100000000E-03 0. -1.
         22    1    1    2    0    0  0.40211154095E+02  0.25677908600E+02  0.14288941513E+03  0.15064420620E+03  0.00000000000E+00 0. -1.
          2    1    1    2  501    0 -0.15907721316E+03 -0.18811003857E+03  0.27645822692E+03  0.37029730973E+03  0.25500000000E-02 0. -1.
<mgrwt>
<rscale>  0 0.24635533E+03</rscale>
<asrwt>0</asrwt>
<pdfrwt beam="1">  1       11 0.10000000E+01 0.24945831E+03</pdfrwt>
<pdfrwt beam="2">  1        2 0.10755699E-01 0.24635533E+03</pdfrwt>
<totfact> 0.71690373E+02</totfact>
</mgrwt>
</event>
<event>
 5    1  0.2968854E-003  0.1851422E+03  0.7818608E-02  0.1168202E+00
         11   -1    0    0    0    0  0.00000000000E+00  0.00000000000E+00  0.10001359873E+04  0.10001359873E+04  0.51100000000E-03 0. -1.
          2   -1    0    0  501    0 -0.00000000000E+00 -0.00000000000E+00 -0.46390634928E+02  0.46390634998E+02  0.25500000000E-02 0. -1.
         11    1    1    2    0    0  0.15355144694E+03  0.69962342160E+02  0.71196411473E+03  0.73168687076E+03  0.51100000000E-03 0. -1.
         22    1    1    2    0    0  0.46453992167E+01  0.15042550731E+02  0.48554759546E+02  0.51043341789E+02  0.00000000000E+00 0. -1.
          2    1    1    2  501    0 -0.15819684616E+03 -0.85004892891E+02  0.19322647808E+03  0.26379640973E+03  0.25500000000E-02 0. -1.
<mgrwt>
<rscale>  0 0.17958862E+03</rscale>
<asrwt>0</asrwt>
<pdfrwt beam="1">  1       11 0.10000000E+01 0.18514218E+03</pdfrwt>
<pdfrwt beam="2">  1        2 0.71379911E-02 0.17958862E+03</pdfrwt>
<totfact> 0.11804550E+03</totfact>
</mgrwt>
</event>
<event>
 5    1  0.2968854E-003  0.6138050E+03  0.7818608E-02  0.9891505E-01
         11   -1    0    0    0    0  0.00000000000E+00  0.00000000000E+00  0.10007691901E+04  0.10007691901E+04  0.51100000000E-03 0.  1.
          2   -1    0    0  501    0 -0.00000000000E+00 -0.00000000000E+00 -0.15710399017E+04  0.15710399017E+04  0.25500000000E-02 0.  1.
         11    1    1    2    0    0 -0.50254817656E+03 -0.23405930809E+03  0.75314480579E+03  0.93518208278E+03  0.51100000000E-03 0.  1.
         22    1    1    2    0    0 -0.59193776132E+02  0.47369745250E+01  0.84647710838E+02  0.10340008226E+03  0.00000000000E+00 0.  1.
          2    1    1    2  501    0  0.56174195269E+03  0.22932233357E+03 -0.14080632283E+04  0.15332269268E+04  0.25500000000E-02 0.  1.
<mgrwt>
<rscale>  0 0.60674769E+03</rscale>
<asrwt>0</asrwt>
<pdfrwt beam="1">  1       11 0.10000000E+01 0.61380503E+03</pdfrwt>
<pdfrwt beam="2">  1        2 0.24188435E+00 0.60674769E+03</pdfrwt>
<totfact> 0.14734070E+01</totfact>
</mgrwt>
</event>
<event>
 5    1  0.2968854E-003  0.2185168E+03  0.7818608E-02  0.1136874E+00
         11   -1    0    0    0    0  0.00000000000E+00  0.00000000000E+00  0.10002215225E+04  0.10002215225E+04  0.51100000000E-03 0. -1.
          2   -1    0    0  501    0 -0.00000000000E+00 -0.00000000000E+00 -0.18470789398E+03  0.18470789400E+03  0.25500000000E-02 0. -1.
         11    1    1    2    0    0  0.38402399208E+01 -0.20149755181E+03  0.87333578034E+03  0.89628756326E+03  0.51100000000E-03 0. -1.
         22    1    1    2    0    0  0.69957520208E+01 -0.14265821434E+02  0.46208263405E+02  0.48863665585E+02  0.00000000000E+00 0.  1.
          2    1    1    2  501    0 -0.10835991942E+02  0.21576337324E+03 -0.10403041526E+03  0.23977818763E+03  0.25500000000E-02 0. -1.
<mgrwt>
<rscale>  0 0.21603530E+03</rscale>
<asrwt>0</asrwt>
<pdfrwt beam="1">  1       11 0.10000000E+01 0.21851681E+03</pdfrwt>
<pdfrwt beam="2">  1        2 0.28422893E-01 0.21603530E+03</pdfrwt>
<totfact> 0.22958346E+02</totfact>
</mgrwt>
</event>
<event>
 5    1  0.2968854E-003  0.2150057E+03  0.7818608E-02  0.1143928E+00
         11   -1    0    0    0    0  0.00000000000E+00  0.00000000000E+00  0.10004510785E+04  0.10004510785E+04  0.51100000000E-03 0. -1.
          2   -1    0    0  501    0 -0.00000000000E+00 -0.00000000000E+00 -0.63756720173E+02  0.63756720224E+02  0.25500000000E-02 0. -1.
         11    1    1    2    0    0  0.42185210423E+02  0.13418939224E+03  0.56930317100E+03  0.58642346941E+03  0.51100000000E-03 0. -1.
         22    1    1    2    0    0 -0.10622486917E+02  0.70435161074E+02  0.19751994061E+03  0.20997160780E+03  0.00000000000E+00 0. -1.
          2    1    1    2  501    0 -0.31562723506E+02 -0.20462455331E+03  0.16987124671E+03  0.26781272150E+03  0.25500000000E-02 0. -1.
<mgrwt>
<rscale>  0 0.20704447E+03</rscale>
<asrwt>0</asrwt>
<pdfrwt beam="1">  1       11 0.10000000E+01 0.21500566E+03</pdfrwt>
<pdfrwt beam="2">  1        2 0.98131504E-02 0.20704447E+03</pdfrwt>
<totfact> 0.79651391E+02</totfact>
</mgrwt>
</event>
<event>
 5    1  0.2968854E-003  0.4430506E+02  0.7818608E-02  0.1517005E+00
         11   -1    0    0    0    0  0.00000000000E+00  0.00000000000E+00  0.10000309245E+04  0.10000309245E+04  0.51100000000E-03 0. -1.
          2   -1    0    0  501    0 -0.00000000000E+00 -0.00000000000E+00 -0.36060512426E+01  0.36060521442E+01  0.25500000000E-02 0. -1.
         11    1    1    2    0    0  0.19313334245E+02 -0.14708936139E+02  0.73187088867E+02  0.77108414970E+02  0.51100000000E-03 0. -1.
         22    1    1    2    0    0  0.18584419444E+02  0.62532239133E+01  0.78957137930E+02  0.81355473605E+02  0.00000000000E+00 0. -1.
          2    1    1    2  501    0 -0.37897753689E+02  0.84557122252E+01  0.84428064649E+03  0.84517308810E+03  0.25500000000E-02 0. -1.
<mgrwt>
<rscale>  0 0.38829613E+02</rscale>
<asrwt>0</asrwt>
<pdfrwt beam="1">  1       11 0.10000000E+01 0.44305059E+02</pdfrwt>
<pdfrwt beam="2">  1        2 0.55479432E-03 0.38829613E+02</pdfrwt>
<totfact> 0.28865039E+04</totfact>
</mgrwt>
</event>
<event>
 5    1  0.2968854E-003  0.1795876E+03  0.7818608E-02  0.1173613E+00
         11   -1    0    0    0    0  0.00000000000E+00  0.00000000000E+00  0.10002598262E+04  0.10002598262E+04  0.51100000000E-03 0. -1.
         -2   -1    0    0    0  501 -0.00000000000E+00 -0.00000000000E+00 -0.35255505573E+02  0.35255505665E+02  0.25500000000E-02 0.  1.
         11    1    1    2    0    0 -0.11235598078E+03  0.90342974733E+02  0.55411834265E+03  0.57256690191E+03  0.51100000000E-03 0. -1.
         22    1    1    2    0    0 -0.10213451591E+02  0.33334993994E+02  0.10905665625E+03  0.11449406400E+03  0.00000000000E+00 0.  1.
         -2    1    1    2    0  501  0.12256943237E+03 -0.12367796873E+03  0.30182932177E+03  0.34845436601E+03  0.25500000000E-02 0.  1.
<mgrwt>
<rscale>  0 0.17412497E+03</rscale>
<asrwt>0</asrwt>
<pdfrwt beam="1">  1       11 0.10000000E+01 0.17958756E+03</pdfrwt>
<pdfrwt beam="2">  1       -2 0.54253331E-02 0.17412497E+03</pdfrwt>
<totfact> 0.13332795E+03</totfact>
</mgrwt>
</event>
<event>
 5    1  0.2968854E-003  0.1337063E+03  0.7818608E-02  0.1457388E+00
         11   -1    0    0    0    0  0.00000000000E+00  0.00000000000E+00  0.10006903932E+04  0.10006903932E+04  0.51100000000E-03 0. -1.
          2   -1    0    0  501    0 -0.00000000000E+00 -0.00000000000E+00 -0.24342246143E+04  0.24342246143E+04  0.25500000000E-02 0. -1.
         11    1    1    2    0    0 -0.93694796548E+02  0.45772852560E+02  0.20900236935E+03  0.23357195749E+03  0.51100000000E-03 0. -1.
         22    1    1    2    0    0  0.13148996602E+03 -0.75091934702E+02  0.77180961499E+03  0.78652303947E+03  0.00000000000E+00 0. -1.
          2    1    1    2  501    0 -0.37795169472E+02  0.29319082141E+02 -0.24143462054E+04  0.24148200105E+04  0.25500000000E-02 0. -1.
<mgrwt>
<rscale>  0 0.47833915E+02</rscale>
<asrwt>0</asrwt>
<pdfrwt beam="1">  1       11 0.10000000E+01 0.13370632E+03</pdfrwt>
<pdfrwt beam="2">  1        2 0.37475463E+00 0.47833915E+02</pdfrwt>
<totfact> 0.68332507E+00</totfact>
</mgrwt>
</event>
<event>
 5    1  0.2968854E-003  0.5043647E+02  0.7818608E-02  0.1457624E+00
         11   -1    0    0    0    0  0.00000000000E+00  0.00000000000E+00  0.10003941079E+04  0.10003941079E+04  0.51100000000E-03 0.  1.
          2   -1    0    0  501    0 -0.00000000000E+00 -0.00000000000E+00 -0.17969361184E+02  0.17969361365E+02  0.25500000000E-02 0.  1.
         11    1    1    2    0    0  0.28998231760E+02  0.29599570211E+01  0.31574791628E+01  0.29319421306E+02  0.51100000000E-03 0.  1.
         22    1    1    2    0    0  0.18313657155E+02  0.38027827177E+01  0.16063684342E+02  0.24655489235E+02  0.00000000000E+00 0. -1.
          2    1    1    2  501    0 -0.47311888915E+02 -0.67627397388E+01  0.96320358319E+03  0.96438855870E+03  0.25500000000E-02 0.  1.
<mgrwt>
<rscale>  0 0.47792777E+02</rscale>
<asrwt>0</asrwt>
<pdfrwt beam="1">  1       11 0.10000000E+01 0.50436473E+02</pdfrwt>
<pdfrwt beam="2">  1        2 0.27656066E-02 0.47792777E+02</pdfrwt>
<totfact> 0.35523865E+03</totfact>
</mgrwt>
</event>
<event>
 5    1  0.2968854E-003  0.9459877E+02  0.7818608E-02  0.1539271E+00
         11   -1    0    0    0    0  0.00000000000E+00  0.00000000000E+00  0.10002404258E+04  0.10002404258E+04  0.51100000000E-03 0. -1.
          2   -1    0    0  501    0 -0.00000000000E+00 -0.00000000000E+00 -0.11744931475E+02  0.11744931752E+02  0.25500000000E-02 0. -1.
         11    1    1    2    0    0 -0.23747632932E+02 -0.92684284221E+02  0.31227646525E+03  0.32660513983E+03  0.51100000000E-03 0. -1.
         22    1    1    2    0    0 -0.12582605565E+02  0.55588018295E+01  0.42538753352E+02  0.44707580759E+02  0.00000000000E+00 0. -1.
          2    1    1    2  501    0  0.36330238497E+02  0.87125482391E+02  0.63368027573E+03  0.64067263697E+03  0.25500000000E-02 0. -1.
<mgrwt>
<rscale>  0 0.36073284E+02</rscale>
<asrwt>0</asrwt>
<pdfrwt beam="1">  1       11 0.10000000E+01 0.94598769E+02</pdfrwt>
<pdfrwt beam="2">  1        2 0.18073469E-02 0.36073284E+02</pdfrwt>
<totfact> 0.59346974E+03</totfact>
</mgrwt>
</event>
<event>
 5    1  0.2968854E-003  0.4659281E+03  0.7818608E-02  0.1023076E+00
         11   -1    0    0    0    0  0.00000000000E+00  0.00000000000E+00  0.10003040594E+04  0.10003040594E+04  0.51100000000E-03 0. -1.
          2   -1    0    0  501    0 -0.00000000000E+00 -0.00000000000E+00 -0.29546175147E+03  0.29546175148E+03  0.25500000000E-02 0. -1.
         11    1    1    2    0    0  0.37658635584E+02  0.46512820857E+03  0.63960048866E+03  0.79173935632E+03  0.51100000000E-03 0. -1.
         22    1    1    2    0    0 -0.26693335238E+02  0.61467565808E+00  0.24734915652E+02  0.36396813385E+02  0.00000000000E+00 0.  1.
          2    1    1    2  501    0 -0.10965300346E+02 -0.46574288423E+03  0.40506903564E+02  0.46762964113E+03  0.25500000000E-02 0. -1.
<mgrwt>
<rscale>  0 0.46592808E+03</rscale>
<asrwt>0</asrwt>
<pdfrwt beam="1">  1       11 0.10000000E+01 0.26700411E+02</pdfrwt>
<pdfrwt beam="2">  1        2 0.45469474E-01 0.46592808E+03</pdfrwt>
<totfact> 0.13798331E+02</totfact>
</mgrwt>
</event>
<event>
 5    1  0.2968854E-003  0.1585717E+03  0.7818608E-02  0.1194989E+00
         11   -1    0    0    0    0  0.00000000000E+00  0.00000000000E+00  0.10001779190E+04  0.10001779190E+04  0.51100000000E-03 0.  1.
          2   -1    0    0  501    0 -0.00000000000E+00 -0.00000000000E+00 -0.24711762497E+02  0.24711762629E+02  0.25500000000E-02 0.  1.
         11    1    1    2    0    0 -0.87229894973E+02  0.11940545847E+03  0.49289220992E+03  0.51459639398E+03  0.51100000000E-03 0.  1.
         22    1    1    2    0    0  0.25154829820E+01  0.98605438073E+01  0.47669477010E+02  0.48743584370E+02  0.00000000000E+00 0. -1.
          2    1    1    2  501    0  0.84714411991E+02 -0.12926600228E+03  0.43490446961E+03  0.46154970332E+03  0.25500000000E-02 0.  1.
<mgrwt>
<rscale>  0 0.15455171E+03</rscale>
<asrwt>0</asrwt>
<pdfrwt beam="1">  1       11 0.10000000E+01 0.15857173E+03</pdfrwt>
<pdfrwt beam="2">  1        2 0.38024859E-02 0.15455171E+03</pdfrwt>
<totfact> 0.26596481E+03</totfact>
</mgrwt>
</event>
<event>
 5    1  0.2968854E-003  0.2301817E+03  0.7818608E-02  0.1126512E+00
         11   -1    0    0    0    0  0.00000000000E+00  0.00000000000E+00  0.99993793932E+03  0.99993793933E+03  0.51100000000E-03 0. -1.
          2   -1    0    0  501    0 -0.00000000000E+00 -0.00000000000E+00 -0.39072268420E+03  0.39072268421E+03  0.25500000000E-02 0. -1.
         11    1    1    2    0    0 -0.22467120136E+03 -0.81719590307E+02  0.89074015673E+03  0.92226529100E+03  0.51100000000E-03 0. -1.
         22    1    1    2    0    0  0.29769109343E+01  0.20981090092E+02  0.56088877462E+02  0.59958571656E+02  0.00000000000E+00 0. -1.
          2    1    1    2  501    0  0.22169429043E+03  0.60738500215E+02 -0.33761377907E+03  0.40843676089E+03  0.25500000000E-02 0. -1.
<mgrwt>
<rscale>  0 0.23018167E+03</rscale>
<asrwt>0</asrwt>
<pdfrwt beam="1">  1       11 0.10000000E+01 0.21191228E+02</pdfrwt>
<pdfrwt beam="2">  1        2 0.60107450E-01 0.23018167E+03</pdfrwt>
<totfact> 0.10198546E+02</totfact>
</mgrwt>
</event>
<event>
 5    1  0.2968854E-003  0.8567847E+02  0.7818608E-02  0.1333806E+00
         11   -1    0    0    0    0  0.00000000000E+00  0.00000000000E+00  0.10002764512E+04  0.10002764512E+04  0.51100000000E-03 0. -1.
          2   -1    0    0  501    0 -0.00000000000E+00 -0.00000000000E+00 -0.10183020701E+02  0.10183021020E+02  0.25500000000E-02 0. -1.
         11    1    1    2    0    0  0.45273571125E+02 -0.38219420959E+02  0.11482079953E+03  0.12920617782E+03  0.51100000000E-03 0. -1.
         22    1    1    2    0    0  0.19392598032E+02 -0.60153164654E+01  0.10058251539E+03  0.10261139943E+03  0.00000000000E+00 0.  1.
          2    1    1    2  501    0 -0.64666169157E+02  0.44234737424E+02  0.77469011556E+03  0.77864189496E+03  0.25500000000E-02 0. -1.
<mgrwt>
<rscale>  0 0.78348104E+02</rscale>
<asrwt>0</asrwt>
<pdfrwt beam="1">  1       11 0.10000000E+01 0.85678475E+02</pdfrwt>
<pdfrwt beam="2">  1        2 0.15670516E-02 0.78348104E+02</pdfrwt>
<totfact> 0.81013074E+03</totfact>
</mgrwt>
</event>
<event>
 5    1  0.2968854E-003  0.2597471E+03  0.7818608E-02  0.1107295E+00
         11   -1    0    0    0    0  0.00000000000E+00  0.00000000000E+00  0.10002386512E+04  0.10002386512E+04  0.51100000000E-03 0.  1.
          2   -1    0    0  501    0 -0.00000000000E+00 -0.00000000000E+00 -0.98782434172E+03  0.98782434172E+03  0.25500000000E-02 0.  1.
         11    1    1    2    0    0  0.23174212458E+02  0.18720350880E+03  0.74593042995E+02  0.20284555675E+03  0.51100000000E-03 0.  1.
         22    1    1    2    0    0 -0.20303875508E+03  0.38063268827E+01  0.83040356826E+03  0.85487385641E+03  0.00000000000E+00 0.  1.
          2    1    1    2  501    0  0.17986454262E+03 -0.19100983568E+03 -0.89258230175E+03  0.93034357978E+03  0.25500000000E-02 0.  1.
<mgrwt>
<rscale>  0 0.25974706E+03</rscale>
<asrwt>0</asrwt>
<pdfrwt beam="1">  1       11 0.10000000E+01 0.18863244E+03</pdfrwt>
<pdfrwt beam="2">  1        2 0.15200924E+00 0.25974706E+03</pdfrwt>
<totfact> 0.33474151E+01</totfact>
</mgrwt>
</event>
<event>
 5    1  0.2968854E-003  0.8487681E+02  0.7818608E-02  0.1346383E+00
         11   -1    0    0    0    0  0.00000000000E+00  0.00000000000E+00  0.10001811205E+04  0.10001811205E+04  0.51100000000E-03 0.  1.
          2   -1    0    0  501    0 -0.00000000000E+00 -0.00000000000E+00 -0.63542212163E+01  0.63542217279E+01  0.25500000000E-02 0.  1.
         11    1    1    2    0    0  0.96367727338E+01 -0.34804215328E+02  0.21385864098E+03  0.21688641985E+03  0.51100000000E-03 0.  1.
         22    1    1    2    0    0  0.46937429590E+02 -0.13197887874E+02  0.28209243372E+03  0.28627512589E+03  0.00000000000E+00 0.  1.
          2    1    1    2  501    0 -0.56574202324E+02  0.48002103202E+02  0.49787582462E+03  0.50337379653E+03  0.25500000000E-02 0.  1.
<mgrwt>
<rscale>  0 0.74194624E+02</rscale>
<asrwt>0</asrwt>
<pdfrwt beam="1">  1       11 0.10000000E+01 0.84876808E+02</pdfrwt>
<pdfrwt beam="2">  1        2 0.97774956E-03 0.74194624E+02</pdfrwt>
<totfact> 0.15232463E+04</totfact>
</mgrwt>
</event>
<event>
 5    1  0.2968854E-003  0.1601225E+03  0.7818608E-02  0.1197107E+00
         11   -1    0    0    0    0  0.00000000000E+00  0.00000000000E+00  0.99995338263E+03  0.99995338263E+03  0.51100000000E-03 0. -1.
          2   -1    0    0  501    0 -0.00000000000E+00 -0.00000000000E+00 -0.24483529446E+02  0.24483529579E+02  0.25500000000E-02 0. -1.
         11    1    1    2    0    0 -0.50451153835E+02 -0.12210476102E+03  0.37747445232E+03  0.39992731057E+03  0.51100000000E-03 0. -1.
         22    1    1    2    0    0 -0.19914485335E+02 -0.13498420348E+02  0.13006916166E+03  0.13227539792E+03  0.00000000000E+00 0. -1.
          2    1    1    2  501    0  0.70365639169E+02  0.13560318137E+03  0.46792623921E+03  0.49223420372E+03  0.25500000000E-02 0. -1.
<mgrwt>
<rscale>  0 0.15277286E+03</rscale>
<asrwt>0</asrwt>
<pdfrwt beam="1">  1       11 0.10000000E+01 0.16012246E+03</pdfrwt>
<pdfrwt beam="2">  1        2 0.37665211E-02 0.15277286E+03</pdfrwt>
<totfact> 0.26907259E+03</totfact>
</mgrwt>
</event>
<event>
 5    1  0.2968854E-003  0.5204902E+02  0.7818608E-02  0.1601719E+00
         11   -1    0    0    0    0  0.00000000000E+00  0.00000000000E+00  0.99958924995E+03  0.99958924995E+03  0.51100000000E-03 0.  1.
         -2   -1    0    0    0  501 -0.00000000000E+00 -0.00000000000E+00 -0.78812929001E+01  0.78812933126E+01  0.25500000000E-02 0.  1.
         11    1    1    2    0    0 -0.58411873093E+02  0.98027984099E+01  0.34235357071E+03  0.34743921648E+03  0.51100000000E-03 0.  1.
         22    1    1    2    0    0  0.88016843036E+01 -0.14447914609E+02  0.12022342916E+02  0.20754484150E+02  0.00000000000E+00 0.  1.
         -2    1    1    2    0  501  0.49610188790E+02  0.46451161992E+01  0.63733204343E+03  0.63927684263E+03  0.25500000000E-02 0.  1.
<mgrwt>
<rscale>  0 0.29674137E+02</rscale>
<asrwt>0</asrwt>
<pdfrwt beam="1">  1       11 0.10000000E+01 0.52049023E+02</pdfrwt>
<pdfrwt beam="2">  1       -2 0.12120086E-02 0.29674137E+02</pdfrwt>
<totfact> 0.90710186E+03</totfact>
</mgrwt>
</event>
<event>
 5    1  0.2968854E-003  0.1619009E+03  0.7818608E-02  0.1360355E+00
         11   -1    0    0    0    0  0.00000000000E+00  0.00000000000E+00  0.99981793139E+03  0.99981793139E+03  0.51100000000E-03 0. -1.
          2   -1    0    0  501    0 -0.00000000000E+00 -0.00000000000E+00 -0.95397745606E+02  0.95397745640E+02  0.25500000000E-02 0. -1.
         11    1    1    2    0    0 -0.10747381469E+03  0.11413396163E+03  0.29404896028E+03  0.33322961015E+03  0.51100000000E-03 0. -1.
         22    1    1    2    0    0  0.15701674709E+03 -0.64790977577E+02  0.65656562852E+03  0.67818180026E+03  0.00000000000E+00 0. -1.
          2    1    1    2  501    0 -0.49542932397E+02 -0.49342984048E+02 -0.46194403026E+02  0.83804266614E+02  0.25500000000E-02 0. -1.
<mgrwt>
<rscale>  0 0.69923045E+02</rscale>
<asrwt>0</asrwt>
<pdfrwt beam="1">  1       11 0.10000000E+01 0.16190088E+03</pdfrwt>
<pdfrwt beam="2">  1        2 0.14673904E-01 0.69923045E+02</pdfrwt>
<totfact> 0.46502664E+02</totfact>
</mgrwt>
</event>
<event>
 5    1  0.2968854E-003  0.5239731E+02  0.7818608E-02  0.1432824E+00
         11   -1    0    0    0    0  0.00000000000E+00  0.00000000000E+00  0.10002704263E+04  0.10002704263E+04  0.51100000000E-03 0. -1.
          2   -1    0    0  501    0 -0.00000000000E+00 -0.00000000000E+00 -0.75447151887E+01  0.75447156196E+01  0.25500000000E-02 0. -1.
         11    1    1    2    0    0 -0.35281009257E+02  0.37433332802E+02  0.10524047638E+03  0.11713907071E+03  0.51100000000E-03 0. -1.
         22    1    1    2    0    0 -0.11924267550E+02 -0.37546825422E+00  0.71644760701E+02  0.72631266469E+02  0.00000000000E+00 0. -1.
          2    1    1    2  501    0  0.47205276807E+02 -0.37057864547E+02  0.81584047401E+03  0.81804480471E+03  0.25500000000E-02 0. -1.
<mgrwt>
<rscale>  0 0.52397314E+02</rscale>
<asrwt>0</asrwt>
<pdfrwt beam="1">  1       11 0.10000000E+01 0.11930177E+02</pdfrwt>
<pdfrwt beam="2">  1        2 0.11610393E-02 0.52397314E+02</pdfrwt>
<totfact> 0.11379929E+04</totfact>
</mgrwt>
</event>
<event>
 5    1  0.2968854E-003  0.2259221E+03  0.7818608E-02  0.1135300E+00
         11   -1    0    0    0    0  0.00000000000E+00  0.00000000000E+00  0.10003847831E+04  0.10003847831E+04  0.51100000000E-03 0. -1.
          2   -1    0    0  501    0 -0.00000000000E+00 -0.00000000000E+00 -0.76260859679E+02  0.76260859722E+02  0.25500000000E-02 0. -1.
         11    1    1    2    0    0  0.20199894714E+03  0.81957284152E+01  0.75955748315E+03  0.78600147253E+03  0.51100000000E-03 0. -1.
         22    1    1    2    0    0  0.16111282460E+02 -0.81487127876E+01  0.27969701055E+02  0.33290826360E+02  0.00000000000E+00 0.  1.
          2    1    1    2  501    0 -0.21811022960E+03 -0.47015627695E-01  0.13659673924E+03  0.25735334396E+03  0.25500000000E-02 0. -1.
<mgrwt>
<rscale>  0 0.21811023E+03</rscale>
<asrwt>0</asrwt>
<pdfrwt beam="1">  1       11 0.10000000E+01 0.22592212E+03</pdfrwt>
<pdfrwt beam="2">  1        2 0.11736954E-01 0.21811023E+03</pdfrwt>
<totfact> 0.64040560E+02</totfact>
</mgrwt>
</event>
<event>
 5    1  0.2968854E-003  0.6508624E+02  0.7818608E-02  0.1398724E+00
         11   -1    0    0    0    0  0.00000000000E+00  0.00000000000E+00  0.10002458581E+04  0.10002458581E+04  0.51100000000E-03 0. -1.
          2   -1    0    0  501    0 -0.00000000000E+00 -0.00000000000E+00 -0.10614150557E+02  0.10614150863E+02  0.25500000000E-02 0. -1.
         11    1    1    2    0    0  0.10849001436E+02  0.57754052038E+02  0.30765397222E+03  0.31321589675E+03  0.51100000000E-03 0. -1.
         22    1    1    2    0    0 -0.53479372406E+02  0.12501164971E+02  0.15827242716E+03  0.16753054526E+03  0.00000000000E+00 0. -1.
          2    1    1    2  501    0  0.42630370970E+02 -0.70255217010E+02  0.52370530820E+03  0.53011356698E+03  0.25500000000E-02 0. -1.
<mgrwt>
<rscale>  0 0.59788002E+02</rscale>
<asrwt>0</asrwt>
<pdfrwt beam="1">  1       11 0.10000000E+01 0.65086243E+02</pdfrwt>
<pdfrwt beam="2">  1        2 0.16333477E-02 0.59788002E+02</pdfrwt>
<totfact> 0.73600951E+03</totfact>
</mgrwt>
</event>
<event>
 5    1  0.2968854E-003  0.2502502E+03  0.7818608E-02  0.1120675E+00
         11   -1    0    0    0    0  0.00000000000E+00  0.00000000000E+00  0.10001948435E+04  0.10001948435E+04  0.51100000000E-03 0. -1.
          2   -1    0    0  501    0 -0.00000000000E+00 -0.00000000000E+00 -0.66733419289E+02  0.66733419338E+02  0.25500000000E-02 0. -1.
         11    1    1    2    0    0  0.11915256525E+03 -0.93700942346E+02  0.30351642636E+03  0.33926305645E+03  0.51100000000E-03 0. -1.
         22    1    1    2    0    0  0.70975369770E+02 -0.50589316294E+02  0.34561091465E+03  0.35643188180E+03  0.00000000000E+00 0. -1.
          2    1    1    2  501    0 -0.19012793502E+03  0.14429025864E+03  0.28433408323E+03  0.37123332461E+03  0.25500000000E-02 0. -1.
<mgrwt>
<rscale>  0 0.23868035E+03</rscale>
<asrwt>0</asrwt>
<pdfrwt beam="1">  1       11 0.10000000E+01 0.25025016E+03</pdfrwt>
<pdfrwt beam="2">  1        2 0.10268680E-01 0.23868035E+03</pdfrwt>
<totfact> 0.75817438E+02</totfact>
</mgrwt>
</event>
<event>
 5    1  0.2968854E-003  0.1234236E+03  0.7818608E-02  0.1237554E+00
         11   -1    0    0    0    0  0.00000000000E+00  0.00000000000E+00  0.99992382630E+03  0.99992382630E+03  0.51100000000E-03 0.  1.
          2   -1    0    0  501    0 -0.00000000000E+00 -0.00000000000E+00 -0.15192402454E+02  0.15192402668E+02  0.25500000000E-02 0.  1.
         11    1    1    2    0    0 -0.98890164085E+02 -0.62012703723E+02  0.59380834802E+03  0.60517203683E+03  0.51100000000E-03 0.  1.
         22    1    1    2    0    0  0.79780337286E+02  0.28594084841E+02  0.27878607868E+03  0.29138325547E+03  0.00000000000E+00 0.  1.
          2    1    1    2  501    0  0.19109826799E+02  0.33418618882E+02  0.11213699715E+03  0.11856093667E+03  0.25500000000E-02 0.  1.
<mgrwt>
<rscale>  0 0.12342362E+03</rscale>
<asrwt>0</asrwt>
<pdfrwt beam="1">  1       11 0.10000000E+01 0.11672549E+03</pdfrwt>
<pdfrwt beam="2">  1        2 0.23371146E-02 0.12342362E+03</pdfrwt>
<totfact> 0.50014994E+03</totfact>
</mgrwt>
</event>
<event>
 5    1  0.2968854E-003  0.1439502E+03  0.7818608E-02  0.1734720E+00
         11   -1    0    0    0    0  0.00000000000E+00  0.00000000000E+00  0.10002836224E+04  0.10002836224E+04  0.51100000000E-03 0. -1.
         -2   -1    0    0    0  501 -0.00000000000E+00 -0.00000000000E+00 -0.56087708893E+02  0.56087708951E+02  0.25500000000E-02 0. -1.
         11    1    1    2    0    0 -0.15682873624E+03  0.26171285701E+00  0.37024008991E+03  0.40208586792E+03  0.51100000000E-03 0. -1.
         22    1    1    2    0    0  0.13754056734E+03 -0.73346418950E+01  0.60309999726E+03  0.61862816888E+03  0.00000000000E+00 0. -1.
         -2    1    1    2    0  501  0.19288168901E+02  0.70729290380E+01 -0.29144173702E+02  0.35657294513E+02  0.25500000000E-02 0. -1.
<mgrwt>
<rscale>  0 0.20544094E+02</rscale>
<asrwt>0</asrwt>
<pdfrwt beam="1">  1       11 0.10000000E+01 0.14395025E+03</pdfrwt>
<pdfrwt beam="2">  1       -2 0.86313254E-02 0.20544094E+02</pdfrwt>
<totfact> 0.54300826E+02</totfact>
</mgrwt>
</event>
<event>
 5    1  0.2968854E-003  0.6685335E+02  0.7818608E-02  0.1374217E+00
         11   -1    0    0    0    0  0.00000000000E+00  0.00000000000E+00  0.10003122392E+04  0.10003122392E+04  0.51100000000E-03 0. -1.
          2   -1    0    0  501    0 -0.00000000000E+00 -0.00000000000E+00 -0.69942772469E+01  0.69942777117E+01  0.25500000000E-02 0. -1.
         11    1    1    2    0    0  0.54686850887E+02 -0.11420470832E+02  0.15874954134E+03  0.16829288663E+03  0.51100000000E-03 0. -1.
         22    1    1    2    0    0  0.10698504404E+02  0.23699467666E+01  0.33859098816E+02  0.35588104990E+02  0.00000000000E+00 0. -1.
          2    1    1    2  501    0 -0.65385355291E+02  0.90505240656E+01  0.80070932176E+03  0.80342552526E+03  0.25500000000E-02 0. -1.
<mgrwt>
<rscale>  0 0.66008762E+02</rscale>
<asrwt>0</asrwt>
<pdfrwt beam="1">  1       11 0.10000000E+01 0.66853351E+02</pdfrwt>
<pdfrwt beam="2">  1        2 0.10763786E-02 0.66008762E+02</pdfrwt>
<totfact> 0.13109768E+04</totfact>
</mgrwt>
</event>
<event>
 5    1  0.2968854E-003  0.3520705E+03  0.7818608E-02  0.1068837E+00
         11   -1    0    0    0    0  0.00000000000E+00  0.00000000000E+00  0.10005594255E+04  0.10005594255E+04  0.51100000000E-03 0.  1.
          2   -1    0    0  501    0 -0.00000000000E+00 -0.00000000000E+00 -0.26613717276E+04  0.26613717276E+04  0.25500000000E-02 0.  1.
         11    1    1    2    0    0 -0.25615516706E+03  0.71408842972E+02  0.73313357027E+03  0.77987147936E+03  0.51100000000E-03 0.  1.
         22    1    1    2    0    0 -0.77393398959E+02 -0.37667343101E+02  0.22543702518E+03  0.24130979934E+03  0.00000000000E+00 0. -1.
          2    1    1    2  501    0  0.33354856602E+03 -0.33741499871E+02 -0.26193828976E+04  0.26407498743E+04  0.25500000000E-02 0.  1.
<mgrwt>
<rscale>  0 0.33525085E+03</rscale>
<asrwt>0</asrwt>
<pdfrwt beam="1">  1       11 0.10000000E+01 0.35207047E+03</pdfrwt>
<pdfrwt beam="2">  1        2 0.40967084E+00 0.33525085E+03</pdfrwt>
<totfact> 0.39771945E+00</totfact>
</mgrwt>
</event>
<event>
 5    1  0.2968854E-003  0.6402321E+02  0.7818608E-02  0.1381684E+00
         11   -1    0    0    0    0  0.00000000000E+00  0.00000000000E+00  0.10000666751E+04  0.10000666751E+04  0.51100000000E-03 0. -1.
          2   -1    0    0  501    0 -0.00000000000E+00 -0.00000000000E+00 -0.97978683624E+01  0.97978686943E+01  0.25500000000E-02 0. -1.
         11    1    1    2    0    0 -0.47680841083E+01 -0.15719953378E+02  0.10835392236E+02  0.19678853764E+02  0.51100000000E-03 0. -1.
         22    1    1    2    0    0  0.30630851905E+02 -0.52688630739E+02  0.26013477148E+03  0.26717866725E+03  0.00000000000E+00 0. -1.
          2    1    1    2  501    0 -0.25862767797E+02  0.68408584118E+02  0.71929864306E+03  0.72300702283E+03  0.25500000000E-02 0. -1.
<mgrwt>
<rscale>  0 0.64023210E+02</rscale>
<asrwt>0</asrwt>
<pdfrwt beam="1">  1       11 0.10000000E+01 0.16427167E+02</pdfrwt>
<pdfrwt beam="2">  1        2 0.15074648E-02 0.64023210E+02</pdfrwt>
<totfact> 0.82822704E+03</totfact>
</mgrwt>
</event>
<event>
 5    1  0.2968854E-003  0.5685854E+02  0.7818608E-02  0.1411509E+00
         11   -1    0    0    0    0  0.00000000000E+00  0.00000000000E+00  0.10003390854E+04  0.10003390854E+04  0.51100000000E-03 0. -1.
          2   -1    0    0  501    0 -0.00000000000E+00 -0.00000000000E+00 -0.73251525354E+01  0.73251529792E+01  0.25500000000E-02 0. -1.
         11    1    1    2    0    0 -0.46953953587E+01 -0.18009556347E+02  0.29257809310E+02  0.34675787854E+02  0.51100000000E-03 0. -1.
         22    1    1    2    0    0 -0.53721675521E+02 -0.10527071044E+02  0.23294284279E+03  0.23928895848E+03  0.00000000000E+00 0. -1.
          2    1    1    2  501    0  0.58417070880E+02  0.28536627391E+02  0.73081328078E+03  0.73369949206E+03  0.25500000000E-02 0. -1.
<mgrwt>
<rscale>  0 0.56858536E+02</rscale>
<asrwt>0</asrwt>
<pdfrwt beam="1">  1       11 0.10000000E+01 0.18611588E+02</pdfrwt>
<pdfrwt beam="2">  1        2 0.11273287E-02 0.56858536E+02</pdfrwt>
<totfact> 0.12007735E+04</totfact>
</mgrwt>
</event>
<event>
 5    1  0.2968854E-003  0.8641982E+02  0.7818608E-02  0.1436691E+00
         11   -1    0    0    0    0  0.00000000000E+00  0.00000000000E+00  0.10003212707E+04  0.10003212707E+04  0.51100000000E-03 0. -1.
          2   -1    0    0  501    0 -0.00000000000E+00 -0.00000000000E+00 -0.11198858929E+02  0.11198859219E+02  0.25500000000E-02 0.  1.
         11    1    1    2    0    0 -0.57743164111E+02 -0.50583832375E+02  0.33923331051E+03  0.34781063247E+03  0.51100000000E-03 0. -1.
         22    1    1    2    0    0  0.41613243970E+01 -0.30575690694E+02  0.83239442461E+02  0.88774964169E+02  0.00000000000E+00 0.  1.
          2    1    1    2  501    0  0.53581839714E+02  0.81159523069E+02  0.56664965876E+03  0.57493453324E+03  0.25500000000E-02 0.  1.
<mgrwt>
<rscale>  0 0.51640139E+02</rscale>
<asrwt>0</asrwt>
<pdfrwt beam="1">  1       11 0.10000000E+01 0.86419817E+02</pdfrwt>
<pdfrwt beam="2">  1        2 0.17234549E-02 0.51640139E+02</pdfrwt>
<totfact> 0.66984047E+03</totfact>
</mgrwt>
</event>
<event>
 5    1  0.2968854E-003  0.9613452E+02  0.7818608E-02  0.1312834E+00
         11   -1    0    0    0    0  0.00000000000E+00  0.00000000000E+00  0.10000479077E+04  0.10000479077E+04  0.51100000000E-03 0. -1.
          2   -1    0    0  501    0 -0.00000000000E+00 -0.00000000000E+00 -0.87459235614E+01  0.87459239331E+01  0.25500000000E-02 0. -1.
         11    1    1    2    0    0 -0.91786489407E+01  0.41289672139E+02  0.13565778650E+03  0.14209897839E+03  0.51100000000E-03 0. -1.
         22    1    1    2    0    0 -0.43486450222E+02  0.26700187378E+02  0.27152159036E+03  0.27627512626E+03  0.00000000000E+00 0. -1.
          2    1    1    2  501    0  0.52665099162E+02 -0.67989859517E+02  0.58412260726E+03  0.59041972696E+03  0.25500000000E-02 0. -1.
<mgrwt>
<rscale>  0 0.86001359E+02</rscale>
<asrwt>0</asrwt>
<pdfrwt beam="1">  1       11 0.10000000E+01 0.96134523E+02</pdfrwt>
<pdfrwt beam="2">  1        2 0.13455912E-02 0.86001359E+02</pdfrwt>
<totfact> 0.10096533E+04</totfact>
</mgrwt>
</event>
<event>
 5    1  0.2968854E-003  0.2340919E+03  0.7818608E-02  0.1128331E+00
         11   -1    0    0    0    0  0.00000000000E+00  0.00000000000E+00  0.10000840850E+04  0.10000840850E+04  0.51100000000E-03 0. -1.
          2   -1    0    0  501    0 -0.00000000000E+00 -0.00000000000E+00 -0.89623407025E+03  0.89623407025E+03  0.25500000000E-02 0. -1.
         11    1    1    2    0    0 -0.51948730138E+02  0.10373826609E+03  0.40383998733E+03  0.42017500376E+03  0.51100000000E-03 0. -1.
         22    1    1    2    0    0 -0.15573972783E+02  0.11362896650E+03  0.56766219123E+03  0.57913250126E+03  0.00000000000E+00 0. -1.
          2    1    1    2  501    0  0.67522702922E+02 -0.21736723259E+03 -0.86765216383E+03  0.89701065022E+03  0.25500000000E-02 0. -1.
<mgrwt>
<rscale>  0 0.22761333E+03</rscale>
<asrwt>0</asrwt>
<pdfrwt beam="1">  1       11 0.10000000E+01 0.23409188E+03</pdfrwt>
<pdfrwt beam="2">  1        2 0.13789375E+00 0.22761333E+03</pdfrwt>
<totfact> 0.38473281E+01</totfact>
</mgrwt>
</event>
<event>
 5    1  0.2968854E-003  0.3801409E+03  0.7818608E-02  0.1494914E+00
         11   -1    0    0    0    0  0.00000000000E+00  0.00000000000E+00  0.99980445847E+03  0.99980445847E+03  0.51100000000E-03 0.  1.
          2   -1    0    0  501    0 -0.00000000000E+00 -0.00000000000E+00 -0.13717275381E+04  0.13717275381E+04  0.25500000000E-02 0. -1.
         11    1    1    2    0    0 -0.16907496647E+03 -0.35523641083E+03  0.67291082029E+03  0.77947945703E+03  0.51100000000E-03 0.  1.
         22    1    1    2    0    0  0.14645753840E+03  0.32000590002E+03  0.15992867760E+03  0.38656276142E+03  0.00000000000E+00 0.  1.
          2    1    1    2  501    0  0.22617428071E+02  0.35230510810E+02 -0.12047625775E+04  0.12054897781E+04  0.25500000000E-02 0. -1.
<mgrwt>
<rscale>  0 0.41865701E+02</rscale>
<asrwt>0</asrwt>
<pdfrwt beam="1">  1       11 0.10000000E+01 0.38014091E+03</pdfrwt>
<pdfrwt beam="2">  1        2 0.21099373E+00 0.41865701E+02</pdfrwt>
<totfact> 0.23026519E+01</totfact>
</mgrwt>
</event>
<event>
 5    1  0.2968854E-003  0.2362566E+03  0.7818608E-02  0.1133490E+00
         11   -1    0    0    0    0  0.00000000000E+00  0.00000000000E+00  0.10004425859E+04  0.10004425859E+04  0.51100000000E-03 0. -1.
          2   -1    0    0  501    0 -0.00000000000E+00 -0.00000000000E+00 -0.97247860863E+02  0.97247860897E+02  0.25500000000E-02 0. -1.
         11    1    1    2    0    0 -0.48881561457E+02 -0.12747699440E+03  0.46647038691E+03  0.48603951796E+03  0.51100000000E-03 0. -1.
         22    1    1    2    0    0  0.36367131559E+02 -0.92695482584E+02  0.36714285259E+03  0.38040622361E+03  0.00000000000E+00 0. -1.
          2    1    1    2  501    0  0.12514429898E+02  0.22017247699E+03  0.69581485582E+02  0.23124470528E+03  0.25500000000E-02 0. -1.
<mgrwt>
<rscale>  0 0.22052785E+03</rscale>
<asrwt>0</asrwt>
<pdfrwt beam="1">  1       11 0.10000000E+01 0.23625662E+03</pdfrwt>
<pdfrwt beam="2">  1        2 0.14967831E-01 0.22052785E+03</pdfrwt>
<totfact> 0.47809659E+02</totfact>
</mgrwt>
</event>
<event>
 5    1  0.2968854E-003  0.2218687E+03  0.7818608E-02  0.1568094E+00
         11   -1    0    0    0    0  0.00000000000E+00  0.00000000000E+00  0.10000367584E+04  0.10000367584E+04  0.51100000000E-03 0.  1.
          2   -1    0    0  501    0 -0.00000000000E+00 -0.00000000000E+00 -0.59699059673E+03  0.59699059674E+03  0.25500000000E-02 0.  1.
         11    1    1    2    0    0  0.20075490067E+03  0.10752123762E+03  0.74880508660E+03  0.78267004823E+03  0.51100000000E-03 0.  1.
         22    1    1    2    0    0 -0.19276329138E+03 -0.75607984749E+02  0.18794624234E+03  0.27963913151E+03  0.00000000000E+00 0.  1.
          2    1    1    2  501    0 -0.79916092818E+01 -0.31913252868E+02 -0.53370516727E+03  0.53471817540E+03  0.25500000000E-02 0.  1.
<mgrwt>
<rscale>  0 0.32898656E+02</rscale>
<asrwt>0</asrwt>
<pdfrwt beam="1">  1       11 0.10000000E+01 0.22186868E+03</pdfrwt>
<pdfrwt beam="2">  1        2 0.91848081E-01 0.32898656E+02</pdfrwt>
<totfact> 0.66278845E+01</totfact>
</mgrwt>
</event>
<event>
 5    1  0.5507809E-003  0.3391322E+03  0.7818608E-02  0.1068956E+00
         11   -1    0    0    0    0  0.00000000000E+00  0.00000000000E+00  0.10004694821E+04  0.10004694821E+04  0.51100000000E-03 0. -1.
          2   -1    0    0  501    0 -0.00000000000E+00 -0.00000000000E+00 -0.85754527039E+03  0.85754527039E+03  0.25500000000E-02 0.  1.
         11    1    1    2    0    0 -0.24889673931E+03  0.20169207675E+03  0.85293556270E+03  0.91111379903E+03  0.51100000000E-03 0. -1.
         22    1    1    2    0    0 -0.13248432253E+02  0.68492217495E+01  0.83899212736E+02  0.85214498142E+02  0.00000000000E+00 0.  1.
          2    1    1    2  501    0  0.26214517156E+03 -0.20854129850E+03 -0.79391056371E+03  0.86168645534E+03  0.25500000000E-02 0.  1.
<mgrwt>
<rscale>  0 0.33497696E+03</rscale>
<asrwt>0</asrwt>
<pdfrwt beam="1">  1       11 0.10000000E+01 0.33913224E+03</pdfrwt>
<pdfrwt beam="2">  1        2 0.13199198E+00 0.33497696E+03</pdfrwt>
<totfact> 0.40140568E+01</totfact>
</mgrwt>
</event>
<event>
 5    1  0.2968854E-003  0.1575992E+03  0.7818608E-02  0.1194163E+00
         11   -1    0    0    0    0  0.00000000000E+00  0.00000000000E+00  0.10002100051E+04  0.10002100051E+04  0.51100000000E-03 0.  1.
          2   -1    0    0  501    0 -0.00000000000E+00 -0.00000000000E+00 -0.26242892324E+02  0.26242892448E+02  0.25500000000E-02 0.  1.
         11    1    1    2    0    0  0.10014430591E+02  0.14543088176E+03  0.34299444817E+03  0.37268702911E+03  0.51100000000E-03 0.  1.
         22    1    1    2    0    0 -0.40865289470E+01  0.97089829662E+01  0.13775105889E+02  0.17341211357E+02  0.00000000000E+00 0. -1.
          2    1    1    2  501    0 -0.59279016444E+01 -0.15513986473E+03  0.61719755868E+03  0.63642465704E+03  0.25500000000E-02 0.  1.
<mgrwt>
<rscale>  0 0.15525308E+03</rscale>
<asrwt>0</asrwt>
<pdfrwt beam="1">  1       11 0.10000000E+01 0.15759922E+03</pdfrwt>
<pdfrwt beam="2">  1        2 0.40382158E-02 0.15525308E+03</pdfrwt>
<totfact> 0.24560513E+03</totfact>
</mgrwt>
</event>
<event>
 5    1  0.2968854E-003  0.2668332E+03  0.7818608E-02  0.1674564E+00
         11   -1    0    0    0    0  0.00000000000E+00  0.00000000000E+00  0.10002032306E+04  0.10002032306E+04  0.51100000000E-03 0. -1.
          2   -1    0    0  501    0 -0.00000000000E+00 -0.00000000000E+00 -0.34563918665E+03  0.34563918665E+03  0.25500000000E-02 0. -1.
         11    1    1    2    0    0  0.55279880429E+02  0.25354089834E+03  0.42506414197E+03  0.49801443463E+03  0.51100000000E-03 0. -1.
         22    1    1    2    0    0 -0.39112044728E+02 -0.27138731009E+03  0.50320875715E+03  0.57306184430E+03  0.00000000000E+00 0. -1.
          2    1    1    2  501    0 -0.16167835701E+02  0.17846411748E+02 -0.27370885520E+03  0.27476613828E+03  0.25500000000E-02 0. -1.
<mgrwt>
<rscale>  0 0.24080974E+02</rscale>
<asrwt>0</asrwt>
<pdfrwt beam="1">  1       11 0.10000000E+01 0.26683323E+03</pdfrwt>
<pdfrwt beam="2">  1        2 0.53186065E-01 0.24080974E+02</pdfrwt>
<totfact> 0.11552890E+02</totfact>
</mgrwt>
</event>
<event>
 5    1  0.2968854E-003  0.8285371E+02  0.7818608E-02  0.1321143E+00
         11   -1    0    0    0    0  0.00000000000E+00  0.00000000000E+00  0.99980988283E+03  0.99980988283E+03  0.51100000000E-03 0. -1.
          2   -1    0    0  501    0 -0.00000000000E+00 -0.00000000000E+00 -0.90548657754E+01  0.90548661344E+01  0.25500000000E-02 0.  1.
         11    1    1    2    0    0 -0.15331250997E+02  0.12820593868E+02  0.72975227591E+02  0.75662399687E+02  0.51100000000E-03 0. -1.
         22    1    1    2    0    0 -0.68101955325E+02 -0.41522127493E+02  0.38629756437E+03  0.39444615808E+03  0.00000000000E+00 0. -1.
          2    1    1    2  501    0  0.83433206322E+02  0.28701533625E+02  0.53148222510E+03  0.53875619119E+03  0.25500000000E-02 0.  1.
<mgrwt>
<rscale>  0 0.82853709E+02</rscale>
<asrwt>0</asrwt>
<pdfrwt beam="1">  1       11 0.10000000E+01 0.19985377E+02</pdfrwt>
<pdfrwt beam="2">  1        2 0.13927914E-02 0.82853709E+02</pdfrwt>
<totfact> 0.95814907E+03</totfact>
</mgrwt>
</event>
<event>
 5    1  0.2968854E-003  0.4684833E+02  0.7818608E-02  0.1584006E+00
         11   -1    0    0    0    0  0.00000000000E+00  0.00000000000E+00  0.10003467697E+04  0.10003467697E+04  0.51100000000E-03 0. -1.
          2   -1    0    0  501    0 -0.00000000000E+00 -0.00000000000E+00 -0.82195351390E+01  0.82195355346E+01  0.25500000000E-02 0. -1.
         11    1    1    2    0    0  0.23608432429E+02 -0.58644342742E+02  0.16340117134E+03  0.17520405193E+03  0.51100000000E-03 0. -1.
         22    1    1    2    0    0 -0.15286572569E+02  0.14296720128E+02  0.64620181556E+02  0.67925277855E+02  0.00000000000E+00 0. -1.
          2    1    1    2  501    0 -0.83218598603E+01  0.44347622614E+02  0.76410588164E+03  0.76543697543E+03  0.25500000000E-02 0. -1.
<mgrwt>
<rscale>  0 0.31313685E+02</rscale>
<asrwt>0</asrwt>
<pdfrwt beam="1">  1       11 0.10000000E+01 0.46848327E+02</pdfrwt>
<pdfrwt beam="2">  1        2 0.12649824E-02 0.31313685E+02</pdfrwt>
<totfact> 0.92358466E+03</totfact>
</mgrwt>
</event>
<event>
 5    1  0.2968854E-003  0.3593841E+02  0.7818608E-02  0.1569877E+00
         11   -1    0    0    0    0  0.00000000000E+00  0.00000000000E+00  0.10005659204E+04  0.10005659204E+04  0.51100000000E-03 0.  1.
          2   -1    0    0  501    0 -0.00000000000E+00 -0.00000000000E+00 -0.39934938023E+01  0.39934946164E+01  0.25500000000E-02 0.  1.
         11    1    1    2    0    0  0.30476147664E+02  0.18654529210E+02  0.16737015867E+03  0.17114192078E+03  0.51100000000E-03 0.  1.
         22    1    1    2    0    0 -0.22754569596E+02  0.19213825204E+02  0.14000597405E+03  0.14313844447E+03  0.00000000000E+00 0.  1.
          2    1    1    2  501    0 -0.77215780671E+01 -0.37868354415E+02  0.68919629384E+03  0.69027904972E+03  0.25500000000E-02 0.  1.
<mgrwt>
<rscale>  0 0.32715461E+02</rscale>
<asrwt>0</asrwt>
<pdfrwt beam="1">  1       11 0.10000000E+01 0.35938406E+02</pdfrwt>
<pdfrwt beam="2">  1        2 0.61473140E-03 0.32715461E+02</pdfrwt>
<totfact> 0.24210340E+04</totfact>
</mgrwt>
</event>
<event>
 5    1  0.2968854E-003  0.1987495E+03  0.7818608E-02  0.1163471E+00
         11   -1    0    0    0    0  0.00000000000E+00  0.00000000000E+00  0.10000839583E+04  0.10000839583E+04  0.51100000000E-03 0.  1.
          2   -1    0    0  501    0 -0.00000000000E+00 -0.00000000000E+00 -0.58892119781E+02  0.58892119836E+02  0.25500000000E-02 0.  1.
         11    1    1    2    0    0 -0.82251193031E+02  0.11475357236E+01  0.45305547389E+03  0.46046263477E+03  0.51100000000E-03 0.  1.
         22    1    1    2    0    0 -0.91527409760E+02  0.60979128719E+02  0.35311134963E+03  0.36984232602E+03  0.00000000000E+00 0.  1.
          2    1    1    2  501    0  0.17377860279E+03 -0.62126664442E+02  0.13502501497E+03  0.22867111732E+03  0.25500000000E-02 0.  1.
<mgrwt>
<rscale>  0 0.18455006E+03</rscale>
<asrwt>0</asrwt>
<pdfrwt beam="1">  1       11 0.10000000E+01 0.19874954E+03</pdfrwt>
<pdfrwt beam="2">  1        2 0.90610866E-02 0.18455006E+03</pdfrwt>
<totfact> 0.87441194E+02</totfact>
</mgrwt>
</event>
<event>
 5    1  0.2968854E-003  0.1568784E+03  0.7818608E-02  0.1457484E+00
         11   -1    0    0    0    0  0.00000000000E+00  0.00000000000E+00  0.10000721408E+04  0.10000721408E+04  0.51100000000E-03 0. -1.
          2   -1    0    0  501    0 -0.00000000000E+00 -0.00000000000E+00 -0.28106822454E+02  0.28106822570E+02  0.25500000000E-02 0. -1.
         11    1    1    2    0    0 -0.96276377682E+02 -0.12414923834E+03  0.37986669022E+03  0.41107283615E+03  0.51100000000E-03 0. -1.
         22    1    1    2    0    0  0.11981160888E+02 -0.82991874170E+01  0.27983464258E+02  0.31551529280E+02  0.00000000000E+00 0. -1.
          2    1    1    2  501    0  0.84295216794E+02  0.13244842576E+03  0.56411516390E+03  0.58555459797E+03  0.25500000000E-02 0. -1.
<mgrwt>
<rscale>  0 0.47817040E+02</rscale>
<asrwt>0</asrwt>
<pdfrwt beam="1">  1       11 0.10000000E+01 0.15687837E+03</pdfrwt>
<pdfrwt beam="2">  1        2 0.43244384E-02 0.47817040E+02</pdfrwt>
<totfact> 0.19962993E+03</totfact>
</mgrwt>
</event>
<event>
 5    1  0.2968854E-003  0.5388563E+02  0.7818608E-02  0.1612980E+00
         11   -1    0    0    0    0  0.00000000000E+00  0.00000000000E+00  0.10001548499E+04  0.10001548499E+04  0.51100000000E-03 0.  1.
          2   -1    0    0  501    0 -0.00000000000E+00 -0.00000000000E+00 -0.51706021752E+01  0.51706028040E+01  0.25500000000E-02 0.  1.
         11    1    1    2    0    0 -0.36857673288E+02 -0.29350938808E+02  0.18873588772E+03  0.19452814964E+03  0.51100000000E-03 0.  1.
         22    1    1    2    0    0  0.17492079846E+01 -0.15179966401E+02  0.46726843890E+02  0.49161865795E+02  0.00000000000E+00 0.  1.
          2    1    1    2  501    0  0.35108465303E+02  0.44530905209E+02  0.75952151616E+03  0.76163543731E+03  0.25500000000E-02 0.  1.
<mgrwt>
<rscale>  0 0.28694850E+02</rscale>
<asrwt>0</asrwt>
<pdfrwt beam="1">  1       11 0.10000000E+01 0.53885630E+02</pdfrwt>
<pdfrwt beam="2">  1        2 0.79560046E-03 0.28694850E+02</pdfrwt>
<totfact> 0.16700128E+04</totfact>
</mgrwt>
</event>
<event>
 5    1  0.2968854E-003  0.1880223E+03  0.7818608E-02  0.1166852E+00
         11   -1    0    0    0    0  0.00000000000E+00  0.00000000000E+00  0.10002198586E+04  0.10002198586E+04  0.51100000000E-03 0.  1.
          2   -1    0    0  501    0 -0.00000000000E+00 -0.00000000000E+00 -0.83008996467E+02  0.83008996506E+02  0.25500000000E-02 0.  1.
         11    1    1    2    0    0  0.47172974218E+02 -0.11023996636E+03  0.54782666462E+03  0.56079603614E+03  0.51100000000E-03 0.  1.
         22    1    1    2    0    0  0.56235019136E+02 -0.38295859592E+02  0.33035191344E+03  0.33728524568E+03  0.00000000000E+00 0. -1.
          2    1    1    2  501    0 -0.10340799335E+03  0.14853582596E+03  0.39032284052E+02  0.18514757327E+03  0.25500000000E-02 0.  1.
<mgrwt>
<rscale>  0 0.18098648E+03</rscale>
<asrwt>0</asrwt>
<pdfrwt beam="1">  1       11 0.10000000E+01 0.18802227E+03</pdfrwt>
<pdfrwt beam="2">  1        2 0.12773422E-01 0.18098648E+03</pdfrwt>
<totfact> 0.57318847E+02</totfact>
</mgrwt>
</event>
<event>
 5    1  0.2968854E-003  0.2552270E+03  0.7818608E-02  0.1110045E+00
         11   -1    0    0    0    0  0.00000000000E+00  0.00000000000E+00  0.10002775452E+04  0.10002775452E+04  0.51100000000E-03 0. -1.
          2   -1    0    0  501    0 -0.00000000000E+00 -0.00000000000E+00 -0.27320561245E+03  0.27320561246E+03  0.25500000000E-02 0. -1.
         11    1    1    2    0    0  0.24774408739E+03  0.22569008589E+01  0.84272966650E+03  0.87839371425E+03  0.51100000000E-03 0. -1.
         22    1    1    2    0    0  0.78950473415E+01 -0.11380460563E+02  0.74863112937E+02  0.76133647842E+02  0.00000000000E+00 0. -1.
          2    1    1    2  501    0 -0.25563913473E+03  0.91235597043E+01 -0.19052084663E+03  0.31895579562E+03  0.25500000000E-02 0. -1.
<mgrwt>
<rscale>  0 0.25522698E+03</rscale>
<asrwt>0</asrwt>
<pdfrwt beam="1">  1       11 0.10000000E+01 0.13850872E+02</pdfrwt>
<pdfrwt beam="2">  1        2 0.42043297E-01 0.25522698E+03</pdfrwt>
<totfact> 0.15009067E+02</totfact>
</mgrwt>
</event>
<event>
 5    1  0.2968854E-003  0.6567493E+03  0.7818608E-02  0.9794196E-01
         11   -1    0    0    0    0  0.00000000000E+00  0.00000000000E+00  0.10005348730E+04  0.10005348730E+04  0.51100000000E-03 0. -1.
          2   -1    0    0  501    0 -0.00000000000E+00 -0.00000000000E+00 -0.10564255573E+04  0.10564255573E+04  0.25500000000E-02 0. -1.
         11    1    1    2    0    0  0.43381032970E+03 -0.47620872868E+03  0.70488503550E+03  0.95489741266E+03  0.51100000000E-03 0. -1.
         22    1    1    2    0    0  0.33457868692E+02  0.12047631851E+02  0.47555923463E+02  0.59381312440E+02  0.00000000000E+00 0.  1.
          2    1    1    2  501    0 -0.46726819839E+03  0.46416109683E+03 -0.80833164327E+03  0.10426817053E+04  0.25500000000E-02 0. -1.
<mgrwt>
<rscale>  0 0.65674929E+03</rscale>
<asrwt>0</asrwt>
<pdfrwt beam="1">  1       11 0.10000000E+01 0.35560855E+02</pdfrwt>
<pdfrwt beam="2">  1        2 0.16261394E+00 0.65674929E+03</pdfrwt>
<totfact> 0.29026077E+01</totfact>
</mgrwt>
</event>
<event>
 5    1  0.2968854E-003  0.1788177E+03  0.7818608E-02  0.1168952E+00
         11   -1    0    0    0    0  0.00000000000E+00  0.00000000000E+00  0.10009853212E+04  0.10009853212E+04  0.51100000000E-03 0. -1.
          2   -1    0    0  501    0 -0.00000000000E+00 -0.00000000000E+00 -0.12004003656E+04  0.12004003656E+04  0.25500000000E-02 0. -1.
         11    1    1    2    0    0  0.14701012723E+03  0.98867324885E+02  0.74625044455E+03  0.76699181966E+03  0.51100000000E-03 0. -1.
         22    1    1    2    0    0 -0.89855116091E+02  0.70931123546E+02  0.22374949179E+03  0.25133444104E+03  0.00000000000E+00 0. -1.
          2    1    1    2  501    0 -0.57155011138E+02 -0.16979844843E+03 -0.11694149808E+04  0.11830594261E+04  0.25500000000E-02 0. -1.
<mgrwt>
<rscale>  0 0.17881775E+03</rscale>
<asrwt>0</asrwt>
<pdfrwt beam="1">  1       11 0.10000000E+01 0.11447780E+03</pdfrwt>
<pdfrwt beam="2">  1        2 0.18485894E+00 0.17881775E+03</pdfrwt>
<totfact> 0.25600579E+01</totfact>
</mgrwt>
</event>
<event>
 5    1  0.2968854E-003  0.5282726E+02  0.7818608E-02  0.1645396E+00
         11   -1    0    0    0    0  0.00000000000E+00  0.00000000000E+00  0.10001612991E+04  0.10001612991E+04  0.51100000000E-03 0.  1.
          2   -1    0    0  501    0 -0.00000000000E+00 -0.00000000000E+00 -0.41630000252E+01  0.41630008062E+01  0.25500000000E-02 0.  1.
         11    1    1    2    0    0 -0.12714830194E+02 -0.46146140875E+02  0.22757530847E+03  0.23255462638E+03  0.51100000000E-03 0.  1.
         22    1    1    2    0    0  0.91902074238E+01 -0.90759170687E+01  0.71805362962E+02  0.72957812010E+02  0.00000000000E+00 0.  1.
          2    1    1    2  501    0  0.35246227702E+01  0.55222057944E+02  0.69661762761E+03  0.69881186148E+03  0.25500000000E-02 0.  1.
<mgrwt>
<rscale>  0 0.26121548E+02</rscale>
<asrwt>0</asrwt>
<pdfrwt beam="1">  1       11 0.10000000E+01 0.52827263E+02</pdfrwt>
<pdfrwt beam="2">  1        2 0.64056489E-03 0.26121548E+02</pdfrwt>
<totfact> 0.21741248E+04</totfact>
</mgrwt>
</event>
<event>
 5    1  0.2968854E-003  0.9572545E+02  0.7818608E-02  0.1289550E+00
         11   -1    0    0    0    0  0.00000000000E+00  0.00000000000E+00  0.10001103399E+04  0.10001103399E+04  0.51100000000E-03 0. -1.
          2   -1    0    0  501    0 -0.00000000000E+00 -0.00000000000E+00 -0.13805284317E+02  0.13805284553E+02  0.25500000000E-02 0. -1.
         11    1    1    2    0    0 -0.95948758523E+02  0.34702028497E+00  0.22016979964E+03  0.24016874351E+03  0.51100000000E-03 0. -1.
         22    1    1    2    0    0  0.11406314455E+01  0.12076332148E+02  0.65073495229E+02  0.66194400213E+02  0.00000000000E+00 0. -1.
          2    1    1    2  501    0  0.94808127078E+02 -0.12423352433E+02  0.70106176068E+03  0.70755248070E+03  0.25500000000E-02 0. -1.
<mgrwt>
<rscale>  0 0.95725455E+02</rscale>
<asrwt>0</asrwt>
<pdfrwt beam="1">  1       11 0.10000000E+01 0.12130080E+02</pdfrwt>
<pdfrwt beam="2">  1        2 0.21241242E-02 0.95725455E+02</pdfrwt>
<totfact> 0.55204565E+03</totfact>
</mgrwt>
</event>
<event>
 5    1  0.2968854E-003  0.8624390E+02  0.7818608E-02  0.1312211E+00
         11   -1    0    0    0    0  0.00000000000E+00  0.00000000000E+00  0.99979594830E+03  0.99979594830E+03  0.51100000000E-03 0.  1.
         -2   -1    0    0    0  501 -0.00000000000E+00 -0.00000000000E+00 -0.87808554460E+01  0.87808558163E+01  0.25500000000E-02 0.  1.
         11    1    1    2    0    0 -0.62423196694E+02 -0.54885489630E+02  0.45168459153E+03  0.45926903084E+03  0.51100000000E-03 0.  1.
         22    1    1    2    0    0 -0.12901034320E+02  0.59216872248E+01  0.85509586891E+02  0.86679827621E+02  0.00000000000E+00 0.  1.
         -2    1    1    2    0  501  0.75324231013E+02  0.48963802405E+02  0.45382091444E+03  0.46262794566E+03  0.25500000000E-02 0.  1.
<mgrwt>
<rscale>  0 0.86243901E+02</rscale>
<asrwt>0</asrwt>
<pdfrwt beam="1">  1       11 0.10000000E+01 0.14195178E+02</pdfrwt>
<pdfrwt beam="2">  1       -2 0.13506252E-02 0.86243901E+02</pdfrwt>
<totfact> 0.94184017E+03</totfact>
</mgrwt>
</event>
<event>
 5    1  0.2968854E-003  0.8457517E+02  0.7818608E-02  0.1320613E+00
         11   -1    0    0    0    0  0.00000000000E+00  0.00000000000E+00  0.10000405553E+04  0.10000405553E+04  0.51100000000E-03 0. -1.
          2   -1    0    0  501    0 -0.00000000000E+00 -0.00000000000E+00 -0.82930685601E+01  0.82930689521E+01  0.25500000000E-02 0. -1.
         11    1    1    2    0    0  0.70505297985E+02 -0.10962524468E+02  0.23669515827E+03  0.24721604304E+03  0.51100000000E-03 0. -1.
         22    1    1    2    0    0  0.11092823538E+02 -0.44973724707E+01  0.65802838867E+02  0.66882663644E+02  0.00000000000E+00 0.  1.
          2    1    1    2  501    0 -0.81598121523E+02  0.15459896938E+02  0.68924948962E+03  0.69423491759E+03  0.25500000000E-02 0. -1.
<mgrwt>
<rscale>  0 0.83049755E+02</rscale>
<asrwt>0</asrwt>
<pdfrwt beam="1">  1       11 0.10000000E+01 0.84575169E+02</pdfrwt>
<pdfrwt beam="2">  1        2 0.12759084E-02 0.83049755E+02</pdfrwt>
<totfact> 0.10796834E+04</totfact>
</mgrwt>
</event>
<event>
 5    1  0.2968854E-003  0.7601370E+02  0.7818608E-02  0.1347618E+00
         11   -1    0    0    0    0  0.00000000000E+00  0.00000000000E+00  0.10002679236E+04  0.10002679236E+04  0.51100000000E-03 0. -1.
          2   -1    0    0  501    0 -0.00000000000E+00 -0.00000000000E+00 -0.62319792713E+01  0.62319797930E+01  0.25500000000E-02 0. -1.
         11    1    1    2    0    0  0.13824921205E+02 -0.14589577733E+02  0.60637468700E+02  0.63881819287E+02  0.51100000000E-03 0. -1.
         22    1    1    2    0    0  0.39470342062E+02 -0.36464594995E+02  0.28398231893E+03  0.28902168094E+03  0.00000000000E+00 0. -1.
          2    1    1    2  501    0 -0.53295263268E+02  0.51054172728E+02  0.64941615669E+03  0.65359640315E+03  0.25500000000E-02 0. -1.
<mgrwt>
<rscale>  0 0.73803209E+02</rscale>
<asrwt>0</asrwt>
<pdfrwt beam="1">  1       11 0.10000000E+01 0.76013699E+02</pdfrwt>
<pdfrwt beam="2">  1        2 0.95902293E-03 0.73803209E+02</pdfrwt>
<totfact> 0.15624754E+04</totfact>
</mgrwt>
</event>
<event>
 5    1  0.2968854E-003  0.9596210E+02  0.7818608E-02  0.1611413E+00
         11   -1    0    0    0    0  0.00000000000E+00  0.00000000000E+00  0.10000563200E+04  0.10000563200E+04  0.51100000000E-03 0. -1.
         -2   -1    0    0    0  501 -0.00000000000E+00 -0.00000000000E+00 -0.39677197264E+02  0.39677197346E+02  0.25500000000E-02 0.  1.
         11    1    1    2    0    0 -0.61239866754E+02  0.68832897115E+02  0.45888370199E+03  0.46804117442E+03  0.51100000000E-03 0. -1.
         22    1    1    2    0    0  0.86259153919E+02 -0.54511251580E+02  0.52479651253E+03  0.53462463256E+03  0.00000000000E+00 0. -1.
         -2    1    1    2    0  501 -0.25019287164E+02 -0.14321645535E+02 -0.23301091826E+02  0.37067710312E+02  0.25500000000E-02 0.  1.
<mgrwt>
<rscale>  0 0.28828359E+02</rscale>
<asrwt>0</asrwt>
<pdfrwt beam="1">  1       11 0.10000000E+01 0.95962101E+02</pdfrwt>
<pdfrwt beam="2">  1       -2 0.61045278E-02 0.28828359E+02</pdfrwt>
<totfact> 0.93680468E+02</totfact>
</mgrwt>
</event>
<event>
 5    1  0.2968854E-003  0.1284947E+03  0.7818608E-02  0.1234701E+00
         11   -1    0    0    0    0  0.00000000000E+00  0.00000000000E+00  0.10002489010E+04  0.10002489010E+04  0.51100000000E-03 0. -1.
          2   -1    0    0  501    0 -0.00000000000E+00 -0.00000000000E+00 -0.16255830410E+02  0.16255830610E+02  0.25500000000E-02 0. -1.
         11    1    1    2    0    0 -0.66812245978E+02  0.65399760541E+02  0.30811158525E+03  0.32198408945E+03  0.51100000000E-03 0. -1.
         22    1    1    2    0    0 -0.10985740967E+02  0.32740506064E+02  0.13893425336E+03  0.14316198517E+03  0.00000000000E+00 0.  1.
          2    1    1    2  501    0  0.77797986945E+02 -0.98140266605E+02  0.53694723201E+03  0.55135865702E+03  0.25500000000E-02 0. -1.
<mgrwt>
<rscale>  0 0.12523593E+03</rscale>
<asrwt>0</asrwt>
<pdfrwt beam="1">  1       11 0.10000000E+01 0.12849470E+03</pdfrwt>
<pdfrwt beam="2">  1        2 0.25015194E-02 0.12523593E+03</pdfrwt>
<totfact> 0.45696560E+03</totfact>
</mgrwt>
</event>
<event>
 5    1  0.2968854E-003  0.1194596E+03  0.7818608E-02  0.1243991E+00
         11   -1    0    0    0    0  0.00000000000E+00  0.00000000000E+00  0.10000915970E+04  0.10000915970E+04  0.51100000000E-03 0. -1.
          2   -1    0    0  501    0 -0.00000000000E+00 -0.00000000000E+00 -0.18313490904E+02  0.18313491082E+02  0.25500000000E-02 0. -1.
         11    1    1    2    0    0  0.10948270385E+03  0.36787724902E+02  0.29762452739E+03  0.31924936719E+03  0.51100000000E-03 0. -1.
         22    1    1    2    0    0  0.72218398793E+01  0.14721329726E+02  0.86304745386E+02  0.87848628881E+02  0.00000000000E+00 0.  1.
          2    1    1    2  501    0 -0.11670454373E+03 -0.51509054628E+02  0.59784883334E+03  0.61130709203E+03  0.25500000000E-02 0. -1.
<mgrwt>
<rscale>  0 0.11945961E+03</rscale>
<asrwt>0</asrwt>
<pdfrwt beam="1">  1       11 0.10000000E+01 0.16397333E+02</pdfrwt>
<pdfrwt beam="2">  1        2 0.28177181E-02 0.11945961E+03</pdfrwt>
<totfact> 0.38726752E+03</totfact>
</mgrwt>
</event>
<event>
 5    1  0.2968854E-003  0.4576234E+03  0.7818608E-02  0.1025473E+00
         11   -1    0    0    0    0  0.00000000000E+00  0.00000000000E+00  0.10000545598E+04  0.10000545598E+04  0.51100000000E-03 0. -1.
          2   -1    0    0  501    0 -0.00000000000E+00 -0.00000000000E+00 -0.56294905276E+03  0.56294905277E+03  0.25500000000E-02 0. -1.
         11    1    1    2    0    0  0.32677776106E+03  0.15679974785E+03  0.40509455261E+03  0.54357286779E+03  0.51100000000E-03 0. -1.
         22    1    1    2    0    0  0.62150882999E+02  0.13023581857E+03  0.39135728228E+03  0.41711464022E+03  0.00000000000E+00 0. -1.
          2    1    1    2  501    0 -0.38892864405E+03 -0.28703556641E+03 -0.35934632780E+03  0.60231610460E+03  0.25500000000E-02 0. -1.
<mgrwt>
<rscale>  0 0.45762343E+03</rscale>
<asrwt>0</asrwt>
<pdfrwt beam="1">  1       11 0.10000000E+01 0.14430558E+03</pdfrwt>
<pdfrwt beam="2">  1        2 0.86612269E-01 0.45762343E+03</pdfrwt>
<totfact> 0.67008885E+01</totfact>
</mgrwt>
</event>
<event>
 5    1  0.2968854E-003  0.2045523E+03  0.7818608E-02  0.1157538E+00
         11   -1    0    0    0    0  0.00000000000E+00  0.00000000000E+00  0.10002219969E+04  0.10002219969E+04  0.51100000000E-03 0. -1.
          2   -1    0    0  501    0 -0.00000000000E+00 -0.00000000000E+00 -0.11459147103E+03  0.11459147106E+03  0.25500000000E-02 0. -1.
         11    1    1    2    0    0  0.10837659778E+03  0.11183367815E+03  0.79221441050E+03  0.80737595377E+03  0.51100000000E-03 0. -1.
         22    1    1    2    0    0  0.41149376514E+02  0.70510487229E+01  0.10806475277E+03  0.11584895022E+03  0.00000000000E+00 0.  1.
          2    1    1    2  501    0 -0.14952597430E+03 -0.11888472687E+03 -0.14648637374E+02  0.19158856400E+03  0.25500000000E-02 0. -1.
<mgrwt>
<rscale>  0 0.19102773E+03</rscale>
<asrwt>0</asrwt>
<pdfrwt beam="1">  1       11 0.10000000E+01 0.20455232E+03</pdfrwt>
<pdfrwt beam="2">  1        2 0.17633370E-01 0.19102773E+03</pdfrwt>
<totfact> 0.39250270E+02</totfact>
</mgrwt>
</event>
<event>
 5    1  0.2968854E-003  0.8764752E+02  0.7818608E-02  0.1308651E+00
         11   -1    0    0    0    0  0.00000000000E+00  0.00000000000E+00  0.99999731522E+03  0.99999731522E+03  0.51100000000E-03 0. -1.
          2   -1    0    0  501    0 -0.00000000000E+00 -0.00000000000E+00 -0.16889448600E+02  0.16889448793E+02  0.25500000000E-02 0. -1.
         11    1    1    2    0    0 -0.26363971027E+02 -0.17019440929E+02  0.20670405293E+02  0.37576402078E+02  0.51100000000E-03 0. -1.
         22    1    1    2    0    0 -0.21783563698E+02  0.88334421774E+02  0.39199406332E+03  0.40241376641E+03  0.00000000000E+00 0. -1.
          2    1    1    2  501    0  0.48147534725E+02 -0.71314980845E+02  0.57044339800E+03  0.57689659552E+03  0.25500000000E-02 0. -1.
<mgrwt>
<rscale>  0 0.87647519E+02</rscale>
<asrwt>0</asrwt>
<pdfrwt beam="1">  1       11 0.10000000E+01 0.31380270E+02</pdfrwt>
<pdfrwt beam="2">  1        2 0.25983697E-02 0.87647519E+02</pdfrwt>
<totfact> 0.41676459E+03</totfact>
</mgrwt>
</event>
<event>
 5    1  0.2968854E-003  0.6324021E+02  0.7818608E-02  0.1393079E+00
         11   -1    0    0    0    0  0.00000000000E+00  0.00000000000E+00  0.99996056241E+03  0.99996056241E+03  0.51100000000E-03 0.  1.
          2   -1    0    0  501    0 -0.00000000000E+00 -0.00000000000E+00 -0.97066491200E+01  0.97066494550E+01  0.25500000000E-02 0.  1.
         11    1    1    2    0    0 -0.24187584939E+02  0.23718509759E+02  0.49149094907E+02  0.59692884842E+02  0.51100000000E-03 0.  1.
         22    1    1    2    0    0 -0.27114702803E+02  0.95540140181E+01  0.57792848743E+02  0.64548428778E+02  0.00000000000E+00 0.  1.
          2    1    1    2  501    0  0.51302287742E+02 -0.33272523777E+02  0.88331196964E+03  0.88542589825E+03  0.25500000000E-02 0.  1.
<mgrwt>
<rscale>  0 0.61147245E+02</rscale>
<asrwt>0</asrwt>
<pdfrwt beam="1">  1       11 0.10000000E+01 0.63240214E+02</pdfrwt>
<pdfrwt beam="2">  1        2 0.14932717E-02 0.61147245E+02</pdfrwt>
<totfact> 0.83285686E+03</totfact>
</mgrwt>
</event>
<event>
 5    1  0.2968854E-003  0.2685811E+03  0.7818608E-02  0.1102094E+00
         11   -1    0    0    0    0  0.00000000000E+00  0.00000000000E+00  0.10005255491E+04  0.10005255491E+04  0.51100000000E-03 0.  1.
          2   -1    0    0  501    0 -0.00000000000E+00 -0.00000000000E+00 -0.31385117123E+03  0.31385117124E+03  0.25500000000E-02 0.  1.
         11    1    1    2    0    0 -0.27102362697E+03  0.17908801422E+03  0.74828387255E+03  0.81575429948E+03  0.51100000000E-03 0.  1.
         22    1    1    2    0    0  0.54667353689E+01 -0.15576100519E+03  0.10160102863E+03  0.18604877036E+03  0.00000000000E+00 0.  1.
          2    1    1    2  501    0  0.26555689160E+03 -0.23327009026E+02 -0.16321052335E+03  0.31257365046E+03  0.25500000000E-02 0.  1.
<mgrwt>
<rscale>  0 0.26858107E+03</rscale>
<asrwt>0</asrwt>
<pdfrwt beam="1">  1       11 0.10000000E+01 0.15585691E+03</pdfrwt>
<pdfrwt beam="2">  1        2 0.48310170E-01 0.26858107E+03</pdfrwt>
<totfact> 0.12916563E+02</totfact>
</mgrwt>
</event>
<event>
 5    1  0.2968854E-003  0.2384894E+03  0.7818608E-02  0.1120803E+00
         11   -1    0    0    0    0  0.00000000000E+00  0.00000000000E+00  0.10000892635E+04  0.10000892635E+04  0.51100000000E-03 0. -1.
          2   -1    0    0  501    0 -0.00000000000E+00 -0.00000000000E+00 -0.16142608856E+03  0.16142608858E+03  0.25500000000E-02 0. -1.
         11    1    1    2    0    0 -0.20611121270E+03  0.10574574525E+03  0.80894654950E+03  0.84146212903E+03  0.51100000000E-03 0. -1.
         22    1    1    2    0    0 -0.12301520666E+02 -0.78583627768E+01  0.75046883559E+02  0.76453358384E+02  0.00000000000E+00 0. -1.
          2    1    1    2  501    0  0.21841273337E+03 -0.97887382471E+02 -0.45330258147E+02  0.24359986464E+03  0.25500000000E-02 0. -1.
<mgrwt>
<rscale>  0 0.23848940E+03</rscale>
<asrwt>0</asrwt>
<pdfrwt beam="1">  1       11 0.10000000E+01 0.14597304E+02</pdfrwt>
<pdfrwt beam="2">  1        2 0.24836999E-01 0.23848940E+03</pdfrwt>
<totfact> 0.26725143E+02</totfact>
</mgrwt>
</event>
<event>
 5    1  0.2968854E-003  0.1899303E+03  0.7818608E-02  0.1161802E+00
         11   -1    0    0    0    0  0.00000000000E+00  0.00000000000E+00  0.10002320433E+04  0.10002320433E+04  0.51100000000E-03 0. -1.
         -2   -1    0    0    0  501 -0.00000000000E+00 -0.00000000000E+00 -0.46588234202E+03  0.46588234203E+03  0.25500000000E-02 0.  1.
         11    1    1    2    0    0 -0.11449075420E+01 -0.34392885375E+02  0.12859454483E+03  0.13311926359E+03  0.51100000000E-03 0. -1.
         22    1    1    2    0    0  0.45884326777E+02 -0.14649922755E+03  0.84343831718E+03  0.85729550915E+03  0.00000000000E+00 0. -1.
         -2    1    1    2    0  501 -0.44739419235E+02  0.18089211292E+03 -0.43768316078E+03  0.47569961255E+03  0.25500000000E-02 0.  1.
<mgrwt>
<rscale>  0 0.18634262E+03</rscale>
<asrwt>0</asrwt>
<pdfrwt beam="1">  1       11 0.10000000E+01 0.18993035E+03</pdfrwt>
<pdfrwt beam="2">  1       -2 0.71690836E-01 0.18634262E+03</pdfrwt>
<totfact> 0.14797911E+01</totfact>
</mgrwt>
</event>
<event>
 5    1  0.2968854E-003  0.9261204E+02  0.7818608E-02  0.1301412E+00
         11   -1    0    0    0    0  0.00000000000E+00  0.00000000000E+00  0.10001591289E+04  0.10001591289E+04  0.51100000000E-03 0. -1.
          2   -1    0    0  501    0 -0.00000000000E+00 -0.00000000000E+00 -0.93100846967E+01  0.93100850459E+01  0.25500000000E-02 0. -1.
         11    1    1    2    0    0 -0.23280892070E+02  0.73496867805E+02  0.26154830419E+03  0.27267435695E+03  0.51100000000E-03 0. -1.
         22    1    1    2    0    0 -0.48639054048E+00  0.13927289338E+02  0.80129483556E+02  0.81332282022E+02  0.00000000000E+00 0.  1.
          2    1    1    2  501    0  0.23767282610E+02 -0.87424157143E+02  0.64917125645E+03  0.65546257497E+03  0.25500000000E-02 0. -1.
<mgrwt>
<rscale>  0 0.90597279E+02</rscale>
<asrwt>0</asrwt>
<pdfrwt beam="1">  1       11 0.10000000E+01 0.92612039E+02</pdfrwt>
<pdfrwt beam="2">  1        2 0.14325486E-02 0.90597279E+02</pdfrwt>
<totfact> 0.93433440E+03</totfact>
</mgrwt>
</event>
<event>
 5    1  0.2968854E-003  0.1936761E+03  0.7818608E-02  0.1163250E+00
         11   -1    0    0    0    0  0.00000000000E+00  0.00000000000E+00  0.10000672017E+04  0.10000672017E+04  0.51100000000E-03 0.  1.
          2   -1    0    0  501    0 -0.00000000000E+00 -0.00000000000E+00 -0.24871043138E+03  0.24871043139E+03  0.25500000000E-02 0.  1.
         11    1    1    2    0    0  0.62957909789E+02  0.12273397377E+03  0.66773152194E+03  0.68183041302E+03  0.51100000000E-03 0.  1.
         22    1    1    2    0    0 -0.10933297144E+02  0.54577056209E+02  0.28689198767E+03  0.29224168874E+03  0.00000000000E+00 0. -1.
          2    1    1    2  501    0 -0.52024612645E+02 -0.17731102998E+03 -0.20326673925E+03  0.27470553137E+03  0.25500000000E-02 0.  1.
<mgrwt>
<rscale>  0 0.18478572E+03</rscale>
<asrwt>0</asrwt>
<pdfrwt beam="1">  1       11 0.10000000E+01 0.19367606E+03</pdfrwt>
<pdfrwt beam="2">  1        2 0.38265714E-01 0.18478572E+03</pdfrwt>
<totfact> 0.16575939E+02</totfact>
</mgrwt>
</event>
<event>
 5    1  0.2968854E-003  0.3329468E+03  0.7818608E-02  0.1071102E+00
         11   -1    0    0    0    0  0.00000000000E+00  0.00000000000E+00  0.10004185879E+04  0.10004185879E+04  0.51100000000E-03 0. -1.
          2   -1    0    0  501    0 -0.00000000000E+00 -0.00000000000E+00 -0.18182512737E+03  0.18182512739E+03  0.25500000000E-02 0. -1.
         11    1    1    2    0    0 -0.10786017379E+03 -0.28897573760E+03  0.69704758124E+03  0.76224413709E+03  0.51100000000E-03 0. -1.
         22    1    1    2    0    0 -0.64068479314E+01 -0.20693455967E+02  0.85217476508E+02  0.87927726700E+02  0.00000000000E+00 0.  1.
          2    1    1    2  501    0  0.11426702172E+03  0.30966919356E+03  0.36328402761E+02  0.33207185149E+03  0.25500000000E-02 0. -1.
<mgrwt>
<rscale>  0 0.33007872E+03</rscale>
<asrwt>0</asrwt>
<pdfrwt beam="1">  1       11 0.10000000E+01 0.33294681E+03</pdfrwt>
<pdfrwt beam="2">  1        2 0.27984805E-01 0.33007872E+03</pdfrwt>
<totfact> 0.23520489E+02</totfact>
</mgrwt>
</event>
<event>
 5    1  0.2968854E-003  0.2602378E+03  0.7818608E-02  0.1109715E+00
         11   -1    0    0    0    0  0.00000000000E+00  0.00000000000E+00  0.10005770816E+04  0.10005770816E+04  0.51100000000E-03 0.  1.
          2   -1    0    0  501    0 -0.00000000000E+00 -0.00000000000E+00 -0.46325261726E+03  0.46325261727E+03  0.25500000000E-02 0.  1.
         11    1    1    2    0    0 -0.16202601065E+03  0.98227094247E+02  0.68259035439E+03  0.70840001558E+03  0.51100000000E-03 0.  1.
         22    1    1    2    0    0 -0.40470138718E+02  0.58012531692E+02  0.26372778983E+03  0.27304877420E+03  0.00000000000E+00 0.  1.
          2    1    1    2  501    0  0.20249614937E+03 -0.15623962594E+03 -0.40899367990E+03  0.48238090907E+03  0.25500000000E-02 0.  1.
<mgrwt>
<rscale>  0 0.25576456E+03</rscale>
<asrwt>0</asrwt>
<pdfrwt beam="1">  1       11 0.10000000E+01 0.26023777E+03</pdfrwt>
<pdfrwt beam="2">  1        2 0.71310760E-01 0.25576456E+03</pdfrwt>
<totfact> 0.84458134E+01</totfact>
</mgrwt>
</event>
<event>
 5    1  0.2968854E-003  0.2967989E+03  0.7818608E-02  0.1086852E+00
         11   -1    0    0    0    0  0.00000000000E+00  0.00000000000E+00  0.10001922164E+04  0.10001922164E+04  0.51100000000E-03 0. -1.
          2   -1    0    0  501    0 -0.00000000000E+00 -0.00000000000E+00 -0.13729100293E+03  0.13729100295E+03  0.25500000000E-02 0. -1.
         11    1    1    2    0    0  0.83673417651E+02 -0.33158145035E+02  0.12676403063E+02  0.90892214180E+02  0.51100000000E-03 0. -1.
         22    1    1    2    0    0  0.11754189211E+03 -0.24148327599E+03  0.34164343321E+03  0.43456933214E+03  0.00000000000E+00 0. -1.
          2    1    1    2  501    0 -0.20121530976E+03  0.27464142102E+03  0.50858137717E+03  0.61202167301E+03  0.25500000000E-02 0. -1.
<mgrwt>
<rscale>  0 0.29679892E+03</rscale>
<asrwt>0</asrwt>
<pdfrwt beam="1">  1       11 0.10000000E+01 0.90003953E+02</pdfrwt>
<pdfrwt beam="2">  1        2 0.21125752E-01 0.29679892E+03</pdfrwt>
<totfact> 0.32268749E+02</totfact>
</mgrwt>
</event>
<event>
 5    1  0.2968854E-003  0.2883886E+03  0.7818608E-02  0.1092725E+00
         11   -1    0    0    0    0  0.00000000000E+00  0.00000000000E+00  0.10001129206E+04  0.10001129206E+04  0.51100000000E-03 0.  1.
          2   -1    0    0  501    0 -0.00000000000E+00 -0.00000000000E+00 -0.15221756923E+03  0.15221756925E+03  0.25500000000E-02 0.  1.
         11    1    1    2    0    0  0.15631927883E+03 -0.21354507819E+03  0.74799391197E+03  0.79343059539E+03  0.51100000000E-03 0.  1.
         22    1    1    2    0    0  0.26535276326E+01 -0.23593978109E+02  0.67522114798E+02  0.71574807011E+02  0.00000000000E+00 0.  1.
          2    1    1    2  501    0 -0.15897280647E+03  0.23713905630E+03  0.32379324619E+02  0.28732508746E+03  0.25500000000E-02 0.  1.
<mgrwt>
<rscale>  0 0.28549481E+03</rscale>
<asrwt>0</asrwt>
<pdfrwt beam="1">  1       11 0.10000000E+01 0.28838855E+03</pdfrwt>
<pdfrwt beam="2">  1        2 0.23420731E-01 0.28549481E+03</pdfrwt>
<totfact> 0.28663070E+02</totfact>
</mgrwt>
</event>
<event>
 5    1  0.2968854E-003  0.6305688E+02  0.7818608E-02  0.1390051E+00
         11   -1    0    0    0    0  0.00000000000E+00  0.00000000000E+00  0.10000243659E+04  0.10000243659E+04  0.51100000000E-03 0.  1.
          2   -1    0    0  501    0 -0.00000000000E+00 -0.00000000000E+00 -0.50569928669E+01  0.50569935099E+01  0.25500000000E-02 0.  1.
         11    1    1    2    0    0 -0.50141996396E+02 -0.11498032619E+02  0.22448029384E+03  0.23029942874E+03  0.51100000000E-03 0.  1.
         22    1    1    2    0    0 -0.90116122092E+01 -0.67155823660E+01  0.36530494954E+02  0.38220220600E+02  0.00000000000E+00 0. -1.
          2    1    1    2  501    0  0.59153608606E+02  0.18213614985E+02  0.73395658420E+03  0.73656171003E+03  0.25500000000E-02 0.  1.
<mgrwt>
<rscale>  0 0.61894145E+02</rscale>
<asrwt>0</asrwt>
<pdfrwt beam="1">  1       11 0.10000000E+01 0.63056881E+02</pdfrwt>
<pdfrwt beam="2">  1        2 0.77801789E-03 0.61894145E+02</pdfrwt>
<totfact> 0.20126630E+04</totfact>
</mgrwt>
</event>
<event>
 5    1  0.2968854E-003  0.1584344E+03  0.7818608E-02  0.1198140E+00
         11   -1    0    0    0    0  0.00000000000E+00  0.00000000000E+00  0.10000075277E+04  0.10000075277E+04  0.51100000000E-03 0. -1.
          2   -1    0    0  501    0 -0.00000000000E+00 -0.00000000000E+00 -0.26918496773E+02  0.26918496894E+02  0.25500000000E-02 0.  1.
         11    1    1    2    0    0  0.46413376872E+01  0.47598540842E+02  0.12847485923E+03  0.13708739024E+03  0.51100000000E-03 0. -1.
         22    1    1    2    0    0  0.18240772282E+02  0.10258244054E+03  0.53394863168E+03  0.54401932332E+03  0.00000000000E+00 0. -1.
          2    1    1    2  501    0 -0.22882109969E+02 -0.15018098138E+03  0.31066554000E+03  0.34581931102E+03  0.25500000000E-02 0.  1.
<mgrwt>
<rscale>  0 0.15191418E+03</rscale>
<asrwt>0</asrwt>
<pdfrwt beam="1">  1       11 0.10000000E+01 0.15843445E+03</pdfrwt>
<pdfrwt beam="2">  1        2 0.41413383E-02 0.15191418E+03</pdfrwt>
<totfact> 0.23706815E+03</totfact>
</mgrwt>
</event>
<event>
 5    1  0.2968854E-003  0.7072681E+02  0.7818608E-02  0.1362578E+00
         11   -1    0    0    0    0  0.00000000000E+00  0.00000000000E+00  0.10002334965E+04  0.10002334965E+04  0.51100000000E-03 0.  1.
          2   -1    0    0  501    0 -0.00000000000E+00 -0.00000000000E+00 -0.89499154219E+01  0.89499157852E+01  0.25500000000E-02 0.  1.
         11    1    1    2    0    0  0.23764741286E+01  0.22184491330E+02  0.41219227891E+02  0.46870289449E+02  0.51100000000E-03 0.  1.
         22    1    1    2    0    0  0.21241633997E+02  0.42939499485E+02  0.11777012230E+03  0.12714090348E+03  0.00000000000E+00 0.  1.
          2    1    1    2  501    0 -0.23618108126E+02 -0.65123990815E+02  0.83229423085E+03  0.83517221932E+03  0.25500000000E-02 0.  1.
<mgrwt>
<rscale>  0 0.69274449E+02</rscale>
<asrwt>0</asrwt>
<pdfrwt beam="1">  1       11 0.10000000E+01 0.70726811E+02</pdfrwt>
<pdfrwt beam="2">  1        2 0.13772316E-02 0.69274449E+02</pdfrwt>
<totfact> 0.94681978E+03</totfact>
</mgrwt>
</event>
<event>
 5    1  0.2968854E-003  0.1483772E+03  0.7818608E-02  0.1207194E+00
         11   -1    0    0    0    0  0.00000000000E+00  0.00000000000E+00  0.10001373822E+04  0.10001373822E+04  0.51100000000E-03 0. -1.
         -2   -1    0    0    0  501 -0.00000000000E+00 -0.00000000000E+00 -0.23908421868E+02  0.23908422004E+02  0.25500000000E-02 0.  1.
         11    1    1    2    0    0  0.19672249033E+02  0.10098436381E+03  0.51032881379E+03  0.52059613647E+03  0.51100000000E-03 0. -1.
         22    1    1    2    0    0  0.21513576152E+02  0.37687543322E+02  0.14703545405E+03  0.15330560860E+03  0.00000000000E+00 0. -1.
         -2    1    1    2    0  501 -0.41185825185E+02 -0.13867190714E+03  0.31886469246E+03  0.35014405911E+03  0.25500000000E-02 0.  1.
<mgrwt>
<rscale>  0 0.14465881E+03</rscale>
<asrwt>0</asrwt>
<pdfrwt beam="1">  1       11 0.10000000E+01 0.14837716E+03</pdfrwt>
<pdfrwt beam="2">  1       -2 0.36787240E-02 0.14465881E+03</pdfrwt>
<totfact> 0.23487621E+03</totfact>
</mgrwt>
</event>
<event>
 5    1  0.2968854E-003  0.1302389E+03  0.7818608E-02  0.1227102E+00
         11   -1    0    0    0    0  0.00000000000E+00  0.00000000000E+00  0.99967323446E+03  0.99967323446E+03  0.51100000000E-03 0. -1.
          2   -1    0    0  501    0 -0.00000000000E+00 -0.00000000000E+00 -0.22686286572E+02  0.22686286715E+02  0.25500000000E-02 0. -1.
         11    1    1    2    0    0 -0.14912065736E+02 -0.40007627881E+01  0.10540557065E+02  0.18694361474E+02  0.51100000000E-03 0. -1.
         22    1    1    2    0    0 -0.11099423567E+03  0.52082213085E+02  0.61836485251E+03  0.63040254449E+03  0.00000000000E+00 0. -1.
          2    1    1    2  501    0  0.12590630141E+03 -0.48081450297E+02  0.34808153831E+03  0.37326261521E+03  0.25500000000E-02 0. -1.
<mgrwt>
<rscale>  0 0.13023888E+03</rscale>
<asrwt>0</asrwt>
<pdfrwt beam="1">  1       11 0.10000000E+01 0.15439432E+02</pdfrwt>
<pdfrwt beam="2">  1        2 0.34890574E-02 0.13023888E+03</pdfrwt>
<totfact> 0.29355327E+03</totfact>
</mgrwt>
</event>
<event>
 5    1  0.2968854E-003  0.2068322E+03  0.7818608E-02  0.1157705E+00
         11   -1    0    0    0    0  0.00000000000E+00  0.00000000000E+00  0.10001657966E+04  0.10001657966E+04  0.51100000000E-03 0. -1.
          2   -1    0    0  501    0 -0.00000000000E+00 -0.00000000000E+00 -0.55454079693E+03  0.55454079694E+03  0.25500000000E-02 0. -1.
         11    1    1    2    0    0  0.88081382068E+02  0.54028331713E+02  0.40296136884E+03  0.41599910490E+03  0.51100000000E-03 0. -1.
         22    1    1    2    0    0  0.31048560527E+02  0.95063662017E+02  0.56958160735E+03  0.57829431985E+03  0.00000000000E+00 0. -1.
          2    1    1    2  501    0 -0.11912994259E+03 -0.14909199373E+03 -0.52691797650E+03  0.56041316881E+03  0.25500000000E-02 0. -1.
<mgrwt>
<rscale>  0 0.19084121E+03</rscale>
<asrwt>0</asrwt>
<pdfrwt beam="1">  1       11 0.10000000E+01 0.20683224E+03</pdfrwt>
<pdfrwt beam="2">  1        2 0.85328111E-01 0.19084121E+03</pdfrwt>
<totfact> 0.69402126E+01</totfact>
</mgrwt>
</event>
<event>
 5    1  0.2968854E-003  0.1720119E+03  0.7818608E-02  0.1175766E+00
         11   -1    0    0    0    0  0.00000000000E+00  0.00000000000E+00  0.10000751045E+04  0.10000751045E+04  0.51100000000E-03 0.  1.
          2   -1    0    0  501    0 -0.00000000000E+00 -0.00000000000E+00 -0.14519822899E+03  0.14519822901E+03  0.25500000000E-02 0.  1.
         11    1    1    2    0    0  0.71796778955E+02  0.15116556213E+03  0.90108324769E+03  0.91649158420E+03  0.51100000000E-03 0.  1.
         22    1    1    2    0    0  0.21518866193E+02 -0.62322023876E+01  0.32349543792E+02  0.39349649711E+02  0.00000000000E+00 0.  1.
          2    1    1    2  501    0 -0.93315645148E+02 -0.14493335974E+03 -0.78555916013E+02  0.18943209956E+03  0.25500000000E-02 0.  1.
<mgrwt>
<rscale>  0 0.17201194E+03</rscale>
<asrwt>0</asrwt>
<pdfrwt beam="1">  1       11 0.10000000E+01 0.22403168E+02</pdfrwt>
<pdfrwt beam="2">  1        2 0.22339866E-01 0.17201194E+03</pdfrwt>
<totfact> 0.29867670E+02</totfact>
</mgrwt>
</event>
<event>
 5    1  0.2968854E-003  0.9625531E+02  0.7818608E-02  0.1305826E+00
         11   -1    0    0    0    0  0.00000000000E+00  0.00000000000E+00  0.99975227512E+03  0.99975227512E+03  0.51100000000E-03 0.  1.
          2   -1    0    0  501    0 -0.00000000000E+00 -0.00000000000E+00 -0.90321517717E+01  0.90321521317E+01  0.25500000000E-02 0.  1.
         11    1    1    2    0    0  0.24007697007E+02 -0.23873452658E+02  0.84254355456E+02  0.90802575244E+02  0.51100000000E-03 0.  1.
         22    1    1    2    0    0  0.48687385680E+02 -0.27095577301E+02  0.31506864529E+03  0.31995762700E+03  0.00000000000E+00 0.  1.
          2    1    1    2  501    0 -0.72695082686E+02  0.50969029959E+02  0.59139712260E+03  0.59802422500E+03  0.25500000000E-02 0.  1.
<mgrwt>
<rscale>  0 0.88782977E+02</rscale>
<asrwt>0</asrwt>
<pdfrwt beam="1">  1       11 0.10000000E+01 0.96255311E+02</pdfrwt>
<pdfrwt beam="2">  1        2 0.13892176E-02 0.88782977E+02</pdfrwt>
<totfact> 0.97133045E+03</totfact>
</mgrwt>
</event>
<event>
 5    1  0.2968854E-003  0.4558763E+03  0.7818608E-02  0.1027649E+00
         11   -1    0    0    0    0  0.00000000000E+00  0.00000000000E+00  0.99988862502E+03  0.99988862502E+03  0.51100000000E-03 0. -1.
          2   -1    0    0  501    0 -0.00000000000E+00 -0.00000000000E+00 -0.34749021090E+03  0.34749021091E+03  0.25500000000E-02 0. -1.
         11    1    1    2    0    0  0.14215942010E+03  0.40810099309E+03  0.70639431954E+03  0.82809942396E+03  0.51100000000E-03 0. -1.
         22    1    1    2    0    0  0.19204150482E+02  0.12235939200E+02  0.51963233937E+02  0.56733546381E+02  0.00000000000E+00 0.  1.
          2    1    1    2  501    0 -0.16136357058E+03 -0.42033693229E+03 -0.10595913936E+03  0.46254586559E+03  0.25500000000E-02 0. -1.
<mgrwt>
<rscale>  0 0.45024586E+03</rscale>
<asrwt>0</asrwt>
<pdfrwt beam="1">  1       11 0.10000000E+01 0.45587631E+03</pdfrwt>
<pdfrwt beam="2">  1        2 0.53454077E-01 0.45024586E+03</pdfrwt>
<totfact> 0.11550350E+02</totfact>
</mgrwt>
</event>
<event>
 5    1  0.2968854E-003  0.2021553E+03  0.7818608E-02  0.1153709E+00
         11   -1    0    0    0    0  0.00000000000E+00  0.00000000000E+00  0.99988442821E+03  0.99988442821E+03  0.51100000000E-03 0. -1.
          2   -1    0    0  501    0 -0.00000000000E+00 -0.00000000000E+00 -0.39525677335E+02  0.39525677418E+02  0.25500000000E-02 0. -1.
         11    1    1    2    0    0  0.77823363000E+02 -0.78859772197E+02  0.21266581156E+03  0.23979592762E+03  0.51100000000E-03 0. -1.
         22    1    1    2    0    0  0.64346860734E+02 -0.55138196835E+02  0.28594844012E+03  0.29824025490E+03  0.00000000000E+00 0.  1.
          2    1    1    2  501    0 -0.14217022373E+03  0.13399796903E+03  0.46174449920E+03  0.50137392310E+03  0.25500000000E-02 0. -1.
<mgrwt>
<rscale>  0 0.19536588E+03</rscale>
<asrwt>0</asrwt>
<pdfrwt beam="1">  1       11 0.10000000E+01 0.20215529E+03</pdfrwt>
<pdfrwt beam="2">  1        2 0.60801705E-02 0.19536588E+03</pdfrwt>
<totfact> 0.14598108E+03</totfact>
</mgrwt>
</event>
<event>
 5    1  0.2968854E-003  0.8440794E+02  0.7818608E-02  0.1335211E+00
         11   -1    0    0    0    0  0.00000000000E+00  0.00000000000E+00  0.10004104270E+04  0.10004104270E+04  0.51100000000E-03 0.  1.
          2   -1    0    0  501    0 -0.00000000000E+00 -0.00000000000E+00 -0.88181562969E+01  0.88181566656E+01  0.25500000000E-02 0.  1.
         11    1    1    2    0    0 -0.39653305966E+02  0.17458316260E+02  0.89875265678E+02  0.99773447678E+02  0.51100000000E-03 0.  1.
         22    1    1    2    0    0 -0.34215916932E+02  0.71761120250E+01  0.16680202121E+03  0.17042634724E+03  0.00000000000E+00 0.  1.
          2    1    1    2  501    0  0.73869222899E+02 -0.24634428285E+02  0.73491498385E+03  0.73902878878E+03  0.25500000000E-02 0.  1.
<mgrwt>
<rscale>  0 0.77868589E+02</rscale>
<asrwt>0</asrwt>
<pdfrwt beam="1">  1       11 0.10000000E+01 0.84407935E+02</pdfrwt>
<pdfrwt beam="2">  1        2 0.13571962E-02 0.77868589E+02</pdfrwt>
<totfact> 0.98324721E+03</totfact>
</mgrwt>
</event>
<event>
 5    1  0.2968854E-003  0.1275430E+03  0.7818608E-02  0.1383627E+00
         11   -1    0    0    0    0  0.00000000000E+00  0.00000000000E+00  0.99999816492E+03  0.99999816492E+03  0.51100000000E-03 0. -1.
          2   -1    0    0  501    0 -0.00000000000E+00 -0.00000000000E+00 -0.24522164552E+02  0.24522164685E+02  0.25500000000E-02 0. -1.
         11    1    1    2    0    0  0.63193244233E+02  0.11214301043E+03  0.64468372217E+03  0.65740896141E+03  0.51100000000E-03 0. -1.
         22    1    1    2    0    0  0.24722277004E+02 -0.19737255304E+02  0.68500231094E+02  0.75452182786E+02  0.00000000000E+00 0. -1.
          2    1    1    2  501    0 -0.87915521237E+02 -0.92405755130E+02  0.26229204711E+03  0.29165918542E+03  0.25500000000E-02 0. -1.
<mgrwt>
<rscale>  0 0.63519892E+02</rscale>
<asrwt>0</asrwt>
<pdfrwt beam="1">  1       11 0.10000000E+01 0.12754301E+03</pdfrwt>
<pdfrwt beam="2">  1        2 0.37726337E-02 0.63519892E+02</pdfrwt>
<totfact> 0.24574222E+03</totfact>
</mgrwt>
</event>
<event>
 5    1  0.2968854E-003  0.1525853E+03  0.7818608E-02  0.1197332E+00
         11   -1    0    0    0    0  0.00000000000E+00  0.00000000000E+00  0.10006257177E+04  0.10006257177E+04  0.51100000000E-03 0. -1.
          2   -1    0    0  501    0 -0.00000000000E+00 -0.00000000000E+00 -0.16290050080E+04  0.16290050080E+04  0.25500000000E-02 0. -1.
         11    1    1    2    0    0 -0.21955663261E+02  0.36954021501E+02  0.64179097255E+02  0.77243817740E+02  0.51100000000E-03 0. -1.
         22    1    1    2    0    0  0.12669915838E+03 -0.14768572254E+03  0.91609278519E+03  0.93653069381E+03  0.00000000000E+00 0. -1.
          2    1    1    2  501    0 -0.10474349512E+03  0.11073170104E+03 -0.16086511727E+04  0.16158562142E+04  0.25500000000E-02 0. -1.
<mgrwt>
<rscale>  0 0.15258529E+03</rscale>
<asrwt>0</asrwt>
<pdfrwt beam="1">  1       11 0.10000000E+01 0.42984309E+02</pdfrwt>
<pdfrwt beam="2">  1        2 0.25077296E+00 0.15258529E+03</pdfrwt>
<totfact> 0.15292107E+01</totfact>
</mgrwt>
</event>
<event>
 5    1  0.2968854E-003  0.5053086E+02  0.7818608E-02  0.1447405E+00
         11   -1    0    0    0    0  0.00000000000E+00  0.00000000000E+00  0.10003798808E+04  0.10003798808E+04  0.51100000000E-03 0.  1.
          2   -1    0    0  501    0 -0.00000000000E+00 -0.00000000000E+00 -0.44177350627E+01  0.44177357986E+01  0.25500000000E-02 0.  1.
         11    1    1    2    0    0 -0.30709693268E+02 -0.19996485050E+02  0.13002188425E+03  0.13508750889E+03  0.51100000000E-03 0.  1.
         22    1    1    2    0    0 -0.78263398364E+01 -0.11261527522E+02  0.40094124458E+02  0.42374667118E+02  0.00000000000E+00 0. -1.
          2    1    1    2  501    0  0.38536033104E+02  0.31258012572E+02  0.82584613708E+03  0.82733544064E+03  0.25500000000E-02 0.  1.
<mgrwt>
<rscale>  0 0.49619444E+02</rscale>
<asrwt>0</asrwt>
<pdfrwt beam="1">  1       11 0.10000000E+01 0.50530857E+02</pdfrwt>
<pdfrwt beam="2">  1        2 0.67990977E-03 0.49619444E+02</pdfrwt>
<totfact> 0.23141295E+04</totfact>
</mgrwt>
</event>
<event>
 5    1  0.2968854E-003  0.6151154E+02  0.7818608E-02  0.1409044E+00
         11   -1    0    0    0    0  0.00000000000E+00  0.00000000000E+00  0.10002568235E+04  0.10002568235E+04  0.51100000000E-03 0. -1.
          2   -1    0    0  501    0 -0.00000000000E+00 -0.00000000000E+00 -0.11267165401E+02  0.11267165690E+02  0.25500000000E-02 0. -1.
         11    1    1    2    0    0 -0.23395147839E+02 -0.17457862268E+01  0.23008243437E+02  0.32859701433E+02  0.51100000000E-03 0. -1.
         22    1    1    2    0    0 -0.30778788640E+02  0.20741450565E+02  0.57929371871E+02  0.68799373013E+02  0.00000000000E+00 0. -1.
          2    1    1    2  501    0  0.54173936478E+02 -0.18995664339E+02  0.90805204275E+03  0.90986491470E+03  0.25500000000E-02 0. -1.
<mgrwt>
<rscale>  0 0.57407758E+02</rscale>
<asrwt>0</asrwt>
<pdfrwt beam="1">  1       11 0.10000000E+01 0.61511542E+02</pdfrwt>
<pdfrwt beam="2">  1        2 0.17338552E-02 0.57407758E+02</pdfrwt>
<totfact> 0.67537772E+03</totfact>
</mgrwt>
</event>
<event>
 5    1  0.2968854E-003  0.2736596E+03  0.7818608E-02  0.1105394E+00
         11   -1    0    0    0    0  0.00000000000E+00  0.00000000000E+00  0.10003166297E+04  0.10003166297E+04  0.51100000000E-03 0. -1.
          2   -1    0    0  501    0 -0.00000000000E+00 -0.00000000000E+00 -0.15369311614E+03  0.15369311616E+03  0.25500000000E-02 0. -1.
         11    1    1    2    0    0  0.44177512411E+02  0.53118362082E+02  0.29895197119E+03  0.30683137727E+03  0.51100000000E-03 0. -1.
         22    1    1    2    0    0  0.42568545273E+02  0.19509259690E+03  0.54905885347E+03  0.58424209621E+03  0.00000000000E+00 0.  1.
          2    1    1    2  501    0 -0.86746057683E+02 -0.24821095899E+03 -0.13873111272E+01  0.26293627236E+03  0.25500000000E-02 0. -1.
<mgrwt>
<rscale>  0 0.26293261E+03</rscale>
<asrwt>0</asrwt>
<pdfrwt beam="1">  1       11 0.10000000E+01 0.27365960E+03</pdfrwt>
<pdfrwt beam="2">  1        2 0.23652581E-01 0.26293261E+03</pdfrwt>
<totfact> 0.28294697E+02</totfact>
</mgrwt>
</event>
<event>
 5    1  0.2968854E-003  0.3045430E+03  0.7818608E-02  0.1281369E+00
         11   -1    0    0    0    0  0.00000000000E+00  0.00000000000E+00  0.10000279738E+04  0.10000279738E+04  0.51100000000E-03 0. -1.
         -2   -1    0    0    0  501 -0.00000000000E+00 -0.00000000000E+00 -0.23666605626E+03  0.23666605627E+03  0.25500000000E-02 0.  1.
         11    1    1    2    0    0 -0.46054633230E+02 -0.29642810598E+03  0.39003979470E+03  0.49205862730E+03  0.51100000000E-03 0. -1.
         22    1    1    2    0    0  0.14438054273E+03  0.28124221542E+03  0.49507440502E+03  0.58740241007E+03  0.00000000000E+00 0. -1.
         -2    1    1    2    0  501 -0.98325909502E+02  0.15185890554E+02 -0.12175228221E+03  0.15723299266E+03  0.25500000000E-02 0.  1.
<mgrwt>
<rscale>  0 0.99491687E+02</rscale>
<asrwt>0</asrwt>
<pdfrwt beam="1">  1       11 0.10000000E+01 0.30454297E+03</pdfrwt>
<pdfrwt beam="2">  1       -2 0.36411180E-01 0.99491687E+02</pdfrwt>
<totfact> 0.57040495E+01</totfact>
</mgrwt>
</event>
<event>
 5    1  0.2968854E-003  0.1219524E+03  0.7818608E-02  0.1242705E+00
         11   -1    0    0    0    0  0.00000000000E+00  0.00000000000E+00  0.10003245927E+04  0.10003245927E+04  0.51100000000E-03 0. -1.
         -2   -1    0    0    0  501 -0.00000000000E+00 -0.00000000000E+00 -0.15793639887E+02  0.15793640093E+02  0.25500000000E-02 0.  1.
         11    1    1    2    0    0  0.20506637410E+02 -0.93810617488E+02  0.53198209491E+03  0.54057922956E+03  0.51100000000E-03 0. -1.
         22    1    1    2    0    0  0.11569332627E+02 -0.22070223178E+02  0.99671168055E+02  0.10273892130E+03  0.00000000000E+00 0. -1.
         -2    1    1    2    0  501 -0.32075970037E+02  0.11588084067E+03  0.35287768987E+03  0.37280008195E+03  0.25500000000E-02 0.  1.
<mgrwt>
<rscale>  0 0.12023825E+03</rscale>
<asrwt>0</asrwt>
<pdfrwt beam="1">  1       11 0.10000000E+01 0.12195244E+03</pdfrwt>
<pdfrwt beam="2">  1       -2 0.24305794E-02 0.12023825E+03</pdfrwt>
<totfact> 0.42320610E+03</totfact>
</mgrwt>
</event>
<event>
 5    1  0.2968854E-003  0.1495426E+03  0.7818608E-02  0.1201036E+00
         11   -1    0    0    0    0  0.00000000000E+00  0.00000000000E+00  0.10001036162E+04  0.10001036162E+04  0.51100000000E-03 0. -1.
         -2   -1    0    0    0  501 -0.00000000000E+00 -0.00000000000E+00 -0.25500784539E+03  0.25500784540E+03  0.25500000000E-02 0.  1.
         11    1    1    2    0    0 -0.13868013024E+03 -0.38533072062E+02  0.86240280341E+03  0.87433149977E+03  0.51100000000E-03 0. -1.
         22    1    1    2    0    0 -0.94924018936E+01  0.17076625388E+02  0.10828137745E+03  0.11002987563E+03  0.00000000000E+00 0.  1.
         -2    1    1    2    0  501  0.14817253213E+03  0.21456446674E+02 -0.22558841009E+03  0.27075008616E+03  0.25500000000E-02 0.  1.
<mgrwt>
<rscale>  0 0.14954264E+03</rscale>
<asrwt>0</asrwt>
<pdfrwt beam="1">  1       11 0.10000000E+01 0.19537575E+02</pdfrwt>
<pdfrwt beam="2">  1       -2 0.39236040E-01 0.14954264E+03</pdfrwt>
<totfact> 0.49819163E+01</totfact>
</mgrwt>
</event>
<event>
 5    1  0.2968854E-003  0.1704376E+03  0.7818608E-02  0.1199355E+00
         11   -1    0    0    0    0  0.00000000000E+00  0.00000000000E+00  0.10001408380E+04  0.10001408380E+04  0.51100000000E-03 0.  1.
         -2   -1    0    0    0  501 -0.00000000000E+00 -0.00000000000E+00 -0.33835651203E+02  0.33835651299E+02  0.25500000000E-02 0.  1.
         11    1    1    2    0    0  0.46374576049E+02 -0.36870488222E+02  0.19905188780E+03  0.20768169934E+03  0.51100000000E-03 0.  1.
         22    1    1    2    0    0 -0.32819557264E+01 -0.10775969874E+03  0.55788079031E+03  0.56820234081E+03  0.00000000000E+00 0.  1.
         -2    1    1    2    0  501 -0.43092620323E+02  0.14463018696E+03  0.20937250871E+03  0.25809244916E+03  0.25500000000E-02 0.  1.
<mgrwt>
<rscale>  0 0.15091344E+03</rscale>
<asrwt>0</asrwt>
<pdfrwt beam="1">  1       11 0.10000000E+01 0.17043757E+03</pdfrwt>
<pdfrwt beam="2">  1       -2 0.52062178E-02 0.15091344E+03</pdfrwt>
<totfact> 0.14026886E+03</totfact>
</mgrwt>
</event>
<event>
 5    1  0.2968854E-003  0.1868252E+03  0.7818608E-02  0.1163960E+00
         11   -1    0    0    0    0  0.00000000000E+00  0.00000000000E+00  0.10001189721E+04  0.10001189721E+04  0.51100000000E-03 0.  1.
         -2   -1    0    0    0  501 -0.00000000000E+00 -0.00000000000E+00 -0.41481472007E+02  0.41481472085E+02  0.25500000000E-02 0. -1.
         11    1    1    2    0    0  0.48985469704E+02  0.15681414794E+03  0.57843867346E+03  0.60131651581E+03  0.51100000000E-03 0.  1.
         22    1    1    2    0    0  0.14976614336E+01  0.20155200521E+02  0.11936886818E+03  0.12106775702E+03  0.00000000000E+00 0. -1.
         -2    1    1    2    0  501 -0.50483131138E+02 -0.17696934846E+03  0.26082995848E+03  0.31921617138E+03  0.25500000000E-02 0. -1.
<mgrwt>
<rscale>  0 0.18402907E+03</rscale>
<asrwt>0</asrwt>
<pdfrwt beam="1">  1       11 0.10000000E+01 0.18682525E+03</pdfrwt>
<pdfrwt beam="2">  1       -2 0.63825240E-02 0.18402907E+03</pdfrwt>
<totfact> 0.10450535E+03</totfact>
</mgrwt>
</event>
<event>
 5    1  0.2968854E-003  0.1831702E+03  0.7818608E-02  0.1179220E+00
         11   -1    0    0    0    0  0.00000000000E+00  0.00000000000E+00  0.10001701865E+04  0.10001701865E+04  0.51100000000E-03 0. -1.
          2   -1    0    0  501    0 -0.00000000000E+00 -0.00000000000E+00 -0.34582998940E+02  0.34582999034E+02  0.25500000000E-02 0. -1.
         11    1    1    2    0    0  0.40269903386E+02 -0.13557741027E+03  0.22222581279E+03  0.26341452345E+03  0.51100000000E-03 0. -1.
         22    1    1    2    0    0  0.32556273962E+02 -0.16583849979E+02  0.11069756056E+03  0.11657137285E+03  0.00000000000E+00 0. -1.
          2    1    1    2  501    0 -0.72826177348E+02  0.15216126025E+03  0.63266381419E+03  0.65476728921E+03  0.25500000000E-02 0. -1.
<mgrwt>
<rscale>  0 0.16869114E+03</rscale>
<asrwt>0</asrwt>
<pdfrwt beam="1">  1       11 0.10000000E+01 0.18317016E+03</pdfrwt>
<pdfrwt beam="2">  1        2 0.53213667E-02 0.16869114E+03</pdfrwt>
<totfact> 0.17185505E+03</totfact>
</mgrwt>
</event>
<event>
 5    1  0.2968854E-003  0.2424577E+03  0.7818608E-02  0.1348711E+00
         11   -1    0    0    0    0  0.00000000000E+00  0.00000000000E+00  0.99996353327E+03  0.99996353327E+03  0.51100000000E-03 0. -1.
          2   -1    0    0  501    0 -0.00000000000E+00 -0.00000000000E+00 -0.12372137803E+03  0.12372137805E+03  0.25500000000E-02 0. -1.
         11    1    1    2    0    0  0.16994397762E+03  0.15363521863E+03  0.12176876863E+03  0.25944627372E+03  0.51100000000E-03 0. -1.
         22    1    1    2    0    0 -0.22527417167E+03 -0.10531552684E+03  0.75055124462E+03  0.79067501757E+03  0.00000000000E+00 0. -1.
          2    1    1    2  501    0  0.55330194052E+02 -0.48319691788E+02  0.39221419993E+01  0.73563620035E+02  0.25500000000E-02 0. -1.
<mgrwt>
<rscale>  0 0.73458989E+02</rscale>
<asrwt>0</asrwt>
<pdfrwt beam="1">  1       11 0.10000000E+01 0.24245772E+03</pdfrwt>
<pdfrwt beam="2">  1        2 0.19033364E-01 0.73458989E+02</pdfrwt>
<totfact> 0.34718026E+02</totfact>
</mgrwt>
</event>
<event>
 5    1  0.2968854E-003  0.2003353E+03  0.7818608E-02  0.1169961E+00
         11   -1    0    0    0    0  0.00000000000E+00  0.00000000000E+00  0.10003032546E+04  0.10003032546E+04  0.51100000000E-03 0. -1.
         -2   -1    0    0    0  501 -0.00000000000E+00 -0.00000000000E+00 -0.26535375725E+03  0.26535375727E+03  0.25500000000E-02 0.  1.
         11    1    1    2    0    0  0.72409477244E+02  0.15592224786E+02  0.38952207902E+03  0.39650182839E+03  0.51100000000E-03 0. -1.
         22    1    1    2    0    0  0.45953547873E+02  0.11706859254E+03  0.56944137493E+03  0.58316401072E+03  0.00000000000E+00 0. -1.
         -2    1    1    2    0  501 -0.11836302512E+03 -0.13266081732E+03 -0.22401395657E+03  0.28599117279E+03  0.25500000000E-02 0.  1.
<mgrwt>
<rscale>  0 0.17778835E+03</rscale>
<asrwt>0</asrwt>
<pdfrwt beam="1">  1       11 0.10000000E+01 0.20033534E+03</pdfrwt>
<pdfrwt beam="2">  1       -2 0.40836034E-01 0.17778835E+03</pdfrwt>
<totfact> 0.46222463E+01</totfact>
</mgrwt>
</event>
<event>
 5    1  0.2968854E-003  0.2121658E+03  0.7818608E-02  0.1145550E+00
         11   -1    0    0    0    0  0.00000000000E+00  0.00000000000E+00  0.99999241156E+03  0.99999241156E+03  0.51100000000E-03 0. -1.
          2   -1    0    0  501    0 -0.00000000000E+00 -0.00000000000E+00 -0.30274549457E+03  0.30274549458E+03  0.25500000000E-02 0. -1.
         11    1    1    2    0    0  0.24237171346E+02  0.31364213597E+02  0.13505325842E+03  0.14074990934E+03  0.51100000000E-03 0. -1.
         22    1    1    2    0    0  0.12946308030E+02  0.17028188305E+03  0.81715252031E+03  0.83480642548E+03  0.00000000000E+00 0. -1.
          2    1    1    2  501    0 -0.37183479376E+02 -0.20164609664E+03 -0.25495886173E+03  0.32718157132E+03  0.25500000000E-02 0. -1.
<mgrwt>
<rscale>  0 0.20504575E+03</rscale>
<asrwt>0</asrwt>
<pdfrwt beam="1">  1       11 0.10000000E+01 0.21216578E+03</pdfrwt>
<pdfrwt beam="2">  1        2 0.46575875E-01 0.20504575E+03</pdfrwt>
<totfact> 0.13431592E+02</totfact>
</mgrwt>
</event>
<event>
 5    1  0.2968854E-003  0.9349276E+02  0.7818608E-02  0.1294607E+00
         11   -1    0    0    0    0  0.00000000000E+00  0.00000000000E+00  0.10000750316E+04  0.10000750316E+04  0.51100000000E-03 0. -1.
         -2   -1    0    0    0  501 -0.00000000000E+00 -0.00000000000E+00 -0.63968941052E+02  0.63968941103E+02  0.25500000000E-02 0.  1.
         11    1    1    2    0    0  0.67776544238E+02  0.28687551509E+02  0.18288518082E+03  0.19713859319E+03  0.51100000000E-03 0. -1.
         22    1    1    2    0    0 -0.15462476268E+03 -0.51274265525E+02  0.75966647875E+03  0.77693695142E+03  0.00000000000E+00 0. -1.
         -2    1    1    2    0  501  0.86848218440E+02  0.22586714015E+02 -0.64455689804E+01  0.89968428141E+02  0.25500000000E-02 0.  1.
<mgrwt>
<rscale>  0 0.93492755E+02</rscale>
<asrwt>0</asrwt>
<pdfrwt beam="1">  1       11 0.10000000E+01 0.73597796E+02</pdfrwt>
<pdfrwt beam="2">  1       -2 0.98421137E-02 0.93492755E+02</pdfrwt>
<totfact> 0.51087392E+02</totfact>
</mgrwt>
</event>
<event>
 5    1  0.2968854E-003  0.2763526E+03  0.7818608E-02  0.1100547E+00
         11   -1    0    0    0    0  0.00000000000E+00  0.00000000000E+00  0.10003515397E+04  0.10003515397E+04  0.51100000000E-03 0. -1.
          2   -1    0    0  501    0 -0.00000000000E+00 -0.00000000000E+00 -0.21942116495E+03  0.21942116496E+03  0.25500000000E-02 0. -1.
         11    1    1    2    0    0  0.84651015557E+01 -0.26096711930E+03  0.84424447001E+03  0.88369916853E+03  0.51100000000E-03 0. -1.
         22    1    1    2    0    0  0.11703090232E+02 -0.95658082811E+01  0.42328361797E+02  0.44946159140E+02  0.00000000000E+00 0. -1.
          2    1    1    2  501    0 -0.20168191788E+02  0.27053292758E+03 -0.10564245710E+03  0.29112737696E+03  0.25500000000E-02 0. -1.
<mgrwt>
<rscale>  0 0.27128365E+03</rscale>
<asrwt>0</asrwt>
<pdfrwt beam="1">  1       11 0.10000000E+01 0.27635260E+03</pdfrwt>
<pdfrwt beam="2">  1        2 0.33768968E-01 0.27128365E+03</pdfrwt>
<totfact> 0.19059512E+02</totfact>
</mgrwt>
</event>
<event>
 5    1  0.2968854E-003  0.1425717E+03  0.7818608E-02  0.1211816E+00
         11   -1    0    0    0    0  0.00000000000E+00  0.00000000000E+00  0.10003304201E+04  0.10003304201E+04  0.51100000000E-03 0. -1.
         -2   -1    0    0    0  501 -0.00000000000E+00 -0.00000000000E+00 -0.21600240657E+02  0.21600240808E+02  0.25500000000E-02 0. -1.
         11    1    1    2    0    0  0.60986460265E+02 -0.10708272430E+03  0.30489811465E+03  0.32886002873E+03  0.51100000000E-03 0. -1.
         22    1    1    2    0    0  0.21359675485E+01 -0.19145008441E+02  0.52802183878E+02  0.56206443829E+02  0.00000000000E+00 0. -1.
         -2    1    1    2    0  501 -0.63122427813E+02  0.12622773274E+03  0.62102988095E+03  0.63686418839E+03  0.25500000000E-02 0. -1.
<mgrwt>
<rscale>  0 0.14113072E+03</rscale>
<asrwt>0</asrwt>
<pdfrwt beam="1">  1       11 0.10000000E+01 0.14257168E+03</pdfrwt>
<pdfrwt beam="2">  1       -2 0.33242119E-02 0.14113072E+03</pdfrwt>
<totfact> 0.27220932E+03</totfact>
</mgrwt>
</event>
<event>
 5    1  0.2968854E-003  0.1085986E+03  0.7818608E-02  0.1503366E+00
         11   -1    0    0    0    0  0.00000000000E+00  0.00000000000E+00  0.10002819926E+04  0.10002819926E+04  0.51100000000E-03 0.  1.
          2   -1    0    0  501    0 -0.00000000000E+00 -0.00000000000E+00 -0.18932298129E+02  0.18932298300E+02  0.25500000000E-02 0.  1.
         11    1    1    2    0    0  0.24918418849E+02 -0.98177692573E+02  0.17369947416E+03  0.20107534469E+03  0.51100000000E-03 0.  1.
         22    1    1    2    0    0 -0.97805815849E+01 -0.11671804079E+02  0.45900260391E+02  0.48360362804E+02  0.00000000000E+00 0.  1.
          2    1    1    2  501    0 -0.15137837264E+02  0.10984949665E+03  0.76174995993E+03  0.76977858342E+03  0.25500000000E-02 0.  1.
<mgrwt>
<rscale>  0 0.40666131E+02</rscale>
<asrwt>0</asrwt>
<pdfrwt beam="1">  1       11 0.10000000E+01 0.10859859E+03</pdfrwt>
<pdfrwt beam="2">  1        2 0.29134825E-02 0.40666131E+02</pdfrwt>
<totfact> 0.32469116E+03</totfact>
</mgrwt>
</event>
<event>
 5    1  0.2968854E-003  0.2013441E+03  0.7818608E-02  0.1165120E+00
         11   -1    0    0    0    0  0.00000000000E+00  0.00000000000E+00  0.99997757715E+03  0.99997757715E+03  0.51100000000E-03 0.  1.
          2   -1    0    0  501    0 -0.00000000000E+00 -0.00000000000E+00 -0.39360490149E+02  0.39360490232E+02  0.25500000000E-02 0.  1.
         11    1    1    2    0    0  0.14080338743E+03 -0.14001813677E+02  0.46070961427E+03  0.48194916057E+03  0.51100000000E-03 0.  1.
         22    1    1    2    0    0  0.29843876721E+02 -0.51538401543E+02  0.17131347950E+03  0.18137026237E+03  0.00000000000E+00 0.  1.
          2    1    1    2  501    0 -0.17064726415E+03  0.65540215219E+02  0.32859399323E+03  0.37601864444E+03  0.25500000000E-02 0.  1.
<mgrwt>
<rscale>  0 0.18280046E+03</rscale>
<asrwt>0</asrwt>
<pdfrwt beam="1">  1       11 0.10000000E+01 0.20134415E+03</pdfrwt>
<pdfrwt beam="2">  1        2 0.60553241E-02 0.18280046E+03</pdfrwt>
<totfact> 0.14608286E+03</totfact>
</mgrwt>
</event>
<event>
 5    1  0.2968854E-003  0.1318703E+03  0.7818608E-02  0.1228900E+00
         11   -1    0    0    0    0  0.00000000000E+00  0.00000000000E+00  0.10005455599E+04  0.10005455599E+04  0.51100000000E-03 0.  1.
         -2   -1    0    0    0  501 -0.00000000000E+00 -0.00000000000E+00 -0.21812591664E+02  0.21812591813E+02  0.25500000000E-02 0. -1.
         11    1    1    2    0    0 -0.14511396758E+02  0.68281003257E+01  0.75348304395E+02  0.77036164010E+02  0.51100000000E-03 0.  1.
         22    1    1    2    0    0 -0.57250233129E+02  0.10040679607E+03  0.65806605801E+03  0.66813924491E+03  0.00000000000E+00 0.  1.
         -2    1    1    2    0  501  0.71761629887E+02 -0.10723489640E+03  0.24531860588E+03  0.27718274284E+03  0.25500000000E-02 0. -1.
<mgrwt>
<rscale>  0 0.12903122E+03</rscale>
<asrwt>0</asrwt>
<pdfrwt beam="1">  1       11 0.10000000E+01 0.13187025E+03</pdfrwt>
<pdfrwt beam="2">  1       -2 0.33576140E-02 0.12903122E+03</pdfrwt>
<totfact> 0.26577215E+03</totfact>
</mgrwt>
</event>
<event>
 5    1  0.2968854E-003  0.2256252E+03  0.7818608E-02  0.1477632E+00
         11   -1    0    0    0    0  0.00000000000E+00  0.00000000000E+00  0.10001818044E+04  0.10001818044E+04  0.51100000000E-03 0.  1.
          2   -1    0    0  501    0 -0.00000000000E+00 -0.00000000000E+00 -0.21963875394E+03  0.21963875396E+03  0.25500000000E-02 0.  1.
         11    1    1    2    0    0 -0.21525989699E+03  0.22702072024E+02  0.59554853148E+03  0.63366415448E+03  0.51100000000E-03 0.  1.
         22    1    1    2    0    0  0.23880505545E+03 -0.60435909676E+02  0.34284204879E+03  0.42216231961E+03  0.00000000000E+00 0.  1.
          2    1    1    2  501    0 -0.23545158457E+02  0.37733837652E+02 -0.15784752983E+03  0.16399408425E+03  0.25500000000E-02 0.  1.
<mgrwt>
<rscale>  0 0.44477151E+02</rscale>
<asrwt>0</asrwt>
<pdfrwt beam="1">  1       11 0.10000000E+01 0.22562519E+03</pdfrwt>
<pdfrwt beam="2">  1        2 0.33796720E-01 0.44477151E+02</pdfrwt>
<totfact> 0.18450492E+02</totfact>
</mgrwt>
</event>
<event>
 5    1  0.2968854E-003  0.1412791E+03  0.7818608E-02  0.1211618E+00
         11   -1    0    0    0    0  0.00000000000E+00  0.00000000000E+00  0.99979124167E+03  0.99979124167E+03  0.51100000000E-03 0.  1.
          2   -1    0    0  501    0 -0.00000000000E+00 -0.00000000000E+00 -0.33067025455E+02  0.33067025554E+02  0.25500000000E-02 0.  1.
         11    1    1    2    0    0 -0.42246026742E+02 -0.62776953329E+01  0.13150209387E+03  0.13826401168E+03  0.51100000000E-03 0.  1.
         22    1    1    2    0    0  0.42622528132E+02 -0.13620862935E+03  0.62186700245E+03  0.63803451266E+03  0.00000000000E+00 0.  1.
          2    1    1    2  501    0 -0.37650139010E+00  0.14248632468E+03  0.21335511990E+03  0.25655974288E+03  0.25500000000E-02 0.  1.
<mgrwt>
<rscale>  0 0.14127908E+03</rscale>
<asrwt>0</asrwt>
<pdfrwt beam="1">  1       11 0.10000000E+01 0.42709908E+02</pdfrwt>
<pdfrwt beam="2">  1        2 0.50861725E-02 0.14127908E+03</pdfrwt>
<totfact> 0.17979903E+03</totfact>
</mgrwt>
</event>
<event>
 5    1  0.2968854E-003  0.5814987E+02  0.7818608E-02  0.1411525E+00
         11   -1    0    0    0    0  0.00000000000E+00  0.00000000000E+00  0.10000348675E+04  0.10000348675E+04  0.51100000000E-03 0. -1.
         -2   -1    0    0    0  501 -0.00000000000E+00 -0.00000000000E+00 -0.66297793679E+01  0.66297798583E+01  0.25500000000E-02 0. -1.
         11    1    1    2    0    0  0.17647325490E+02  0.44057532100E+02  0.11518000207E+03  0.12457498589E+03  0.51100000000E-03 0. -1.
         22    1    1    2    0    0 -0.17346264237E+01  0.10525154403E+02  0.27958489701E+02  0.29924320383E+02  0.00000000000E+00 0. -1.
         -2    1    1    2    0  501 -0.15912699067E+02 -0.54582686503E+02  0.85026659638E+03  0.85216534111E+03  0.25500000000E-02 0. -1.
<mgrwt>
<rscale>  0 0.56854935E+02</rscale>
<asrwt>0</asrwt>
<pdfrwt beam="1">  1       11 0.10000000E+01 0.58149874E+02</pdfrwt>
<pdfrwt beam="2">  1       -2 0.10200016E-02 0.56854935E+02</pdfrwt>
<totfact> 0.13053840E+04</totfact>
</mgrwt>
</event>
<event>
 5    1  0.2968854E-003  0.1720557E+03  0.7818608E-02  0.1187834E+00
         11   -1    0    0    0    0  0.00000000000E+00  0.00000000000E+00  0.10004583649E+04  0.10004583649E+04  0.51100000000E-03 0. -1.
          2   -1    0    0  501    0 -0.00000000000E+00 -0.00000000000E+00 -0.13073301164E+03  0.13073301166E+03  0.25500000000E-02 0. -1.
         11    1    1    2    0    0  0.31414766437E+02 -0.71050241769E+00  0.11273757481E+03  0.11703483728E+03  0.51100000000E-03 0. -1.
         22    1    1    2    0    0  0.93259266265E+02 -0.10078993074E+03  0.82734887431E+03  0.83866683535E+03  0.00000000000E+00 0. -1.
          2    1    1    2  501    0 -0.12467403270E+03  0.10150043316E+03 -0.70361095871E+02  0.17548970392E+03  0.25500000000E-02 0. -1.
<mgrwt>
<rscale>  0 0.16076676E+03</rscale>
<asrwt>0</asrwt>
<pdfrwt beam="1">  1       11 0.10000000E+01 0.17205567E+03</pdfrwt>
<pdfrwt beam="2">  1        2 0.20121989E-01 0.16076676E+03</pdfrwt>
<totfact> 0.33547811E+02</totfact>
</mgrwt>
</event>
<event>
 5    1  0.2968854E-003  0.6424616E+02  0.7818608E-02  0.1380830E+00
         11   -1    0    0    0    0  0.00000000000E+00  0.00000000000E+00  0.10002358641E+04  0.10002358641E+04  0.51100000000E-03 0. -1.
          2   -1    0    0  501    0 -0.00000000000E+00 -0.00000000000E+00 -0.74088699761E+01  0.74088704149E+01  0.25500000000E-02 0. -1.
         11    1    1    2    0    0 -0.18980372226E+02 -0.19880358277E+01  0.58908894939E+02  0.61923054830E+02  0.51100000000E-03 0. -1.
         22    1    1    2    0    0  0.61139092812E+02  0.31396496591E+02  0.23310672554E+03  0.24302772302E+03  0.00000000000E+00 0. -1.
          2    1    1    2  501    0 -0.42158720586E+02 -0.29408460763E+02  0.70081137366E+03  0.70269395667E+03  0.25500000000E-02 0. -1.
<mgrwt>
<rscale>  0 0.64246163E+02</rscale>
<asrwt>0</asrwt>
<pdfrwt beam="1">  1       11 0.10000000E+01 0.19084213E+02</pdfrwt>
<pdfrwt beam="2">  1        2 0.11400950E-02 0.64246163E+02</pdfrwt>
<totfact> 0.12074160E+04</totfact>
</mgrwt>
</event>
<event>
 5    1  0.2968854E-003  0.5731040E+02  0.7818608E-02  0.1481894E+00
         11   -1    0    0    0    0  0.00000000000E+00  0.00000000000E+00  0.99988016684E+03  0.99988016684E+03  0.51100000000E-03 0.  1.
          2   -1    0    0  501    0 -0.00000000000E+00 -0.00000000000E+00 -0.58610220245E+01  0.58610225792E+01  0.25500000000E-02 0.  1.
         11    1    1    2    0    0  0.25612702854E+02 -0.40140065129E+02  0.25810913635E+03  0.26246440072E+03  0.51100000000E-03 0.  1.
         22    1    1    2    0    0  0.33421907358E+02  0.21918275863E+01  0.19888010322E+03  0.20168074637E+03  0.00000000000E+00 0.  1.
          2    1    1    2  501    0 -0.59034610212E+02  0.37948237543E+02  0.53702990524E+03  0.54159604233E+03  0.25500000000E-02 0.  1.
<mgrwt>
<rscale>  0 0.43812526E+02</rscale>
<asrwt>0</asrwt>
<pdfrwt beam="1">  1       11 0.10000000E+01 0.57310401E+02</pdfrwt>
<pdfrwt beam="2">  1        2 0.90158766E-03 0.43812526E+02</pdfrwt>
<totfact> 0.15452465E+04</totfact>
</mgrwt>
</event>
<event>
 5    1  0.2968854E-003  0.6431508E+03  0.7818608E-02  0.9819717E-01
         11   -1    0    0    0    0  0.00000000000E+00  0.00000000000E+00  0.10001279468E+04  0.10001279468E+04  0.51100000000E-03 0.  1.
          2   -1    0    0  501    0 -0.00000000000E+00 -0.00000000000E+00 -0.52295536096E+03  0.52295536096E+03  0.25500000000E-02 0.  1.
         11    1    1    2    0    0 -0.12169511081E+02 -0.15808565660E+02 -0.12948946313E+02  0.23784090461E+02  0.51100000000E-03 0.  1.
         22    1    1    2    0    0 -0.62108356763E+03  0.15787408395E+03 -0.66535263181E+02  0.64427941579E+03  0.00000000000E+00 0.  1.
          2    1    1    2  501    0  0.63325307871E+03 -0.14206551829E+03  0.55665679533E+03  0.85501980151E+03  0.25500000000E-02 0.  1.
<mgrwt>
<rscale>  0 0.64315083E+03</rscale>
<asrwt>0</asrwt>
<pdfrwt beam="1">  1       11 0.10000000E+01 0.19950142E+02</pdfrwt>
<pdfrwt beam="2">  1        2 0.80464963E-01 0.64315083E+03</pdfrwt>
<totfact> 0.72535763E+01</totfact>
</mgrwt>
</event>
<event>
 5    1  0.2968854E-003  0.1123144E+03  0.7818608E-02  0.1261035E+00
         11   -1    0    0    0    0  0.00000000000E+00  0.00000000000E+00  0.99998003589E+03  0.99998003589E+03  0.51100000000E-03 0.  1.
          2   -1    0    0  501    0 -0.00000000000E+00 -0.00000000000E+00 -0.12335040698E+02  0.12335040961E+02  0.25500000000E-02 0.  1.
         11    1    1    2    0    0 -0.32539107062E+02 -0.77205518718E+00  0.10659250220E+03  0.11145111521E+03  0.51100000000E-03 0.  1.
         22    1    1    2    0    0 -0.74700491528E+02 -0.22564240478E+02  0.38111483771E+03  0.38902162910E+03  0.00000000000E+00 0.  1.
          2    1    1    2  501    0  0.10723959859E+03  0.23336295665E+02  0.49993765528E+03  0.51184233254E+03  0.25500000000E-02 0.  1.
<mgrwt>
<rscale>  0 0.10974932E+03</rscale>
<asrwt>0</asrwt>
<pdfrwt beam="1">  1       11 0.10000000E+01 0.11231437E+03</pdfrwt>
<pdfrwt beam="2">  1        2 0.18976606E-02 0.10974932E+03</pdfrwt>
<totfact> 0.65419174E+03</totfact>
</mgrwt>
</event>
<event>
 5    1  0.2968854E-003  0.3643800E+02  0.7818608E-02  0.1654412E+00
         11   -1    0    0    0    0  0.00000000000E+00  0.00000000000E+00  0.10002533424E+04  0.10002533424E+04  0.51100000000E-03 0. -1.
          2   -1    0    0  501    0 -0.00000000000E+00 -0.00000000000E+00 -0.62581709709E+01  0.62581714904E+01  0.25500000000E-02 0. -1.
         11    1    1    2    0    0 -0.49640449549E+02  0.14313042407E+02  0.19245171605E+03  0.19926540197E+03  0.51100000000E-03 0. -1.
         22    1    1    2    0    0  0.17790574687E+02 -0.45286909160E+00  0.29715707689E+02  0.34637160992E+02  0.00000000000E+00 0. -1.
          2    1    1    2  501    0  0.31849874862E+02 -0.13860173315E+02  0.77182774774E+03  0.77260895097E+03  0.25500000000E-02 0. -1.
<mgrwt>
<rscale>  0 0.25464930E+02</rscale>
<asrwt>0</asrwt>
<pdfrwt beam="1">  1       11 0.10000000E+01 0.36438000E+02</pdfrwt>
<pdfrwt beam="2">  1        2 0.96303946E-03 0.25464930E+02</pdfrwt>
<totfact> 0.12651833E+04</totfact>
</mgrwt>
</event>
<event>
 5    1  0.2968854E-003  0.3274438E+03  0.7818608E-02  0.1073169E+00
         11   -1    0    0    0    0  0.00000000000E+00  0.00000000000E+00  0.10002690721E+04  0.10002690721E+04  0.51100000000E-03 0. -1.
          2   -1    0    0  501    0 -0.00000000000E+00 -0.00000000000E+00 -0.22439496295E+03  0.22439496296E+03  0.25500000000E-02 0. -1.
         11    1    1    2    0    0  0.31033097735E+03  0.27086284631E+02  0.77143184318E+03  0.83195316634E+03  0.51100000000E-03 0. -1.
         22    1    1    2    0    0  0.13881906224E+02  0.12407074480E+01  0.60836840064E+02  0.62412881558E+02  0.00000000000E+00 0.  1.
          2    1    1    2  501    0 -0.32421288358E+03 -0.28326992079E+02 -0.56394574049E+02  0.33029798720E+03  0.25500000000E-02 0. -1.
<mgrwt>
<rscale>  0 0.32544802E+03</rscale>
<asrwt>0</asrwt>
<pdfrwt beam="1">  1       11 0.10000000E+01 0.32744384E+03</pdfrwt>
<pdfrwt beam="2">  1        2 0.34531590E-01 0.32544802E+03</pdfrwt>
<totfact> 0.18632331E+02</totfact>
</mgrwt>
</event>
<event>
 5    1  0.2968854E-003  0.4610630E+02  0.7818608E-02  0.1483224E+00
         11   -1    0    0    0    0  0.00000000000E+00  0.00000000000E+00  0.99996039078E+03  0.99996039078E+03  0.51100000000E-03 0.  1.
          2   -1    0    0  501    0 -0.00000000000E+00 -0.00000000000E+00 -0.36623887184E+01  0.36623896062E+01  0.25500000000E-02 0.  1.
         11    1    1    2    0    0  0.22641014079E+02  0.37493929835E+01  0.70060658449E+02  0.73723600894E+02  0.51100000000E-03 0.  1.
         22    1    1    2    0    0  0.16772008233E+02  0.14912284039E+02  0.98944970981E+02  0.10145828580E+03  0.00000000000E+00 0.  1.
          2    1    1    2  501    0 -0.39413022312E+02 -0.18661677023E+02  0.82729237263E+03  0.82844089369E+03  0.25500000000E-02 0.  1.
<mgrwt>
<rscale>  0 0.43607849E+02</rscale>
<asrwt>0</asrwt>
<pdfrwt beam="1">  1       11 0.10000000E+01 0.46106297E+02</pdfrwt>
<pdfrwt beam="2">  1        2 0.56342215E-03 0.43607849E+02</pdfrwt>
<totfact> 0.29009465E+04</totfact>
</mgrwt>
</event>
<event>
 5    1  0.2968854E-003  0.3222065E+02  0.7818608E-02  0.1581924E+00
         11   -1    0    0    0    0  0.00000000000E+00  0.00000000000E+00  0.10001821976E+04  0.10001821976E+04  0.51100000000E-03 0.  1.
          2   -1    0    0  501    0 -0.00000000000E+00 -0.00000000000E+00 -0.86765568824E+01  0.86765572572E+01  0.25500000000E-02 0.  1.
         11    1    1    2    0    0  0.50674433461E+02 -0.11913560881E+02  0.92908710488E+02  0.10649816723E+03  0.51100000000E-03 0.  1.
         22    1    1    2    0    0 -0.28815194546E+02 -0.10946624348E+02  0.15200050761E+03  0.15509448196E+03  0.00000000000E+00 0.  1.
          2    1    1    2  501    0 -0.21859238915E+02  0.22860185229E+02  0.74659642260E+03  0.74726610564E+03  0.25500000000E-02 0.  1.
<mgrwt>
<rscale>  0 0.31514791E+02</rscale>
<asrwt>0</asrwt>
<pdfrwt beam="1">  1       11 0.10000000E+01 0.32220654E+02</pdfrwt>
<pdfrwt beam="2">  1        2 0.13350981E-02 0.31514791E+02</pdfrwt>
<totfact> 0.86149124E+03</totfact>
</mgrwt>
</event>
<event>
 5    1  0.2968854E-003  0.1861535E+03  0.7818608E-02  0.1165408E+00
         11   -1    0    0    0    0  0.00000000000E+00  0.00000000000E+00  0.10002910260E+04  0.10002910260E+04  0.51100000000E-03 0.  1.
          2   -1    0    0  501    0 -0.00000000000E+00 -0.00000000000E+00 -0.10214615834E+03  0.10214615837E+03  0.25500000000E-02 0.  1.
         11    1    1    2    0    0 -0.60404799887E+02 -0.12149776729E+03  0.62561828702E+03  0.64016301702E+03  0.51100000000E-03 0.  1.
         22    1    1    2    0    0 -0.38281144917E+02 -0.32015038333E+02  0.27526970145E+03  0.27975671086E+03  0.00000000000E+00 0.  1.
          2    1    1    2  501    0  0.98685944804E+02  0.15351280562E+03 -0.27431208465E+01  0.18251745646E+03  0.25500000000E-02 0.  1.
<mgrwt>
<rscale>  0 0.18249684E+03</rscale>
<asrwt>0</asrwt>
<pdfrwt beam="1">  1       11 0.10000000E+01 0.18615353E+03</pdfrwt>
<pdfrwt beam="2">  1        2 0.15719367E-01 0.18249684E+03</pdfrwt>
<totfact> 0.44806716E+02</totfact>
</mgrwt>
</event>
<event>
 5    1  0.2968854E-003  0.1134701E+03  0.7818608E-02  0.1339808E+00
         11   -1    0    0    0    0  0.00000000000E+00  0.00000000000E+00  0.10003310049E+04  0.10003310049E+04  0.51100000000E-03 0. -1.
          2   -1    0    0  501    0 -0.00000000000E+00 -0.00000000000E+00 -0.39179759745E+02  0.39179759828E+02  0.25500000000E-02 0. -1.
         11    1    1    2    0    0  0.46979926483E+02  0.12710365813E+03  0.31785951615E+03  0.34553889132E+03  0.51100000000E-03 0. -1.
         22    1    1    2    0    0  0.26936800563E+02 -0.10807063043E+03  0.59111103268E+03  0.60151234845E+03  0.00000000000E+00 0. -1.
          2    1    1    2  501    0 -0.73916727046E+02 -0.19033027699E+02  0.52180696326E+02  0.92459524962E+02  0.25500000000E-02 0. -1.
<mgrwt>
<rscale>  0 0.76327837E+02</rscale>
<asrwt>0</asrwt>
<pdfrwt beam="1">  1       11 0.10000000E+01 0.11347007E+03</pdfrwt>
<pdfrwt beam="2">  1        2 0.60296504E-02 0.76327837E+02</pdfrwt>
<totfact> 0.13721368E+03</totfact>
</mgrwt>
</event>
<event>
 5    1  0.2968854E-003  0.2808424E+03  0.7818608E-02  0.1097380E+00
         11   -1    0    0    0    0  0.00000000000E+00  0.00000000000E+00  0.10005093245E+04  0.10005093245E+04  0.51100000000E-03 0. -1.
          2   -1    0    0  501    0 -0.00000000000E+00 -0.00000000000E+00 -0.22320189060E+03  0.22320189061E+03  0.25500000000E-02 0. -1.
         11    1    1    2    0    0  0.67281058107E+02 -0.26178964898E+03  0.85645857307E+03  0.89809901930E+03  0.51100000000E-03 0. -1.
         22    1    1    2    0    0  0.94472573949E+01 -0.42942421263E+01  0.27087422096E+02  0.29007233986E+02  0.00000000000E+00 0. -1.
          2    1    1    2  501    0 -0.76728315502E+02  0.26608389110E+03 -0.10623856122E+03  0.29660496186E+03  0.25500000000E-02 0. -1.
<mgrwt>
<rscale>  0 0.27692575E+03</rscale>
<asrwt>0</asrwt>
<pdfrwt beam="1">  1       11 0.10000000E+01 0.28084245E+03</pdfrwt>
<pdfrwt beam="2">  1        2 0.34356241E-01 0.27692575E+03</pdfrwt>
<totfact> 0.18707262E+02</totfact>
</mgrwt>
</event>
<event>
 5    1  0.2968854E-003  0.1230976E+03  0.7818608E-02  0.1726111E+00
         11   -1    0    0    0    0  0.00000000000E+00  0.00000000000E+00  0.10004801253E+04  0.10004801253E+04  0.51100000000E-03 0. -1.
         -2   -1    0    0    0  501 -0.00000000000E+00 -0.00000000000E+00 -0.26445846829E+02  0.26445846952E+02  0.25500000000E-02 0.  1.
         11    1    1    2    0    0 -0.12814900678E+03  0.41444166696E+02  0.42090952354E+03  0.44193281604E+03  0.51100000000E-03 0. -1.
         22    1    1    2    0    0  0.10747012521E+03 -0.45112446294E+02  0.55177194670E+03  0.56394790698E+03  0.00000000000E+00 0.  1.
         -2    1    1    2    0  501  0.20678881570E+02  0.36682795983E+01  0.13528082288E+01  0.21045249222E+02  0.25500000000E-02 0.  1.
<mgrwt>
<rscale>  0 0.21001724E+02</rscale>
<asrwt>0</asrwt>
<pdfrwt beam="1">  1       11 0.10000000E+01 0.12309762E+03</pdfrwt>
<pdfrwt beam="2">  1       -2 0.40705451E-02 0.21001724E+02</pdfrwt>
<totfact> 0.15954512E+03</totfact>
</mgrwt>
</event>
<event>
 5    1  0.2968854E-003  0.1045680E+03  0.7818608E-02  0.1281232E+00
         11   -1    0    0    0    0  0.00000000000E+00  0.00000000000E+00  0.10001670253E+04  0.10001670253E+04  0.51100000000E-03 0.  1.
          2   -1    0    0  501    0 -0.00000000000E+00 -0.00000000000E+00 -0.10428486661E+02  0.10428486972E+02  0.25500000000E-02 0.  1.
         11    1    1    2    0    0  0.62312141440E+02 -0.61339377384E+02  0.44759349577E+03  0.45605400957E+03  0.51100000000E-03 0.  1.
         22    1    1    2    0    0  0.14771576880E+02 -0.16649955849E+01  0.41204240120E+02  0.43803665345E+02  0.00000000000E+00 0.  1.
          2    1    1    2  501    0 -0.77083718320E+02  0.63004372969E+02  0.50094080276E+03  0.51073783737E+03  0.25500000000E-02 0.  1.
<mgrwt>
<rscale>  0 0.99556269E+02</rscale>
<asrwt>0</asrwt>
<pdfrwt beam="1">  1       11 0.10000000E+01 0.10456801E+03</pdfrwt>
<pdfrwt beam="2">  1        2 0.16046505E-02 0.99556269E+02</pdfrwt>
<totfact> 0.81127277E+03</totfact>
</mgrwt>
</event>
<event>
 5    1  0.2968854E-003  0.1737158E+03  0.7818608E-02  0.1324032E+00
         11   -1    0    0    0    0  0.00000000000E+00  0.00000000000E+00  0.10002337663E+04  0.10002337663E+04  0.51100000000E-03 0. -1.
          2   -1    0    0  501    0 -0.00000000000E+00 -0.00000000000E+00 -0.16835255488E+03  0.16835255490E+03  0.25500000000E-02 0.  1.
         11    1    1    2    0    0 -0.15371487069E+03  0.47580658216E+01  0.17389588314E+03  0.23214365991E+03  0.51100000000E-03 0. -1.
         22    1    1    2    0    0  0.16963742626E+03  0.75472574995E+02  0.77318067896E+03  0.79516119641E+03  0.00000000000E+00 0. -1.
          2    1    1    2  501    0 -0.15922555569E+02 -0.80230640817E+02 -0.11519535066E+03  0.14128146489E+03  0.25500000000E-02 0.  1.
<mgrwt>
<rscale>  0 0.81795376E+02</rscale>
<asrwt>0</asrwt>
<pdfrwt beam="1">  1       11 0.10000000E+01 0.17371578E+03</pdfrwt>
<pdfrwt beam="2">  1        2 0.25906447E-01 0.81795376E+02</pdfrwt>
<totfact> 0.24843597E+02</totfact>
</mgrwt>
</event>
<event>
 5    1  0.3145635E-003  0.1895577E+03  0.7818608E-02  0.1162602E+00
         11   -1    0    0    0    0  0.00000000000E+00  0.00000000000E+00  0.10004230217E+04  0.10004230217E+04  0.51100000000E-03 0.  1.
          2   -1    0    0  501    0 -0.00000000000E+00 -0.00000000000E+00 -0.61338785829E+03  0.61338785829E+03  0.25500000000E-02 0.  1.
         11    1    1    2    0    0  0.16485620843E+03 -0.36717302096E+02  0.93373776779E+03  0.94888985068E+03  0.51100000000E-03 0.  1.
         22    1    1    2    0    0  0.16252484094E+02 -0.33163360339E+01  0.43343331875E+02  0.46408897228E+02  0.00000000000E+00 0. -1.
          2    1    1    2  501    0 -0.18110869252E+03  0.40033638130E+02 -0.59004593623E+03  0.61851213210E+03  0.25500000000E-02 0.  1.
<mgrwt>
<rscale>  0 0.18548059E+03</rscale>
<asrwt>0</asrwt>
<pdfrwt beam="1">  1       11 0.10000000E+01 0.18955770E+03</pdfrwt>
<pdfrwt beam="2">  1        2 0.94407280E-01 0.18548059E+03</pdfrwt>
<totfact> 0.61852780E+01</totfact>
</mgrwt>
</event>
<event>
 5    1  0.2968854E-003  0.8937985E+02  0.7818608E-02  0.1312912E+00
         11   -1    0    0    0    0  0.00000000000E+00  0.00000000000E+00  0.99980764313E+03  0.99980764313E+03  0.51100000000E-03 0. -1.
         -2   -1    0    0    0  501 -0.00000000000E+00 -0.00000000000E+00 -0.88440530474E+01  0.88440534150E+01  0.25500000000E-02 0. -1.
         11    1    1    2    0    0  0.73581665660E+02  0.19090538245E+02  0.30521911384E+03  0.31454318880E+03  0.51100000000E-03 0. -1.
         22    1    1    2    0    0  0.91571706836E+01  0.42624101648E+01  0.16367317433E+02  0.19233070355E+02  0.00000000000E+00 0. -1.
         -2    1    1    2    0  501 -0.82738836344E+02 -0.23352948410E+02  0.66937715881E+03  0.67487543738E+03  0.25500000000E-02 0. -1.
<mgrwt>
<rscale>  0 0.85971363E+02</rscale>
<asrwt>0</asrwt>
<pdfrwt beam="1">  1       11 0.10000000E+01 0.89379855E+02</pdfrwt>
<pdfrwt beam="2">  1       -2 0.13603618E-02 0.85971363E+02</pdfrwt>
<totfact> 0.93182445E+03</totfact>
</mgrwt>
</event>
<event>
 5    1  0.2968854E-003  0.1884101E+03  0.7818608E-02  0.1225623E+00
         11   -1    0    0    0    0  0.00000000000E+00  0.00000000000E+00  0.10001340497E+04  0.10001340497E+04  0.51100000000E-03 0. -1.
          2   -1    0    0  501    0 -0.00000000000E+00 -0.00000000000E+00 -0.25255457628E+03  0.25255457630E+03  0.25500000000E-02 0. -1.
         11    1    1    2    0    0 -0.17919392237E+03  0.53065354191E+02  0.85034606671E+03  0.87064046931E+03  0.51100000000E-03 0. -1.
         22    1    1    2    0    0 -0.72931738350E+01  0.91130367207E+02  0.46967768342E+02  0.10278086142E+03  0.00000000000E+00 0.  1.
          2    1    1    2  501    0  0.18648709620E+03 -0.14419572140E+03 -0.14973436166E+03  0.27926729524E+03  0.25500000000E-02 0. -1.
<mgrwt>
<rscale>  0 0.13124321E+03</rscale>
<asrwt>0</asrwt>
<pdfrwt beam="1">  1       11 0.10000000E+01 0.18841012E+03</pdfrwt>
<pdfrwt beam="2">  1        2 0.38859758E-01 0.13124321E+03</pdfrwt>
<totfact> 0.16249136E+02</totfact>
</mgrwt>
</event>
<event>
 5    1  0.2968854E-003  0.6312266E+02  0.7818608E-02  0.1385176E+00
         11   -1    0    0    0    0  0.00000000000E+00  0.00000000000E+00  0.10002454424E+04  0.10002454424E+04  0.51100000000E-03 0.  1.
          2   -1    0    0  501    0 -0.00000000000E+00 -0.00000000000E+00 -0.13111903245E+02  0.13111903493E+02  0.25500000000E-02 0.  1.
         11    1    1    2    0    0 -0.11143666443E+02 -0.37621016134E+02  0.62118564357E+02  0.73472703739E+02  0.51100000000E-03 0.  1.
         22    1    1    2    0    0 -0.61011900524E+02  0.88209747233E+01  0.16907429354E+03  0.17996215807E+03  0.00000000000E+00 0.  1.
          2    1    1    2  501    0  0.72155566967E+02  0.28800041411E+02  0.75594068122E+03  0.75992248405E+03  0.25500000000E-02 0.  1.
<mgrwt>
<rscale>  0 0.63122656E+02</rscale>
<asrwt>0</asrwt>
<pdfrwt beam="1">  1       11 0.10000000E+01 0.39236765E+02</pdfrwt>
<pdfrwt beam="2">  1        2 0.20177110E-02 0.63122656E+02</pdfrwt>
<totfact> 0.55955501E+03</totfact>
</mgrwt>
</event>
<event>
 5    1  0.2968854E-003  0.1746282E+03  0.7818608E-02  0.1173106E+00
         11   -1    0    0    0    0  0.00000000000E+00  0.00000000000E+00  0.10003502124E+04  0.10003502124E+04  0.51100000000E-03 0. -1.
          2   -1    0    0  501    0 -0.00000000000E+00 -0.00000000000E+00 -0.89726196155E+02  0.89726196192E+02  0.25500000000E-02 0. -1.
         11    1    1    2    0    0 -0.13579872840E+03 -0.50921382707E+02  0.53989244065E+03  0.55903320950E+03  0.51100000000E-03 0. -1.
         22    1    1    2    0    0 -0.60382752729E+01 -0.62450500631E+02  0.34139155675E+03  0.34710909066E+03  0.00000000000E+00 0.  1.
          2    1    1    2  501    0  0.14183700367E+03  0.11337188334E+03  0.29340018869E+02  0.18393410846E+03  0.25500000000E-02 0. -1.
<mgrwt>
<rscale>  0 0.17462822E+03</rscale>
<asrwt>0</asrwt>
<pdfrwt beam="1">  1       11 0.10000000E+01 0.62741739E+02</pdfrwt>
<pdfrwt beam="2">  1        2 0.13808864E-01 0.17462822E+03</pdfrwt>
<totfact> 0.52132939E+02</totfact>
</mgrwt>
</event>
<event>
 5    1  0.2968854E-003  0.2976118E+03  0.7818608E-02  0.1097790E+00
         11   -1    0    0    0    0  0.00000000000E+00  0.00000000000E+00  0.99975361157E+03  0.99975361157E+03  0.51100000000E-03 0. -1.
          2   -1    0    0  501    0 -0.00000000000E+00 -0.00000000000E+00 -0.84958272068E+02  0.84958272106E+02  0.25500000000E-02 0. -1.
         11    1    1    2    0    0  0.39820536141E+02  0.44159035268E+02  0.44228234120E+02  0.74106897034E+02  0.51100000000E-03 0. -1.
         22    1    1    2    0    0  0.17056796356E+03  0.13477138450E+03  0.52501878571E+03  0.56824420950E+03  0.00000000000E+00 0. -1.
          2    1    1    2  501    0 -0.21038849970E+03 -0.17893041977E+03  0.34554831967E+03  0.44236077715E+03  0.25500000000E-02 0. -1.
<mgrwt>
<rscale>  0 0.27618728E+03</rscale>
<asrwt>0</asrwt>
<pdfrwt beam="1">  1       11 0.10000000E+01 0.29761178E+03</pdfrwt>
<pdfrwt beam="2">  1        2 0.13067283E-01 0.27618728E+03</pdfrwt>
<totfact> 0.56752465E+02</totfact>
</mgrwt>
</event>
<event>
 5    1  0.2968854E-003  0.1723318E+03  0.7818608E-02  0.1429647E+00
         11   -1    0    0    0    0  0.00000000000E+00  0.00000000000E+00  0.10001134303E+04  0.10001134303E+04  0.51100000000E-03 0. -1.
          2   -1    0    0  501    0 -0.00000000000E+00 -0.00000000000E+00 -0.51261334401E+02  0.51261334465E+02  0.25500000000E-02 0. -1.
         11    1    1    2    0    0  0.24014811344E+02  0.17071843656E+03  0.77599874595E+03  0.79491858040E+03  0.51100000000E-03 0. -1.
         22    1    1    2    0    0 -0.16221513180E+02  0.17809528633E+01  0.20290889827E+02  0.26038999460E+02  0.00000000000E+00 0.  1.
          2    1    1    2  501    0 -0.77932981649E+01 -0.17249938942E+03  0.15256246007E+03  0.23041718486E+03  0.25500000000E-02 0. -1.
<mgrwt>
<rscale>  0 0.53030930E+02</rscale>
<asrwt>0</asrwt>
<pdfrwt beam="1">  1       11 0.10000000E+01 0.17233177E+03</pdfrwt>
<pdfrwt beam="2">  1        2 0.78872535E-02 0.53030930E+02</pdfrwt>
<totfact> 0.95270156E+02</totfact>
</mgrwt>
</event>
<event>
 5    1  0.2968854E-003  0.3472680E+03  0.7818608E-02  0.1064890E+00
         11   -1    0    0    0    0  0.00000000000E+00  0.00000000000E+00  0.10002064561E+04  0.10002064561E+04  0.51100000000E-03 0. -1.
          2   -1    0    0  501    0 -0.00000000000E+00 -0.00000000000E+00 -0.12410288993E+03  0.12410288996E+03  0.25500000000E-02 0. -1.
         11    1    1    2    0    0 -0.30478087460E+03  0.94434173467E+02  0.30128071103E+03  0.43883853691E+03  0.51100000000E-03 0. -1.
         22    1    1    2    0    0 -0.27679904984E+02 -0.41106558554E+01  0.31554341074E+02  0.42175242407E+02  0.00000000000E+00 0. -1.
          2    1    1    2  501    0  0.33246077959E+03 -0.90323517612E+02  0.54326851402E+03  0.64329556669E+03  0.25500000000E-02 0. -1.
<mgrwt>
<rscale>  0 0.34451198E+03</rscale>
<asrwt>0</asrwt>
<pdfrwt beam="1">  1       11 0.10000000E+01 0.34726803E+03</pdfrwt>
<pdfrwt beam="2">  1        2 0.19096694E-01 0.34451198E+03</pdfrwt>
<totfact> 0.36400544E+02</totfact>
</mgrwt>
</event>
<event>
 5    1  0.2968854E-003  0.1093829E+03  0.7818608E-02  0.1674015E+00
         11   -1    0    0    0    0  0.00000000000E+00  0.00000000000E+00  0.10002726517E+04  0.10002726517E+04  0.51100000000E-03 0. -1.
         -2   -1    0    0    0  501 -0.00000000000E+00 -0.00000000000E+00 -0.35298318626E+02  0.35298318718E+02  0.25500000000E-02 0.  1.
         11    1    1    2    0    0  0.47557178867E+02  0.86534272880E+02  0.35728026477E+03  0.37067378278E+03  0.51100000000E-03 0. -1.
         22    1    1    2    0    0 -0.43633166474E+02 -0.11033013651E+03  0.62439152963E+03  0.63556382411E+03  0.00000000000E+00 0. -1.
         -2    1    1    2    0  501 -0.39240123934E+01  0.23795863631E+02 -0.16697461280E+02  0.29333363580E+02  0.25500000000E-02 0.  1.
<mgrwt>
<rscale>  0 0.24117235E+02</rscale>
<asrwt>0</asrwt>
<pdfrwt beam="1">  1       11 0.10000000E+01 0.10938289E+03</pdfrwt>
<pdfrwt beam="2">  1       -2 0.54319910E-02 0.24117235E+02</pdfrwt>
<totfact> 0.10826583E+03</totfact>
</mgrwt>
</event>
<event>
 5    1  0.2968854E-003  0.1947908E+03  0.7818608E-02  0.1159992E+00
         11   -1    0    0    0    0  0.00000000000E+00  0.00000000000E+00  0.99964185791E+03  0.99964185791E+03  0.51100000000E-03 0. -1.
          2   -1    0    0  501    0 -0.00000000000E+00 -0.00000000000E+00 -0.15449010531E+04  0.15449010531E+04  0.25500000000E-02 0. -1.
         11    1    1    2    0    0 -0.42318998723E+02 -0.36919068598E+02  0.25968000590E+03  0.26568330912E+03  0.51100000000E-03 0. -1.
         22    1    1    2    0    0 -0.40140014327E+02 -0.13238059783E+03  0.72464325248E+03  0.73772873524E+03  0.00000000000E+00 0. -1.
          2    1    1    2  501    0  0.82459013049E+02  0.16929966642E+03 -0.15295824536E+04  0.15411308667E+04  0.25500000000E-02 0. -1.
<mgrwt>
<rscale>  0 0.18831321E+03</rscale>
<asrwt>0</asrwt>
<pdfrwt beam="1">  1       11 0.10000000E+01 0.19479079E+03</pdfrwt>
<pdfrwt beam="2">  1        2 0.23759196E+00 0.18831321E+03</pdfrwt>
<totfact> 0.16660117E+01</totfact>
</mgrwt>
</event>
<event>
 5    1  0.2968854E-003  0.1751919E+03  0.7818608E-02  0.1267013E+00
         11   -1    0    0    0    0  0.00000000000E+00  0.00000000000E+00  0.10001931674E+04  0.10001931674E+04  0.51100000000E-03 0. -1.
          2   -1    0    0  501    0 -0.00000000000E+00 -0.00000000000E+00 -0.10136607595E+04  0.10136607595E+04  0.25500000000E-02 0. -1.
         11    1    1    2    0    0  0.90838961641E+02 -0.58335541646E+02  0.93877615651E+02  0.14306557619E+03  0.51100000000E-03 0. -1.
         22    1    1    2    0    0 -0.15181737649E+03  0.14576317226E+03  0.86621169450E+03  0.89141355042E+03  0.00000000000E+00 0. -1.
          2    1    1    2  501    0  0.60978414846E+02 -0.87427630619E+02 -0.97355690217E+03  0.97937480029E+03  0.25500000000E-02 0. -1.
<mgrwt>
<rscale>  0 0.10659248E+03</rscale>
<asrwt>0</asrwt>
<pdfrwt beam="1">  1       11 0.10000000E+01 0.17519191E+03</pdfrwt>
<pdfrwt beam="2">  1        2 0.15597793E+00 0.10659248E+03</pdfrwt>
<totfact> 0.33744697E+01</totfact>
</mgrwt>
</event>
<event>
 5    1  0.2968854E-003  0.9086573E+02  0.7818608E-02  0.1426522E+00
         11   -1    0    0    0    0  0.00000000000E+00  0.00000000000E+00  0.10001393949E+04  0.10001393949E+04  0.51100000000E-03 0. -1.
          2   -1    0    0  501    0 -0.00000000000E+00 -0.00000000000E+00 -0.14644148958E+02  0.14644149180E+02  0.25500000000E-02 0. -1.
         11    1    1    2    0    0 -0.72411431374E+02 -0.32708903459E+02  0.21781961380E+03  0.23185916397E+03  0.51100000000E-03 0. -1.
         22    1    1    2    0    0 -0.24250240405E+02  0.20406677585E+02  0.53895359614E+02  0.62523726998E+02  0.00000000000E+00 0. -1.
          2    1    1    2  501    0  0.96661671779E+02  0.12302225874E+02  0.71378027254E+03  0.72040065313E+03  0.25500000000E-02 0. -1.
<mgrwt>
<rscale>  0 0.53664633E+02</rscale>
<asrwt>0</asrwt>
<pdfrwt beam="1">  1       11 0.10000000E+01 0.90865734E+02</pdfrwt>
<pdfrwt beam="2">  1        2 0.22532600E-02 0.53664633E+02</pdfrwt>
<totfact> 0.47234546E+03</totfact>
</mgrwt>
</event>
<event>
 5    1  0.2968854E-003  0.2526799E+03  0.7818608E-02  0.1115353E+00
         11   -1    0    0    0    0  0.00000000000E+00  0.00000000000E+00  0.10000345598E+04  0.10000345598E+04  0.51100000000E-03 0. -1.
          2   -1    0    0  501    0 -0.00000000000E+00 -0.00000000000E+00 -0.48510993241E+03  0.48510993242E+03  0.25500000000E-02 0.  1.
         11    1    1    2    0    0 -0.24407519749E+02 -0.15297347972E+03  0.58886631157E+03  0.60890076812E+03  0.51100000000E-03 0. -1.
         22    1    1    2    0    0 -0.55363047875E+02 -0.80564193590E+02  0.36217980705E+03  0.37513979927E+03  0.00000000000E+00 0. -1.
          2    1    1    2  501    0  0.79770567624E+02  0.23353767331E+03 -0.43612149125E+03  0.50110392481E+03  0.25500000000E-02 0.  1.
<mgrwt>
<rscale>  0 0.24678571E+03</rscale>
<asrwt>0</asrwt>
<pdfrwt beam="1">  1       11 0.10000000E+01 0.25267987E+03</pdfrwt>
<pdfrwt beam="2">  1        2 0.74634874E-01 0.24678571E+03</pdfrwt>
<totfact> 0.80321236E+01</totfact>
</mgrwt>
</event>
<event>
 5    1  0.2968854E-003  0.1551374E+03  0.7818608E-02  0.1233975E+00
         11   -1    0    0    0    0  0.00000000000E+00  0.00000000000E+00  0.99999279556E+03  0.99999279556E+03  0.51100000000E-03 0. -1.
          2   -1    0    0  501    0 -0.00000000000E+00 -0.00000000000E+00 -0.61002698729E+02  0.61002698783E+02  0.25500000000E-02 0. -1.
         11    1    1    2    0    0 -0.14531789211E+03  0.71919445923E+02  0.63966263125E+03  0.65989239902E+03  0.51100000000E-03 0. -1.
         22    1    1    2    0    0 -0.69602330669E+01 -0.10161459891E+03  0.17417864078E+03  0.20177257113E+03  0.00000000000E+00 0.  1.
          2    1    1    2  501    0  0.15227812518E+03  0.29695152991E+02  0.12514882480E+03  0.19933052419E+03  0.25500000000E-02 0. -1.
<mgrwt>
<rscale>  0 0.12570267E+03</rscale>
<asrwt>0</asrwt>
<pdfrwt beam="1">  1       11 0.10000000E+01 0.15513739E+03</pdfrwt>
<pdfrwt beam="2">  1        2 0.93849627E-02 0.12570267E+03</pdfrwt>
<totfact> 0.81874350E+02</totfact>
</mgrwt>
</event>
<event>
 5    1  0.2968854E-003  0.9652396E+02  0.7818608E-02  0.1291823E+00
         11   -1    0    0    0    0  0.00000000000E+00  0.00000000000E+00  0.10001391154E+04  0.10001391154E+04  0.51100000000E-03 0. -1.
          2   -1    0    0  501    0 -0.00000000000E+00 -0.00000000000E+00 -0.14657117986E+02  0.14657118207E+02  0.25500000000E-02 0. -1.
         11    1    1    2    0    0  0.80178808512E+02  0.23566123405E+01  0.15501654510E+03  0.17454032259E+03  0.51100000000E-03 0. -1.
         22    1    1    2    0    0  0.13914718146E+02  0.84621888769E+01  0.29388549716E+02  0.33599328507E+02  0.00000000000E+00 0. -1.
          2    1    1    2  501    0 -0.94093526658E+02 -0.10818801217E+02  0.80107690259E+03  0.80665658250E+03  0.25500000000E-02 0. -1.
<mgrwt>
<rscale>  0 0.94713453E+02</rscale>
<asrwt>0</asrwt>
<pdfrwt beam="1">  1       11 0.10000000E+01 0.96523963E+02</pdfrwt>
<pdfrwt beam="2">  1        2 0.22552549E-02 0.94713453E+02</pdfrwt>
<totfact> 0.50859863E+03</totfact>
</mgrwt>
</event>
<event>
 5    1  0.2968854E-003  0.8856929E+02  0.7818608E-02  0.1720495E+00
         11   -1    0    0    0    0  0.00000000000E+00  0.00000000000E+00  0.10002446878E+04  0.10002446878E+04  0.51100000000E-03 0. -1.
          2   -1    0    0  501    0 -0.00000000000E+00 -0.00000000000E+00 -0.10024997380E+02  0.10024997705E+02  0.25500000000E-02 0. -1.
         11    1    1    2    0    0 -0.92374377496E+02 -0.21333777015E+02  0.52086631698E+03  0.52942409827E+03  0.51100000000E-03 0. -1.
         22    1    1    2    0    0  0.75546707201E+02  0.34405760440E+02  0.38431671735E+03  0.39317985777E+03  0.00000000000E+00 0.  1.
          2    1    1    2  501    0  0.16827670295E+02 -0.13071983426E+02  0.85036656106E+02  0.87665729487E+02  0.25500000000E-02 0. -1.
<mgrwt>
<rscale>  0 0.21308384E+02</rscale>
<asrwt>0</asrwt>
<pdfrwt beam="1">  1       11 0.10000000E+01 0.88569287E+02</pdfrwt>
<pdfrwt beam="2">  1        2 0.15426847E-02 0.21308384E+02</pdfrwt>
<totfact> 0.66071684E+03</totfact>
</mgrwt>
</event>
<event>
 5    1  0.2968854E-003  0.1220236E+03  0.7818608E-02  0.1239796E+00
         11   -1    0    0    0    0  0.00000000000E+00  0.00000000000E+00  0.10001029346E+04  0.10001029346E+04  0.51100000000E-03 0. -1.
          2   -1    0    0  501    0 -0.00000000000E+00 -0.00000000000E+00 -0.25696816220E+02  0.25696816347E+02  0.25500000000E-02 0. -1.
         11    1    1    2    0    0  0.53059599504E+02 -0.22680896418E+01  0.75021671668E+02  0.91916900244E+02  0.51100000000E-03 0. -1.
         22    1    1    2    0    0  0.81039167262E+02  0.52510214479E+02  0.50861980582E+03  0.51770529853E+03  0.00000000000E+00 0. -1.
          2    1    1    2  501    0 -0.13409876677E+03 -0.50242124837E+02  0.39076464094E+03  0.41617755222E+03  0.25500000000E-02 0. -1.
<mgrwt>
<rscale>  0 0.12202363E+03</rscale>
<asrwt>0</asrwt>
<pdfrwt beam="1">  1       11 0.10000000E+01 0.53108080E+02</pdfrwt>
<pdfrwt beam="2">  1        2 0.39537632E-02 0.12202363E+03</pdfrwt>
<totfact> 0.24712661E+03</totfact>
</mgrwt>
</event>
<event>
 5    1  0.2968854E-003  0.1038324E+03  0.7818608E-02  0.1279830E+00
         11   -1    0    0    0    0  0.00000000000E+00  0.00000000000E+00  0.10002935619E+04  0.10002935619E+04  0.51100000000E-03 0. -1.
          2   -1    0    0  501    0 -0.00000000000E+00 -0.00000000000E+00 -0.10443880315E+02  0.10443880626E+02  0.25500000000E-02 0. -1.
         11    1    1    2    0    0  0.29678686445E+02 -0.52096483203E+02  0.32402788087E+03  0.32952835322E+03  0.51100000000E-03 0. -1.
         22    1    1    2    0    0 -0.24057890618E+00 -0.43704409554E+02  0.20986246528E+03  0.21436508024E+03  0.00000000000E+00 0.  1.
          2    1    1    2  501    0 -0.29438107539E+02  0.95800892758E+02  0.45595933543E+03  0.46684400907E+03  0.25500000000E-02 0. -1.
<mgrwt>
<rscale>  0 0.10022182E+03</rscale>
<asrwt>0</asrwt>
<pdfrwt beam="1">  1       11 0.10000000E+01 0.10383239E+03</pdfrwt>
<pdfrwt beam="2">  1        2 0.16072225E-02 0.10022182E+03</pdfrwt>
<totfact> 0.81023811E+03</totfact>
</mgrwt>
</event>
<event>
 5    1  0.2968854E-003  0.5999592E+02  0.7818608E-02  0.1408930E+00
         11   -1    0    0    0    0  0.00000000000E+00  0.00000000000E+00  0.10000947160E+04  0.10000947160E+04  0.51100000000E-03 0. -1.
          2   -1    0    0  501    0 -0.00000000000E+00 -0.00000000000E+00 -0.72625861380E+01  0.72625865857E+01  0.25500000000E-02 0. -1.
         11    1    1    2    0    0  0.45574192088E+02  0.10231727573E+00  0.92719458342E+02  0.10331464276E+03  0.51100000000E-03 0. -1.
         22    1    1    2    0    0  0.11445171544E+02 -0.69842428777E+01  0.43802907788E+02  0.45809020192E+02  0.00000000000E+00 0.  1.
          2    1    1    2  501    0 -0.57019363632E+02  0.68819256019E+01  0.85630976372E+03  0.85823363962E+03  0.25500000000E-02 0. -1.
<mgrwt>
<rscale>  0 0.57433168E+02</rscale>
<asrwt>0</asrwt>
<pdfrwt beam="1">  1       11 0.10000000E+01 0.59995920E+02</pdfrwt>
<pdfrwt beam="2">  1        2 0.11174268E-02 0.57433168E+02</pdfrwt>
<totfact> 0.12172267E+04</totfact>
</mgrwt>
</event>
<event>
 5    1  0.2968854E-003  0.1871274E+03  0.7818608E-02  0.1161078E+00
         11   -1    0    0    0    0  0.00000000000E+00  0.00000000000E+00  0.10004326434E+04  0.10004326434E+04  0.51100000000E-03 0. -1.
          2   -1    0    0  501    0 -0.00000000000E+00 -0.00000000000E+00 -0.87481778221E+02  0.87481778258E+02  0.25500000000E-02 0. -1.
         11    1    1    2    0    0  0.42010795736E+02  0.14425591562E+03  0.39277202017E+03  0.42052887651E+03  0.51100000000E-03 0. -1.
         22    1    1    2    0    0  0.14555270245E+03 -0.28317881334E+02  0.37533702024E+03  0.40356581911E+03  0.00000000000E+00 0. -1.
          2    1    1    2  501    0 -0.18756349819E+03 -0.11593803428E+03  0.14484182482E+03  0.26381972608E+03  0.25500000000E-02 0. -1.
<mgrwt>
<rscale>  0 0.18712737E+03</rscale>
<asrwt>0</asrwt>
<pdfrwt beam="1">  1       11 0.10000000E+01 0.14828180E+03</pdfrwt>
<pdfrwt beam="2">  1        2 0.13464558E-01 0.18712737E+03</pdfrwt>
<totfact> 0.53885911E+02</totfact>
</mgrwt>
</event>
<event>
 5    1  0.2968854E-003  0.1916899E+03  0.7818608E-02  0.1159467E+00
         11   -1    0    0    0    0  0.00000000000E+00  0.00000000000E+00  0.10002764265E+04  0.10002764265E+04  0.51100000000E-03 0. -1.
         -2   -1    0    0    0  501 -0.00000000000E+00 -0.00000000000E+00 -0.38382268218E+02  0.38382268303E+02  0.25500000000E-02 0.  1.
         11    1    1    2    0    0 -0.39129118476E+02  0.17608873387E+03  0.56371550930E+03  0.59187287954E+03  0.51100000000E-03 0. -1.
         22    1    1    2    0    0 -0.87646427883E+01  0.66279388065E+01  0.44393822247E+02  0.45733576174E+02  0.00000000000E+00 0. -1.
         -2    1    1    2    0  501  0.47893761264E+02 -0.18271667268E+03  0.35378482671E+03  0.40105223907E+03  0.25500000000E-02 0.  1.
<mgrwt>
<rscale>  0 0.18888937E+03</rscale>
<asrwt>0</asrwt>
<pdfrwt beam="1">  1       11 0.10000000E+01 0.19168994E+03</pdfrwt>
<pdfrwt beam="2">  1       -2 0.59065965E-02 0.18888937E+03</pdfrwt>
<totfact> 0.11788832E+03</totfact>
</mgrwt>
</event>
<event>
 5    1  0.2968854E-003  0.1518772E+03  0.7818608E-02  0.1198185E+00
         11   -1    0    0    0    0  0.00000000000E+00  0.00000000000E+00  0.10002385515E+04  0.10002385515E+04  0.51100000000E-03 0.  1.
          2   -1    0    0  501    0 -0.00000000000E+00 -0.00000000000E+00 -0.36055733537E+03  0.36055733538E+03  0.25500000000E-02 0.  1.
         11    1    1    2    0    0 -0.15142356843E+03  0.33513475596E+02  0.88597678071E+03  0.89944822313E+03  0.51100000000E-03 0.  1.
         22    1    1    2    0    0  0.72565576556E+00 -0.14997307173E+02  0.90591246688E+02  0.91827118953E+02  0.00000000000E+00 0.  1.
          2    1    1    2  501    0  0.15069791266E+03 -0.18516168423E+02 -0.33688681130E+03  0.36952054477E+03  0.25500000000E-02 0.  1.
<mgrwt>
<rscale>  0 0.15187718E+03</rscale>
<asrwt>0</asrwt>
<pdfrwt beam="1">  1       11 0.10000000E+01 0.15014853E+02</pdfrwt>
<pdfrwt beam="2">  1        2 0.55483590E-01 0.15187718E+03</pdfrwt>
<totfact> 0.11137732E+02</totfact>
</mgrwt>
</event>
<event>
 5    1  0.2968854E-003  0.2250255E+03  0.7818608E-02  0.1132245E+00
         11   -1    0    0    0    0  0.00000000000E+00  0.00000000000E+00  0.10000130149E+04  0.10000130149E+04  0.51100000000E-03 0. -1.
          2   -1    0    0  501    0 -0.00000000000E+00 -0.00000000000E+00 -0.86070446521E+02  0.86070446559E+02  0.25500000000E-02 0. -1.
         11    1    1    2    0    0  0.10462760780E+02 -0.18045443052E+03  0.60391709823E+03  0.63038808078E+03  0.51100000000E-03 0. -1.
         22    1    1    2    0    0 -0.38103400307E+01 -0.41656790561E+02  0.20624519493E+03  0.21044449939E+03  0.00000000000E+00 0. -1.
          2    1    1    2  501    0 -0.66524207496E+01  0.22211122108E+03  0.10378027519E+03  0.24525088126E+03  0.25500000000E-02 0. -1.
<mgrwt>
<rscale>  0 0.22221082E+03</rscale>
<asrwt>0</asrwt>
<pdfrwt beam="1">  1       11 0.10000000E+01 0.22502552E+03</pdfrwt>
<pdfrwt beam="2">  1        2 0.13241779E-01 0.22221082E+03</pdfrwt>
<totfact> 0.55368448E+02</totfact>
</mgrwt>
</event>
<event>
 5    1  0.2968854E-003  0.2720880E+03  0.7818608E-02  0.1109147E+00
         11   -1    0    0    0    0  0.00000000000E+00  0.00000000000E+00  0.10001697448E+04  0.10001697448E+04  0.51100000000E-03 0. -1.
          2   -1    0    0  501    0 -0.00000000000E+00 -0.00000000000E+00 -0.17423392539E+03  0.17423392541E+03  0.25500000000E-02 0.  1.
         11    1    1    2    0    0 -0.19536757899E+03  0.57855881614E+02  0.54778722498E+03  0.58445413661E+03  0.51100000000E-03 0. -1.
         22    1    1    2    0    0 -0.44216428376E+02  0.34287319096E+02  0.32434304805E+03  0.32913390225E+03  0.00000000000E+00 0. -1.
          2    1    1    2  501    0  0.23958400736E+03 -0.92143200710E+02 -0.46194453590E+02  0.26081563138E+03  0.25500000000E-02 0.  1.
<mgrwt>
<rscale>  0 0.25669216E+03</rscale>
<asrwt>0</asrwt>
<pdfrwt beam="1">  1       11 0.10000000E+01 0.27208802E+03</pdfrwt>
<pdfrwt beam="2">  1        2 0.26809769E-01 0.25669216E+03</pdfrwt>
<totfact> 0.24570349E+02</totfact>
</mgrwt>
</event>
<event>
 5    1  0.2968854E-003  0.4419707E+02  0.7818608E-02  0.1494838E+00
         11   -1    0    0    0    0  0.00000000000E+00  0.00000000000E+00  0.99996471018E+03  0.99996471018E+03  0.51100000000E-03 0.  1.
          2   -1    0    0  501    0 -0.00000000000E+00 -0.00000000000E+00 -0.45690757161E+01  0.45690764276E+01  0.25500000000E-02 0.  1.
         11    1    1    2    0    0  0.23558770584E+02  0.18446800432E+02  0.69619460328E+02  0.75777103232E+02  0.51100000000E-03 0.  1.
         22    1    1    2    0    0  0.39755133595E+01  0.13105085394E+02  0.46270264558E+02  0.48254381686E+02  0.00000000000E+00 0. -1.
          2    1    1    2  501    0 -0.27534283944E+02 -0.31551885826E+02  0.87950590958E+03  0.88050230169E+03  0.25500000000E-02 0.  1.
<mgrwt>
<rscale>  0 0.41876704E+02</rscale>
<asrwt>0</asrwt>
<pdfrwt beam="1">  1       11 0.10000000E+01 0.44197069E+02</pdfrwt>
<pdfrwt beam="2">  1        2 0.70290995E-03 0.41876704E+02</pdfrwt>
<totfact> 0.21371094E+04</totfact>
</mgrwt>
</event>
<event>
 5    1  0.2968854E-003  0.9833832E+02  0.7818608E-02  0.1541638E+00
         11   -1    0    0    0    0  0.00000000000E+00  0.00000000000E+00  0.10004738196E+04  0.10004738196E+04  0.51100000000E-03 0.  1.
          2   -1    0    0  501    0 -0.00000000000E+00 -0.00000000000E+00 -0.21283907219E+02  0.21283907371E+02  0.25500000000E-02 0.  1.
         11    1    1    2    0    0  0.68071901421E+02  0.75057679090E+02  0.16544072161E+03  0.19400533838E+03  0.51100000000E-03 0.  1.
         22    1    1    2    0    0  0.62695490887E+01 -0.11423081302E+02  0.64419022419E+01  0.14535891328E+02  0.00000000000E+00 0.  1.
          2    1    1    2  501    0 -0.74341450510E+02 -0.63634597789E+02  0.80730728853E+03  0.81321649726E+03  0.25500000000E-02 0.  1.
<mgrwt>
<rscale>  0 0.35796609E+02</rscale>
<asrwt>0</asrwt>
<pdfrwt beam="1">  1       11 0.10000000E+01 0.98338322E+02</pdfrwt>
<pdfrwt beam="2">  1        2 0.32759987E-02 0.35796609E+02</pdfrwt>
<totfact> 0.27433510E+03</totfact>
</mgrwt>
</event>
<event>
 5    1  0.2968854E-003  0.4078090E+02  0.7818608E-02  0.1502542E+00
         11   -1    0    0    0    0  0.00000000000E+00  0.00000000000E+00  0.99985988259E+03  0.99985988259E+03  0.51100000000E-03 0.  1.
          2   -1    0    0  501    0 -0.00000000000E+00 -0.00000000000E+00 -0.56577336272E+01  0.56577342019E+01  0.25500000000E-02 0.  1.
         11    1    1    2    0    0 -0.33588040208E+02  0.15541735460E+02  0.19372924953E+03  0.19723266492E+03  0.51100000000E-03 0.  1.
         22    1    1    2    0    0  0.11394905846E+02  0.37615111367E+02  0.14329589441E+03  0.14858820221E+03  0.00000000000E+00 0.  1.
          2    1    1    2  501    0  0.22193134362E+02 -0.53156846827E+02  0.65717700502E+03  0.65969674966E+03  0.25500000000E-02 0.  1.
<mgrwt>
<rscale>  0 0.40780901E+02</rscale>
<asrwt>0</asrwt>
<pdfrwt beam="1">  1       11 0.10000000E+01 0.37009504E+02</pdfrwt>
<pdfrwt beam="2">  1        2 0.87029862E-03 0.40780901E+02</pdfrwt>
<totfact> 0.15971548E+04</totfact>
</mgrwt>
</event>
<event>
 5    1  0.2968854E-003  0.1332215E+03  0.7818608E-02  0.1228348E+00
         11   -1    0    0    0    0  0.00000000000E+00  0.00000000000E+00  0.99993466876E+03  0.99993466876E+03  0.51100000000E-03 0.  1.
          2   -1    0    0  501    0 -0.00000000000E+00 -0.00000000000E+00 -0.17352636425E+02  0.17352636613E+02  0.25500000000E-02 0.  1.
         11    1    1    2    0    0  0.10951469291E+03 -0.35070934288E+02  0.39525475797E+03  0.41164276028E+03  0.51100000000E-03 0.  1.
         22    1    1    2    0    0  0.95957373690E+01 -0.15498019547E+02  0.62844594922E+02  0.65434775895E+02  0.00000000000E+00 0. -1.
          2    1    1    2  501    0 -0.11911043028E+03  0.50568953835E+02  0.52448267944E+03  0.54020976919E+03  0.25500000000E-02 0.  1.
<mgrwt>
<rscale>  0 0.12940059E+03</rscale>
<asrwt>0</asrwt>
<pdfrwt beam="1">  1       11 0.10000000E+01 0.13322146E+03</pdfrwt>
<pdfrwt beam="2">  1        2 0.26694619E-02 0.12940059E+03</pdfrwt>
<totfact> 0.42009787E+03</totfact>
</mgrwt>
</event>
<event>
 5    1  0.2968854E-003  0.1478329E+03  0.7818608E-02  0.1213277E+00
         11   -1    0    0    0    0  0.00000000000E+00  0.00000000000E+00  0.10006300940E+04  0.10006300940E+04  0.51100000000E-03 0. -1.
          2   -1    0    0  501    0 -0.00000000000E+00 -0.00000000000E+00 -0.20711992820E+02  0.20711992977E+02  0.25500000000E-02 0. -1.
         11    1    1    2    0    0  0.97796949496E+02 -0.87031511859E+01  0.37946149373E+03  0.39195792299E+03  0.51100000000E-03 0. -1.
         22    1    1    2    0    0  0.36385860296E+02 -0.31369242151E+02  0.13349600598E+03  0.14187721380E+03  0.00000000000E+00 0. -1.
          2    1    1    2  501    0 -0.13418280979E+03  0.40072393337E+02  0.46696060152E+03  0.48750695023E+03  0.25500000000E-02 0. -1.
<mgrwt>
<rscale>  0 0.14003865E+03</rscale>
<asrwt>0</asrwt>
<pdfrwt beam="1">  1       11 0.10000000E+01 0.14783287E+03</pdfrwt>
<pdfrwt beam="2">  1        2 0.31884681E-02 0.14003865E+03</pdfrwt>
<totfact> 0.33348418E+03</totfact>
</mgrwt>
</event>
<event>
 5    1  0.2968854E-003  0.5355259E+02  0.7818608E-02  0.1442725E+00
         11   -1    0    0    0    0  0.00000000000E+00  0.00000000000E+00  0.10004017460E+04  0.10004017460E+04  0.51100000000E-03 0.  1.
          2   -1    0    0  501    0 -0.00000000000E+00 -0.00000000000E+00 -0.34346617535E+01  0.34346627001E+01  0.25500000000E-02 0.  1.
         11    1    1    2    0    0  0.19656909880E+02  0.32793996505E+02  0.19229771564E+03  0.19606185696E+03  0.51100000000E-03 0.  1.
         22    1    1    2    0    0 -0.31374917977E+01  0.14915416662E+02  0.86493994363E+02  0.87826673453E+02  0.00000000000E+00 0.  1.
          2    1    1    2  501    0 -0.16519418082E+02 -0.47709413167E+02  0.71817537426E+03  0.71994787831E+03  0.25500000000E-02 0.  1.
<mgrwt>
<rscale>  0 0.50488407E+02</rscale>
<asrwt>0</asrwt>
<pdfrwt beam="1">  1       11 0.10000000E+01 0.53552592E+02</pdfrwt>
<pdfrwt beam="2">  1        2 0.52862184E-03 0.50488407E+02</pdfrwt>
<totfact> 0.32624947E+04</totfact>
</mgrwt>
</event>
<event>
 5    1  0.2968854E-003  0.9876795E+02  0.7818608E-02  0.1289603E+00
         11   -1    0    0    0    0  0.00000000000E+00  0.00000000000E+00  0.10003877106E+04  0.10003877106E+04  0.51100000000E-03 0.  1.
          2   -1    0    0  501    0 -0.00000000000E+00 -0.00000000000E+00 -0.12238818503E+02  0.12238818769E+02  0.25500000000E-02 0.  1.
         11    1    1    2    0    0  0.56520749738E+02 -0.63547741884E+02  0.20111773929E+03  0.21836038035E+03  0.51100000000E-03 0.  1.
         22    1    1    2    0    0  0.65127960844E+01 -0.84633470606E+01  0.57346151588E+02  0.58332031152E+02  0.00000000000E+00 0.  1.
          2    1    1    2  501    0 -0.63033545822E+02  0.72011088945E+02  0.72968500125E+03  0.73593411790E+03  0.25500000000E-02 0.  1.
<mgrwt>
<rscale>  0 0.95701749E+02</rscale>
<asrwt>0</asrwt>
<pdfrwt beam="1">  1       11 0.10000000E+01 0.98767949E+02</pdfrwt>
<pdfrwt beam="2">  1        2 0.18836251E-02 0.95701749E+02</pdfrwt>
<totfact> 0.64929240E+03</totfact>
</mgrwt>
</event>
<event>
 5    1  0.2968854E-003  0.1777642E+03  0.7818608E-02  0.1427504E+00
         11   -1    0    0    0    0  0.00000000000E+00  0.00000000000E+00  0.10001950877E+04  0.10001950877E+04  0.51100000000E-03 0.  1.
          2   -1    0    0  501    0 -0.00000000000E+00 -0.00000000000E+00 -0.74007642327E+02  0.74007642371E+02  0.25500000000E-02 0.  1.
         11    1    1    2    0    0  0.11192088673E+03  0.16746508894E+03  0.64077462269E+03  0.67168665163E+03  0.51100000000E-03 0.  1.
         22    1    1    2    0    0 -0.97286558865E+02 -0.11604252862E+03  0.30897696426E+03  0.34408909809E+03  0.00000000000E+00 0. -1.
          2    1    1    2  501    0 -0.14634327861E+02 -0.51422560327E+02 -0.23564141544E+02  0.58426980375E+02  0.25500000000E-02 0.  1.
<mgrwt>
<rscale>  0 0.53464411E+02</rscale>
<asrwt>0</asrwt>
<pdfrwt beam="1">  1       11 0.10000000E+01 0.17776416E+03</pdfrwt>
<pdfrwt beam="2">  1        2 0.11388012E-01 0.53464411E+02</pdfrwt>
<totfact> 0.61424252E+02</totfact>
</mgrwt>
</event>
<event>
 5    1  0.2968854E-003  0.1195158E+03  0.7818608E-02  0.1243898E+00
         11   -1    0    0    0    0  0.00000000000E+00  0.00000000000E+00  0.10001260426E+04  0.10001260426E+04  0.51100000000E-03 0. -1.
          2   -1    0    0  501    0 -0.00000000000E+00 -0.00000000000E+00 -0.25482731746E+02  0.25482731873E+02  0.25500000000E-02 0. -1.
         11    1    1    2    0    0  0.32476879360E+02 -0.52284342473E+02  0.19477547197E+03  0.20426914755E+03  0.51100000000E-03 0. -1.
         22    1    1    2    0    0 -0.11637110626E+03 -0.38210357695E+02  0.51149897502E+03  0.52595956808E+03  0.00000000000E+00 0. -1.
          2    1    1    2  501    0  0.83894226900E+02  0.90494700168E+02  0.26836886392E+03  0.29538005889E+03  0.25500000000E-02 0. -1.
<mgrwt>
<rscale>  0 0.11951578E+03</rscale>
<asrwt>0</asrwt>
<pdfrwt beam="1">  1       11 0.10000000E+01 0.61549981E+02</pdfrwt>
<pdfrwt beam="2">  1        2 0.39209143E-02 0.11951578E+03</pdfrwt>
<totfact> 0.24937770E+03</totfact>
</mgrwt>
</event>
<event>
 5    1  0.2968854E-003  0.9105457E+02  0.7818608E-02  0.1441527E+00
         11   -1    0    0    0    0  0.00000000000E+00  0.00000000000E+00  0.10000645632E+04  0.10000645632E+04  0.51100000000E-03 0. -1.
          2   -1    0    0  501    0 -0.00000000000E+00 -0.00000000000E+00 -0.11920960778E+02  0.11920961051E+02  0.25500000000E-02 0. -1.
         11    1    1    2    0    0  0.64263878837E+02  0.60078112732E+02  0.32658064952E+03  0.33822203712E+03  0.51100000000E-03 0. -1.
         22    1    1    2    0    0  0.21047023778E+02 -0.18837682088E+02  0.87883409451E+02  0.92311045564E+02  0.00000000000E+00 0.  1.
          2    1    1    2  501    0 -0.85310902615E+02 -0.41240430644E+02  0.57367954348E+03  0.58145244160E+03  0.25500000000E-02 0. -1.
<mgrwt>
<rscale>  0 0.50714144E+02</rscale>
<asrwt>0</asrwt>
<pdfrwt beam="1">  1       11 0.10000000E+01 0.91054568E+02</pdfrwt>
<pdfrwt beam="2">  1        2 0.18341123E-02 0.50714144E+02</pdfrwt>
<totfact> 0.61499377E+03</totfact>
</mgrwt>
</event>
<event>
 5    1  0.2968854E-003  0.1509514E+03  0.7818608E-02  0.1204993E+00
         11   -1    0    0    0    0  0.00000000000E+00  0.00000000000E+00  0.10000008526E+04  0.10000008526E+04  0.51100000000E-03 0. -1.
          2   -1    0    0  501    0 -0.00000000000E+00 -0.00000000000E+00 -0.24349540662E+02  0.24349540795E+02  0.25500000000E-02 0. -1.
         11    1    1    2    0    0 -0.10614378624E+03 -0.32676710912E+02  0.48507629577E+03  0.49762765549E+03  0.51100000000E-03 0. -1.
         22    1    1    2    0    0 -0.26071548608E+02 -0.30142316494E+02  0.16516460341E+03  0.16990477071E+03  0.00000000000E+00 0. -1.
          2    1    1    2  501    0  0.13221533485E+03  0.62819027405E+02  0.32541041275E+03  0.35681796719E+03  0.25500000000E-02 0. -1.
<mgrwt>
<rscale>  0 0.14638007E+03</rscale>
<asrwt>0</asrwt>
<pdfrwt beam="1">  1       11 0.10000000E+01 0.15095136E+03</pdfrwt>
<pdfrwt beam="2">  1        2 0.37460863E-02 0.14638007E+03</pdfrwt>
<totfact> 0.26997388E+03</totfact>
</mgrwt>
</event>
<event>
 5    1  0.2968854E-003  0.1036738E+03  0.7818608E-02  0.1272755E+00
         11   -1    0    0    0    0  0.00000000000E+00  0.00000000000E+00  0.10001952727E+04  0.10001952727E+04  0.51100000000E-03 0.  1.
         -2   -1    0    0    0  501 -0.00000000000E+00 -0.00000000000E+00 -0.32261779597E+02  0.32261779697E+02  0.25500000000E-02 0. -1.
         11    1    1    2    0    0  0.27398235897E+02  0.13501379283E+03  0.33116193321E+03  0.35867480200E+03  0.51100000000E-03 0.  1.
         22    1    1    2    0    0  0.43915315018E+02 -0.70689596304E+02  0.49869373535E+03  0.50558977007E+03  0.00000000000E+00 0. -1.
         -2    1    1    2    0  501 -0.71313550915E+02 -0.64324196531E+02  0.13807782459E+03  0.16819248037E+03  0.25500000000E-02 0. -1.
<mgrwt>
<rscale>  0 0.10367379E+03</rscale>
<asrwt>0</asrwt>
<pdfrwt beam="1">  1       11 0.10000000E+01 0.83220033E+02</pdfrwt>
<pdfrwt beam="2">  1       -2 0.49643198E-02 0.10367379E+03</pdfrwt>
<totfact> 0.14571423E+03</totfact>
</mgrwt>
</event>
<event>
 5    1  0.2968854E-003  0.6227920E+02  0.7818608E-02  0.1393076E+00
         11   -1    0    0    0    0  0.00000000000E+00  0.00000000000E+00  0.99970404128E+03  0.99970404128E+03  0.51100000000E-03 0.  1.
          2   -1    0    0  501    0 -0.00000000000E+00 -0.00000000000E+00 -0.49889197520E+01  0.49889204037E+01  0.25500000000E-02 0.  1.
         11    1    1    2    0    0 -0.23995701274E+01 -0.48860671137E+02  0.18401343953E+03  0.19040501320E+03  0.51100000000E-03 0.  1.
         22    1    1    2    0    0 -0.31335134738E+01 -0.12036659044E+02  0.72603762251E+02  0.73661430618E+02  0.00000000000E+00 0. -1.
          2    1    1    2  501    0  0.55330836012E+01  0.60897330181E+02  0.73809791975E+03  0.74062651787E+03  0.25500000000E-02 0.  1.
<mgrwt>
<rscale>  0 0.61148179E+02</rscale>
<asrwt>0</asrwt>
<pdfrwt beam="1">  1       11 0.10000000E+01 0.62279198E+02</pdfrwt>
<pdfrwt beam="2">  1        2 0.76729899E-03 0.61148179E+02</pdfrwt>
<totfact> 0.20462674E+04</totfact>
</mgrwt>
</event>
<event>
 5    1  0.2968854E-003  0.1541914E+03  0.7818608E-02  0.1199126E+00
         11   -1    0    0    0    0  0.00000000000E+00  0.00000000000E+00  0.10001951772E+04  0.10001951772E+04  0.51100000000E-03 0. -1.
          2   -1    0    0  501    0 -0.00000000000E+00 -0.00000000000E+00 -0.43092309185E+02  0.43092309260E+02  0.25500000000E-02 0. -1.
         11    1    1    2    0    0 -0.11966369019E+03  0.67666980277E+02  0.78536658632E+03  0.79730727695E+03  0.51100000000E-03 0. -1.
         22    1    1    2    0    0 -0.87369583720E+01  0.11988084785E+02  0.49352621755E+02  0.51533774290E+02  0.00000000000E+00 0.  1.
          2    1    1    2  501    0  0.12840064856E+03 -0.79655065062E+02  0.12238365993E+03  0.19444643521E+03  0.25500000000E-02 0. -1.
<mgrwt>
<rscale>  0 0.15110148E+03</rscale>
<asrwt>0</asrwt>
<pdfrwt beam="1">  1       11 0.10000000E+01 0.15419135E+03</pdfrwt>
<pdfrwt beam="2">  1        2 0.66308798E-02 0.15110148E+03</pdfrwt>
<totfact> 0.12823197E+03</totfact>
</mgrwt>
</event>
<event>
 5    1  0.2968854E-003  0.1218630E+03  0.7818608E-02  0.1240055E+00
         11   -1    0    0    0    0  0.00000000000E+00  0.00000000000E+00  0.10002743733E+04  0.10002743733E+04  0.51100000000E-03 0.  1.
          2   -1    0    0  501    0 -0.00000000000E+00 -0.00000000000E+00 -0.27159597320E+02  0.27159597439E+02  0.25500000000E-02 0.  1.
         11    1    1    2    0    0 -0.14404062265E+02 -0.46552123251E+02  0.23125984412E+03  0.23633808980E+03  0.51100000000E-03 0.  1.
         22    1    1    2    0    0  0.12282540214E+03 -0.13477338434E+02  0.54222849615E+03  0.55612899592E+03  0.00000000000E+00 0.  1.
          2    1    1    2  501    0 -0.10842133988E+03  0.60029461685E+02  0.19962643566E+03  0.23496688497E+03  0.25500000000E-02 0.  1.
<mgrwt>
<rscale>  0 0.12186298E+03</rscale>
<asrwt>0</asrwt>
<pdfrwt beam="1">  1       11 0.10000000E+01 0.48729634E+02</pdfrwt>
<pdfrwt beam="2">  1        2 0.41795459E-02 0.12186298E+03</pdfrwt>
<totfact> 0.22964663E+03</totfact>
</mgrwt>
</event>
<event>
 5    1  0.2968854E-003  0.1873717E+03  0.7818608E-02  0.1168156E+00
         11   -1    0    0    0    0  0.00000000000E+00  0.00000000000E+00  0.10000392718E+04  0.10000392718E+04  0.51100000000E-03 0. -1.
          2   -1    0    0  501    0 -0.00000000000E+00 -0.00000000000E+00 -0.20485163691E+03  0.20485163692E+03  0.25500000000E-02 0. -1.
         11    1    1    2    0    0 -0.13220750641E+03 -0.86452977406E+02  0.89802698712E+03  0.91181435152E+03  0.51100000000E-03 0. -1.
         22    1    1    2    0    0 -0.15639103506E+02 -0.15579136404E+02  0.51634983742E+02  0.56155699583E+02  0.00000000000E+00 0.  1.
          2    1    1    2  501    0  0.14784660991E+03  0.10203211381E+03 -0.15447433594E+03  0.23692085764E+03  0.25500000000E-02 0. -1.
<mgrwt>
<rscale>  0 0.17963622E+03</rscale>
<asrwt>0</asrwt>
<pdfrwt beam="1">  1       11 0.10000000E+01 0.18737172E+03</pdfrwt>
<pdfrwt beam="2">  1        2 0.31516873E-01 0.17963622E+03</pdfrwt>
<totfact> 0.20438977E+02</totfact>
</mgrwt>
</event>
<event>
 5    1  0.2968854E-003  0.2206248E+03  0.7818608E-02  0.1136405E+00
         11   -1    0    0    0    0  0.00000000000E+00  0.00000000000E+00  0.10003443856E+04  0.10003443856E+04  0.51100000000E-03 0. -1.
          2   -1    0    0  501    0 -0.00000000000E+00 -0.00000000000E+00 -0.68676871322E+02  0.68676871369E+02  0.25500000000E-02 0. -1.
         11    1    1    2    0    0 -0.20012066347E+03  0.29044381988E+02  0.67203045386E+03  0.70179540251E+03  0.51100000000E-03 0. -1.
         22    1    1    2    0    0 -0.15308248791E+02 -0.60726626814E+01  0.91542946264E+02  0.93012529929E+02  0.00000000000E+00 0.  1.
          2    1    1    2  501    0  0.21542891226E+03 -0.22971719307E+02  0.16809411413E+03  0.27421332451E+03  0.25500000000E-02 0. -1.
<mgrwt>
<rscale>  0 0.21665022E+03</rscale>
<asrwt>0</asrwt>
<pdfrwt beam="1">  1       11 0.10000000E+01 0.22062482E+03</pdfrwt>
<pdfrwt beam="2">  1        2 0.10569311E-01 0.21665022E+03</pdfrwt>
<totfact> 0.72813575E+02</totfact>
</mgrwt>
</event>
<event>
 5    1  0.2968854E-003  0.1665070E+03  0.7818608E-02  0.1183261E+00
         11   -1    0    0    0    0  0.00000000000E+00  0.00000000000E+00  0.10002927196E+04  0.10002927196E+04  0.51100000000E-03 0.  1.
         -2   -1    0    0    0  501 -0.00000000000E+00 -0.00000000000E+00 -0.33198161871E+02  0.33198161968E+02  0.25500000000E-02 0. -1.
         11    1    1    2    0    0 -0.58859316373E+02 -0.13043304366E+03  0.62731651793E+03  0.64343081343E+03  0.51100000000E-03 0.  1.
         22    1    1    2    0    0 -0.14609584117E+02 -0.17208431454E+02  0.73149243825E+02  0.76553131440E+02  0.00000000000E+00 0. -1.
         -2    1    1    2    0  501  0.73468900489E+02  0.14764147511E+03  0.26662879600E+03  0.31350693673E+03  0.25500000000E-02 0. -1.
<mgrwt>
<rscale>  0 0.16491114E+03</rscale>
<asrwt>0</asrwt>
<pdfrwt beam="1">  1       11 0.10000000E+01 0.16650705E+03</pdfrwt>
<pdfrwt beam="2">  1       -2 0.51089044E-02 0.16491114E+03</pdfrwt>
<totfact> 0.14538949E+03</totfact>
</mgrwt>
</event>
<event>
 5    1  0.2968854E-003  0.1176439E+03  0.7818608E-02  0.1247035E+00
         11   -1    0    0    0    0  0.00000000000E+00  0.00000000000E+00  0.10002618247E+04  0.10002618247E+04  0.51100000000E-03 0. -1.
          2   -1    0    0  501    0 -0.00000000000E+00 -0.00000000000E+00 -0.45831011405E+02  0.45831011476E+02  0.25500000000E-02 0. -1.
         11    1    1    2    0    0  0.44623434136E+02 -0.43769874901E+02  0.24513584938E+03  0.25297951987E+03  0.51100000000E-03 0. -1.
         22    1    1    2    0    0  0.46029877521E+02  0.11956823694E+03  0.64693752711E+03  0.65950244647E+03  0.00000000000E+00 0. -1.
          2    1    1    2  501    0 -0.90653311657E+02 -0.75798362040E+02  0.62357436764E+02  0.13361086980E+03  0.25500000000E-02 0. -1.
<mgrwt>
<rscale>  0 0.11764391E+03</rscale>
<asrwt>0</asrwt>
<pdfrwt beam="1">  1       11 0.10000000E+01 0.62506422E+02</pdfrwt>
<pdfrwt beam="2">  1        2 0.70527707E-02 0.11764391E+03</pdfrwt>
<totfact> 0.11646710E+03</totfact>
</mgrwt>
</event>
<event>
 5    1  0.2968854E-003  0.8147379E+03  0.7818608E-02  0.9538926E-01
         11   -1    0    0    0    0  0.00000000000E+00  0.00000000000E+00  0.10011716400E+04  0.10011716400E+04  0.51100000000E-03 0.  1.
          2   -1    0    0  501    0 -0.00000000000E+00 -0.00000000000E+00 -0.11102194430E+04  0.11102194430E+04  0.25500000000E-02 0.  1.
         11    1    1    2    0    0  0.63805055589E+03  0.40560892773E+03  0.32904810051E+03  0.82456034745E+03  0.51100000000E-03 0.  1.
         22    1    1    2    0    0  0.10398410725E+03 -0.19574503340E+02  0.20569824694E+03  0.23131715140E+03  0.00000000000E+00 0. -1.
          2    1    1    2  501    0 -0.74203466314E+03 -0.38603442439E+03 -0.64379415049E+03  0.10555135841E+04  0.25500000000E-02 0.  1.
<mgrwt>
<rscale>  0 0.81473787E+03</rscale>
<asrwt>0</asrwt>
<pdfrwt beam="1">  1       11 0.10000000E+01 0.10581047E+03</pdfrwt>
<pdfrwt beam="2">  1        2 0.17100311E+00 0.81473787E+03</pdfrwt>
<totfact> 0.26583729E+01</totfact>
</mgrwt>
</event>
<event>
 5    1  0.2968854E-003  0.5014604E+02  0.7818608E-02  0.1458284E+00
         11   -1    0    0    0    0  0.00000000000E+00  0.00000000000E+00  0.10000993165E+04  0.10000993165E+04  0.51100000000E-03 0.  1.
          2   -1    0    0  501    0 -0.00000000000E+00 -0.00000000000E+00 -0.37590134665E+01  0.37590143314E+01  0.25500000000E-02 0.  1.
         11    1    1    2    0    0 -0.12004029671E+02  0.30242690316E+02  0.11404971040E+03  0.11860039413E+03  0.51100000000E-03 0.  1.
         22    1    1    2    0    0  0.24448667816E+01  0.16467191341E+02  0.89510674935E+02  0.91045629723E+02  0.00000000000E+00 0.  1.
          2    1    1    2  501    0  0.95591628899E+01 -0.46709881657E+02  0.79277991775E+03  0.79421230703E+03  0.25500000000E-02 0.  1.
<mgrwt>
<rscale>  0 0.47677989E+02</rscale>
<asrwt>0</asrwt>
<pdfrwt beam="1">  1       11 0.10000000E+01 0.50146035E+02</pdfrwt>
<pdfrwt beam="2">  1        2 0.57836725E-03 0.47677989E+02</pdfrwt>
<totfact> 0.28545157E+04</totfact>
</mgrwt>
</event>
<event>
 5    1  0.2968854E-003  0.1867416E+03  0.7818608E-02  0.1161433E+00
         11   -1    0    0    0    0  0.00000000000E+00  0.00000000000E+00  0.10003905078E+04  0.10003905078E+04  0.51100000000E-03 0. -1.
          2   -1    0    0  501    0 -0.00000000000E+00 -0.00000000000E+00 -0.61183095609E+02  0.61183095662E+02  0.25500000000E-02 0. -1.
         11    1    1    2    0    0  0.94079669795E+02 -0.35295289558E+02  0.13020268756E+03  0.16446726599E+03  0.51100000000E-03 0. -1.
         22    1    1    2    0    0  0.12733022086E+03  0.76158876613E+02  0.44515460508E+03  0.46922892287E+03  0.00000000000E+00 0. -1.
          2    1    1    2  501    0 -0.22140989065E+03 -0.40863587055E+02  0.36385011953E+03  0.42787741458E+03  0.25500000000E-02 0. -1.
<mgrwt>
<rscale>  0 0.18674165E+03</rscale>
<asrwt>0</asrwt>
<pdfrwt beam="1">  1       11 0.10000000E+01 0.10048259E+03</pdfrwt>
<pdfrwt beam="2">  1        2 0.94164594E-02 0.18674165E+03</pdfrwt>
<totfact> 0.83396617E+02</totfact>
</mgrwt>
</event>
<event>
 5    1  0.2968854E-003  0.7992150E+02  0.7818608E-02  0.1641402E+00
         11   -1    0    0    0    0  0.00000000000E+00  0.00000000000E+00  0.10001779152E+04  0.10001779152E+04  0.51100000000E-03 0. -1.
          2   -1    0    0  501    0 -0.00000000000E+00 -0.00000000000E+00 -0.13186176729E+02  0.13186176975E+02  0.25500000000E-02 0. -1.
         11    1    1    2    0    0  0.60022048347E+02  0.40750206211E+02  0.22992830329E+03  0.24110215729E+03  0.51100000000E-03 0. -1.
         22    1    1    2    0    0 -0.84941616412E+02 -0.31972617051E+02  0.27736998213E+03  0.29184145255E+03  0.00000000000E+00 0. -1.
          2    1    1    2  501    0  0.24919568066E+02 -0.87775891602E+01  0.47969345302E+03  0.48042048231E+03  0.25500000000E-02 0. -1.
<mgrwt>
<rscale>  0 0.26420275E+02</rscale>
<asrwt>0</asrwt>
<pdfrwt beam="1">  1       11 0.10000000E+01 0.79921505E+02</pdfrwt>
<pdfrwt beam="2">  1        2 0.20290035E-02 0.26420275E+02</pdfrwt>
<totfact> 0.48380059E+03</totfact>
</mgrwt>
</event>
<event>
 5    1  0.2968854E-003  0.2298906E+03  0.7818608E-02  0.1134541E+00
         11   -1    0    0    0    0  0.00000000000E+00  0.00000000000E+00  0.10003567902E+04  0.10003567902E+04  0.51100000000E-03 0.  1.
          2   -1    0    0  501    0 -0.00000000000E+00 -0.00000000000E+00 -0.33037660839E+03  0.33037660840E+03  0.25500000000E-02 0.  1.
         11    1    1    2    0    0  0.74691786382E+02 -0.25311160048E+02  0.34766801858E+03  0.35650044729E+03  0.51100000000E-03 0.  1.
         22    1    1    2    0    0  0.85504322050E+02 -0.12418995204E+03  0.60105341558E+03  0.61967680419E+03  0.00000000000E+00 0.  1.
          2    1    1    2  501    0 -0.16019610843E+03  0.14950111209E+03 -0.27874125236E+03  0.35455614710E+03  0.25500000000E-02 0.  1.
<mgrwt>
<rscale>  0 0.21911955E+03</rscale>
<asrwt>0</asrwt>
<pdfrwt beam="1">  1       11 0.10000000E+01 0.22989055E+03</pdfrwt>
<pdfrwt beam="2">  1        2 0.50845304E-01 0.21911955E+03</pdfrwt>
<totfact> 0.12223599E+02</totfact>
</mgrwt>
</event>
<event>
 5    1  0.2968854E-003  0.1291874E+03  0.7818608E-02  0.1228666E+00
         11   -1    0    0    0    0  0.00000000000E+00  0.00000000000E+00  0.10001304970E+04  0.10001304970E+04  0.51100000000E-03 0.  1.
          2   -1    0    0  501    0 -0.00000000000E+00 -0.00000000000E+00 -0.40087358750E+02  0.40087358831E+02  0.25500000000E-02 0.  1.
         11    1    1    2    0    0  0.47620802525E+01  0.11409738753E+02  0.16065179934E+02  0.20271890719E+02  0.51100000000E-03 0.  1.
         22    1    1    2    0    0  0.10169491132E+03 -0.80350151797E+02  0.92883466278E+02  0.15945325393E+03  0.00000000000E+00 0.  1.
          2    1    1    2  501    0 -0.10645699157E+03  0.68940413044E+02  0.85109449204E+03  0.86049271117E+03  0.25500000000E-02 0.  1.
<mgrwt>
<rscale>  0 0.12918741E+03</rscale>
<asrwt>0</asrwt>
<pdfrwt beam="1">  1       11 0.10000000E+01 0.12363644E+02</pdfrwt>
<pdfrwt beam="2">  1        2 0.61680906E-02 0.12918741E+03</pdfrwt>
<totfact> 0.13910936E+03</totfact>
</mgrwt>
</event>
<event>
 5    1  0.5918864E-003  0.2559277E+03  0.7818608E-02  0.1110602E+00
         11   -1    0    0    0    0  0.00000000000E+00  0.00000000000E+00  0.99899370878E+03  0.99899370878E+03  0.51100000000E-03 0. -1.
          2   -1    0    0  501    0 -0.00000000000E+00 -0.00000000000E+00 -0.26785883946E+04  0.26785883946E+04  0.25500000000E-02 0. -1.
         11    1    1    2    0    0  0.16609585181E+01  0.23965148414E+03  0.89249048464E+03  0.92410760078E+03  0.51100000000E-03 0. -1.
         22    1    1    2    0    0 -0.40230102600E+01  0.14662296896E+02  0.83937451141E+02  0.85303360226E+02  0.00000000000E+00 0.  1.
          2    1    1    2  501    0  0.23620517418E+01 -0.25431378104E+03 -0.26560226216E+04  0.26681711424E+04  0.25500000000E-02 0. -1.
<mgrwt>
<rscale>  0 0.25432475E+03</rscale>
<asrwt>0</asrwt>
<pdfrwt beam="1">  1       11 0.10000000E+01 0.25592767E+03</pdfrwt>
<pdfrwt beam="2">  1        2 0.41167583E+00 0.25432475E+03</pdfrwt>
<totfact> 0.40511815E+00</totfact>
</mgrwt>
</event>
<event>
 5    1  0.2968854E-003  0.2247057E+03  0.7818608E-02  0.1130423E+00
         11   -1    0    0    0    0  0.00000000000E+00  0.00000000000E+00  0.10001900356E+04  0.10001900356E+04  0.51100000000E-03 0.  1.
          2   -1    0    0  501    0 -0.00000000000E+00 -0.00000000000E+00 -0.98257908737E+02  0.98257908770E+02  0.25500000000E-02 0.  1.
         11    1    1    2    0    0  0.94459295589E+02  0.85838731853E+02  0.20404305333E+03  0.24067491357E+03  0.51100000000E-03 0.  1.
         22    1    1    2    0    0  0.16036343730E+03 -0.60967933508E+02  0.51582312990E+03  0.54360557602E+03  0.00000000000E+00 0. -1.
          2    1    1    2  501    0 -0.25482273289E+03 -0.24870798345E+02  0.18206594364E+03  0.31416745479E+03  0.25500000000E-02 0.  1.
<mgrwt>
<rscale>  0 0.22470568E+03</rscale>
<asrwt>0</asrwt>
<pdfrwt beam="1">  1       11 0.10000000E+01 0.12763560E+03</pdfrwt>
<pdfrwt beam="2">  1        2 0.15119474E-01 0.22470568E+03</pdfrwt>
<totfact> 0.47274292E+02</totfact>
</mgrwt>
</event>
<event>
 5    1  0.2968854E-003  0.1115237E+03  0.7818608E-02  0.1257774E+00
         11   -1    0    0    0    0  0.00000000000E+00  0.00000000000E+00  0.10001776102E+04  0.10001776102E+04  0.51100000000E-03 0. -1.
          2   -1    0    0  501    0 -0.00000000000E+00 -0.00000000000E+00 -0.14889445760E+02  0.14889445978E+02  0.25500000000E-02 0. -1.
         11    1    1    2    0    0 -0.87417250047E+02 -0.66057447087E+02  0.41760873557E+03  0.43174346312E+03  0.51100000000E-03 0. -1.
         22    1    1    2    0    0 -0.14155664972E+02  0.13116303365E+02  0.97692103982E+02  0.99579955037E+02  0.00000000000E+00 0. -1.
          2    1    1    2  501    0  0.10157291502E+03  0.52941143722E+02  0.46998732487E+03  0.48374363800E+03  0.25500000000E-02 0. -1.
<mgrwt>
<rscale>  0 0.11152373E+03</rscale>
<asrwt>0</asrwt>
<pdfrwt beam="1">  1       11 0.10000000E+01 0.19298193E+02</pdfrwt>
<pdfrwt beam="2">  1        2 0.22910908E-02 0.11152373E+03</pdfrwt>
<totfact> 0.50780552E+03</totfact>
</mgrwt>
</event>
<event>
 5    1  0.2968854E-003  0.9416114E+02  0.7818608E-02  0.1364893E+00
         11   -1    0    0    0    0  0.00000000000E+00  0.00000000000E+00  0.10006466958E+04  0.10006466958E+04  0.51100000000E-03 0.  1.
          2   -1    0    0  501    0 -0.00000000000E+00 -0.00000000000E+00 -0.26604813159E+02  0.26604813281E+02  0.25500000000E-02 0.  1.
         11    1    1    2    0    0 -0.16615158800E+02 -0.88500940910E+02  0.48136307253E+03  0.48971306664E+03  0.51100000000E-03 0.  1.
         22    1    1    2    0    0  0.84483882396E+02  0.78459191308E+02  0.42797179452E+03  0.44323044570E+03  0.00000000000E+00 0.  1.
          2    1    1    2  501    0 -0.67868723596E+02  0.10041749602E+02  0.64707015599E+02  0.94307996755E+02  0.25500000000E-02 0.  1.
<mgrwt>
<rscale>  0 0.68607583E+02</rscale>
<asrwt>0</asrwt>
<pdfrwt beam="1">  1       11 0.10000000E+01 0.94161139E+02</pdfrwt>
<pdfrwt beam="2">  1        2 0.40956950E-02 0.68607583E+02</pdfrwt>
<totfact> 0.22278942E+03</totfact>
</mgrwt>
</event>
<event>
 5    1  0.2968854E-003  0.1280732E+03  0.7818608E-02  0.1230343E+00
         11   -1    0    0    0    0  0.00000000000E+00  0.00000000000E+00  0.10004115360E+04  0.10004115360E+04  0.51100000000E-03 0.  1.
          2   -1    0    0  501    0 -0.00000000000E+00 -0.00000000000E+00 -0.14565131396E+04  0.14565131396E+04  0.25500000000E-02 0.  1.
         11    1    1    2    0    0  0.96002516896E+02  0.16627125531E+02  0.58763849069E+03  0.59566092728E+03  0.51100000000E-03 0.  1.
         22    1    1    2    0    0 -0.28226568698E+02  0.92401038654E+02  0.40016476476E+03  0.41166312693E+03  0.00000000000E+00 0.  1.
          2    1    1    2  501    0 -0.67775948198E+02 -0.10902816419E+03 -0.14439048590E+04  0.14496006214E+04  0.25500000000E-02 0.  1.
<mgrwt>
<rscale>  0 0.12807319E+03</rscale>
<asrwt>0</asrwt>
<pdfrwt beam="1">  1       11 0.10000000E+01 0.96616205E+02</pdfrwt>
<pdfrwt beam="2">  1        2 0.22417115E+00 0.12807319E+03</pdfrwt>
<totfact> 0.19070805E+01</totfact>
</mgrwt>
</event>
<event>
 5    1  0.2968854E-003  0.1108486E+03  0.7818608E-02  0.1476115E+00
         11   -1    0    0    0    0  0.00000000000E+00  0.00000000000E+00  0.10001383562E+04  0.10001383562E+04  0.51100000000E-03 0.  1.
          2   -1    0    0  501    0 -0.00000000000E+00 -0.00000000000E+00 -0.16766288677E+02  0.16766288871E+02  0.25500000000E-02 0.  1.
         11    1    1    2    0    0 -0.83964772212E+02 -0.67313720802E+02  0.60692373166E+03  0.61639081436E+03  0.51100000000E-03 0.  1.
         22    1    1    2    0    0  0.14562380767E+01 -0.17980368537E+02  0.52603134200E+02  0.55610286905E+02  0.00000000000E+00 0.  1.
          2    1    1    2  501    0  0.82508534135E+02  0.85294089339E+02  0.32384520169E+03  0.34490354383E+03  0.25500000000E-02 0.  1.
<mgrwt>
<rscale>  0 0.44717165E+02</rscale>
<asrwt>0</asrwt>
<pdfrwt beam="1">  1       11 0.10000000E+01 0.11084860E+03</pdfrwt>
<pdfrwt beam="2">  1        2 0.25797858E-02 0.44717165E+02</pdfrwt>
<totfact> 0.38537767E+03</totfact>
</mgrwt>
</event>
<event>
 5    1  0.2968854E-003  0.1256725E+03  0.7818608E-02  0.1234022E+00
         11   -1    0    0    0    0  0.00000000000E+00  0.00000000000E+00  0.10001383636E+04  0.10001383636E+04  0.51100000000E-03 0. -1.
          2   -1    0    0  501    0 -0.00000000000E+00 -0.00000000000E+00 -0.26275678978E+02  0.26275679101E+02  0.25500000000E-02 0. -1.
         11    1    1    2    0    0 -0.28915902195E+02 -0.15110256899E+02  0.16849536059E+03  0.17162498596E+03  0.51100000000E-03 0. -1.
         22    1    1    2    0    0 -0.94073770753E+02  0.61065727619E+02  0.60451214287E+03  0.61482829173E+03  0.00000000000E+00 0. -1.
          2    1    1    2  501    0  0.12298967295E+03 -0.45955470720E+02  0.20085518115E+03  0.23996076501E+03  0.25500000000E-02 0. -1.
<mgrwt>
<rscale>  0 0.12567246E+03</rscale>
<asrwt>0</asrwt>
<pdfrwt beam="1">  1       11 0.10000000E+01 0.32625899E+02</pdfrwt>
<pdfrwt beam="2">  1        2 0.40429714E-02 0.12567246E+03</pdfrwt>
<totfact> 0.24061053E+03</totfact>
</mgrwt>
</event>
<event>
 5    1  0.2968854E-003  0.3066529E+02  0.7818608E-02  0.1597452E+00
         11   -1    0    0    0    0  0.00000000000E+00  0.00000000000E+00  0.99985755981E+03  0.99985755981E+03  0.51100000000E-03 0.  1.
          2   -1    0    0  501    0 -0.00000000000E+00 -0.00000000000E+00 -0.17045448099E+01  0.17045467173E+01  0.25500000000E-02 0.  1.
         11    1    1    2    0    0 -0.44539734519E+01  0.10768500591E+02  0.50288096846E+02  0.51620646733E+02  0.51100000000E-03 0.  1.
         22    1    1    2    0    0 -0.11156722176E+02  0.14917479406E+02  0.11217663435E+03  0.11371280023E+03  0.00000000000E+00 0.  1.
          2    1    1    2  501    0  0.15610695628E+02 -0.25685979997E+02  0.83568828381E+03  0.83622865957E+03  0.25500000000E-02 0.  1.
<mgrwt>
<rscale>  0 0.30057668E+02</rscale>
<asrwt>0</asrwt>
<pdfrwt beam="1">  1       11 0.10000000E+01 0.30665287E+02</pdfrwt>
<pdfrwt beam="2">  1        2 0.26220045E-03 0.30057668E+02</pdfrwt>
<totfact> 0.73589852E+04</totfact>
</mgrwt>
</event>
<event>
 5    1  0.2968854E-003  0.1733482E+03  0.7818608E-02  0.1174401E+00
         11   -1    0    0    0    0  0.00000000000E+00  0.00000000000E+00  0.99988734793E+03  0.99988734793E+03  0.51100000000E-03 0. -1.
         -2   -1    0    0    0  501 -0.00000000000E+00 -0.00000000000E+00 -0.83948175667E+02  0.83948175706E+02  0.25500000000E-02 0.  1.
         11    1    1    2    0    0 -0.14097345800E+03 -0.40105197479E+02  0.21420856616E+03  0.25955202280E+03  0.51100000000E-03 0. -1.
         22    1    1    2    0    0 -0.57198274407E+02  0.91299173609E+02  0.57177121463E+03  0.58183288286E+03  0.00000000000E+00 0. -1.
         -2    1    1    2    0  501  0.19817173241E+03 -0.51193976129E+02  0.12995939147E+03  0.24245061797E+03  0.25500000000E-02 0.  1.
<mgrwt>
<rscale>  0 0.17334820E+03</rscale>
<asrwt>0</asrwt>
<pdfrwt beam="1">  1       11 0.10000000E+01 0.10773663E+03</pdfrwt>
<pdfrwt beam="2">  1       -2 0.12913649E-01 0.17334820E+03</pdfrwt>
<totfact> 0.34410741E+02</totfact>
</mgrwt>
</event>
<event>
 5    1  0.2968854E-003  0.7210469E+02  0.7818608E-02  0.1369839E+00
         11   -1    0    0    0    0  0.00000000000E+00  0.00000000000E+00  0.10002773986E+04  0.10002773986E+04  0.51100000000E-03 0.  1.
          2   -1    0    0  501    0 -0.00000000000E+00 -0.00000000000E+00 -0.55064630123E+01  0.55064636027E+01  0.25500000000E-02 0.  1.
         11    1    1    2    0    0 -0.16885333869E+02  0.40915827145E+02  0.18683426132E+03  0.19200588692E+03  0.51100000000E-03 0.  1.
         22    1    1    2    0    0 -0.24293518964E+02  0.12204275092E+02  0.15252011065E+03  0.15492418645E+03  0.00000000000E+00 0.  1.
          2    1    1    2  501    0  0.41178852834E+02 -0.53120102237E+02  0.65541656360E+03  0.65885378881E+03  0.25500000000E-02 0.  1.
<mgrwt>
<rscale>  0 0.67211927E+02</rscale>
<asrwt>0</asrwt>
<pdfrwt beam="1">  1       11 0.10000000E+01 0.72104688E+02</pdfrwt>
<pdfrwt beam="2">  1        2 0.84738317E-03 0.67211927E+02</pdfrwt>
<totfact> 0.18191865E+04</totfact>
</mgrwt>
</event>
<event>
 5    1  0.2968854E-003  0.5734204E+02  0.7818608E-02  0.1413407E+00
         11   -1    0    0    0    0  0.00000000000E+00  0.00000000000E+00  0.10001288425E+04  0.10001288425E+04  0.51100000000E-03 0. -1.
          2   -1    0    0  501    0 -0.00000000000E+00 -0.00000000000E+00 -0.13832043207E+02  0.13832043442E+02  0.25500000000E-02 0. -1.
         11    1    1    2    0    0  0.39063988728E+02 -0.24493227723E+02  0.36244429345E+02  0.58647865080E+02  0.51100000000E-03 0. -1.
         22    1    1    2    0    0  0.10168460055E+02 -0.31055446175E+01  0.14094458788E+02  0.17654907413E+02  0.00000000000E+00 0.  1.
          2    1    1    2  501    0 -0.49232448783E+02  0.27598772340E+02  0.93595791112E+03  0.93765811341E+03  0.25500000000E-02 0. -1.
<mgrwt>
<rscale>  0 0.56440466E+02</rscale>
<asrwt>0</asrwt>
<pdfrwt beam="1">  1       11 0.10000000E+01 0.57342039E+02</pdfrwt>
<pdfrwt beam="2">  1        2 0.21282808E-02 0.56440466E+02</pdfrwt>
<totfact> 0.51302030E+03</totfact>
</mgrwt>
</event>
<event>
 5    1  0.3125500E-003  0.1696719E+03  0.7818608E-02  0.1182319E+00
         11   -1    0    0    0    0  0.00000000000E+00  0.00000000000E+00  0.99957407738E+03  0.99957407738E+03  0.51100000000E-03 0. -1.
          2   -1    0    0  501    0 -0.00000000000E+00 -0.00000000000E+00 -0.19715909747E+04  0.19715909747E+04  0.25500000000E-02 0.  1.
         11    1    1    2    0    0 -0.11171861624E+03  0.39361431488E+02  0.71546808962E+03  0.72520683861E+03  0.51100000000E-03 0. -1.
         22    1    1    2    0    0 -0.35792081846E+02  0.36298973800E+02  0.27338268967E+03  0.27809491839E+03  0.00000000000E+00 0. -1.
          2    1    1    2  501    0  0.14751069808E+03 -0.75660405288E+02 -0.19608676766E+04  0.19678632951E+04  0.25500000000E-02 0.  1.
<mgrwt>
<rscale>  0 0.16578270E+03</rscale>
<asrwt>0</asrwt>
<pdfrwt beam="1">  1       11 0.10000000E+01 0.16967189E+03</pdfrwt>
<pdfrwt beam="2">  1        2 0.30319249E+00 0.16578270E+03</pdfrwt>
<totfact> 0.10130743E+01</totfact>
</mgrwt>
</event>
<event>
 5    1  0.2968854E-003  0.2000010E+03  0.7818608E-02  0.1156740E+00
         11   -1    0    0    0    0  0.00000000000E+00  0.00000000000E+00  0.10000863943E+04  0.10000863943E+04  0.51100000000E-03 0. -1.
          2   -1    0    0  501    0 -0.00000000000E+00 -0.00000000000E+00 -0.43958866933E+03  0.43958866934E+03  0.25500000000E-02 0. -1.
         11    1    1    2    0    0 -0.27999076585E+02  0.52931964485E+02  0.19463252651E+03  0.20363585521E+03  0.51100000000E-03 0. -1.
         22    1    1    2    0    0 -0.29089836137E+02  0.13030184718E+03  0.77378911708E+03  0.78522250838E+03  0.00000000000E+00 0. -1.
          2    1    1    2  501    0  0.57088912722E+02 -0.18323381167E+03 -0.40792391860E+03  0.45081670007E+03  0.25500000000E-02 0. -1.
<mgrwt>
<rscale>  0 0.19192127E+03</rscale>
<asrwt>0</asrwt>
<pdfrwt beam="1">  1       11 0.10000000E+01 0.20000096E+03</pdfrwt>
<pdfrwt beam="2">  1        2 0.67634867E-01 0.19192127E+03</pdfrwt>
<totfact> 0.89831733E+01</totfact>
</mgrwt>
</event>
<event>
 5    1  0.2968854E-003  0.1796509E+03  0.7818608E-02  0.1168141E+00
         11   -1    0    0    0    0  0.00000000000E+00  0.00000000000E+00  0.99999341166E+03  0.99999341166E+03  0.51100000000E-03 0.  1.
          2   -1    0    0  501    0 -0.00000000000E+00 -0.00000000000E+00 -0.21711886872E+03  0.21711886874E+03  0.25500000000E-02 0.  1.
         11    1    1    2    0    0  0.16827621984E+03  0.88889830479E+02  0.92527826580E+03  0.94464710728E+03  0.51100000000E-03 0.  1.
         22    1    1    2    0    0 -0.12686746489E+02  0.38904446304E-01  0.24487798163E+02  0.27579110009E+02  0.00000000000E+00 0.  1.
          2    1    1    2  501    0 -0.15558947335E+03 -0.88928734926E+02 -0.16689152102E+03  0.24488606312E+03  0.25500000000E-02 0.  1.
<mgrwt>
<rscale>  0 0.17965093E+03</rscale>
<asrwt>0</asrwt>
<pdfrwt beam="1">  1       11 0.10000000E+01 0.12686806E+02</pdfrwt>
<pdfrwt beam="2">  1        2 0.33402682E-01 0.17965093E+03</pdfrwt>
<totfact> 0.19189372E+02</totfact>
</mgrwt>
</event>
<event>
 5    1  0.2968854E-003  0.1371174E+03  0.7818608E-02  0.1671495E+00
         11   -1    0    0    0    0  0.00000000000E+00  0.00000000000E+00  0.10002519795E+04  0.10002519795E+04  0.51100000000E-03 0.  1.
          2   -1    0    0  501    0 -0.00000000000E+00 -0.00000000000E+00 -0.43566007349E+03  0.43566007349E+03  0.25500000000E-02 0.  1.
         11    1    1    2    0    0 -0.10652001565E+03 -0.58022517418E+02  0.24327782750E+03  0.27184044514E+03  0.51100000000E-03 0.  1.
         22    1    1    2    0    0  0.12445025470E+03  0.74400867141E+02  0.73525684922E+03  0.74941709965E+03  0.00000000000E+00 0.  1.
          2    1    1    2  501    0 -0.17930239054E+02 -0.16378349723E+02 -0.41394277066E+03  0.41465450824E+03  0.25500000000E-02 0.  1.
<mgrwt>
<rscale>  0 0.24284642E+02</rscale>
<asrwt>0</asrwt>
<pdfrwt beam="1">  1       11 0.10000000E+01 0.13711741E+03</pdfrwt>
<pdfrwt beam="2">  1        2 0.67041514E-01 0.24284642E+02</pdfrwt>
<totfact> 0.91855582E+01</totfact>
</mgrwt>
</event>
<event>
 5    1  0.2968854E-003  0.1584776E+03  0.7818608E-02  0.1190426E+00
         11   -1    0    0    0    0  0.00000000000E+00  0.00000000000E+00  0.99976232651E+03  0.99976232651E+03  0.51100000000E-03 0.  1.
          2   -1    0    0  501    0 -0.00000000000E+00 -0.00000000000E+00 -0.99554391992E+02  0.99554392025E+02  0.25500000000E-02 0.  1.
         11    1    1    2    0    0 -0.15490167057E+03  0.98511515006E+01 -0.10061940908E+02  0.15554039793E+03  0.51100000000E-03 0.  1.
         22    1    1    2    0    0 -0.41272256665E+02 -0.21103722872E+02  0.10323829823E+03  0.11316763014E+03  0.00000000000E+00 0.  1.
          2    1    1    2  501    0  0.19617392724E+03  0.11252571371E+02  0.80703157720E+03  0.83060869047E+03  0.25500000000E-02 0.  1.
<mgrwt>
<rscale>  0 0.15847757E+03</rscale>
<asrwt>0</asrwt>
<pdfrwt beam="1">  1       11 0.10000000E+01 0.46354787E+02</pdfrwt>
<pdfrwt beam="2">  1        2 0.15312420E-01 0.15847757E+03</pdfrwt>
<totfact> 0.45957035E+02</totfact>
</mgrwt>
</event>
<event>
 5    1  0.2968854E-003  0.1626622E+03  0.7818608E-02  0.1187040E+00
         11   -1    0    0    0    0  0.00000000000E+00  0.00000000000E+00  0.10002577412E+04  0.10002577412E+04  0.51100000000E-03 0. -1.
         -2   -1    0    0    0  501 -0.00000000000E+00 -0.00000000000E+00 -0.57898079625E+02  0.57898079681E+02  0.25500000000E-02 0.  1.
         11    1    1    2    0    0  0.32715457092E+02 -0.14333475001E+03  0.80796368984E+03  0.82123107332E+03  0.51100000000E-03 0. -1.
         22    1    1    2    0    0  0.47879081896E+00 -0.14693123986E+02  0.55102796670E+02  0.57030126547E+02  0.00000000000E+00 0. -1.
         -2    1    1    2    0  501 -0.33194247911E+02  0.15802787400E+03  0.79293175095E+02  0.17989462104E+03  0.25500000000E-02 0.  1.
<mgrwt>
<rscale>  0 0.16147652E+03</rscale>
<asrwt>0</asrwt>
<pdfrwt beam="1">  1       11 0.10000000E+01 0.16266215E+03</pdfrwt>
<pdfrwt beam="2">  1       -2 0.89096924E-02 0.16147652E+03</pdfrwt>
<totfact> 0.61826285E+02</totfact>
</mgrwt>
</event>
<event>
 5    1  0.2968854E-003  0.4056007E+03  0.7818608E-02  0.1055758E+00
         11   -1    0    0    0    0  0.00000000000E+00  0.00000000000E+00  0.10005096790E+04  0.10005096790E+04  0.51100000000E-03 0. -1.
          2   -1    0    0  501    0 -0.00000000000E+00 -0.00000000000E+00 -0.40668812991E+03  0.40668812992E+03  0.25500000000E-02 0.  1.
         11    1    1    2    0    0  0.11277267638E+03 -0.27614414963E+03  0.57295277100E+03  0.64594747906E+03  0.51100000000E-03 0. -1.
         22    1    1    2    0    0  0.99934145486E+02 -0.23208847036E+02  0.28892284569E+03  0.30659728436E+03  0.00000000000E+00 0.  1.
          2    1    1    2  501    0 -0.21270682186E+03  0.29935299666E+03 -0.26805406756E+03  0.45465304554E+03  0.25500000000E-02 0.  1.
<mgrwt>
<rscale>  0 0.36722801E+03</rscale>
<asrwt>0</asrwt>
<pdfrwt beam="1">  1       11 0.10000000E+01 0.40560072E+03</pdfrwt>
<pdfrwt beam="2">  1        2 0.62599292E-01 0.36722801E+03</pdfrwt>
<totfact> 0.97175343E+01</totfact>
</mgrwt>
</event>
<event>
 5    1  0.2968854E-003  0.1244304E+03  0.7818608E-02  0.1235962E+00
         11   -1    0    0    0    0  0.00000000000E+00  0.00000000000E+00  0.10002133685E+04  0.10002133685E+04  0.51100000000E-03 0. -1.
          2   -1    0    0  501    0 -0.00000000000E+00 -0.00000000000E+00 -0.18745223292E+02  0.18745223465E+02  0.25500000000E-02 0. -1.
         11    1    1    2    0    0  0.72956706137E+02  0.10480296110E+03  0.54971897141E+03  0.56435564067E+03  0.51100000000E-03 0. -1.
         22    1    1    2    0    0 -0.15777443323E+02  0.38036932199E+01  0.90686055477E+02  0.92126849821E+02  0.00000000000E+00 0.  1.
          2    1    1    2  501    0 -0.57179262813E+02 -0.10860665432E+03  0.34106311835E+03  0.36247610151E+03  0.25500000000E-02 0. -1.
<mgrwt>
<rscale>  0 0.12443037E+03</rscale>
<asrwt>0</asrwt>
<pdfrwt beam="1">  1       11 0.10000000E+01 0.16229473E+02</pdfrwt>
<pdfrwt beam="2">  1        2 0.28844958E-02 0.12443037E+03</pdfrwt>
<totfact> 0.37691257E+03</totfact>
</mgrwt>
</event>
<event>
 5    1  0.2968854E-003  0.2513597E+02  0.7818608E-02  0.1741389E+00
         11   -1    0    0    0    0  0.00000000000E+00  0.00000000000E+00  0.10000544338E+04  0.10000544338E+04  0.51100000000E-03 0. -1.
          2   -1    0    0  501    0 -0.00000000000E+00 -0.00000000000E+00 -0.25778968412E+01  0.25778981024E+01  0.25500000000E-02 0. -1.
         11    1    1    2    0    0 -0.45020579605E+01  0.23443366698E+02  0.87634070698E+02  0.90827255355E+02  0.51100000000E-03 0. -1.
         22    1    1    2    0    0  0.16228067844E+02 -0.38176395963E+00  0.83807387394E+02  0.85364946620E+02  0.00000000000E+00 0. -1.
          2    1    1    2  501    0 -0.11726009884E+02 -0.23061602738E+02  0.82603507882E+03  0.82644012988E+03  0.25500000000E-02 0. -1.
<mgrwt>
<rscale>  0 0.20199526E+02</rscale>
<asrwt>0</asrwt>
<pdfrwt beam="1">  1       11 0.10000000E+01 0.25135967E+02</pdfrwt>
<pdfrwt beam="2">  1        2 0.39662119E-03 0.20199526E+02</pdfrwt>
<totfact> 0.38109396E+04</totfact>
</mgrwt>
</event>
<event>
 5    1  0.2968854E-003  0.1110386E+03  0.7818608E-02  0.1262517E+00
         11   -1    0    0    0    0  0.00000000000E+00  0.00000000000E+00  0.10000857232E+04  0.10000857232E+04  0.51100000000E-03 0.  1.
         -2   -1    0    0    0  501 -0.00000000000E+00 -0.00000000000E+00 -0.12117379936E+02  0.12117380204E+02  0.25500000000E-02 0.  1.
         11    1    1    2    0    0  0.99465413247E+00  0.93620886059E+02  0.45107440264E+03  0.46068858936E+03  0.51100000000E-03 0.  1.
         22    1    1    2    0    0  0.84239134824E+01  0.14926424329E+02  0.67672861418E+02  0.69809574086E+02  0.00000000000E+00 0. -1.
         -2    1    1    2    0  501 -0.94185676149E+01 -0.10854731039E+03  0.46922107920E+03  0.48170493996E+03  0.25500000000E-02 0.  1.
<mgrwt>
<rscale>  0 0.10895517E+03</rscale>
<asrwt>0</asrwt>
<pdfrwt beam="1">  1       11 0.10000000E+01 0.11103863E+03</pdfrwt>
<pdfrwt beam="2">  1       -2 0.18643721E-02 0.10895517E+03</pdfrwt>
<totfact> 0.61378047E+03</totfact>
</mgrwt>
</event>
<event>
 5    1  0.2968854E-003  0.1256252E+03  0.7818608E-02  0.1234095E+00
         11   -1    0    0    0    0  0.00000000000E+00  0.00000000000E+00  0.10001996744E+04  0.10001996744E+04  0.51100000000E-03 0. -1.
          2   -1    0    0  501    0 -0.00000000000E+00 -0.00000000000E+00 -0.31345063949E+02  0.31345064053E+02  0.25500000000E-02 0. -1.
         11    1    1    2    0    0 -0.34060955988E+01 -0.53828798714E+02  0.29842869091E+03  0.30326362231E+03  0.51100000000E-03 0. -1.
         22    1    1    2    0    0  0.10829575171E+03  0.10633036150E+03  0.49096473711E+03  0.51388762263E+03  0.00000000000E+00 0. -1.
          2    1    1    2  501    0 -0.10488965611E+03 -0.52501562787E+02  0.17946118246E+03  0.21439349354E+03  0.25500000000E-02 0. -1.
<mgrwt>
<rscale>  0 0.12562523E+03</rscale>
<asrwt>0</asrwt>
<pdfrwt beam="1">  1       11 0.10000000E+01 0.53936454E+02</pdfrwt>
<pdfrwt beam="2">  1        2 0.48232803E-02 0.12562523E+03</pdfrwt>
<totfact> 0.19083134E+03</totfact>
</mgrwt>
</event>
<event>
 5    1  0.2968854E-003  0.1391748E+03  0.7818608E-02  0.1220220E+00
         11   -1    0    0    0    0  0.00000000000E+00  0.00000000000E+00  0.10004247389E+04  0.10004247389E+04  0.51100000000E-03 0.  1.
          2   -1    0    0  501    0 -0.00000000000E+00 -0.00000000000E+00 -0.18940810124E+02  0.18940810296E+02  0.25500000000E-02 0.  1.
         11    1    1    2    0    0 -0.12408378186E+03  0.30825616713E+00  0.38252555237E+03  0.40214758256E+03  0.51100000000E-03 0.  1.
         22    1    1    2    0    0 -0.10669750718E+02 -0.84567191886E+01  0.69395579699E+02  0.70718499430E+02  0.00000000000E+00 0. -1.
          2    1    1    2  501    0  0.13475353258E+03  0.81484630214E+01  0.52956279667E+03  0.54649946717E+03  0.25500000000E-02 0.  1.
<mgrwt>
<rscale>  0 0.13499967E+03</rscale>
<asrwt>0</asrwt>
<pdfrwt beam="1">  1       11 0.10000000E+01 0.13917479E+03</pdfrwt>
<pdfrwt beam="2">  1        2 0.29152084E-02 0.13499967E+03</pdfrwt>
<totfact> 0.37477129E+03</totfact>
</mgrwt>
</event>
<event>
 5    1  0.2968854E-003  0.4616502E+03  0.7818608E-02  0.1027699E+00
         11   -1    0    0    0    0  0.00000000000E+00  0.00000000000E+00  0.10000641763E+04  0.10000641763E+04  0.51100000000E-03 0.  1.
          2   -1    0    0  501    0 -0.00000000000E+00 -0.00000000000E+00 -0.49501294550E+03  0.49501294551E+03  0.25500000000E-02 0.  1.
         11    1    1    2    0    0  0.10655338253E+03 -0.31060095903E+03  0.54777692257E+03  0.63865964017E+03  0.51100000000E-03 0.  1.
         22    1    1    2    0    0 -0.16360261009E+02 -0.13034788689E+03  0.27548883065E+03  0.30520865906E+03  0.00000000000E+00 0.  1.
          2    1    1    2  501    0 -0.90193121521E+02  0.44094884592E+03 -0.31821452237E+03  0.55120882263E+03  0.25500000000E-02 0.  1.
<mgrwt>
<rscale>  0 0.45007853E+03</rscale>
<asrwt>0</asrwt>
<pdfrwt beam="1">  1       11 0.10000000E+01 0.46165016E+03</pdfrwt>
<pdfrwt beam="2">  1        2 0.76160723E-01 0.45007853E+03</pdfrwt>
<totfact> 0.77772125E+01</totfact>
</mgrwt>
</event>
<event>
 5    1  0.2968854E-003  0.2881707E+02  0.7818608E-02  0.1629412E+00
         11   -1    0    0    0    0  0.00000000000E+00  0.00000000000E+00  0.10002334577E+04  0.10002334577E+04  0.51100000000E-03 0. -1.
          2   -1    0    0  501    0 -0.00000000000E+00 -0.00000000000E+00 -0.15337460624E+01  0.15337481822E+01  0.25500000000E-02 0. -1.
         11    1    1    2    0    0 -0.11559497100E+02  0.14215535654E+02  0.10815647892E+03  0.10969743552E+03  0.51100000000E-03 0. -1.
         22    1    1    2    0    0 -0.51178409063E+00  0.10323088924E+02  0.48805711657E+02  0.49888130635E+02  0.00000000000E+00 0.  1.
          2    1    1    2  501    0  0.12071281191E+02 -0.24538624577E+02  0.84173752107E+03  0.84218163974E+03  0.25500000000E-02 0. -1.
<mgrwt>
<rscale>  0 0.27347028E+02</rscale>
<asrwt>0</asrwt>
<pdfrwt beam="1">  1       11 0.10000000E+01 0.28817072E+02</pdfrwt>
<pdfrwt beam="2">  1        2 0.23601618E-03 0.27347028E+02</pdfrwt>
<totfact> 0.82359770E+04</totfact>
</mgrwt>
</event>
<event>
 5    1  0.2968854E-003  0.6789315E+02  0.7818608E-02  0.1367408E+00
         11   -1    0    0    0    0  0.00000000000E+00  0.00000000000E+00  0.99985977469E+03  0.99985977469E+03  0.51100000000E-03 0.  1.
          2   -1    0    0  501    0 -0.00000000000E+00 -0.00000000000E+00 -0.11804219469E+02  0.11804219745E+02  0.25500000000E-02 0.  1.
         11    1    1    2    0    0 -0.79150983736E+01  0.15393316086E+02  0.49663143746E+01  0.18007421834E+02  0.51100000000E-03 0.  1.
         22    1    1    2    0    0  0.53049911335E+02  0.40312464727E+02  0.33112148301E+03  0.33775852975E+03  0.00000000000E+00 0.  1.
          2    1    1    2  501    0 -0.45134812962E+02 -0.55705780813E+02  0.65196775784E+03  0.65589804286E+03  0.25500000000E-02 0.  1.
<mgrwt>
<rscale>  0 0.67893147E+02</rscale>
<asrwt>0</asrwt>
<pdfrwt beam="1">  1       11 0.10000000E+01 0.17309051E+02</pdfrwt>
<pdfrwt beam="2">  1        2 0.18157791E-02 0.67893147E+02</pdfrwt>
<totfact> 0.65087643E+03</totfact>
</mgrwt>
</event>
<event>
 5    1  0.2968854E-003  0.1526367E+03  0.7818608E-02  0.1206325E+00
         11   -1    0    0    0    0  0.00000000000E+00  0.00000000000E+00  0.10000072883E+04  0.10000072883E+04  0.51100000000E-03 0. -1.
          2   -1    0    0  501    0 -0.00000000000E+00 -0.00000000000E+00 -0.27729516421E+02  0.27729516538E+02  0.25500000000E-02 0. -1.
         11    1    1    2    0    0  0.67703878725E+02 -0.74025928471E+02  0.58047986655E+03  0.58908448354E+03  0.51100000000E-03 0. -1.
         22    1    1    2    0    0  0.40220000825E+02 -0.23312716945E+02  0.14467707216E+03  0.15196245078E+03  0.00000000000E+00 0. -1.
          2    1    1    2  501    0 -0.10792387955E+03  0.97338645416E+02  0.24712083322E+03  0.28668987057E+03  0.25500000000E-02 0. -1.
<mgrwt>
<rscale>  0 0.14533539E+03</rscale>
<asrwt>0</asrwt>
<pdfrwt beam="1">  1       11 0.10000000E+01 0.15263674E+03</pdfrwt>
<pdfrwt beam="2">  1        2 0.42661104E-02 0.14533539E+03</pdfrwt>
<totfact> 0.22705555E+03</totfact>
</mgrwt>
</event>
<event>
 5    1  0.2968854E-003  0.8176864E+02  0.7818608E-02  0.1330262E+00
         11   -1    0    0    0    0  0.00000000000E+00  0.00000000000E+00  0.10003052493E+04  0.10003052493E+04  0.51100000000E-03 0.  1.
          2   -1    0    0  501    0 -0.00000000000E+00 -0.00000000000E+00 -0.67172606684E+01  0.67172611524E+01  0.25500000000E-02 0.  1.
         11    1    1    2    0    0  0.12318285182E+02  0.64820979450E+02  0.35515931905E+03  0.36123626816E+03  0.51100000000E-03 0.  1.
         22    1    1    2    0    0  0.97039157499E+01  0.11646028448E+02  0.58881421227E+02  0.60801461538E+02  0.00000000000E+00 0.  1.
          2    1    1    2  501    0 -0.22022200932E+02 -0.76467007899E+02  0.57954724838E+03  0.58498478078E+03  0.25500000000E-02 0.  1.
<mgrwt>
<rscale>  0 0.79575000E+02</rscale>
<asrwt>0</asrwt>
<pdfrwt beam="1">  1       11 0.10000000E+01 0.81768641E+02</pdfrwt>
<pdfrwt beam="2">  1        2 0.10337402E-02 0.79575000E+02</pdfrwt>
<totfact> 0.14283290E+04</totfact>
</mgrwt>
</event>
<event>
 5    1  0.2968854E-003  0.2331082E+03  0.7818608E-02  0.1125806E+00
         11   -1    0    0    0    0  0.00000000000E+00  0.00000000000E+00  0.99995310559E+03  0.99995310559E+03  0.51100000000E-03 0. -1.
          2   -1    0    0  501    0 -0.00000000000E+00 -0.00000000000E+00 -0.33228973670E+03  0.33228973671E+03  0.25500000000E-02 0. -1.
         11    1    1    2    0    0 -0.16692441055E+02  0.20653636248E+03  0.81369316483E+03  0.83966211842E+03  0.51100000000E-03 0. -1.
         22    1    1    2    0    0  0.57713701446E+01  0.24394095277E+02  0.13007409187E+03  0.13246754309E+03  0.00000000000E+00 0.  1.
          2    1    1    2  501    0  0.10921070910E+02 -0.23093045776E+03 -0.27610388781E+03  0.36011318079E+03  0.25500000000E-02 0. -1.
<mgrwt>
<rscale>  0 0.23118855E+03</rscale>
<asrwt>0</asrwt>
<pdfrwt beam="1">  1       11 0.10000000E+01 0.23310822E+03</pdfrwt>
<pdfrwt beam="2">  1        2 0.51119099E-01 0.23118855E+03</pdfrwt>
<totfact> 0.12152494E+02</totfact>
</mgrwt>
</event>
<event>
 5    1  0.2968854E-003  0.1373783E+03  0.7818608E-02  0.1315277E+00
         11   -1    0    0    0    0  0.00000000000E+00  0.00000000000E+00  0.10001482987E+04  0.10001482987E+04  0.51100000000E-03 0. -1.
          2   -1    0    0  501    0 -0.00000000000E+00 -0.00000000000E+00 -0.41776156956E+03  0.41776156956E+03  0.25500000000E-02 0.  1.
         11    1    1    2    0    0  0.99989374110E+02 -0.13823158945E+03  0.61379352452E+03  0.63706227168E+03  0.51100000000E-03 0. -1.
         22    1    1    2    0    0 -0.10497969764E+03  0.53318585388E+02  0.36079835407E+03  0.37952478280E+03  0.00000000000E+00 0. -1.
          2    1    1    2  501    0  0.49903235296E+01  0.84913004064E+02 -0.39220514945E+03  0.40132281377E+03  0.25500000000E-02 0.  1.
<mgrwt>
<rscale>  0 0.85059518E+02</rscale>
<asrwt>0</asrwt>
<pdfrwt beam="1">  1       11 0.10000000E+01 0.13737826E+03</pdfrwt>
<pdfrwt beam="2">  1        2 0.64280540E-01 0.85059518E+02</pdfrwt>
<totfact> 0.95512107E+01</totfact>
</mgrwt>
</event>
<event>
 5    1  0.2968854E-003  0.3122651E+02  0.7818608E-02  0.1712960E+00
         11   -1    0    0    0    0  0.00000000000E+00  0.00000000000E+00  0.10000448384E+04  0.10000448384E+04  0.51100000000E-03 0. -1.
          2   -1    0    0  501    0 -0.00000000000E+00 -0.00000000000E+00 -0.36062100313E+01  0.36062109329E+01  0.25500000000E-02 0. -1.
         11    1    1    2    0    0  0.86006590610E+01 -0.15441601721E+02  0.27131720668E+02  0.32381239425E+02  0.51100000000E-03 0. -1.
         22    1    1    2    0    0  0.77537957895E+01 -0.12982633622E+02  0.83640280287E+02  0.84996274103E+02  0.00000000000E+00 0. -1.
          2    1    1    2  501    0 -0.16354454850E+02  0.28424235343E+02  0.88566662737E+03  0.88627353576E+03  0.25500000000E-02 0. -1.
<mgrwt>
<rscale>  0 0.21730214E+02</rscale>
<asrwt>0</asrwt>
<pdfrwt beam="1">  1       11 0.10000000E+01 0.31226513E+02</pdfrwt>
<pdfrwt beam="2">  1        2 0.55482647E-03 0.21730214E+02</pdfrwt>
<totfact> 0.25065359E+04</totfact>
</mgrwt>
</event>
<event>
 5    1  0.2968854E-003  0.6441590E+02  0.7818608E-02  0.1380182E+00
         11   -1    0    0    0    0  0.00000000000E+00  0.00000000000E+00  0.10001827665E+04  0.10001827665E+04  0.51100000000E-03 0. -1.
          2   -1    0    0  501    0 -0.00000000000E+00 -0.00000000000E+00 -0.79647672856E+01  0.79647676938E+01  0.25500000000E-02 0. -1.
         11    1    1    2    0    0  0.39612740489E+02  0.87709943711E+01  0.21791675287E+03  0.22166147778E+03  0.51100000000E-03 0. -1.
         22    1    1    2    0    0  0.73557704132E+01  0.56717396382E+02  0.30516849330E+03  0.31048152878E+03  0.00000000000E+00 0. -1.
          2    1    1    2  501    0 -0.46968510902E+02 -0.65488390753E+02  0.46913275306E+03  0.47600452765E+03  0.25500000000E-02 0. -1.
<mgrwt>
<rscale>  0 0.64415896E+02</rscale>
<asrwt>0</asrwt>
<pdfrwt beam="1">  1       11 0.10000000E+01 0.40572173E+02</pdfrwt>
<pdfrwt beam="2">  1        2 0.12255728E-02 0.64415896E+02</pdfrwt>
<totfact> 0.10955763E+04</totfact>
</mgrwt>
</event>
<event>
 5    1  0.2968854E-003  0.1837612E+03  0.7818608E-02  0.1167301E+00
         11   -1    0    0    0    0  0.00000000000E+00  0.00000000000E+00  0.10001175640E+04  0.10001175640E+04  0.51100000000E-03 0.  1.
          2   -1    0    0  501    0 -0.00000000000E+00 -0.00000000000E+00 -0.45429648888E+02  0.45429648960E+02  0.25500000000E-02 0. -1.
         11    1    1    2    0    0 -0.16297595858E+03  0.25613804055E+01  0.65070968638E+03  0.67081355062E+03  0.51100000000E-03 0.  1.
         22    1    1    2    0    0 -0.17023450873E+02  0.11139857986E+02  0.10128363472E+03  0.10330667441E+03  0.00000000000E+00 0. -1.
          2    1    1    2  501    0  0.17999940945E+03 -0.13701238392E+02  0.20269459405E+03  0.27142698797E+03  0.25500000000E-02 0. -1.
<mgrwt>
<rscale>  0 0.18052011E+03</rscale>
<asrwt>0</asrwt>
<pdfrwt beam="1">  1       11 0.10000000E+01 0.18376117E+03</pdfrwt>
<pdfrwt beam="2">  1        2 0.69899982E-02 0.18052011E+03</pdfrwt>
<totfact> 0.12129473E+03</totfact>
</mgrwt>
</event>
<event>
 5    1  0.2968854E-003  0.4208418E+03  0.7818608E-02  0.1040849E+00
         11   -1    0    0    0    0  0.00000000000E+00  0.00000000000E+00  0.10001822956E+04  0.10001822956E+04  0.51100000000E-03 0. -1.
          2   -1    0    0  501    0 -0.00000000000E+00 -0.00000000000E+00 -0.20127693326E+03  0.20127693328E+03  0.25500000000E-02 0. -1.
         11    1    1    2    0    0 -0.69089127733E+02 -0.12723298820E+03  0.29564487720E+03  0.32919209327E+03  0.51100000000E-03 0. -1.
         22    1    1    2    0    0 -0.50915107007E+02 -0.26332369714E+03  0.33812768657E+03  0.43158087310E+03  0.00000000000E+00 0. -1.
          2    1    1    2  501    0  0.12000423474E+03  0.39055668533E+03  0.16513279859E+03  0.44068626254E+03  0.25500000000E-02 0. -1.
<mgrwt>
<rscale>  0 0.40857746E+03</rscale>
<asrwt>0</asrwt>
<pdfrwt beam="1">  1       11 0.10000000E+01 0.42084183E+03</pdfrwt>
<pdfrwt beam="2">  1        2 0.30971326E-01 0.40857746E+03</pdfrwt>
<totfact> 0.21065127E+02</totfact>
</mgrwt>
</event>
<event>
 5    1  0.2968854E-003  0.2188405E+03  0.7818608E-02  0.1138723E+00
         11   -1    0    0    0    0  0.00000000000E+00  0.00000000000E+00  0.10003270402E+04  0.10003270402E+04  0.51100000000E-03 0. -1.
          2   -1    0    0  501    0 -0.00000000000E+00 -0.00000000000E+00 -0.49342597634E+02  0.49342597700E+02  0.25500000000E-02 0. -1.
         11    1    1    2    0    0  0.40463632273E+02  0.10802717154E+03  0.26428063928E+03  0.28835989948E+03  0.51100000000E-03 0. -1.
         22    1    1    2    0    0  0.57046797382E+02  0.82050821234E+02  0.33710824183E+03  0.35160864760E+03  0.00000000000E+00 0. -1.
          2    1    1    2  501    0 -0.97510429655E+02 -0.19007799278E+03  0.34959556148E+03  0.40970109085E+03  0.25500000000E-02 0. -1.
<mgrwt>
<rscale>  0 0.21363035E+03</rscale>
<asrwt>0</asrwt>
<pdfrwt beam="1">  1       11 0.10000000E+01 0.21884048E+03</pdfrwt>
<pdfrwt beam="2">  1        2 0.75936513E-02 0.21363035E+03</pdfrwt>
<totfact> 0.11024348E+03</totfact>
</mgrwt>
</event>
<event>
 5    1  0.2968854E-003  0.2822291E+03  0.7818608E-02  0.1097862E+00
         11   -1    0    0    0    0  0.00000000000E+00  0.00000000000E+00  0.10003770780E+04  0.10003770780E+04  0.51100000000E-03 0. -1.
          2   -1    0    0  501    0 -0.00000000000E+00 -0.00000000000E+00 -0.50208558781E+03  0.50208558782E+03  0.25500000000E-02 0. -1.
         11    1    1    2    0    0  0.13556928339E+03  0.19962939607E+03  0.87404153236E+03  0.90674115748E+03  0.51100000000E-03 0. -1.
         22    1    1    2    0    0  0.15061391237E+02  0.31710358812E+02  0.66030356728E+02  0.74782353343E+02  0.00000000000E+00 0. -1.
          2    1    1    2  501    0 -0.15063067462E+03 -0.23133975488E+03 -0.44178039891E+03  0.52093915499E+03  0.25500000000E-02 0. -1.
<mgrwt>
<rscale>  0 0.27605739E+03</rscale>
<asrwt>0</asrwt>
<pdfrwt beam="1">  1       11 0.10000000E+01 0.28222907E+03</pdfrwt>
<pdfrwt beam="2">  1        2 0.77273061E-01 0.27605739E+03</pdfrwt>
<totfact> 0.77117619E+01</totfact>
</mgrwt>
</event>
<event>
 5    1  0.2968854E-003  0.3623551E+03  0.7818608E-02  0.1057655E+00
         11   -1    0    0    0    0  0.00000000000E+00  0.00000000000E+00  0.10007269190E+04  0.10007269190E+04  0.51100000000E-03 0.  1.
         -2   -1    0    0    0  501 -0.00000000000E+00 -0.00000000000E+00 -0.31325800209E+03  0.31325800210E+03  0.25500000000E-02 0. -1.
         11    1    1    2    0    0  0.35271910681E+03  0.12961486935E+02  0.82969315215E+03  0.90164821032E+03  0.51100000000E-03 0.  1.
         22    1    1    2    0    0  0.10312428612E+02  0.86752053781E+01  0.11297252410E+02  0.17585030118E+02  0.00000000000E+00 0.  1.
         -2    1    1    2    0  501 -0.36303153542E+03 -0.21636692313E+02 -0.15352148769E+03  0.39475168062E+03  0.25500000000E-02 0. -1.
<mgrwt>
<rscale>  0 0.36235506E+03</rscale>
<asrwt>0</asrwt>
<pdfrwt beam="1">  1       11 0.10000000E+01 0.13476104E+02</pdfrwt>
<pdfrwt beam="2">  1       -2 0.48228570E-01 0.36235506E+03</pdfrwt>
<totfact> 0.33370661E+01</totfact>
</mgrwt>
</event>
<event>
 5    1  0.2968854E-003  0.2760588E+02  0.7818608E-02  0.1626167E+00
         11   -1    0    0    0    0  0.00000000000E+00  0.00000000000E+00  0.10000141324E+04  0.10000141324E+04  0.51100000000E-03 0. -1.
          2   -1    0    0  501    0 -0.00000000000E+00 -0.00000000000E+00 -0.41575769349E+01  0.41575777169E+01  0.25500000000E-02 0. -1.
         11    1    1    2    0    0  0.24572319652E+02 -0.10790217118E+01  0.61834606967E+02  0.66546839143E+02  0.51100000000E-03 0. -1.
         22    1    1    2    0    0  0.13855310413E+02  0.21568799595E+02  0.13471598837E+03  0.13713343963E+03  0.00000000000E+00 0. -1.
          2    1    1    2  501    0 -0.38427630064E+02 -0.20489777884E+02  0.79930596011E+03  0.80049143132E+03  0.25500000000E-02 0. -1.
<mgrwt>
<rscale>  0 0.27605883E+02</rscale>
<asrwt>0</asrwt>
<pdfrwt beam="1">  1       11 0.10000000E+01 0.24596012E+02</pdfrwt>
<pdfrwt beam="2">  1        2 0.63963630E-03 0.27605883E+02</pdfrwt>
<totfact> 0.22074006E+04</totfact>
</mgrwt>
</event>
<event>
 5    1  0.2968854E-003  0.1930391E+03  0.7818608E-02  0.1157700E+00
         11   -1    0    0    0    0  0.00000000000E+00  0.00000000000E+00  0.10000223430E+04  0.10000223430E+04  0.51100000000E-03 0. -1.
          2   -1    0    0  501    0 -0.00000000000E+00 -0.00000000000E+00 -0.38132571780E+02  0.38132571866E+02  0.25500000000E-02 0. -1.
         11    1    1    2    0    0 -0.16709846000E+03 -0.35064106298E+00  0.49122216195E+03  0.51886533000E+03  0.51100000000E-03 0. -1.
         22    1    1    2    0    0 -0.23434921847E+02 -0.10571038291E+02  0.87901151663E+02  0.91583595017E+02  0.00000000000E+00 0.  1.
          2    1    1    2  501    0  0.19053338185E+03  0.10921679354E+02  0.38276645759E+03  0.42770598984E+03  0.25500000000E-02 0. -1.
<mgrwt>
<rscale>  0 0.19084615E+03</rscale>
<asrwt>0</asrwt>
<pdfrwt beam="1">  1       11 0.10000000E+01 0.19303906E+03</pdfrwt>
<pdfrwt beam="2">  1        2 0.58666804E-02 0.19084615E+03</pdfrwt>
<totfact> 0.15268157E+03</totfact>
</mgrwt>
</event>
<event>
 5    1  0.2968854E-003  0.4812289E+03  0.7818608E-02  0.1021634E+00
         11   -1    0    0    0    0  0.00000000000E+00  0.00000000000E+00  0.10000340466E+04  0.10000340466E+04  0.51100000000E-03 0.  1.
          2   -1    0    0  501    0 -0.00000000000E+00 -0.00000000000E+00 -0.23034912831E+03  0.23034912833E+03  0.25500000000E-02 0.  1.
         11    1    1    2    0    0  0.94642717394E+02  0.37585739637E+03  0.25712621683E+03  0.46512355105E+03  0.51100000000E-03 0.  1.
         22    1    1    2    0    0 -0.25142766885E+02  0.90003841754E+02  0.54195778276E+02  0.10802792528E+03  0.00000000000E+00 0.  1.
          2    1    1    2  501    0 -0.69499950510E+02 -0.46586123812E+03  0.45836292321E+03  0.65723169863E+03  0.25500000000E-02 0.  1.
<mgrwt>
<rscale>  0 0.47101692E+03</rscale>
<asrwt>0</asrwt>
<pdfrwt beam="1">  1       11 0.10000000E+01 0.48122888E+03</pdfrwt>
<pdfrwt beam="2">  1        2 0.35439533E-01 0.47101692E+03</pdfrwt>
<totfact> 0.18159892E+02</totfact>
</mgrwt>
</event>
<event>
 5    1  0.2968854E-003  0.1021991E+03  0.7818608E-02  0.1275738E+00
         11   -1    0    0    0    0  0.00000000000E+00  0.00000000000E+00  0.10001520607E+04  0.10001520607E+04  0.51100000000E-03 0.  1.
          2   -1    0    0  501    0 -0.00000000000E+00 -0.00000000000E+00 -0.27445449088E+02  0.27445449207E+02  0.25500000000E-02 0.  1.
         11    1    1    2    0    0 -0.80521992663E+02 -0.91848444935E+02  0.72978102590E+03  0.73993261443E+03  0.51100000000E-03 0.  1.
         22    1    1    2    0    0  0.60398058268E+01  0.26360433852E+02  0.14775839115E+03  0.15021282862E+03  0.00000000000E+00 0.  1.
          2    1    1    2  501    0  0.74482186836E+02  0.65488011083E+02  0.95167194528E+02  0.13745206682E+03  0.25500000000E-02 0.  1.
<mgrwt>
<rscale>  0 0.10219913E+03</rscale>
<asrwt>0</asrwt>
<pdfrwt beam="1">  1       11 0.10000000E+01 0.27043515E+02</pdfrwt>
<pdfrwt beam="2">  1        2 0.42230187E-02 0.10219913E+03</pdfrwt>
<totfact> 0.22286123E+03</totfact>
</mgrwt>
</event>
<event>
 5    1  0.2968854E-003  0.1587895E+03  0.7818608E-02  0.1196770E+00
         11   -1    0    0    0    0  0.00000000000E+00  0.00000000000E+00  0.10000803701E+04  0.10000803701E+04  0.51100000000E-03 0.  1.
         -2   -1    0    0    0  501 -0.00000000000E+00 -0.00000000000E+00 -0.37017772182E+02  0.37017772270E+02  0.25500000000E-02 0. -1.
         11    1    1    2    0    0  0.85601468862E+02  0.98891024183E+02  0.72798595751E+03  0.73964221111E+03  0.51100000000E-03 0.  1.
         22    1    1    2    0    0  0.19769209995E+02  0.12115309571E+02  0.63155395619E+02  0.67277086632E+02  0.00000000000E+00 0. -1.
         -2    1    1    2    0  501 -0.10537067886E+03 -0.11100633375E+03  0.17192124480E+03  0.23017884463E+03  0.25500000000E-02 0. -1.
<mgrwt>
<rscale>  0 0.15305354E+03</rscale>
<asrwt>0</asrwt>
<pdfrwt beam="1">  1       11 0.10000000E+01 0.15878952E+03</pdfrwt>
<pdfrwt beam="2">  1       -2 0.56954994E-02 0.15305354E+03</pdfrwt>
<totfact> 0.12259408E+03</totfact>
</mgrwt>
</event>
<event>
 5    1  0.2968854E-003  0.1452401E+03  0.7818608E-02  0.1206447E+00
         11   -1    0    0    0    0  0.00000000000E+00  0.00000000000E+00  0.10001739350E+04  0.10001739350E+04  0.51100000000E-03 0. -1.
          2   -1    0    0  501    0 -0.00000000000E+00 -0.00000000000E+00 -0.37717084317E+02  0.37717084403E+02  0.25500000000E-02 0. -1.
         11    1    1    2    0    0 -0.13654307145E+02 -0.84313565204E+02  0.22669783265E+03  0.24225425633E+03  0.51100000000E-03 0. -1.
         22    1    1    2    0    0 -0.12061776945E+03 -0.26609111942E+02  0.37930594977E+03  0.39891063495E+03  0.00000000000E+00 0. -1.
          2    1    1    2  501    0  0.13427207660E+03  0.11092267715E+03  0.35645306830E+03  0.39672612816E+03  0.25500000000E-02 0. -1.
<mgrwt>
<rscale>  0 0.14524014E+03</rscale>
<asrwt>0</asrwt>
<pdfrwt beam="1">  1       11 0.10000000E+01 0.85412045E+02</pdfrwt>
<pdfrwt beam="2">  1        2 0.58036375E-02 0.14524014E+03</pdfrwt>
<totfact> 0.15179079E+03</totfact>
</mgrwt>
</event>
<event>
 5    1  0.2968854E-003  0.1961674E+03  0.7818608E-02  0.1163307E+00
         11   -1    0    0    0    0  0.00000000000E+00  0.00000000000E+00  0.10000882234E+04  0.10000882234E+04  0.51100000000E-03 0.  1.
          2   -1    0    0  501    0 -0.00000000000E+00 -0.00000000000E+00 -0.23710298306E+03  0.23710298307E+03  0.25500000000E-02 0.  1.
         11    1    1    2    0    0  0.10248412643E+01 -0.13806432899E+03  0.81090067009E+03  0.82257079087E+03  0.51100000000E-03 0.  1.
         22    1    1    2    0    0 -0.17891070633E+02 -0.45888968799E+02  0.14162974454E+03  0.14994956620E+03  0.00000000000E+00 0. -1.
          2    1    1    2  501    0  0.16866229368E+02  0.18395329779E+03 -0.18954517425E+03  0.26467084945E+03  0.25500000000E-02 0.  1.
<mgrwt>
<rscale>  0 0.18472489E+03</rscale>
<asrwt>0</asrwt>
<pdfrwt beam="1">  1       11 0.10000000E+01 0.19616741E+03</pdfrwt>
<pdfrwt beam="2">  1        2 0.36480599E-01 0.18472489E+03</pdfrwt>
<totfact> 0.17451470E+02</totfact>
</mgrwt>
</event>
<event>
 5    1  0.2968854E-003  0.1488496E+03  0.7818608E-02  0.1207992E+00
         11   -1    0    0    0    0  0.00000000000E+00  0.00000000000E+00  0.10006087380E+04  0.10006087380E+04  0.51100000000E-03 0. -1.
         -2   -1    0    0    0  501 -0.00000000000E+00 -0.00000000000E+00 -0.24323613494E+02  0.24323613627E+02  0.25500000000E-02 0. -1.
         11    1    1    2    0    0  0.21328554377E+01 -0.87463059883E+02  0.32655558323E+03  0.33807230714E+03  0.51100000000E-03 0. -1.
         22    1    1    2    0    0 -0.12793184578E+02 -0.56183319907E+02  0.34528330710E+03  0.35005827111E+03  0.00000000000E+00 0. -1.
         -2    1    1    2    0  501  0.10660329140E+02  0.14364637979E+03  0.30444623420E+03  0.33680177341E+03  0.25500000000E-02 0. -1.
<mgrwt>
<rscale>  0 0.14404140E+03</rscale>
<asrwt>0</asrwt>
<pdfrwt beam="1">  1       11 0.10000000E+01 0.14884958E+03</pdfrwt>
<pdfrwt beam="2">  1       -2 0.37443722E-02 0.14404140E+03</pdfrwt>
<totfact> 0.22869742E+03</totfact>
</mgrwt>
</event>
<event>
 5    1  0.2968854E-003  0.1947670E+03  0.7818608E-02  0.1163512E+00
         11   -1    0    0    0    0  0.00000000000E+00  0.00000000000E+00  0.10002776328E+04  0.10002776328E+04  0.51100000000E-03 0. -1.
          2   -1    0    0  501    0 -0.00000000000E+00 -0.00000000000E+00 -0.21722571202E+03  0.21722571204E+03  0.25500000000E-02 0. -1.
         11    1    1    2    0    0  0.83003675417E+02  0.14529749870E+03  0.86584404523E+03  0.88186557021E+03  0.51100000000E-03 0. -1.
         22    1    1    2    0    0 -0.89255026743E+01  0.23684292927E+02  0.83500181296E+02  0.87251880243E+02  0.00000000000E+00 0.  1.
          2    1    1    2  501    0 -0.74078172743E+02 -0.16898179163E+03 -0.16629230574E+03  0.24838589439E+03  0.25500000000E-02 0. -1.
<mgrwt>
<rscale>  0 0.18450588E+03</rscale>
<asrwt>0</asrwt>
<pdfrwt beam="1">  1       11 0.10000000E+01 0.19476697E+03</pdfrwt>
<pdfrwt beam="2">  1        2 0.33428618E-01 0.18450588E+03</pdfrwt>
<totfact> 0.19180356E+02</totfact>
</mgrwt>
</event>
<event>
 5    1  0.2968854E-003  0.2681845E+03  0.7818608E-02  0.1103295E+00
         11   -1    0    0    0    0  0.00000000000E+00  0.00000000000E+00  0.10002921132E+04  0.10002921132E+04  0.51100000000E-03 0. -1.
          2   -1    0    0  501    0 -0.00000000000E+00 -0.00000000000E+00 -0.96516375529E+02  0.96516375563E+02  0.25500000000E-02 0. -1.
         11    1    1    2    0    0 -0.21960195328E+03 -0.13324830507E+03  0.68903193645E+03  0.73535375033E+03  0.51100000000E-03 0. -1.
         22    1    1    2    0    0 -0.61249495515E+01 -0.84350624145E+01  0.43362139455E+02  0.44597538307E+02  0.00000000000E+00 0.  1.
          2    1    1    2  501    0  0.22572690283E+03  0.14168336748E+03  0.17138166180E+03  0.31685720015E+03  0.25500000000E-02 0. -1.
<mgrwt>
<rscale>  0 0.26650856E+03</rscale>
<asrwt>0</asrwt>
<pdfrwt beam="1">  1       11 0.10000000E+01 0.26818451E+03</pdfrwt>
<pdfrwt beam="2">  1        2 0.14853010E-01 0.26650856E+03</pdfrwt>
<totfact> 0.48580972E+02</totfact>
</mgrwt>
</event>
<event>
 5    1  0.2968854E-003  0.1818118E+03  0.7818608E-02  0.1218388E+00
         11   -1    0    0    0    0  0.00000000000E+00  0.00000000000E+00  0.10004449155E+04  0.10004449155E+04  0.51100000000E-03 0. -1.
          2   -1    0    0  501    0 -0.00000000000E+00 -0.00000000000E+00 -0.55050937151E+03  0.55050937151E+03  0.25500000000E-02 0. -1.
         11    1    1    2    0    0  0.20906719855E+03  0.14114058582E+03  0.60979296287E+02  0.25951538115E+03  0.51100000000E-03 0. -1.
         22    1    1    2    0    0 -0.17796460090E+03 -0.84307173560E+01  0.82011658088E+03  0.83924590103E+03  0.00000000000E+00 0. -1.
          2    1    1    2  501    0 -0.31102597652E+02 -0.13270986846E+03 -0.43116033314E+03  0.45219300487E+03  0.25500000000E-02 0. -1.
<mgrwt>
<rscale>  0 0.13630584E+03</rscale>
<asrwt>0</asrwt>
<pdfrwt beam="1">  1       11 0.10000000E+01 0.18181182E+03</pdfrwt>
<pdfrwt beam="2">  1        2 0.84731429E-01 0.13630584E+03</pdfrwt>
<totfact> 0.70407722E+01</totfact>
</mgrwt>
</event>
<event>
 5    1  0.2968854E-003  0.1907938E+03  0.7818608E-02  0.1157747E+00
         11   -1    0    0    0    0  0.00000000000E+00  0.00000000000E+00  0.10005548919E+04  0.10005548919E+04  0.51100000000E-03 0. -1.
          2   -1    0    0  501    0 -0.00000000000E+00 -0.00000000000E+00 -0.35077531585E+03  0.35077531586E+03  0.25500000000E-02 0. -1.
         11    1    1    2    0    0 -0.18948903764E+03  0.89424835241E+02  0.92838857479E+03  0.95173958746E+03  0.51100000000E-03 0. -1.
         22    1    1    2    0    0  0.21137320231E+02 -0.78292695955E+00  0.30202595346E+02  0.36872700563E+02  0.00000000000E+00 0.  1.
          2    1    1    2  501    0  0.16835171741E+03 -0.88641908281E+02 -0.30881159408E+03  0.36271791974E+03  0.25500000000E-02 0. -1.
<mgrwt>
<rscale>  0 0.19079380E+03</rscale>
<asrwt>0</asrwt>
<pdfrwt beam="1">  1       11 0.10000000E+01 0.21151815E+02</pdfrwt>
<pdfrwt beam="2">  1        2 0.53995377E-01 0.19079380E+03</pdfrwt>
<totfact> 0.11460793E+02</totfact>
</mgrwt>
</event>
<event>
 5    1  0.2968854E-003  0.1558933E+03  0.7818608E-02  0.1197249E+00
         11   -1    0    0    0    0  0.00000000000E+00  0.00000000000E+00  0.10002523821E+04  0.10002523821E+04  0.51100000000E-03 0.  1.
          2   -1    0    0  501    0 -0.00000000000E+00 -0.00000000000E+00 -0.53840438843E+02  0.53840438903E+02  0.25500000000E-02 0.  1.
         11    1    1    2    0    0  0.14429377597E+03 -0.12307035582E+02  0.82704417992E+03  0.83962743670E+03  0.51100000000E-03 0.  1.
         22    1    1    2    0    0  0.82493394037E+01  0.64747522947E+01  0.42067752089E+02  0.43355158675E+02  0.00000000000E+00 0.  1.
          2    1    1    2  501    0 -0.15254311537E+03  0.58322832872E+01  0.77300011269E+02  0.17111022566E+03  0.25500000000E-02 0.  1.
<mgrwt>
<rscale>  0 0.15265457E+03</rscale>
<asrwt>0</asrwt>
<pdfrwt beam="1">  1       11 0.10000000E+01 0.15589328E+03</pdfrwt>
<pdfrwt beam="2">  1        2 0.82852347E-02 0.15265457E+03</pdfrwt>
<totfact> 0.96739489E+02</totfact>
</mgrwt>
</event>
<event>
 5    1  0.2968854E-003  0.9574711E+02  0.7818608E-02  0.1447168E+00
         11   -1    0    0    0    0  0.00000000000E+00  0.00000000000E+00  0.10002207226E+04  0.10002207226E+04  0.51100000000E-03 0. -1.
          2   -1    0    0  501    0 -0.00000000000E+00 -0.00000000000E+00 -0.26669481849E+03  0.26669481851E+03  0.25500000000E-02 0.  1.
         11    1    1    2    0    0 -0.64387979146E+02  0.68594400430E+02  0.39258108625E+03  0.40369656044E+03  0.51100000000E-03 0. -1.
         22    1    1    2    0    0  0.97500764546E+02 -0.31581460136E+02  0.59530149310E+03  0.60405931447E+03  0.00000000000E+00 0.  1.
          2    1    1    2  501    0 -0.33112785400E+02 -0.37012940294E+02 -0.25435667527E+03  0.25915966617E+03  0.25500000000E-02 0.  1.
<mgrwt>
<rscale>  0 0.49663007E+02</rscale>
<asrwt>0</asrwt>
<pdfrwt beam="1">  1       11 0.10000000E+01 0.95747107E+02</pdfrwt>
<pdfrwt beam="2">  1        2 0.41039027E-01 0.49663007E+02</pdfrwt>
<totfact> 0.15148978E+02</totfact>
</mgrwt>
</event>
<event>
 5    1  0.2968854E-003  0.9789524E+02  0.7818608E-02  0.1404789E+00
         11   -1    0    0    0    0  0.00000000000E+00  0.00000000000E+00  0.10001271151E+04  0.10001271151E+04  0.51100000000E-03 0. -1.
         -2   -1    0    0    0  501 -0.00000000000E+00 -0.00000000000E+00 -0.15812507935E+02  0.15812508141E+02  0.25500000000E-02 0.  1.
         11    1    1    2    0    0 -0.14565805213E+02 -0.91950357478E+02  0.54231976133E+03  0.55025244611E+03  0.51100000000E-03 0. -1.
         22    1    1    2    0    0 -0.33793789506E+02 -0.83354399919E+01  0.89628352666E+02  0.96149578109E+02  0.00000000000E+00 0. -1.
         -2    1    1    2    0  501  0.48359594719E+02  0.10028579747E+03  0.35236649319E+03  0.36953759904E+03  0.25500000000E-02 0.  1.
<mgrwt>
<rscale>  0 0.58372947E+02</rscale>
<asrwt>0</asrwt>
<pdfrwt beam="1">  1       11 0.10000000E+01 0.97895238E+02</pdfrwt>
<pdfrwt beam="2">  1       -2 0.24330027E-02 0.58372947E+02</pdfrwt>
<totfact> 0.38493089E+03</totfact>
</mgrwt>
</event>
<event>
 5    1  0.2968854E-003  0.1221533E+03  0.7818608E-02  0.1431226E+00
         11   -1    0    0    0    0  0.00000000000E+00  0.00000000000E+00  0.99985614163E+03  0.99985614163E+03  0.51100000000E-03 0. -1.
          2   -1    0    0  501    0 -0.00000000000E+00 -0.00000000000E+00 -0.12199443851E+03  0.12199443854E+03  0.25500000000E-02 0.  1.
         11    1    1    2    0    0  0.11975255443E+03 -0.18437711697E+02  0.46544593419E+03  0.48095794115E+03  0.51100000000E-03 0. -1.
         22    1    1    2    0    0 -0.10815044290E+03  0.69859813359E+02  0.51214914212E+03  0.52808489431E+03  0.00000000000E+00 0. -1.
          2    1    1    2  501    0 -0.11602111536E+02 -0.51422101661E+02 -0.99733373190E+02  0.11280774471E+03  0.25500000000E-02 0.  1.
<mgrwt>
<rscale>  0 0.52714718E+02</rscale>
<asrwt>0</asrwt>
<pdfrwt beam="1">  1       11 0.10000000E+01 0.12215327E+03</pdfrwt>
<pdfrwt beam="2">  1        2 0.18765675E-01 0.52714718E+02</pdfrwt>
<totfact> 0.34748400E+02</totfact>
</mgrwt>
</event>
<event>
 5    1  0.2968854E-003  0.1786042E+02  0.7818608E-02  0.1791561E+00
         11   -1    0    0    0    0  0.00000000000E+00  0.00000000000E+00  0.10001166477E+04  0.10001166477E+04  0.51100000000E-03 0.  1.
          2   -1    0    0  501    0 -0.00000000000E+00 -0.00000000000E+00 -0.61766419349E+01  0.61766424613E+01  0.25500000000E-02 0.  1.
         11    1    1    2    0    0  0.35559613258E+01  0.13652823293E+02  0.60767040809E+01  0.15361340358E+02  0.51100000000E-03 0.  1.
         22    1    1    2    0    0 -0.11676821370E+02  0.12902188878E+02  0.55697007679E+02  0.58352131919E+02  0.00000000000E+00 0. -1.
          2    1    1    2  501    0  0.81208600440E+01 -0.26555012172E+02  0.93216629405E+03  0.93257981793E+03  0.25500000000E-02 0.  1.
<mgrwt>
<rscale>  0 0.17860423E+02</rscale>
<asrwt>0</asrwt>
<pdfrwt beam="1">  1       11 0.10000000E+01 0.14108318E+02</pdfrwt>
<pdfrwt beam="2">  1        2 0.95036346E-03 0.17860423E+02</pdfrwt>
<totfact> 0.11851571E+04</totfact>
</mgrwt>
</event>
<event>
 5    1  0.2968854E-003  0.4212737E+03  0.7818608E-02  0.1285422E+00
         11   -1    0    0    0    0  0.00000000000E+00  0.00000000000E+00  0.99978471653E+03  0.99978471653E+03  0.51100000000E-03 0.  1.
          2   -1    0    0  501    0 -0.00000000000E+00 -0.00000000000E+00 -0.19156368890E+04  0.19156368890E+04  0.25500000000E-02 0.  1.
         11    1    1    2    0    0 -0.61323481660E+02 -0.34484627022E+03  0.17764099842E+02  0.35070654789E+03  0.51100000000E-03 0.  1.
         22    1    1    2    0    0  0.69457424066E+02  0.44210821826E+03  0.75263642165E+03  0.87564010507E+03  0.00000000000E+00 0.  1.
          2    1    1    2  501    0 -0.81339424054E+01 -0.97261948037E+02 -0.16862526939E+04  0.16890749525E+04  0.25500000000E-02 0.  1.
<mgrwt>
<rscale>  0 0.97601473E+02</rscale>
<asrwt>0</asrwt>
<pdfrwt beam="1">  1       11 0.10000000E+01 0.42127368E+03</pdfrwt>
<pdfrwt beam="2">  1        2 0.29464991E+00 0.97601473E+02</pdfrwt>
<totfact> 0.11417614E+01</totfact>
</mgrwt>
</event>
<event>
 5    1  0.3060559E-003  0.1924527E+03  0.7818608E-02  0.1158286E+00
         11   -1    0    0    0    0  0.00000000000E+00  0.00000000000E+00  0.10004831178E+04  0.10004831178E+04  0.51100000000E-03 0.  1.
         -2   -1    0    0    0  501 -0.00000000000E+00 -0.00000000000E+00 -0.34043494225E+03  0.34043494226E+03  0.25500000000E-02 0. -1.
         11    1    1    2    0    0 -0.17670833363E+02 -0.17720014325E+03  0.91117238130E+03  0.92841114683E+03  0.51100000000E-03 0.  1.
         22    1    1    2    0    0  0.56590574621E+01 -0.12614828446E+02  0.52467432720E+02  0.54258550703E+02  0.00000000000E+00 0.  1.
         -2    1    1    2    0  501  0.12011775901E+02  0.18981497170E+03 -0.30359163851E+03  0.35824836248E+03  0.25500000000E-02 0. -1.
<mgrwt>
<rscale>  0 0.19019465E+03</rscale>
<asrwt>0</asrwt>
<pdfrwt beam="1">  1       11 0.10000000E+01 0.19245270E+03</pdfrwt>
<pdfrwt beam="2">  1       -2 0.52399908E-01 0.19019465E+03</pdfrwt>
<totfact> 0.28363911E+01</totfact>
</mgrwt>
</event>
<event>
 5    1  0.2968854E-003  0.1411454E+03  0.7818608E-02  0.1211796E+00
         11   -1    0    0    0    0  0.00000000000E+00  0.00000000000E+00  0.10000869533E+04  0.10000869533E+04  0.51100000000E-03 0. -1.
          2   -1    0    0  501    0 -0.00000000000E+00 -0.00000000000E+00 -0.41089286824E+03  0.41089286824E+03  0.25500000000E-02 0. -1.
         11    1    1    2    0    0 -0.12454454642E+03  0.14023199180E+03  0.78455383134E+03  0.80666044271E+03  0.51100000000E-03 0. -1.
         22    1    1    2    0    0  0.28347538135E+02 -0.37935826552E+02  0.18914093335E+03  0.19497949257E+03  0.00000000000E+00 0. -1.
          2    1    1    2  501    0  0.96197008289E+02 -0.10229616525E+03 -0.38450067964E+03  0.40933988625E+03  0.25500000000E-02 0. -1.
<mgrwt>
<rscale>  0 0.14114539E+03</rscale>
<asrwt>0</asrwt>
<pdfrwt beam="1">  1       11 0.10000000E+01 0.47357258E+02</pdfrwt>
<pdfrwt beam="2">  1        2 0.63219782E-01 0.14114539E+03</pdfrwt>
<totfact> 0.96901075E+01</totfact>
</mgrwt>
</event>
<event>
 5    1  0.2968854E-003  0.1436889E+03  0.7818608E-02  0.1368850E+00
         11   -1    0    0    0    0  0.00000000000E+00  0.00000000000E+00  0.10000624390E+04  0.10000624390E+04  0.51100000000E-03 0. -1.
         -2   -1    0    0    0  501 -0.00000000000E+00 -0.00000000000E+00 -0.73007810848E+02  0.73007810893E+02  0.25500000000E-02 0. -1.
         11    1    1    2    0    0 -0.44076884315E+01  0.16324888200E+03  0.72753117300E+03  0.74563478519E+03  0.51100000000E-03 0. -1.
         22    1    1    2    0    0  0.44521767018E+02 -0.10897647014E+03  0.22609422786E+03  0.25490519543E+03  0.00000000000E+00 0. -1.
         -2    1    1    2    0  501 -0.40114078586E+02 -0.54272411850E+02 -0.26570772731E+02  0.72530269260E+02  0.25500000000E-02 0. -1.
<mgrwt>
<rscale>  0 0.67488029E+02</rscale>
<asrwt>0</asrwt>
<pdfrwt beam="1">  1       11 0.10000000E+01 0.14368895E+03</pdfrwt>
<pdfrwt beam="2">  1       -2 0.11232672E-01 0.67488029E+02</pdfrwt>
<totfact> 0.40664587E+02</totfact>
</mgrwt>
</event>
<event>
 5    1  0.2968854E-003  0.2144450E+03  0.7818608E-02  0.1142078E+00
         11   -1    0    0    0    0  0.00000000000E+00  0.00000000000E+00  0.10002452671E+04  0.10002452671E+04  0.51100000000E-03 0. -1.
          2   -1    0    0  501    0 -0.00000000000E+00 -0.00000000000E+00 -0.48246490744E+02  0.48246490811E+02  0.25500000000E-02 0. -1.
         11    1    1    2    0    0  0.17928580560E+03 -0.86101704078E+02  0.54900208771E+03  0.58391797013E+03  0.51100000000E-03 0. -1.
         22    1    1    2    0    0  0.60624946040E+01 -0.11239440411E+02  0.70573163570E+02  0.71719246217E+02  0.00000000000E+00 0. -1.
          2    1    1    2  501    0 -0.18534830021E+03  0.97341144488E+02  0.33242352513E+03  0.39285454161E+03  0.25500000000E-02 0. -1.
<mgrwt>
<rscale>  0 0.20935446E+03</rscale>
<asrwt>0</asrwt>
<pdfrwt beam="1">  1       11 0.10000000E+01 0.21444502E+03</pdfrwt>
<pdfrwt beam="2">  1        2 0.74243573E-02 0.20935446E+03</pdfrwt>
<totfact> 0.11333015E+03</totfact>
</mgrwt>
</event>
<event>
 5    1  0.2968854E-003  0.2139125E+03  0.7818608E-02  0.1138505E+00
         11   -1    0    0    0    0  0.00000000000E+00  0.00000000000E+00  0.10002071947E+04  0.10002071947E+04  0.51100000000E-03 0. -1.
         -2   -1    0    0    0  501 -0.00000000000E+00 -0.00000000000E+00 -0.21738210624E+03  0.21738210625E+03  0.25500000000E-02 0.  1.
         11    1    1    2    0    0  0.20434291526E+03  0.50977091852E+02  0.87060708326E+03  0.89571836217E+03  0.51100000000E-03 0. -1.
         22    1    1    2    0    0 -0.17892242161E+01  0.18601138911E+02  0.59223868560E+02  0.62102095772E+02  0.00000000000E+00 0.  1.
         -2    1    1    2    0  501 -0.20255369104E+03 -0.69578230763E+02 -0.14700586333E+03  0.25976884303E+03  0.25500000000E-02 0.  1.
<mgrwt>
<rscale>  0 0.21391248E+03</rscale>
<asrwt>0</asrwt>
<pdfrwt beam="1">  1       11 0.10000000E+01 0.18686993E+02</pdfrwt>
<pdfrwt beam="2">  1       -2 0.33450329E-01 0.21391248E+03</pdfrwt>
<totfact> 0.67327680E+01</totfact>
</mgrwt>
</event>
<event>
 5    1  0.2968854E-003  0.5059443E+03  0.7818608E-02  0.1013512E+00
         11   -1    0    0    0    0  0.00000000000E+00  0.00000000000E+00  0.10003434604E+04  0.10003434604E+04  0.51100000000E-03 0.  1.
          2   -1    0    0  501    0 -0.00000000000E+00 -0.00000000000E+00 -0.28827513792E+03  0.28827513793E+03  0.25500000000E-02 0.  1.
         11    1    1    2    0    0 -0.27621038313E+02  0.48633000899E+03  0.57223970066E+03  0.75149056842E+03  0.51100000000E-03 0.  1.
         22    1    1    2    0    0 -0.10637029287E+02  0.13232108159E+02  0.93934584305E+01  0.19402889982E+02  0.00000000000E+00 0.  1.
          2    1    1    2  501    0  0.38258067600E+02 -0.49956211715E+03  0.13043516333E+03  0.51772513989E+03  0.25500000000E-02 0.  1.
<mgrwt>
<rscale>  0 0.50102494E+03</rscale>
<asrwt>0</asrwt>
<pdfrwt beam="1">  1       11 0.10000000E+01 0.50594426E+03</pdfrwt>
<pdfrwt beam="2">  1        2 0.44365252E-01 0.50102494E+03</pdfrwt>
<totfact> 0.14176658E+02</totfact>
</mgrwt>
</event>
<event>
 5    1  0.2968854E-003  0.1391941E+03  0.7818608E-02  0.1419721E+00
         11   -1    0    0    0    0  0.00000000000E+00  0.00000000000E+00  0.10009977612E+04  0.10009977612E+04  0.51100000000E-03 0. -1.
          2   -1    0    0  501    0 -0.00000000000E+00 -0.00000000000E+00 -0.34324642702E+04  0.34324642702E+04  0.25500000000E-02 0.  1.
         11    1    1    2    0    0  0.11076918166E+03  0.32480473535E+02  0.33989697767E+03  0.35896343574E+03  0.51100000000E-03 0. -1.
         22    1    1    2    0    0 -0.16497105729E+03 -0.22684780311E+02  0.64070190912E+03  0.66198865954E+03  0.00000000000E+00 0. -1.
          2    1    1    2  501    0  0.54201875629E+02 -0.97956932246E+01 -0.34120653958E+04  0.34125099362E+04  0.25500000000E-02 0.  1.
<mgrwt>
<rscale>  0 0.55079932E+02</rscale>
<asrwt>0</asrwt>
<pdfrwt beam="1">  1       11 0.10000000E+01 0.13919406E+03</pdfrwt>
<pdfrwt beam="2">  1        2 0.52859830E+00 0.55079932E+02</pdfrwt>
<totfact> 0.18695534E+00</totfact>
</mgrwt>
</event>
<event>
 5    1  0.2968854E-003  0.1680126E+03  0.7818608E-02  0.1182136E+00
         11   -1    0    0    0    0  0.00000000000E+00  0.00000000000E+00  0.10001188031E+04  0.10001188031E+04  0.51100000000E-03 0.  1.
          2   -1    0    0  501    0 -0.00000000000E+00 -0.00000000000E+00 -0.30631808784E+02  0.30631808890E+02  0.25500000000E-02 0.  1.
         11    1    1    2    0    0 -0.14464447304E+03  0.93485388957E+01  0.56957031908E+03  0.58772422711E+03  0.51100000000E-03 0.  1.
         22    1    1    2    0    0 -0.21300390708E+02 -0.77692739166E+01  0.72367640355E+02  0.75836294952E+02  0.00000000000E+00 0. -1.
          2    1    1    2  501    0  0.16594486374E+03 -0.15792649792E+01  0.32754903490E+03  0.36719008994E+03  0.25500000000E-02 0.  1.
<mgrwt>
<rscale>  0 0.16595238E+03</rscale>
<asrwt>0</asrwt>
<pdfrwt beam="1">  1       11 0.10000000E+01 0.16801257E+03</pdfrwt>
<pdfrwt beam="2">  1        2 0.47131457E-02 0.16595238E+03</pdfrwt>
<totfact> 0.20129132E+03</totfact>
</mgrwt>
</event>
<event>
 5    1  0.2968854E-003  0.1029182E+03  0.7818608E-02  0.1274276E+00
         11   -1    0    0    0    0  0.00000000000E+00  0.00000000000E+00  0.10008012991E+04  0.10008012991E+04  0.51100000000E-03 0.  1.
          2   -1    0    0  501    0 -0.00000000000E+00 -0.00000000000E+00 -0.14297161416E+04  0.14297161416E+04  0.25500000000E-02 0.  1.
         11    1    1    2    0    0  0.72485224451E+02 -0.12155165435E+03  0.78784531368E+03  0.80045558948E+03  0.51100000000E-03 0.  1.
         22    1    1    2    0    0 -0.55454210532E+02  0.20121355655E+02  0.20053904122E+03  0.20903575166E+03  0.00000000000E+00 0. -1.
          2    1    1    2  501    0 -0.17031013919E+02  0.10143029869E+03 -0.14172991974E+04  0.14210260996E+04  0.25500000000E-02 0.  1.
<mgrwt>
<rscale>  0 0.10291821E+03</rscale>
<asrwt>0</asrwt>
<pdfrwt beam="1">  1       11 0.10000000E+01 0.58991850E+02</pdfrwt>
<pdfrwt beam="2">  1        2 0.22013257E+00 0.10291821E+03</pdfrwt>
<totfact> 0.20013718E+01</totfact>
</mgrwt>
</event>
<event>
 5    1  0.2968854E-003  0.1214833E+03  0.7818608E-02  0.1240670E+00
         11   -1    0    0    0    0  0.00000000000E+00  0.00000000000E+00  0.10003861085E+04  0.10003861085E+04  0.51100000000E-03 0. -1.
         -2   -1    0    0    0  501 -0.00000000000E+00 -0.00000000000E+00 -0.12279135685E+03  0.12279135687E+03  0.25500000000E-02 0. -1.
         11    1    1    2    0    0  0.41550428648E+02 -0.19907808056E+02  0.18863249757E+02  0.49785350597E+02  0.51100000000E-03 0. -1.
         22    1    1    2    0    0 -0.10878848967E+03  0.11930470854E+03  0.92316996520E+03  0.93718265755E+03  0.00000000000E+00 0. -1.
         -2    1    1    2    0  501  0.67238061027E+02 -0.99396900481E+02 -0.64438463311E+02  0.13620945722E+03  0.25500000000E-02 0. -1.
<mgrwt>
<rscale>  0 0.12148333E+03</rscale>
<asrwt>0</asrwt>
<pdfrwt beam="1">  1       11 0.10000000E+01 0.46073431E+02</pdfrwt>
<pdfrwt beam="2">  1       -2 0.18898271E-01 0.12148333E+03</pdfrwt>
<totfact> 0.18119606E+02</totfact>
</mgrwt>
</event>
<event>
 5    1  0.2968854E-003  0.1315606E+03  0.7818608E-02  0.1227192E+00
         11   -1    0    0    0    0  0.00000000000E+00  0.00000000000E+00  0.10004050142E+04  0.10004050142E+04  0.51100000000E-03 0.  1.
          2   -1    0    0  501    0 -0.00000000000E+00 -0.00000000000E+00 -0.23858952366E+02  0.23858952503E+02  0.25500000000E-02 0.  1.
         11    1    1    2    0    0  0.11085765613E+03 -0.13391794092E+02  0.67525044814E+03  0.68442087037E+03  0.51100000000E-03 0.  1.
         22    1    1    2    0    0  0.18933785597E+02  0.33668630405E+01  0.87051295139E+02  0.89150165391E+02  0.00000000000E+00 0.  1.
          2    1    1    2  501    0 -0.12979144173E+03  0.10024931052E+02  0.21424431853E+03  0.25069293093E+03  0.25500000000E-02 0.  1.
<mgrwt>
<rscale>  0 0.13017802E+03</rscale>
<asrwt>0</asrwt>
<pdfrwt beam="1">  1       11 0.10000000E+01 0.13156063E+03</pdfrwt>
<pdfrwt beam="2">  1        2 0.36720946E-02 0.13017802E+03</pdfrwt>
<totfact> 0.27422969E+03</totfact>
</mgrwt>
</event>
<event>
 5    1  0.2968854E-003  0.1302327E+03  0.7818608E-02  0.1227111E+00
         11   -1    0    0    0    0  0.00000000000E+00  0.00000000000E+00  0.10004950240E+04  0.10004950240E+04  0.51100000000E-03 0.  1.
          2   -1    0    0  501    0 -0.00000000000E+00 -0.00000000000E+00 -0.34842193124E+03  0.34842193125E+03  0.25500000000E-02 0.  1.
         11    1    1    2    0    0 -0.12407533989E+03  0.14884731588E+03  0.75231642107E+03  0.77687206850E+03  0.51100000000E-03 0.  1.
         22    1    1    2    0    0  0.42460341577E+02 -0.48706392824E+02  0.21863936706E+03  0.22798764471E+03  0.00000000000E+00 0. -1.
          2    1    1    2  501    0  0.81614998310E+02 -0.10014092306E+03 -0.31888269534E+03  0.34405724206E+03  0.25500000000E-02 0.  1.
<mgrwt>
<rscale>  0 0.13023268E+03</rscale>
<asrwt>0</asrwt>
<pdfrwt beam="1">  1       11 0.10000000E+01 0.64615736E+02</pdfrwt>
<pdfrwt beam="2">  1        2 0.53629907E-01 0.13023268E+03</pdfrwt>
<totfact> 0.11550665E+02</totfact>
</mgrwt>
</event>
<event>
 5    1  0.2968854E-003  0.1776677E+03  0.7818608E-02  0.1170079E+00
         11   -1    0    0    0    0  0.00000000000E+00  0.00000000000E+00  0.10004824003E+04  0.10004824003E+04  0.51100000000E-03 0.  1.
          2   -1    0    0  501    0 -0.00000000000E+00 -0.00000000000E+00 -0.81236437566E+03  0.81236437567E+03  0.25500000000E-02 0.  1.
         11    1    1    2    0    0 -0.38492650273E+02  0.13999625462E+03  0.77483994868E+03  0.78832580923E+03  0.51100000000E-03 0.  1.
         22    1    1    2    0    0 -0.12624238924E+03 -0.70455795518E+02  0.18361698516E+03  0.23370142747E+03  0.00000000000E+00 0. -1.
          2    1    1    2  501    0  0.16473503951E+03 -0.69540459102E+02 -0.77033890919E+03  0.79081953928E+03  0.25500000000E-02 0.  1.
<mgrwt>
<rscale>  0 0.17766774E+03</rscale>
<asrwt>0</asrwt>
<pdfrwt beam="1">  1       11 0.10000000E+01 0.14457233E+03</pdfrwt>
<pdfrwt beam="2">  1        2 0.12503942E+00 0.17766774E+03</pdfrwt>
<totfact> 0.44118296E+01</totfact>
</mgrwt>
</event>
<event>
 5    1  0.2968854E-003  0.2576838E+03  0.7818608E-02  0.1112097E+00
         11   -1    0    0    0    0  0.00000000000E+00  0.00000000000E+00  0.10003976087E+04  0.10003976087E+04  0.51100000000E-03 0.  1.
          2   -1    0    0  501    0 -0.00000000000E+00 -0.00000000000E+00 -0.35036358585E+03  0.35036358586E+03  0.25500000000E-02 0. -1.
         11    1    1    2    0    0 -0.14826107020E+03  0.66240142775E+02  0.49964512313E+03  0.52537067916E+03  0.51100000000E-03 0.  1.
         22    1    1    2    0    0 -0.83660893438E+02  0.32128386585E+02  0.43567450311E+03  0.44479619038E+03  0.00000000000E+00 0.  1.
          2    1    1    2  501    0  0.23192196364E+03 -0.98368529360E+02 -0.28528560335E+03  0.38059432507E+03  0.25500000000E-02 0. -1.
<mgrwt>
<rscale>  0 0.25192095E+03</rscale>
<asrwt>0</asrwt>
<pdfrwt beam="1">  1       11 0.10000000E+01 0.25768382E+03</pdfrwt>
<pdfrwt beam="2">  1        2 0.53923521E-01 0.25192095E+03</pdfrwt>
<totfact> 0.11468024E+02</totfact>
</mgrwt>
</event>
<event>
 5    1  0.2968854E-003  0.9441572E+02  0.7818608E-02  0.1300025E+00
         11   -1    0    0    0    0  0.00000000000E+00  0.00000000000E+00  0.10002450962E+04  0.10002450962E+04  0.51100000000E-03 0. -1.
          2   -1    0    0  501    0 -0.00000000000E+00 -0.00000000000E+00 -0.87196928329E+01  0.87196932058E+01  0.25500000000E-02 0. -1.
         11    1    1    2    0    0  0.67869953508E+02 -0.43960420567E+02  0.48427656392E+03  0.49098130263E+03  0.51100000000E-03 0. -1.
         22    1    1    2    0    0  0.32042763304E+01 -0.13151635371E+02  0.76832838588E+02  0.78016139261E+02  0.00000000000E+00 0. -1.
          2    1    1    2  501    0 -0.71074229839E+02  0.57112055939E+02  0.43041600086E+03  0.43996734752E+03  0.25500000000E-02 0. -1.
<mgrwt>
<rscale>  0 0.91177481E+02</rscale>
<asrwt>0</asrwt>
<pdfrwt beam="1">  1       11 0.10000000E+01 0.94415715E+02</pdfrwt>
<pdfrwt beam="2">  1        2 0.13418200E-02 0.91177481E+02</pdfrwt>
<totfact> 0.10223132E+04</totfact>
</mgrwt>
</event>
<event>
 5    1  0.2968854E-003  0.4428938E+03  0.7818608E-02  0.1032060E+00
         11   -1    0    0    0    0  0.00000000000E+00  0.00000000000E+00  0.10000119941E+04  0.10000119941E+04  0.51100000000E-03 0.  1.
          2   -1    0    0  501    0 -0.00000000000E+00 -0.00000000000E+00 -0.20200643087E+03  0.20200643088E+03  0.25500000000E-02 0.  1.
         11    1    1    2    0    0  0.37877324183E+03  0.19243902746E+03  0.25223043139E+03  0.49408717706E+03  0.51100000000E-03 0.  1.
         22    1    1    2    0    0  0.49803637302E+01  0.13974673410E+02  0.22967963191E+02  0.27342692862E+02  0.00000000000E+00 0.  1.
          2    1    1    2  501    0 -0.38375360556E+03 -0.20641370087E+03  0.52280716865E+03  0.68058855507E+03  0.25500000000E-02 0.  1.
<mgrwt>
<rscale>  0 0.43574470E+03</rscale>
<asrwt>0</asrwt>
<pdfrwt beam="1">  1       11 0.10000000E+01 0.44289384E+03</pdfrwt>
<pdfrwt beam="2">  1        2 0.31078284E-01 0.43574470E+03</pdfrwt>
<totfact> 0.20998778E+02</totfact>
</mgrwt>
</event>
<event>
 5    1  0.2968854E-003  0.3130585E+03  0.7818608E-02  0.1093410E+00
         11   -1    0    0    0    0  0.00000000000E+00  0.00000000000E+00  0.10005980116E+04  0.10005980116E+04  0.51100000000E-03 0.  1.
          2   -1    0    0  501    0 -0.00000000000E+00 -0.00000000000E+00 -0.18848474171E+04  0.18848474172E+04  0.25500000000E-02 0.  1.
         11    1    1    2    0    0  0.37401307835E+02 -0.80660192777E+02  0.45129654140E+03  0.45997118693E+03  0.51100000000E-03 0.  1.
         22    1    1    2    0    0  0.18595246751E+03 -0.95096826796E+02  0.51368945582E+03  0.55452554825E+03  0.00000000000E+00 0.  1.
          2    1    1    2  501    0 -0.22335377534E+03  0.17575701957E+03 -0.18492354028E+04  0.18709486935E+04  0.25500000000E-02 0.  1.
<mgrwt>
<rscale>  0 0.28421372E+03</rscale>
<asrwt>0</asrwt>
<pdfrwt beam="1">  1       11 0.10000000E+01 0.31305854E+03</pdfrwt>
<pdfrwt beam="2">  1        2 0.29014993E+00 0.28421372E+03</pdfrwt>
<totfact> 0.10646630E+01</totfact>
</mgrwt>
</event>
<event>
 5    1  0.2968854E-003  0.1023905E+03  0.7818608E-02  0.1275348E+00
         11   -1    0    0    0    0  0.00000000000E+00  0.00000000000E+00  0.10000877768E+04  0.10000877768E+04  0.51100000000E-03 0. -1.
          2   -1    0    0  501    0 -0.00000000000E+00 -0.00000000000E+00 -0.56640777843E+02  0.56640777900E+02  0.25500000000E-02 0. -1.
         11    1    1    2    0    0 -0.31248254933E+02 -0.37915165281E+01  0.15013206785E+03  0.15339643682E+03  0.51100000000E-03 0. -1.
         22    1    1    2    0    0  0.53904149158E+02 -0.87959592479E+02 -0.12462436664E+01  0.10317024924E+03  0.00000000000E+00 0. -1.
          2    1    1    2  501    0 -0.22655894224E+02  0.91751109007E+02  0.79456117473E+03  0.80016186859E+03  0.25500000000E-02 0. -1.
<mgrwt>
<rscale>  0 0.10239050E+03</rscale>
<asrwt>0</asrwt>
<pdfrwt beam="1">  1       11 0.10000000E+01 0.31477437E+02</pdfrwt>
<pdfrwt beam="2">  1        2 0.87147305E-02 0.10239050E+03</pdfrwt>
<totfact> 0.88551904E+02</totfact>
</mgrwt>
</event>
<event>
 5    1  0.2968854E-003  0.3141147E+03  0.7818608E-02  0.1082697E+00
         11   -1    0    0    0    0  0.00000000000E+00  0.00000000000E+00  0.99970789260E+03  0.99970789260E+03  0.51100000000E-03 0.  1.
          2   -1    0    0  501    0 -0.00000000000E+00 -0.00000000000E+00 -0.17176267769E+04  0.17176267769E+04  0.25500000000E-02 0.  1.
         11    1    1    2    0    0  0.11320307384E+03 -0.17046315529E+02  0.27510606639E+03  0.29797459718E+03  0.51100000000E-03 0.  1.
         22    1    1    2    0    0  0.17159311599E+03 -0.92517915047E+02  0.68583051528E+03  0.71299877822E+03  0.00000000000E+00 0.  1.
          2    1    1    2  501    0 -0.28479618984E+03  0.10956423058E+03 -0.16788554659E+04  0.17063612941E+04  0.25500000000E-02 0.  1.
<mgrwt>
<rscale>  0 0.30514454E+03</rscale>
<asrwt>0</asrwt>
<pdfrwt beam="1">  1       11 0.10000000E+01 0.31411471E+03</pdfrwt>
<pdfrwt beam="2">  1        2 0.26417308E+00 0.30514454E+03</pdfrwt>
<totfact> 0.12989617E+01</totfact>
</mgrwt>
</event>
<event>
 5    1  0.2968854E-003  0.6454945E+03  0.7818608E-02  0.9939112E-01
         11   -1    0    0    0    0  0.00000000000E+00  0.00000000000E+00  0.10002622076E+04  0.10002622076E+04  0.51100000000E-03 0. -1.
          2   -1    0    0  501    0 -0.00000000000E+00 -0.00000000000E+00 -0.83708729607E+03  0.83708729607E+03  0.25500000000E-02 0. -1.
         11    1    1    2    0    0  0.16996618293E+03 -0.13155442413E+03  0.23372329124E+03  0.31752424587E+03  0.51100000000E-03 0. -1.
         22    1    1    2    0    0  0.41386362960E+03  0.11640658509E+03  0.52978320029E+03  0.68227841551E+03  0.00000000000E+00 0. -1.
          2    1    1    2  501    0 -0.58382981253E+03  0.15147839047E+02 -0.60033158002E+03  0.83754684227E+03  0.25500000000E-02 0. -1.
<mgrwt>
<rscale>  0 0.58402629E+03</rscale>
<asrwt>0</asrwt>
<pdfrwt beam="1">  1       11 0.10000000E+01 0.64549454E+03</pdfrwt>
<pdfrwt beam="2">  1        2 0.12881643E+00 0.58402629E+03</pdfrwt>
<totfact> 0.40591355E+01</totfact>
</mgrwt>
</event>
<event>
 5    1  0.2968854E-003  0.9508496E+02  0.7818608E-02  0.1655351E+00
         11   -1    0    0    0    0  0.00000000000E+00  0.00000000000E+00  0.10003455696E+04  0.10003455696E+04  0.51100000000E-03 0. -1.
         -2   -1    0    0    0  501 -0.00000000000E+00 -0.00000000000E+00 -0.55994019988E+02  0.55994020046E+02  0.25500000000E-02 0.  1.
         11    1    1    2    0    0  0.51611088477E+02  0.69766324354E+02  0.50545840596E+03  0.51285401883E+03  0.51100000000E-03 0. -1.
         22    1    1    2    0    0 -0.53919465564E+02 -0.95059161335E+02  0.48157438449E+03  0.49381923891E+03  0.00000000000E+00 0. -1.
         -2    1    1    2    0  501  0.23083770871E+01  0.25292836981E+02 -0.42681240797E+02  0.49666331954E+02  0.25500000000E-02 0.  1.
<mgrwt>
<rscale>  0 0.25397957E+02</rscale>
<asrwt>0</asrwt>
<pdfrwt beam="1">  1       11 0.10000000E+01 0.95084957E+02</pdfrwt>
<pdfrwt beam="2">  1       -2 0.86174413E-02 0.25397957E+02</pdfrwt>
<totfact> 0.55761001E+02</totfact>
</mgrwt>
</event>
<event>
 5    1  0.2968854E-003  0.1790771E+03  0.7818608E-02  0.1173315E+00
         11   -1    0    0    0    0  0.00000000000E+00  0.00000000000E+00  0.10000212839E+04  0.10000212839E+04  0.51100000000E-03 0. -1.
         -2   -1    0    0    0  501 -0.00000000000E+00 -0.00000000000E+00 -0.32484268740E+02  0.32484268840E+02  0.25500000000E-02 0.  1.
         11    1    1    2    0    0 -0.14579642858E+03 -0.10484004624E+02  0.43531619145E+03  0.45920224246E+03  0.51100000000E-03 0. -1.
         22    1    1    2    0    0 -0.27598228205E+02 -0.84025682766E+01  0.15563366897E+03  0.15828488327E+03  0.00000000000E+00 0.  1.
         -2    1    1    2    0  501  0.17339465679E+03  0.18886572900E+02  0.37658715472E+03  0.41501842699E+03  0.25500000000E-02 0.  1.
<mgrwt>
<rscale>  0 0.17442021E+03</rscale>
<asrwt>0</asrwt>
<pdfrwt beam="1">  1       11 0.10000000E+01 0.17907711E+03</pdfrwt>
<pdfrwt beam="2">  1       -2 0.49976860E-02 0.17442021E+03</pdfrwt>
<totfact> 0.15099437E+03</totfact>
</mgrwt>
</event>
<event>
 5    1  0.2968854E-003  0.1580132E+03  0.7818608E-02  0.1192360E+00
         11   -1    0    0    0    0  0.00000000000E+00  0.00000000000E+00  0.10001396658E+04  0.10001396658E+04  0.51100000000E-03 0. -1.
         -2   -1    0    0    0  501 -0.00000000000E+00 -0.00000000000E+00 -0.38413124412E+02  0.38413124497E+02  0.25500000000E-02 0.  1.
         11    1    1    2    0    0  0.96881402624E+02  0.10452694871E+03  0.73407794211E+03  0.74778493852E+03  0.51100000000E-03 0. -1.
         22    1    1    2    0    0  0.62806723869E+01  0.13554689283E+02  0.57413476546E+02  0.59325236926E+02  0.00000000000E+00 0. -1.
         -2    1    1    2    0  501 -0.10316207501E+03 -0.11808163799E+03  0.17023512272E+03  0.23144261484E+03  0.25500000000E-02 0.  1.
<mgrwt>
<rscale>  0 0.15679824E+03</rscale>
<asrwt>0</asrwt>
<pdfrwt beam="1">  1       11 0.10000000E+01 0.15801319E+03</pdfrwt>
<pdfrwt beam="2">  1       -2 0.59105367E-02 0.15679824E+03</pdfrwt>
<totfact> 0.11611046E+03</totfact>
</mgrwt>
</event>
<event>
 5    1  0.2968854E-003  0.2022037E+03  0.7818608E-02  0.1147893E+00
         11   -1    0    0    0    0  0.00000000000E+00  0.00000000000E+00  0.10000577762E+04  0.10000577762E+04  0.51100000000E-03 0.  1.
          2   -1    0    0  501    0 -0.00000000000E+00 -0.00000000000E+00 -0.17418200195E+03  0.17418200196E+03  0.25500000000E-02 0. -1.
         11    1    1    2    0    0 -0.53184789938E+02 -0.16780253944E+03  0.23456338839E+03  0.29326830258E+03  0.51100000000E-03 0.  1.
         22    1    1    2    0    0  0.11676905316E+03 -0.41628216837E+02  0.64402120771E+03  0.65584391145E+03  0.00000000000E+00 0.  1.
          2    1    1    2  501    0 -0.63584263222E+02  0.20943075628E+03 -0.52708821879E+02  0.22512756410E+03  0.25500000000E-02 0. -1.
<mgrwt>
<rscale>  0 0.20220373E+03</rscale>
<asrwt>0</asrwt>
<pdfrwt beam="1">  1       11 0.10000000E+01 0.12396742E+03</pdfrwt>
<pdfrwt beam="2">  1        2 0.26798779E-01 0.20220373E+03</pdfrwt>
<totfact> 0.24470742E+02</totfact>
</mgrwt>
</event>
<event>
 5    1  0.2968854E-003  0.1432277E+03  0.7818608E-02  0.1312263E+00
         11   -1    0    0    0    0  0.00000000000E+00  0.00000000000E+00  0.10002525076E+04  0.10002525076E+04  0.51100000000E-03 0. -1.
          2   -1    0    0  501    0 -0.00000000000E+00 -0.00000000000E+00 -0.39672936538E+03  0.39672936539E+03  0.25500000000E-02 0. -1.
         11    1    1    2    0    0  0.17197562947E+03  0.10061632525E+03  0.44769979058E+03  0.49003506459E+03  0.51100000000E-03 0. -1.
         22    1    1    2    0    0 -0.86312668004E+02 -0.90798112149E+02  0.51888146566E+03  0.53379036076E+03  0.00000000000E+00 0. -1.
          2    1    1    2  501    0 -0.85662961469E+02 -0.98182130992E+01 -0.36305811401E+03  0.37315644766E+03  0.25500000000E-02 0. -1.
<mgrwt>
<rscale>  0 0.86223780E+02</rscale>
<asrwt>0</asrwt>
<pdfrwt beam="1">  1       11 0.10000000E+01 0.14322767E+03</pdfrwt>
<pdfrwt beam="2">  1        2 0.61050697E-01 0.86223780E+02</pdfrwt>
<totfact> 0.10082835E+02</totfact>
</mgrwt>
</event>
<event>
 5    1  0.2968854E-003  0.1632329E+03  0.7818608E-02  0.1199914E+00
         11   -1    0    0    0    0  0.00000000000E+00  0.00000000000E+00  0.10000982315E+04  0.10000982315E+04  0.51100000000E-03 0. -1.
          2   -1    0    0  501    0 -0.00000000000E+00 -0.00000000000E+00 -0.24599888254E+02  0.24599888387E+02  0.25500000000E-02 0. -1.
         11    1    1    2    0    0 -0.86993235581E+02 -0.95828152316E+02  0.41584999659E+03  0.43552505953E+03  0.51100000000E-03 0. -1.
         22    1    1    2    0    0  0.85397425912E+01 -0.32553642612E+02  0.96626067196E+02  0.10231942002E+03  0.00000000000E+00 0. -1.
          2    1    1    2  501    0  0.78453492990E+02  0.12838179493E+03  0.46302227947E+03  0.48685364035E+03  0.25500000000E-02 0. -1.
<mgrwt>
<rscale>  0 0.15045543E+03</rscale>
<asrwt>0</asrwt>
<pdfrwt beam="1">  1       11 0.10000000E+01 0.16323287E+03</pdfrwt>
<pdfrwt beam="2">  1        2 0.37849699E-02 0.15045543E+03</pdfrwt>
<totfact> 0.26695417E+03</totfact>
</mgrwt>
</event>
<event>
 5    1  0.2968854E-003  0.1523386E+03  0.7818608E-02  0.1199299E+00
         11   -1    0    0    0    0  0.00000000000E+00  0.00000000000E+00  0.10003550126E+04  0.10003550126E+04  0.51100000000E-03 0. -1.
         -2   -1    0    0    0  501 -0.00000000000E+00 -0.00000000000E+00 -0.35605214340E+02  0.35605214431E+02  0.25500000000E-02 0.  1.
         11    1    1    2    0    0 -0.10513071804E+02 -0.44554030050E+00  0.35941625699E+02  0.37450282282E+02  0.51100000000E-03 0. -1.
         22    1    1    2    0    0 -0.13643985073E+03  0.34994961205E+02  0.75617710013E+03  0.76918416972E+03  0.00000000000E+00 0. -1.
         -2    1    1    2    0  501  0.14695292253E+03 -0.34549420905E+02  0.17263107247E+03  0.22932577508E+03  0.25500000000E-02 0.  1.
<mgrwt>
<rscale>  0 0.15095968E+03</rscale>
<asrwt>0</asrwt>
<pdfrwt beam="1">  1       11 0.10000000E+01 0.15233865E+03</pdfrwt>
<pdfrwt beam="2">  1       -2 0.54796698E-02 0.15095968E+03</pdfrwt>
<totfact> 0.12983455E+03</totfact>
</mgrwt>
</event>
<event>
 5    1  0.2968854E-003  0.3872274E+03  0.7818608E-02  0.1627730E+00
         11   -1    0    0    0    0  0.00000000000E+00  0.00000000000E+00  0.10000738322E+04  0.10000738322E+04  0.51100000000E-03 0.  1.
          2   -1    0    0  501    0 -0.00000000000E+00 -0.00000000000E+00 -0.69763064722E+03  0.69763064722E+03  0.25500000000E-02 0. -1.
         11    1    1    2    0    0 -0.11417458185E+03  0.36897926276E+03  0.63116214692E+03  0.73996431481E+03  0.51100000000E-03 0.  1.
         22    1    1    2    0    0  0.14113495771E+03 -0.36365657090E+03  0.19305586071E+03  0.43524216616E+03  0.00000000000E+00 0.  1.
          2    1    1    2  501    0 -0.26960375861E+02 -0.53226918567E+01 -0.52177482261E+03  0.52249799850E+03  0.25500000000E-02 0. -1.
<mgrwt>
<rscale>  0 0.27480774E+02</rscale>
<asrwt>0</asrwt>
<pdfrwt beam="1">  1       11 0.10000000E+01 0.38722738E+03</pdfrwt>
<pdfrwt beam="2">  1        2 0.10733571E+00 0.27480774E+02</pdfrwt>
<totfact> 0.56270839E+01</totfact>
</mgrwt>
</event>
<event>
 5    1  0.2968854E-003  0.1822627E+03  0.7818608E-02  0.1169298E+00
         11   -1    0    0    0    0  0.00000000000E+00  0.00000000000E+00  0.10003717634E+04  0.10003717634E+04  0.51100000000E-03 0.  1.
          2   -1    0    0  501    0 -0.00000000000E+00 -0.00000000000E+00 -0.87347122654E+02  0.87347122692E+02  0.25500000000E-02 0.  1.
         11    1    1    2    0    0  0.10177541307E+03  0.12313214362E+03  0.82752970662E+03  0.84280791100E+03  0.51100000000E-03 0.  1.
         22    1    1    2    0    0  0.17895441968E+02  0.92627114756E+01  0.61651381923E+02  0.64860909338E+02  0.00000000000E+00 0. -1.
          2    1    1    2  501    0 -0.11967085504E+03 -0.13239485509E+03  0.23843552228E+02  0.18005006579E+03  0.25500000000E-02 0.  1.
<mgrwt>
<rscale>  0 0.17846431E+03</rscale>
<asrwt>0</asrwt>
<pdfrwt beam="1">  1       11 0.10000000E+01 0.18226267E+03</pdfrwt>
<pdfrwt beam="2">  1        2 0.13443014E-01 0.17846431E+03</pdfrwt>
<totfact> 0.53879585E+02</totfact>
</mgrwt>
</event>
<event>
 5    1  0.2968854E-003  0.1148476E+03  0.7818608E-02  0.1365510E+00
         11   -1    0    0    0    0  0.00000000000E+00  0.00000000000E+00  0.10005036666E+04  0.10005036666E+04  0.51100000000E-03 0. -1.
          2   -1    0    0  501    0 -0.00000000000E+00 -0.00000000000E+00 -0.19439636552E+02  0.19439636719E+02  0.25500000000E-02 0. -1.
         11    1    1    2    0    0  0.21630059593E+02  0.11579290077E+03  0.49419762309E+03  0.50804246478E+03  0.51100000000E-03 0. -1.
         22    1    1    2    0    0  0.37190401048E+02 -0.16716555034E+02  0.93434723802E+02  0.10194418450E+03  0.00000000000E+00 0. -1.
          2    1    1    2  501    0 -0.58820460642E+02 -0.99076345734E+02  0.39343168314E+03  0.40995665402E+03  0.25500000000E-02 0. -1.
<mgrwt>
<rscale>  0 0.68431481E+02</rscale>
<asrwt>0</asrwt>
<pdfrwt beam="1">  1       11 0.10000000E+01 0.11484762E+03</pdfrwt>
<pdfrwt beam="2">  1        2 0.29922196E-02 0.68431481E+02</pdfrwt>
<totfact> 0.33554230E+03</totfact>
</mgrwt>
</event>
<event>
 5    1  0.2968854E-003  0.4111529E+03  0.7818608E-02  0.1050771E+00
         11   -1    0    0    0    0  0.00000000000E+00  0.00000000000E+00  0.10005977774E+04  0.10005977774E+04  0.51100000000E-03 0. -1.
          2   -1    0    0  501    0 -0.00000000000E+00 -0.00000000000E+00 -0.15669672113E+03  0.15669672115E+03  0.25500000000E-02 0. -1.
         11    1    1    2    0    0  0.14491841104E+03  0.27760857710E+03  0.33321271141E+03  0.45727298082E+03  0.51100000000E-03 0. -1.
         22    1    1    2    0    0 -0.41141805842E+02  0.88405664317E+02  0.88138567333E+02  0.13144054444E+03  0.00000000000E+00 0. -1.
          2    1    1    2  501    0 -0.10377660520E+03 -0.36601424142E+03  0.42254977751E+03  0.56858097329E+03  0.25500000000E-02 0. -1.
<mgrwt>
<rscale>  0 0.38044186E+03</rscale>
<asrwt>0</asrwt>
<pdfrwt beam="1">  1       11 0.10000000E+01 0.41115291E+03</pdfrwt>
<pdfrwt beam="2">  1        2 0.24121598E-01 0.38044186E+03</pdfrwt>
<totfact> 0.27876730E+02</totfact>
</mgrwt>
</event>
<event>
 5    1  0.2968854E-003  0.8941335E+02  0.7818608E-02  0.1304279E+00
         11   -1    0    0    0    0  0.00000000000E+00  0.00000000000E+00  0.10001115688E+04  0.10001115688E+04  0.51100000000E-03 0.  1.
          2   -1    0    0  501    0 -0.00000000000E+00 -0.00000000000E+00 -0.53094403792E+02  0.53094403853E+02  0.25500000000E-02 0.  1.
         11    1    1    2    0    0  0.75213574392E+02 -0.92093192447E+02  0.70739304549E+03  0.71731663767E+03  0.51100000000E-03 0.  1.
         22    1    1    2    0    0  0.11426952271E+02  0.71811751130E+02  0.23587366589E+03  0.24682765059E+03  0.00000000000E+00 0.  1.
          2    1    1    2  501    0 -0.86640526662E+02  0.20281441318E+02  0.37504536582E+01  0.89061684418E+02  0.25500000000E-02 0.  1.
<mgrwt>
<rscale>  0 0.89413352E+02</rscale>
<asrwt>0</asrwt>
<pdfrwt beam="1">  1       11 0.10000000E+01 0.72715217E+02</pdfrwt>
<pdfrwt beam="2">  1        2 0.81692809E-02 0.89413352E+02</pdfrwt>
<totfact> 0.95025513E+02</totfact>
</mgrwt>
</event>
<event>
 5    1  0.2968854E-003  0.1811457E+03  0.7818608E-02  0.1385438E+00
         11   -1    0    0    0    0  0.00000000000E+00  0.00000000000E+00  0.10002028016E+04  0.10002028016E+04  0.51100000000E-03 0.  1.
         -2   -1    0    0    0  501 -0.00000000000E+00 -0.00000000000E+00 -0.48585983375E+02  0.48585983442E+02  0.25500000000E-02 0.  1.
         11    1    1    2    0    0 -0.18349842377E+02 -0.16882920007E+03  0.21540683654E+03  0.27429932690E+03  0.51100000000E-03 0.  1.
         22    1    1    2    0    0  0.13967627372E+02 -0.16931556899E+02  0.86756565341E+01  0.23601678960E+02  0.00000000000E+00 0.  1.
         -2    1    1    2    0  501  0.43822150051E+01  0.18576075697E+03  0.72753432511E+03  0.75088777914E+03  0.25500000000E-02 0.  1.
<mgrwt>
<rscale>  0 0.63055693E+02</rscale>
<asrwt>0</asrwt>
<pdfrwt beam="1">  1       11 0.10000000E+01 0.18114566E+03</pdfrwt>
<pdfrwt beam="2">  1       -2 0.74762824E-02 0.63055693E+02</pdfrwt>
<totfact> 0.75421562E+02</totfact>
</mgrwt>
</event>
<event>
 5    1  0.2968854E-003  0.9452654E+02  0.7818608E-02  0.1318793E+00
         11   -1    0    0    0    0  0.00000000000E+00  0.00000000000E+00  0.10002063076E+04  0.10002063076E+04  0.51100000000E-03 0. -1.
          2   -1    0    0  501    0 -0.00000000000E+00 -0.00000000000E+00 -0.11999031561E+02  0.11999031832E+02  0.25500000000E-02 0. -1.
         11    1    1    2    0    0 -0.62895930939E+02 -0.58521218334E+01  0.14893300519E+03  0.16177510777E+03  0.51100000000E-03 0. -1.
         22    1    1    2    0    0 -0.18549918774E+02  0.25267139646E+02  0.71055212294E+02  0.77661902028E+02  0.00000000000E+00 0. -1.
          2    1    1    2  501    0  0.81445849713E+02 -0.19415017813E+02  0.76821905859E+03  0.77276832967E+03  0.25500000000E-02 0. -1.
<mgrwt>
<rscale>  0 0.83727948E+02</rscale>
<asrwt>0</asrwt>
<pdfrwt beam="1">  1       11 0.10000000E+01 0.94526535E+02</pdfrwt>
<pdfrwt beam="2">  1        2 0.18463857E-02 0.83727948E+02</pdfrwt>
<totfact> 0.65529097E+03</totfact>
</mgrwt>
</event>
<event>
 5    1  0.2968854E-003  0.1635420E+03  0.7818608E-02  0.1495277E+00
         11   -1    0    0    0    0  0.00000000000E+00  0.00000000000E+00  0.10003375301E+04  0.10003375301E+04  0.51100000000E-03 0. -1.
          2   -1    0    0  501    0 -0.00000000000E+00 -0.00000000000E+00 -0.52291104039E+03  0.52291104040E+03  0.25500000000E-02 0. -1.
         11    1    1    2    0    0  0.74385747153E+02 -0.13646479059E+03  0.18929606336E+03  0.24492627065E+03  0.51100000000E-03 0. -1.
         22    1    1    2    0    0 -0.11385071032E+03  0.12264956890E+03  0.77337805268E+03  0.79127650879E+03  0.00000000000E+00 0. -1.
          2    1    1    2  501    0  0.39464963165E+02  0.13815221693E+02 -0.48524762636E+03  0.48704579103E+03  0.25500000000E-02 0. -1.
<mgrwt>
<rscale>  0 0.41813200E+02</rscale>
<asrwt>0</asrwt>
<pdfrwt beam="1">  1       11 0.10000000E+01 0.16354198E+03</pdfrwt>
<pdfrwt beam="2">  1        2 0.80475004E-01 0.41813200E+02</pdfrwt>
<totfact> 0.75911866E+01</totfact>
</mgrwt>
</event>
<event>
 5    1  0.2968854E-003  0.1682658E+03  0.7818608E-02  0.1183638E+00
         11   -1    0    0    0    0  0.00000000000E+00  0.00000000000E+00  0.10001610347E+04  0.10001610347E+04  0.51100000000E-03 0. -1.
         -2   -1    0    0    0  501 -0.00000000000E+00 -0.00000000000E+00 -0.42628607075E+02  0.42628607151E+02  0.25500000000E-02 0.  1.
         11    1    1    2    0    0 -0.72564844744E+00 -0.80764508406E+02  0.30417082234E+03  0.31471148937E+03  0.51100000000E-03 0. -1.
         22    1    1    2    0    0  0.52339139071E-01 -0.83798140737E+02  0.48670083133E+03  0.49386215724E+03  0.00000000000E+00 0. -1.
         -2    1    1    2    0  501  0.67330930837E+00  0.16456264914E+03  0.16666077392E+03  0.23421599520E+03  0.25500000000E-02 0.  1.
<mgrwt>
<rscale>  0 0.16456403E+03</rscale>
<asrwt>0</asrwt>
<pdfrwt beam="1">  1       11 0.10000000E+01 0.16826577E+03</pdfrwt>
<pdfrwt beam="2">  1       -2 0.65593032E-02 0.16456403E+03</pdfrwt>
<totfact> 0.99411463E+02</totfact>
</mgrwt>
</event>
<event>
 5    1  0.2968854E-003  0.9269792E+02  0.7818608E-02  0.1470179E+00
         11   -1    0    0    0    0  0.00000000000E+00  0.00000000000E+00  0.10003537740E+04  0.10003537740E+04  0.51100000000E-03 0.  1.
          2   -1    0    0  501    0 -0.00000000000E+00 -0.00000000000E+00 -0.14626494452E+02  0.14626494675E+02  0.25500000000E-02 0.  1.
         11    1    1    2    0    0 -0.19339062797E+01  0.98403534080E+02  0.49049415432E+03  0.50027143726E+03  0.51100000000E-03 0.  1.
         22    1    1    2    0    0  0.19499175228E+02 -0.11234676038E+02  0.16802311685E+02  0.28084754908E+02  0.00000000000E+00 0. -1.
          2    1    1    2  501    0 -0.17565268948E+02 -0.87168858042E+02  0.47843081353E+03  0.48662407650E+03  0.25500000000E-02 0.  1.
<mgrwt>
<rscale>  0 0.45673677E+02</rscale>
<asrwt>0</asrwt>
<pdfrwt beam="1">  1       11 0.10000000E+01 0.92697918E+02</pdfrwt>
<pdfrwt beam="2">  1        2 0.22510259E-02 0.45673677E+02</pdfrwt>
<totfact> 0.46201542E+03</totfact>
</mgrwt>
</event>
<event>
 5    1  0.2968854E-003  0.1829469E+03  0.7818608E-02  0.1164981E+00
         11   -1    0    0    0    0  0.00000000000E+00  0.00000000000E+00  0.10001207832E+04  0.10001207832E+04  0.51100000000E-03 0.  1.
         -2   -1    0    0    0  501 -0.00000000000E+00 -0.00000000000E+00 -0.20486833399E+03  0.20486833400E+03  0.25500000000E-02 0. -1.
         11    1    1    2    0    0 -0.76711547040E+01 -0.17166650620E+02 -0.66980954107E+01  0.19960084929E+02  0.51100000000E-03 0.  1.
         22    1    1    2    0    0 -0.14345878117E+03 -0.87240252806E+02  0.94023443339E+03  0.95510840921E+03  0.00000000000E+00 0.  1.
         -2    1    1    2    0  501  0.15112993587E+03  0.10440690343E+03 -0.13828388878E+03  0.22992062305E+03  0.25500000000E-02 0. -1.
<mgrwt>
<rscale>  0 0.18294692E+03</rscale>
<asrwt>0</asrwt>
<pdfrwt beam="1">  1       11 0.10000000E+01 0.18802682E+02</pdfrwt>
<pdfrwt beam="2">  1       -2 0.31522011E-01 0.18294692E+03</pdfrwt>
<totfact> 0.74945661E+01</totfact>
</mgrwt>
</event>
<event>
 5    1  0.2968854E-003  0.4689099E+03  0.7818608E-02  0.1023526E+00
         11   -1    0    0    0    0  0.00000000000E+00  0.00000000000E+00  0.10002860468E+04  0.10002860468E+04  0.51100000000E-03 0.  1.
          2   -1    0    0  501    0 -0.00000000000E+00 -0.00000000000E+00 -0.18086706938E+04  0.18086706938E+04  0.25500000000E-02 0.  1.
         11    1    1    2    0    0 -0.24232035725E+03 -0.36388118853E+03  0.82343902212E+03  0.93229850266E+03  0.51100000000E-03 0.  1.
         22    1    1    2    0    0 -0.23273631353E+02 -0.17019391781E+02  0.89380653570E+02  0.93916041471E+02  0.00000000000E+00 0. -1.
          2    1    1    2  501    0  0.26559398860E+03  0.38090058031E+03 -0.17212043227E+04  0.17827421965E+04  0.25500000000E-02 0.  1.
<mgrwt>
<rscale>  0 0.46435484E+03</rscale>
<asrwt>0</asrwt>
<pdfrwt beam="1">  1       11 0.10000000E+01 0.46890994E+03</pdfrwt>
<pdfrwt beam="2">  1        2 0.27833662E+00 0.46435484E+03</pdfrwt>
<totfact> 0.11198803E+01</totfact>
</mgrwt>
</event>
<event>
 5    1  0.2968854E-003  0.1507105E+03  0.7818608E-02  0.1341767E+00
         11   -1    0    0    0    0  0.00000000000E+00  0.00000000000E+00  0.10004509624E+04  0.10004509624E+04  0.51100000000E-03 0. -1.
          2   -1    0    0  501    0 -0.00000000000E+00 -0.00000000000E+00 -0.83724525891E+03  0.83724525892E+03  0.25500000000E-02 0.  1.
         11    1    1    2    0    0 -0.12656284159E+03 -0.13570995829E+02  0.79581931398E+02  0.15011864842E+03  0.51100000000E-03 0. -1.
         22    1    1    2    0    0  0.14641725329E+03 -0.59462099390E+02  0.87673488926E+03  0.89086352455E+03  0.00000000000E+00 0. -1.
          2    1    1    2  501    0 -0.19854411701E+02  0.73033095219E+02 -0.79311111717E+03  0.79671404835E+03  0.25500000000E-02 0.  1.
<mgrwt>
<rscale>  0 0.75683754E+02</rscale>
<asrwt>0</asrwt>
<pdfrwt beam="1">  1       11 0.10000000E+01 0.15071049E+03</pdfrwt>
<pdfrwt beam="2">  1        2 0.12886505E+00 0.75683754E+02</pdfrwt>
<totfact> 0.43919802E+01</totfact>
</mgrwt>
</event>
<event>
 5    1  0.2968854E-003  0.8199926E+02  0.7818608E-02  0.1557263E+00
         11   -1    0    0    0    0  0.00000000000E+00  0.00000000000E+00  0.10001038135E+04  0.10001038135E+04  0.51100000000E-03 0. -1.
          2   -1    0    0  501    0 -0.00000000000E+00 -0.00000000000E+00 -0.80328819064E+01  0.80328823111E+01  0.25500000000E-02 0. -1.
         11    1    1    2    0    0  0.60378955719E+02  0.52733883749E+02  0.41077115396E+03  0.41852051528E+03  0.51100000000E-03 0. -1.
         22    1    1    2    0    0  0.11239047858E+02 -0.85701041496E+01  0.66467677741E+02  0.67953771537E+02  0.00000000000E+00 0. -1.
          2    1    1    2  501    0 -0.71618003577E+02 -0.44163779600E+02  0.51483209989E+03  0.52166240899E+03  0.25500000000E-02 0. -1.
<mgrwt>
<rscale>  0 0.34043449E+02</rscale>
<asrwt>0</asrwt>
<pdfrwt beam="1">  1       11 0.10000000E+01 0.81999258E+02</pdfrwt>
<pdfrwt beam="2">  1        2 0.12359563E-02 0.34043449E+02</pdfrwt>
<totfact> 0.96775581E+03</totfact>
</mgrwt>
</event>
<event>
 5    1  0.2968854E-003  0.1591496E+03  0.7818608E-02  0.1199867E+00
         11   -1    0    0    0    0  0.00000000000E+00  0.00000000000E+00  0.10003765225E+04  0.10003765225E+04  0.51100000000E-03 0.  1.
         -2   -1    0    0    0  501 -0.00000000000E+00 -0.00000000000E+00 -0.54325908924E+02  0.54325908984E+02  0.25500000000E-02 0. -1.
         11    1    1    2    0    0 -0.77164778109E+02  0.26011453311E+02  0.41293026972E+03  0.42088288910E+03  0.51100000000E-03 0.  1.
         22    1    1    2    0    0 -0.43687514647E+02  0.63672813589E+02  0.46011972781E+03  0.46655438059E+03  0.00000000000E+00 0.  1.
         -2    1    1    2    0  501  0.12085229276E+03 -0.89684266900E+02  0.73000616004E+02  0.16726516176E+03  0.25500000000E-02 0. -1.
<mgrwt>
<rscale>  0 0.15049433E+03</rscale>
<asrwt>0</asrwt>
<pdfrwt beam="1">  1       11 0.10000000E+01 0.15914964E+03</pdfrwt>
<pdfrwt beam="2">  1       -2 0.83609788E-02 0.15049433E+03</pdfrwt>
<totfact> 0.67953062E+02</totfact>
</mgrwt>
</event>
<event>
 5    1  0.2968854E-003  0.1497809E+03  0.7818608E-02  0.1289960E+00
         11   -1    0    0    0    0  0.00000000000E+00  0.00000000000E+00  0.10000301057E+04  0.10000301057E+04  0.51100000000E-03 0. -1.
         -2   -1    0    0    0  501 -0.00000000000E+00 -0.00000000000E+00 -0.25635719269E+03  0.25635719270E+03  0.25500000000E-02 0.  1.
         11    1    1    2    0    0 -0.86480474313E+02 -0.20276371632E+03  0.49343020685E+03  0.54043072278E+03  0.51100000000E-03 0. -1.
         22    1    1    2    0    0  0.46339032996E+02  0.11606345207E+03  0.46468326777E+03  0.48119493994E+03  0.00000000000E+00 0. -1.
         -2    1    1    2    0  501  0.40141441317E+02  0.86700264254E+02 -0.21444056159E+03  0.23476163569E+03  0.25500000000E-02 0.  1.
<mgrwt>
<rscale>  0 0.95541986E+02</rscale>
<asrwt>0</asrwt>
<pdfrwt beam="1">  1       11 0.10000000E+01 0.14978087E+03</pdfrwt>
<pdfrwt beam="2">  1       -2 0.39440754E-01 0.95541986E+02</pdfrwt>
<totfact> 0.49136470E+01</totfact>
</mgrwt>
</event>
<event>
 5    1  0.2968854E-003  0.9708062E+02  0.7818608E-02  0.1286558E+00
         11   -1    0    0    0    0  0.00000000000E+00  0.00000000000E+00  0.10008534944E+04  0.10008534944E+04  0.51100000000E-03 0. -1.
          2   -1    0    0  501    0 -0.00000000000E+00 -0.00000000000E+00 -0.13228493932E+04  0.13228493932E+04  0.25500000000E-02 0. -1.
         11    1    1    2    0    0 -0.77755268403E+02 -0.16197014248E+03  0.76697881678E+03  0.78774152754E+03  0.51100000000E-03 0. -1.
         22    1    1    2    0    0  0.54099259849E+02  0.68004407305E+02  0.21317766847E+03  0.23020870458E+03  0.00000000000E+00 0. -1.
          2    1    1    2  501    0  0.23656008554E+02  0.93965735178E+02 -0.13021523841E+04  0.13057526555E+04  0.25500000000E-02 0. -1.
<mgrwt>
<rscale>  0 0.97080619E+02</rscale>
<asrwt>0</asrwt>
<pdfrwt beam="1">  1       11 0.10000000E+01 0.86898385E+02</pdfrwt>
<pdfrwt beam="2">  1        2 0.20368898E+00 0.97080619E+02</pdfrwt>
<totfact> 0.22862103E+01</totfact>
</mgrwt>
</event>
<event>
 5    1  0.2968854E-003  0.8511537E+02  0.7818608E-02  0.1315131E+00
         11   -1    0    0    0    0  0.00000000000E+00  0.00000000000E+00  0.10001751648E+04  0.10001751648E+04  0.51100000000E-03 0.  1.
          2   -1    0    0  501    0 -0.00000000000E+00 -0.00000000000E+00 -0.67992260579E+02  0.67992260627E+02  0.25500000000E-02 0.  1.
         11    1    1    2    0    0  0.15514320036E+03  0.13202024441E+02  0.63386965617E+03  0.65271314303E+03  0.51100000000E-03 0.  1.
         22    1    1    2    0    0 -0.73921217881E+02 -0.39568279224E+01  0.32195648741E+03  0.33035735609E+03  0.00000000000E+00 0.  1.
          2    1    1    2  501    0 -0.81221982481E+02 -0.92451965186E+01 -0.23643239339E+02  0.85096926324E+02  0.25500000000E-02 0.  1.
<mgrwt>
<rscale>  0 0.85115369E+02</rscale>
<asrwt>0</asrwt>
<pdfrwt beam="1">  1       11 0.10000000E+01 0.74027042E+02</pdfrwt>
<pdfrwt beam="2">  1        2 0.10462180E-01 0.85115369E+02</pdfrwt>
<totfact> 0.70029830E+02</totfact>
</mgrwt>
</event>
<event>
 5    1  0.2968854E-003  0.2565557E+03  0.7818608E-02  0.1109230E+00
         11   -1    0    0    0    0  0.00000000000E+00  0.00000000000E+00  0.99986596927E+03  0.99986596927E+03  0.51100000000E-03 0.  1.
          2   -1    0    0  501    0 -0.00000000000E+00 -0.00000000000E+00 -0.75630415946E+02  0.75630415989E+02  0.25500000000E-02 0.  1.
         11    1    1    2    0    0 -0.14073490609E+03 -0.21997834839E+03  0.58450334376E+03  0.64018821171E+03  0.51100000000E-03 0.  1.
         22    1    1    2    0    0  0.12202834946E+02  0.84330364950E+00  0.42869774576E+02  0.44580689922E+02  0.00000000000E+00 0.  1.
          2    1    1    2  501    0  0.12853207114E+03  0.21913504474E+03  0.29686243499E+03  0.39072748362E+03  0.25500000000E-02 0.  1.
<mgrwt>
<rscale>  0 0.25655569E+03</rscale>
<asrwt>0</asrwt>
<pdfrwt beam="1">  1       11 0.10000000E+01 0.12231939E+02</pdfrwt>
<pdfrwt beam="2">  1        2 0.11633889E-01 0.25655569E+03</pdfrwt>
<totfact> 0.65199102E+02</totfact>
</mgrwt>
</event>
<event>
 5    1  0.2968854E-003  0.1783017E+03  0.7818608E-02  0.1191016E+00
         11   -1    0    0    0    0  0.00000000000E+00  0.00000000000E+00  0.10004508742E+04  0.10004508742E+04  0.51100000000E-03 0. -1.
          2   -1    0    0  501    0 -0.00000000000E+00 -0.00000000000E+00 -0.31292452252E+02  0.31292452356E+02  0.25500000000E-02 0. -1.
         11    1    1    2    0    0 -0.80849446928E+02 -0.26630511791E+02  0.23652431844E+03  0.25137535766E+03  0.51100000000E-03 0. -1.
         22    1    1    2    0    0 -0.38438876904E+02 -0.76919826366E+02  0.43495572637E+03  0.44337421085E+03  0.00000000000E+00 0. -1.
          2    1    1    2  501    0  0.11928832383E+03  0.10355033816E+03  0.29767837712E+03  0.33699375802E+03  0.25500000000E-02 0. -1.
<mgrwt>
<rscale>  0 0.15796321E+03</rscale>
<asrwt>0</asrwt>
<pdfrwt beam="1">  1       11 0.10000000E+01 0.17830175E+03</pdfrwt>
<pdfrwt beam="2">  1        2 0.48163939E-02 0.15796321E+03</pdfrwt>
<totfact> 0.19485883E+03</totfact>
</mgrwt>
</event>
<event>
 5    1  0.2968854E-003  0.1102411E+03  0.7818608E-02  0.1521108E+00
         11   -1    0    0    0    0  0.00000000000E+00  0.00000000000E+00  0.10001721309E+04  0.10001721309E+04  0.51100000000E-03 0.  1.
          2   -1    0    0  501    0 -0.00000000000E+00 -0.00000000000E+00 -0.30169761419E+02  0.30169761527E+02  0.25500000000E-02 0.  1.
         11    1    1    2    0    0 -0.40796657245E+01  0.11950973097E+03  0.11624136090E+03  0.16676712342E+03  0.51100000000E-03 0.  1.
         22    1    1    2    0    0 -0.72561748395E+01 -0.11153558095E+02  0.32493546624E+02  0.35112455108E+02  0.00000000000E+00 0. -1.
          2    1    1    2  501    0  0.11335840564E+02 -0.10835617287E+03  0.82126746198E+03  0.82846231393E+03  0.25500000000E-02 0.  1.
<mgrwt>
<rscale>  0 0.38299945E+02</rscale>
<asrwt>0</asrwt>
<pdfrwt beam="1">  1       11 0.10000000E+01 0.11024115E+03</pdfrwt>
<pdfrwt beam="2">  1        2 0.46423006E-02 0.38299945E+02</pdfrwt>
<totfact> 0.17782567E+03</totfact>
</mgrwt>
</event>
<event>
 5    1  0.2968854E-003  0.1027603E+03  0.7818608E-02  0.1274596E+00
         11   -1    0    0    0    0  0.00000000000E+00  0.00000000000E+00  0.10001141687E+04  0.10001141687E+04  0.51100000000E-03 0.  1.
         -2   -1    0    0    0  501 -0.00000000000E+00 -0.00000000000E+00 -0.25912668776E+02  0.25912668901E+02  0.25500000000E-02 0.  1.
         11    1    1    2    0    0 -0.61064989639E+02  0.12454842297E+03  0.62378332751E+03  0.63902025187E+03  0.51100000000E-03 0.  1.
         22    1    1    2    0    0  0.18968999923E+02 -0.39545759771E+02  0.22778803771E+03  0.23197215392E+03  0.00000000000E+00 0. -1.
         -2    1    1    2    0  501  0.42095989716E+02 -0.85002663196E+02  0.12263013471E+03  0.15503443181E+03  0.25500000000E-02 0.  1.
<mgrwt>
<rscale>  0 0.10276032E+03</rscale>
<asrwt>0</asrwt>
<pdfrwt beam="1">  1       11 0.10000000E+01 0.43859891E+02</pdfrwt>
<pdfrwt beam="2">  1       -2 0.39870195E-02 0.10276032E+03</pdfrwt>
<totfact> 0.20150024E+03</totfact>
</mgrwt>
</event>
<event>
 5    1  0.2968854E-003  0.3038090E+03  0.7818608E-02  0.1083352E+00
         11   -1    0    0    0    0  0.00000000000E+00  0.00000000000E+00  0.10001689218E+04  0.10001689218E+04  0.51100000000E-03 0. -1.
         -2   -1    0    0    0  501 -0.00000000000E+00 -0.00000000000E+00 -0.22932993639E+03  0.22932993640E+03  0.25500000000E-02 0.  1.
         11    1    1    2    0    0  0.19173210540E+03 -0.70947803472E+02  0.15552998005E+03  0.25687422166E+03  0.51100000000E-03 0. -1.
         22    1    1    2    0    0 -0.14404496170E+03 -0.24895631908E+03  0.57982600407E+03  0.64724523544E+03  0.00000000000E+00 0. -1.
         -2    1    1    2    0  501 -0.47687143699E+02  0.31990412256E+03  0.35483001342E+02  0.32537940115E+03  0.25500000000E-02 0.  1.
<mgrwt>
<rscale>  0 0.30380899E+03</rscale>
<asrwt>0</asrwt>
<pdfrwt beam="1">  1       11 0.10000000E+01 0.20443785E+03</pdfrwt>
<pdfrwt beam="2">  1       -2 0.35287487E-01 0.30380899E+03</pdfrwt>
<totfact> 0.61109988E+01</totfact>
</mgrwt>
</event>
<event>
 5    1  0.2968854E-003  0.1613318E+03  0.7818608E-02  0.1193866E+00
         11   -1    0    0    0    0  0.00000000000E+00  0.00000000000E+00  0.10002018511E+04  0.10002018511E+04  0.51100000000E-03 0.  1.
          2   -1    0    0  501    0 -0.00000000000E+00 -0.00000000000E+00 -0.25169986571E+02  0.25169986700E+02  0.25500000000E-02 0.  1.
         11    1    1    2    0    0 -0.13295388680E+02  0.12033208828E+03  0.38666061238E+03  0.40517034442E+03  0.51100000000E-03 0.  1.
         22    1    1    2    0    0  0.19675119758E+02  0.35043281132E+02  0.13840943749E+03  0.14412603608E+03  0.00000000000E+00 0.  1.
          2    1    1    2  501    0 -0.63797310778E+01 -0.15537536941E+03  0.44996181471E+03  0.47607545735E+03  0.25500000000E-02 0.  1.
<mgrwt>
<rscale>  0 0.15550629E+03</rscale>
<asrwt>0</asrwt>
<pdfrwt beam="1">  1       11 0.10000000E+01 0.16133182E+03</pdfrwt>
<pdfrwt beam="2">  1        2 0.38730872E-02 0.15550629E+03</pdfrwt>
<totfact> 0.25966894E+03</totfact>
</mgrwt>
</event>
<event>
 5    1  0.2968854E-003  0.1368084E+03  0.7818608E-02  0.1217689E+00
         11   -1    0    0    0    0  0.00000000000E+00  0.00000000000E+00  0.10002056422E+04  0.10002056422E+04  0.51100000000E-03 0. -1.
          2   -1    0    0  501    0 -0.00000000000E+00 -0.00000000000E+00 -0.51336009804E+03  0.51336009804E+03  0.25500000000E-02 0. -1.
         11    1    1    2    0    0  0.12501724528E+03 -0.58239663086E+02  0.81238895545E+03  0.82401273346E+03  0.51100000000E-03 0. -1.
         22    1    1    2    0    0 -0.18111604810E+02 -0.27178225438E+02  0.17120972861E+03  0.17429703766E+03  0.00000000000E+00 0.  1.
          2    1    1    2  501    0 -0.10690564047E+03  0.85417888525E+02 -0.49675313993E+03  0.51525596909E+03  0.25500000000E-02 0. -1.
<mgrwt>
<rscale>  0 0.13680844E+03</rscale>
<asrwt>0</asrwt>
<pdfrwt beam="1">  1       11 0.10000000E+01 0.32660162E+02</pdfrwt>
<pdfrwt beam="2">  1        2 0.78994716E-01 0.13680844E+03</pdfrwt>
<totfact> 0.76100335E+01</totfact>
</mgrwt>
</event>
<event>
 5    1  0.2968854E-003  0.4821083E+02  0.7818608E-02  0.1455238E+00
         11   -1    0    0    0    0  0.00000000000E+00  0.00000000000E+00  0.10001398435E+04  0.10001398435E+04  0.51100000000E-03 0.  1.
          2   -1    0    0  501    0 -0.00000000000E+00 -0.00000000000E+00 -0.46395927328E+01  0.46395934336E+01  0.25500000000E-02 0.  1.
         11    1    1    2    0    0  0.30952115999E+01  0.16125720541E+02  0.46973454891E+02  0.49760673854E+02  0.51100000000E-03 0.  1.
         22    1    1    2    0    0 -0.48903706791E+02 -0.91764827978E+00  0.24480001253E+03  0.24963866037E+03  0.00000000000E+00 0.  1.
          2    1    1    2  501    0  0.45808495191E+02 -0.15208072261E+02  0.70372678334E+03  0.70538010270E+03  0.25500000000E-02 0.  1.
<mgrwt>
<rscale>  0 0.48210827E+02</rscale>
<asrwt>0</asrwt>
<pdfrwt beam="1">  1       11 0.10000000E+01 0.16420093E+02</pdfrwt>
<pdfrwt beam="2">  1        2 0.71388335E-03 0.48210827E+02</pdfrwt>
<totfact> 0.21543960E+04</totfact>
</mgrwt>
</event>
<event>
 5    1  0.2968854E-003  0.2415035E+03  0.7818608E-02  0.1123406E+00
         11   -1    0    0    0    0  0.00000000000E+00  0.00000000000E+00  0.10002047963E+04  0.10002047963E+04  0.51100000000E-03 0.  1.
          2   -1    0    0  501    0 -0.00000000000E+00 -0.00000000000E+00 -0.76455057766E+02  0.76455057808E+02  0.25500000000E-02 0.  1.
         11    1    1    2    0    0  0.62143734702E+02  0.21665568884E+03  0.69493877479E+03  0.73057609595E+03  0.51100000000E-03 0.  1.
         22    1    1    2    0    0 -0.10422694021E+02  0.12228227329E+02  0.45689383749E+02  0.48432240105E+02  0.00000000000E+00 0.  1.
          2    1    1    2  501    0 -0.51721040681E+02 -0.22888391617E+03  0.18312157999E+03  0.29765151804E+03  0.25500000000E-02 0.  1.
<mgrwt>
<rscale>  0 0.23465488E+03</rscale>
<asrwt>0</asrwt>
<pdfrwt beam="1">  1       11 0.10000000E+01 0.24150345E+03</pdfrwt>
<pdfrwt beam="2">  1        2 0.11764725E-01 0.23465488E+03</pdfrwt>
<totfact> 0.64065183E+02</totfact>
</mgrwt>
</event>
<event>
 5    1  0.2968854E-003  0.9230790E+02  0.7818608E-02  0.1297357E+00
         11   -1    0    0    0    0  0.00000000000E+00  0.00000000000E+00  0.10003771324E+04  0.10003771324E+04  0.51100000000E-03 0. -1.
          2   -1    0    0  501    0 -0.00000000000E+00 -0.00000000000E+00 -0.46932781776E+03  0.46932781777E+03  0.25500000000E-02 0. -1.
         11    1    1    2    0    0  0.87038742708E+02  0.21085901408E+02  0.13778626667E+03  0.16433323843E+03  0.51100000000E-03 0. -1.
         22    1    1    2    0    0 -0.15744253928E+03  0.38155629611E+02  0.83682771006E+03  0.85236413672E+03  0.00000000000E+00 0. -1.
          2    1    1    2  501    0  0.70403796575E+02 -0.59241531019E+02 -0.44356466209E+03  0.45300757502E+03  0.25500000000E-02 0. -1.
<mgrwt>
<rscale>  0 0.92307899E+02</rscale>
<asrwt>0</asrwt>
<pdfrwt beam="1">  1       11 0.10000000E+01 0.89556451E+02</pdfrwt>
<pdfrwt beam="2">  1        2 0.72231508E-01 0.92307899E+02</pdfrwt>
<totfact> 0.84325841E+01</totfact>
</mgrwt>
</event>
<event>
 5    1  0.2968854E-003  0.2903085E+02  0.7818608E-02  0.1664684E+00
         11   -1    0    0    0    0  0.00000000000E+00  0.00000000000E+00  0.10003807186E+04  0.10003807186E+04  0.51100000000E-03 0. -1.
          2   -1    0    0  501    0 -0.00000000000E+00 -0.00000000000E+00 -0.78999594959E+01  0.78999599074E+01  0.25500000000E-02 0. -1.
         11    1    1    2    0    0 -0.27260202132E+02 -0.14129656637E+02  0.33638103580E+02  0.45544350140E+02  0.51100000000E-03 0. -1.
         22    1    1    2    0    0 -0.11634629916E+01  0.21060627146E+02  0.63415534643E+02  0.66831382568E+02  0.00000000000E+00 0. -1.
          2    1    1    2  501    0  0.28423665124E+02 -0.69309705096E+01  0.89542712089E+03  0.89590494581E+03  0.25500000000E-02 0. -1.
<mgrwt>
<rscale>  0 0.24745501E+02</rscale>
<asrwt>0</asrwt>
<pdfrwt beam="1">  1       11 0.10000000E+01 0.29030848E+02</pdfrwt>
<pdfrwt beam="2">  1        2 0.12158411E-02 0.24745501E+02</pdfrwt>
<totfact> 0.92750647E+03</totfact>
</mgrwt>
</event>
<event>
 5    1  0.2968854E-003  0.1973711E+03  0.7818608E-02  0.1153333E+00
         11   -1    0    0    0    0  0.00000000000E+00  0.00000000000E+00  0.10000931990E+04  0.10000931990E+04  0.51100000000E-03 0.  1.
         -2   -1    0    0    0  501 -0.00000000000E+00 -0.00000000000E+00 -0.39240557593E+02  0.39240557676E+02  0.25500000000E-02 0.  1.
         11    1    1    2    0    0  0.17824964113E+03  0.48049435342E+02  0.37770514334E+03  0.42040796627E+03  0.51100000000E-03 0.  1.
         22    1    1    2    0    0  0.10455681322E+02  0.41768661087E+01  0.40436981506E+02  0.41975194528E+02  0.00000000000E+00 0.  1.
         -2    1    1    2    0  501 -0.18870532246E+03 -0.52226301451E+02  0.54271051657E+03  0.57695059588E+03  0.25500000000E-02 0.  1.
<mgrwt>
<rscale>  0 0.19579909E+03</rscale>
<asrwt>0</asrwt>
<pdfrwt beam="1">  1       11 0.10000000E+01 0.19737110E+03</pdfrwt>
<pdfrwt beam="2">  1       -2 0.60375713E-02 0.19579909E+03</pdfrwt>
<totfact> 0.11430468E+03</totfact>
</mgrwt>
</event>
<event>
 5    1  0.2968854E-003  0.1352005E+03  0.7818608E-02  0.1226032E+00
         11   -1    0    0    0    0  0.00000000000E+00  0.00000000000E+00  0.10003406884E+04  0.10003406884E+04  0.51100000000E-03 0.  1.
         -2   -1    0    0    0  501 -0.00000000000E+00 -0.00000000000E+00 -0.21998232659E+02  0.21998232807E+02  0.25500000000E-02 0. -1.
         11    1    1    2    0    0 -0.91374928136E+02 -0.59648668317E+02  0.61901791584E+03  0.62856226522E+03  0.51100000000E-03 0.  1.
         22    1    1    2    0    0 -0.25020481979E+02 -0.38313773130E+00  0.10221847580E+03  0.10523681916E+03  0.00000000000E+00 0. -1.
         -2    1    1    2    0  501  0.11639541011E+03  0.60031806048E+02  0.25710606413E+03  0.28853983685E+03  0.25500000000E-02 0. -1.
<mgrwt>
<rscale>  0 0.13096453E+03</rscale>
<asrwt>0</asrwt>
<pdfrwt beam="1">  1       11 0.10000000E+01 0.13520046E+03</pdfrwt>
<pdfrwt beam="2">  1       -2 0.33854964E-02 0.13096453E+03</pdfrwt>
<totfact> 0.26295952E+03</totfact>
</mgrwt>
</event>
<event>
 5    1  0.2968854E-003  0.2857867E+03  0.7818608E-02  0.1105329E+00
         11   -1    0    0    0    0  0.00000000000E+00  0.00000000000E+00  0.10000807443E+04  0.10000807443E+04  0.51100000000E-03 0. -1.
          2   -1    0    0  501    0 -0.00000000000E+00 -0.00000000000E+00 -0.17589077886E+03  0.17589077888E+03  0.25500000000E-02 0. -1.
         11    1    1    2    0    0  0.14023930239E+03  0.65465211348E+02  0.49388210771E+03  0.51756380490E+03  0.51100000000E-03 0. -1.
         22    1    1    2    0    0  0.12210086369E+03 -0.46260325001E+02  0.37002270204E+03  0.39238429965E+03  0.00000000000E+00 0. -1.
          2    1    1    2  501    0 -0.26234016608E+03 -0.19204886347E+02 -0.39714844307E+02  0.26602341864E+03  0.25500000000E-02 0. -1.
<mgrwt>
<rscale>  0 0.26304218E+03</rscale>
<asrwt>0</asrwt>
<pdfrwt beam="1">  1       11 0.10000000E+01 0.28578669E+03</pdfrwt>
<pdfrwt beam="2">  1        2 0.27062304E-01 0.26304218E+03</pdfrwt>
<totfact> 0.24325483E+02</totfact>
</mgrwt>
</event>
<event>
 5    1  0.2968854E-003  0.7969274E+02  0.7818608E-02  0.1356286E+00
         11   -1    0    0    0    0  0.00000000000E+00  0.00000000000E+00  0.10002176883E+04  0.10002176883E+04  0.51100000000E-03 0. -1.
         -2   -1    0    0    0  501 -0.00000000000E+00 -0.00000000000E+00 -0.69923123808E+01  0.69923128458E+01  0.25500000000E-02 0. -1.
         11    1    1    2    0    0  0.35670331916E+02 -0.57651791329E+01  0.19988178508E+03  0.20312148551E+03  0.51100000000E-03 0. -1.
         22    1    1    2    0    0  0.27109500341E+02 -0.27677579775E+02  0.10224592019E+03  0.10933984464E+03  0.00000000000E+00 0. -1.
         -2    1    1    2    0  501 -0.62779832257E+02  0.33442758908E+02  0.69109767067E+03  0.69474867101E+03  0.25500000000E-02 0. -1.
<mgrwt>
<rscale>  0 0.71131747E+02</rscale>
<asrwt>0</asrwt>
<pdfrwt beam="1">  1       11 0.10000000E+01 0.79692738E+02</pdfrwt>
<pdfrwt beam="2">  1       -2 0.10759745E-02 0.71131747E+02</pdfrwt>
<totfact> 0.12595311E+04</totfact>
</mgrwt>
</event>
<event>
 5    1  0.2968854E-003  0.2856249E+03  0.7818608E-02  0.1092656E+00
         11   -1    0    0    0    0  0.00000000000E+00  0.00000000000E+00  0.10005895535E+04  0.10005895535E+04  0.51100000000E-03 0. -1.
          2   -1    0    0  501    0 -0.00000000000E+00 -0.00000000000E+00 -0.21692571422E+04  0.21692571422E+04  0.25500000000E-02 0. -1.
         11    1    1    2    0    0 -0.89867764006E+02 -0.10846821742E+03  0.61007979757E+02  0.15350421099E+03  0.51100000000E-03 0. -1.
         22    1    1    2    0    0 -0.17288890866E+03 -0.69696179655E+01  0.87512445176E+03  0.89206611659E+03  0.00000000000E+00 0. -1.
          2    1    1    2  501    0  0.26275667267E+03  0.11543783539E+03 -0.21048000202E+04  0.21242763681E+04  0.25500000000E-02 0. -1.
<mgrwt>
<rscale>  0 0.28562485E+03</rscale>
<asrwt>0</asrwt>
<pdfrwt beam="1">  1       11 0.10000000E+01 0.14086011E+03</pdfrwt>
<pdfrwt beam="2">  1        2 0.33392861E+00 0.28562485E+03</pdfrwt>
<totfact> 0.75269918E+00</totfact>
</mgrwt>
</event>
<event>
 5    1  0.2968854E-003  0.9433419E+02  0.7818608E-02  0.1299129E+00
         11   -1    0    0    0    0  0.00000000000E+00  0.00000000000E+00  0.10001200064E+04  0.10001200064E+04  0.51100000000E-03 0. -1.
          2   -1    0    0  501    0 -0.00000000000E+00 -0.00000000000E+00 -0.91483166023E+01  0.91483169577E+01  0.25500000000E-02 0. -1.
         11    1    1    2    0    0 -0.45121942417E+02 -0.56406559961E+02  0.26233602623E+03  0.27209902674E+03  0.51100000000E-03 0. -1.
         22    1    1    2    0    0 -0.67394804613E+01 -0.19043537312E+02  0.12093133075E+03  0.12260694787E+03  0.00000000000E+00 0. -1.
          2    1    1    2  501    0  0.51861422878E+02  0.75450097273E+02  0.60770433283E+03  0.61456234875E+03  0.25500000000E-02 0. -1.
<mgrwt>
<rscale>  0 0.91555035E+02</rscale>
<asrwt>0</asrwt>
<pdfrwt beam="1">  1       11 0.10000000E+01 0.94334190E+02</pdfrwt>
<pdfrwt beam="2">  1        2 0.14076022E-02 0.91555035E+02</pdfrwt>
<totfact> 0.95838330E+03</totfact>
</mgrwt>
</event>
<event>
 5    1  0.2968854E-003  0.1587315E+03  0.7818608E-02  0.1190136E+00
         11   -1    0    0    0    0  0.00000000000E+00  0.00000000000E+00  0.10003485960E+04  0.10003485960E+04  0.51100000000E-03 0.  1.
          2   -1    0    0  501    0 -0.00000000000E+00 -0.00000000000E+00 -0.95503663871E+03  0.95503663871E+03  0.25500000000E-02 0. -1.
         11    1    1    2    0    0 -0.14683429089E+03 -0.46663808565E+02  0.61999112841E+03  0.63884804087E+03  0.51100000000E-03 0.  1.
         22    1    1    2    0    0 -0.11608288998E+02  0.58696701080E+02  0.36177909461E+03  0.36669356197E+03  0.00000000000E+00 0.  1.
          2    1    1    2  501    0  0.15844257989E+03 -0.12032892515E+02 -0.93645826571E+03  0.94984363189E+03  0.25500000000E-02 0. -1.
<mgrwt>
<rscale>  0 0.15873145E+03</rscale>
<asrwt>0</asrwt>
<pdfrwt beam="1">  1       11 0.10000000E+01 0.59833562E+02</pdfrwt>
<pdfrwt beam="2">  1        2 0.14697993E+00 0.15873145E+03</pdfrwt>
<totfact> 0.35881990E+01</totfact>
</mgrwt>
</event>
<event>
 5    1  0.2968854E-003  0.1749073E+03  0.7818608E-02  0.1176756E+00
         11   -1    0    0    0    0  0.00000000000E+00  0.00000000000E+00  0.10004071630E+04  0.10004071630E+04  0.51100000000E-03 0.  1.
         -2   -1    0    0    0  501 -0.00000000000E+00 -0.00000000000E+00 -0.31483489145E+02  0.31483489248E+02  0.25500000000E-02 0.  1.
         11    1    1    2    0    0  0.71753830430E+02  0.78713559769E+02  0.21228437775E+03  0.23750598668E+03  0.51100000000E-03 0.  1.
         22    1    1    2    0    0  0.61609934890E+02  0.28396605841E+02  0.16195681842E+03  0.17559089479E+03  0.00000000000E+00 0.  1.
         -2    1    1    2    0  501 -0.13336376532E+03 -0.10711016561E+03  0.59468247763E+03  0.61879377072E+03  0.25500000000E-02 0.  1.
<mgrwt>
<rscale>  0 0.17105111E+03</rscale>
<asrwt>0</asrwt>
<pdfrwt beam="1">  1       11 0.10000000E+01 0.17490729E+03</pdfrwt>
<pdfrwt beam="2">  1       -2 0.48455857E-02 0.17105111E+03</pdfrwt>
<totfact> 0.15795024E+03</totfact>
</mgrwt>
</event>
<event>
 5    1  0.2968854E-003  0.4632241E+03  0.7818608E-02  0.1024997E+00
         11   -1    0    0    0    0  0.00000000000E+00  0.00000000000E+00  0.10002673934E+04  0.10002673934E+04  0.51100000000E-03 0.  1.
          2   -1    0    0  501    0 -0.00000000000E+00 -0.00000000000E+00 -0.31799245101E+03  0.31799245102E+03  0.25500000000E-02 0.  1.
         11    1    1    2    0    0 -0.25087325389E+03  0.31751287835E+03  0.59635547393E+03  0.72068832981E+03  0.51100000000E-03 0.  1.
         22    1    1    2    0    0 -0.39748009276E+02  0.38095420696E+02  0.12506608180E+03  0.13664805208E+03  0.00000000000E+00 0. -1.
          2    1    1    2  501    0  0.29062126317E+03 -0.35560829905E+03 -0.39146613361E+02  0.46092346252E+03  0.25500000000E-02 0.  1.
<mgrwt>
<rscale>  0 0.45925808E+03</rscale>
<asrwt>0</asrwt>
<pdfrwt beam="1">  1       11 0.10000000E+01 0.46322415E+03</pdfrwt>
<pdfrwt beam="2">  1        2 0.48934996E-01 0.45925808E+03</pdfrwt>
<totfact> 0.12728592E+02</totfact>
</mgrwt>
</event>
<event>
 5    1  0.2968854E-003  0.4184718E+03  0.7818608E-02  0.1041632E+00
         11   -1    0    0    0    0  0.00000000000E+00  0.00000000000E+00  0.10002538849E+04  0.10002538849E+04  0.51100000000E-03 0.  1.
          2   -1    0    0  501    0 -0.00000000000E+00 -0.00000000000E+00 -0.17020508527E+03  0.17020508529E+03  0.25500000000E-02 0.  1.
         11    1    1    2    0    0  0.35056563329E+03  0.93529572275E+02  0.35724795648E+03  0.50918576820E+03  0.51100000000E-03 0.  1.
         22    1    1    2    0    0  0.48767184052E+02 -0.18812853006E+02  0.84049127875E+02  0.98976853734E+02  0.00000000000E+00 0. -1.
          2    1    1    2  501    0 -0.39933281734E+03 -0.74716719269E+02  0.38875171532E+03  0.56229634830E+03  0.25500000000E-02 0.  1.
<mgrwt>
<rscale>  0 0.40626258E+03</rscale>
<asrwt>0</asrwt>
<pdfrwt beam="1">  1       11 0.10000000E+01 0.41847181E+03</pdfrwt>
<pdfrwt beam="2">  1        2 0.26192045E-01 0.40626258E+03</pdfrwt>
<totfact> 0.25419409E+02</totfact>
</mgrwt>
</event>
<event>
 5    1  0.2968854E-003  0.1853627E+03  0.7818608E-02  0.1172193E+00
         11   -1    0    0    0    0  0.00000000000E+00  0.00000000000E+00  0.10002445074E+04  0.10002445074E+04  0.51100000000E-03 0. -1.
          2   -1    0    0  501    0 -0.00000000000E+00 -0.00000000000E+00 -0.32667707857E+02  0.32667707957E+02  0.25500000000E-02 0. -1.
         11    1    1    2    0    0 -0.98997464183E+02  0.74135066996E+02  0.28998746154E+03  0.31526058099E+03  0.51100000000E-03 0. -1.
         22    1    1    2    0    0 -0.53999372051E+02  0.11920328387E+02  0.23733551426E+03  0.24369278352E+03  0.00000000000E+00 0. -1.
          2    1    1    2  501    0  0.15299683623E+03 -0.86055395383E+02  0.44025382372E+03  0.47395885083E+03  0.25500000000E-02 0. -1.
<mgrwt>
<rscale>  0 0.17553792E+03</rscale>
<asrwt>0</asrwt>
<pdfrwt beam="1">  1       11 0.10000000E+01 0.18536273E+03</pdfrwt>
<pdfrwt beam="2">  1        2 0.50270299E-02 0.17553792E+03</pdfrwt>
<totfact> 0.18572738E+03</totfact>
</mgrwt>
</event>
<event>
 5    1  0.2968854E-003  0.1480895E+03  0.7818608E-02  0.1202840E+00
         11   -1    0    0    0    0  0.00000000000E+00  0.00000000000E+00  0.10000258571E+04  0.10000258571E+04  0.51100000000E-03 0. -1.
          2   -1    0    0  501    0 -0.00000000000E+00 -0.00000000000E+00 -0.73485100427E+02  0.73485100472E+02  0.25500000000E-02 0. -1.
         11    1    1    2    0    0  0.10200622100E+03  0.99557425876E+02  0.42493882574E+03  0.44820749189E+03  0.51100000000E-03 0. -1.
         22    1    1    2    0    0 -0.91988867389E+02  0.57412958564E+02  0.44518695581E+03  0.45820260274E+03  0.00000000000E+00 0. -1.
          2    1    1    2  501    0 -0.10017353610E+02 -0.15697038444E+03  0.56414975101E+02  0.16710086291E+03  0.25500000000E-02 0. -1.
<mgrwt>
<rscale>  0 0.14808951E+03</rscale>
<asrwt>0</asrwt>
<pdfrwt beam="1">  1       11 0.10000000E+01 0.10843523E+03</pdfrwt>
<pdfrwt beam="2">  1        2 0.11305692E-01 0.14808951E+03</pdfrwt>
<totfact> 0.65796321E+02</totfact>
</mgrwt>
</event>
<event>
 5    1  0.2968854E-003  0.1838945E+03  0.7818608E-02  0.1164086E+00
         11   -1    0    0    0    0  0.00000000000E+00  0.00000000000E+00  0.10001609790E+04  0.10001609790E+04  0.51100000000E-03 0. -1.
          2   -1    0    0  501    0 -0.00000000000E+00 -0.00000000000E+00 -0.78560416818E+02  0.78560416859E+02  0.25500000000E-02 0. -1.
         11    1    1    2    0    0  0.27169062300E+02 -0.57391213400E+01  0.15164840231E+02  0.31639656122E+02  0.51100000000E-03 0. -1.
         22    1    1    2    0    0  0.15980224258E+03 -0.12663884501E+02  0.82819494854E+03  0.84356624132E+03  0.00000000000E+00 0. -1.
          2    1    1    2  501    0 -0.18697130488E+03  0.18403005841E+02  0.78240773440E+02  0.20351549845E+03  0.25500000000E-02 0. -1.
<mgrwt>
<rscale>  0 0.18389453E+03</rscale>
<asrwt>0</asrwt>
<pdfrwt beam="1">  1       11 0.10000000E+01 0.27768620E+02</pdfrwt>
<pdfrwt beam="2">  1        2 0.12088163E-01 0.18389453E+03</pdfrwt>
<totfact> 0.61308937E+02</totfact>
</mgrwt>
</event>
<event>
 5    1  0.2968854E-003  0.2603898E+03  0.7818608E-02  0.1668366E+00
         11   -1    0    0    0    0  0.00000000000E+00  0.00000000000E+00  0.10005148461E+04  0.10005148461E+04  0.51100000000E-03 0. -1.
         -2   -1    0    0    0  501 -0.00000000000E+00 -0.00000000000E+00 -0.44434280028E+03  0.44434280028E+03  0.25500000000E-02 0. -1.
         11    1    1    2    0    0  0.44339877622E+02 -0.26846786339E+03 -0.50685433499E+02  0.27678517227E+03  0.51100000000E-03 0. -1.
         22    1    1    2    0    0 -0.62078075120E+02  0.25157549912E+03  0.86796501212E+03  0.90581851462E+03  0.00000000000E+00 0. -1.
         -2    1    1    2    0  501  0.17738197498E+02  0.16892364276E+02 -0.26110753276E+03  0.26225395953E+03  0.25500000000E-02 0. -1.
<mgrwt>
<rscale>  0 0.24494808E+02</rscale>
<asrwt>0</asrwt>
<pdfrwt beam="1">  1       11 0.10000000E+01 0.26038979E+03</pdfrwt>
<pdfrwt beam="2">  1       -2 0.68395624E-01 0.24494808E+02</pdfrwt>
<totfact> 0.16623818E+01</totfact>
</mgrwt>
</event>
<event>
 5    1  0.2968854E-003  0.2602580E+03  0.7818608E-02  0.1106988E+00
         11   -1    0    0    0    0  0.00000000000E+00  0.00000000000E+00  0.99969993591E+03  0.99969993591E+03  0.51100000000E-03 0. -1.
          2   -1    0    0  501    0 -0.00000000000E+00 -0.00000000000E+00 -0.13059868685E+03  0.13059868687E+03  0.25500000000E-02 0. -1.
         11    1    1    2    0    0  0.45380052212E+02 -0.55584888408E+02  0.22245480585E+02  0.75125830211E+02  0.51100000000E-03 0. -1.
         22    1    1    2    0    0 -0.29473632766E+03  0.63430755808E+02  0.70831449779E+03  0.76980672341E+03  0.00000000000E+00 0. -1.
          2    1    1    2  501    0  0.24935627545E+03 -0.78458674002E+01  0.13854127069E+03  0.28536606917E+03  0.25500000000E-02 0. -1.
<mgrwt>
<rscale>  0 0.26025800E+03</rscale>
<asrwt>0</asrwt>
<pdfrwt beam="1">  1       11 0.10000000E+01 0.71756770E+02</pdfrwt>
<pdfrwt beam="2">  1        2 0.20086076E-01 0.26025800E+03</pdfrwt>
<totfact> 0.34081837E+02</totfact>
</mgrwt>
</event>
<event>
 5    1  0.2968854E-003  0.3721820E+03  0.7818608E-02  0.1053862E+00
         11   -1    0    0    0    0  0.00000000000E+00  0.00000000000E+00  0.10002716974E+04  0.10002716974E+04  0.51100000000E-03 0. -1.
          2   -1    0    0  501    0 -0.00000000000E+00 -0.00000000000E+00 -0.85360912561E+03  0.85360912561E+03  0.25500000000E-02 0. -1.
         11    1    1    2    0    0  0.29796853188E+03 -0.24093954589E+03  0.88621652754E+03  0.96551377227E+03  0.51100000000E-03 0. -1.
         22    1    1    2    0    0 -0.22412747955E+02 -0.85206632595E+01  0.27204891572E+02  0.36263467825E+02  0.00000000000E+00 0. -1.
          2    1    1    2  501    0 -0.27555578392E+03  0.24946020915E+03 -0.76675884734E+03  0.85210358289E+03  0.25500000000E-02 0. -1.
<mgrwt>
<rscale>  0 0.37218196E+03</rscale>
<asrwt>0</asrwt>
<pdfrwt beam="1">  1       11 0.10000000E+01 0.23977760E+02</pdfrwt>
<pdfrwt beam="2">  1        2 0.13136016E+00 0.37218196E+03</pdfrwt>
<totfact> 0.40231457E+01</totfact>
</mgrwt>
</event>
<event>
 5    1  0.2968854E-003  0.2310848E+03  0.7818608E-02  0.1127376E+00
         11   -1    0    0    0    0  0.00000000000E+00  0.00000000000E+00  0.10001357413E+04  0.10001357413E+04  0.51100000000E-03 0.  1.
          2   -1    0    0  501    0 -0.00000000000E+00 -0.00000000000E+00 -0.28206527773E+03  0.28206527774E+03  0.25500000000E-02 0.  1.
         11    1    1    2    0    0  0.98153198118E+02  0.18708264456E+03  0.83769465437E+03  0.86392493896E+03  0.51100000000E-03 0.  1.
         22    1    1    2    0    0  0.12387469770E+01  0.19176353647E+02  0.99511696831E+02  0.10135011021E+03  0.00000000000E+00 0. -1.
          2    1    1    2  501    0 -0.99391945096E+02 -0.20625899821E+03 -0.21913588766E+03  0.31692596984E+03  0.25500000000E-02 0.  1.
<mgrwt>
<rscale>  0 0.22895749E+03</rscale>
<asrwt>0</asrwt>
<pdfrwt beam="1">  1       11 0.10000000E+01 0.23108478E+03</pdfrwt>
<pdfrwt beam="2">  1        2 0.43400547E-01 0.22895749E+03</pdfrwt>
<totfact> 0.14496431E+02</totfact>
</mgrwt>
</event>
<event>
 5    1  0.2968854E-003  0.6786405E+02  0.7818608E-02  0.1378412E+00
         11   -1    0    0    0    0  0.00000000000E+00  0.00000000000E+00  0.10001430150E+04  0.10001430150E+04  0.51100000000E-03 0. -1.
          2   -1    0    0  501    0 -0.00000000000E+00 -0.00000000000E+00 -0.64337284024E+01  0.64337289077E+01  0.25500000000E-02 0. -1.
         11    1    1    2    0    0 -0.29452671497E+02  0.44186212153E+02  0.17367859202E+03  0.18161534772E+03  0.51100000000E-03 0. -1.
         22    1    1    2    0    0  0.20372019396E+01  0.14620244687E+02  0.48234577733E+02  0.50442801622E+02  0.00000000000E+00 0. -1.
          2    1    1    2  501    0  0.27415469558E+02 -0.58806456841E+02  0.77179611685E+03  0.77451859457E+03  0.25500000000E-02 0. -1.
<mgrwt>
<rscale>  0 0.64883028E+02</rscale>
<asrwt>0</asrwt>
<pdfrwt beam="1">  1       11 0.10000000E+01 0.67864054E+02</pdfrwt>
<pdfrwt beam="2">  1        2 0.98994594E-03 0.64883028E+02</pdfrwt>
<totfact> 0.14640796E+04</totfact>
</mgrwt>
</event>
<event>
 5    1  0.2968854E-003  0.2691589E+03  0.7818608E-02  0.1104909E+00
         11   -1    0    0    0    0  0.00000000000E+00  0.00000000000E+00  0.10004677766E+04  0.10004677766E+04  0.51100000000E-03 0.  1.
         -2   -1    0    0    0  501 -0.00000000000E+00 -0.00000000000E+00 -0.11316422194E+03  0.11316422197E+03  0.25500000000E-02 0.  1.
         11    1    1    2    0    0 -0.16801240151E+03  0.19705984995E+02  0.44416686709E+03  0.47529012059E+03  0.51100000000E-03 0.  1.
         22    1    1    2    0    0 -0.95741077596E+02 -0.19278324194E+02  0.34231635634E+03  0.35597541424E+03  0.00000000000E+00 0.  1.
         -2    1    1    2    0  501  0.26375347910E+03 -0.42766080058E+00  0.10082033118E+03  0.28236646369E+03  0.25500000000E-02 0.  1.
<mgrwt>
<rscale>  0 0.26375383E+03</rscale>
<asrwt>0</asrwt>
<pdfrwt beam="1">  1       11 0.10000000E+01 0.26915893E+03</pdfrwt>
<pdfrwt beam="2">  1       -2 0.17418024E-01 0.26375383E+03</pdfrwt>
<totfact> 0.21341535E+02</totfact>
</mgrwt>
</event>
<event>
 5    1  0.2968854E-003  0.1988346E+03  0.7818608E-02  0.1154433E+00
         11   -1    0    0    0    0  0.00000000000E+00  0.00000000000E+00  0.10000682699E+04  0.10000682699E+04  0.51100000000E-03 0. -1.
         -2   -1    0    0    0  501 -0.00000000000E+00 -0.00000000000E+00 -0.57224469555E+02  0.57224469612E+02  0.25500000000E-02 0.  1.
         11    1    1    2    0    0 -0.13286850771E+03  0.20023330766E+02  0.60596425294E+03  0.62068321224E+03  0.51100000000E-03 0. -1.
         22    1    1    2    0    0 -0.59876734913E+02  0.63102623022E+01  0.16984938060E+03  0.18020503568E+03  0.00000000000E+00 0.  1.
         -2    1    1    2    0  501  0.19274524262E+03 -0.26333593068E+02  0.16703016680E+03  0.25640449158E+03  0.25500000000E-02 0.  1.
<mgrwt>
<rscale>  0 0.19453582E+03</rscale>
<asrwt>0</asrwt>
<pdfrwt beam="1">  1       11 0.10000000E+01 0.19883458E+03</pdfrwt>
<pdfrwt beam="2">  1       -2 0.88043653E-02 0.19453582E+03</pdfrwt>
<totfact> 0.63705735E+02</totfact>
</mgrwt>
</event>
<event>
 5    1  0.2968854E-003  0.1553996E+03  0.7818608E-02  0.1193991E+00
         11   -1    0    0    0    0  0.00000000000E+00  0.00000000000E+00  0.10001380282E+04  0.10001380282E+04  0.51100000000E-03 0. -1.
          2   -1    0    0  501    0 -0.00000000000E+00 -0.00000000000E+00 -0.65795168314E+02  0.65795168363E+02  0.25500000000E-02 0. -1.
         11    1    1    2    0    0  0.15647720479E+02 -0.15000083646E+03  0.82549030922E+03  0.83915395054E+03  0.51100000000E-03 0. -1.
         22    1    1    2    0    0 -0.24912883028E+02 -0.59545082440E+01  0.56458639853E+02  0.61997467071E+02  0.00000000000E+00 0. -1.
          2    1    1    2  501    0  0.92651625494E+01  0.15595534471E+03  0.52393910828E+02  0.16478177896E+03  0.25500000000E-02 0. -1.
<mgrwt>
<rscale>  0 0.15539959E+03</rscale>
<asrwt>0</asrwt>
<pdfrwt beam="1">  1       11 0.10000000E+01 0.25614603E+02</pdfrwt>
<pdfrwt beam="2">  1        2 0.10123730E-01 0.15539959E+03</pdfrwt>
<totfact> 0.75491563E+02</totfact>
</mgrwt>
</event>
<event>
 5    1  0.2968854E-003  0.4195160E+02  0.7818608E-02  0.1511579E+00
         11   -1    0    0    0    0  0.00000000000E+00  0.00000000000E+00  0.10001297102E+04  0.10001297102E+04  0.51100000000E-03 0. -1.
          2   -1    0    0  501    0 -0.00000000000E+00 -0.00000000000E+00 -0.22818503082E+01  0.22818517330E+01  0.25500000000E-02 0. -1.
         11    1    1    2    0    0  0.28686942933E+02 -0.10707376396E+02  0.18212682923E+03  0.18468289182E+03  0.51100000000E-03 0. -1.
         22    1    1    2    0    0  0.10376583597E+02  0.45487091786E+01  0.66000927005E+02  0.66966309498E+02  0.00000000000E+00 0. -1.
          2    1    1    2  501    0 -0.39063526530E+02  0.61586672171E+01  0.74972010364E+03  0.75076236060E+03  0.25500000000E-02 0. -1.
<mgrwt>
<rscale>  0 0.39546028E+02</rscale>
<asrwt>0</asrwt>
<pdfrwt beam="1">  1       11 0.10000000E+01 0.41951604E+02</pdfrwt>
<pdfrwt beam="2">  1        2 0.35109953E-03 0.39546028E+02</pdfrwt>
<totfact> 0.53541670E+04</totfact>
</mgrwt>
</event>
<event>
 5    1  0.2968854E-003  0.5624701E+02  0.7818608E-02  0.1661421E+00
         11   -1    0    0    0    0  0.00000000000E+00  0.00000000000E+00  0.99997812299E+03  0.99997812299E+03  0.51100000000E-03 0. -1.
          2   -1    0    0  501    0 -0.00000000000E+00 -0.00000000000E+00 -0.27801948947E+02  0.27801949064E+02  0.25500000000E-02 0. -1.
         11    1    1    2    0    0 -0.31272321671E+02 -0.40100401161E+02 -0.31397739991E+00  0.50853700535E+02  0.51100000000E-03 0. -1.
         22    1    1    2    0    0  0.50309132105E+01 -0.98784815080E+01  0.20853814857E+02  0.23617283475E+02  0.00000000000E+00 0.  1.
          2    1    1    2  501    0  0.26241408461E+02  0.49978882669E+02  0.95163633659E+03  0.95330908805E+03  0.25500000000E-02 0. -1.
<mgrwt>
<rscale>  0 0.24970815E+02</rscale>
<asrwt>0</asrwt>
<pdfrwt beam="1">  1       11 0.10000000E+01 0.56247011E+02</pdfrwt>
<pdfrwt beam="2">  1        2 0.42771292E-02 0.24970815E+02</pdfrwt>
<totfact> 0.18646412E+03</totfact>
</mgrwt>
</event>
<event>
 5    1  0.2968854E-003  0.1428350E+03  0.7818608E-02  0.1241984E+00
         11   -1    0    0    0    0  0.00000000000E+00  0.00000000000E+00  0.10004416630E+04  0.10004416630E+04  0.51100000000E-03 0.  1.
         -2   -1    0    0    0  501 -0.00000000000E+00 -0.00000000000E+00 -0.73088324005E+02  0.73088324050E+02  0.25500000000E-02 0. -1.
         11    1    1    2    0    0 -0.10457821135E+03 -0.13227616753E+03  0.62655442282E+03  0.64884823460E+03  0.51100000000E-03 0.  1.
         22    1    1    2    0    0  0.13214203350E+03  0.14789083671E+02  0.26871365913E+03  0.29981204882E+03  0.00000000000E+00 0. -1.
         -2    1    1    2    0  501 -0.27563822151E+02  0.11748708386E+03  0.32085257079E+02  0.12486970367E+03  0.25500000000E-02 0. -1.
<mgrwt>
<rscale>  0 0.12067717E+03</rscale>
<asrwt>0</asrwt>
<pdfrwt beam="1">  1       11 0.10000000E+01 0.14283495E+03</pdfrwt>
<pdfrwt beam="2">  1       -2 0.11249323E-01 0.12067717E+03</pdfrwt>
<totfact> 0.42100068E+02</totfact>
</mgrwt>
</event>
<event>
 5    1  0.2968854E-003  0.2616930E+03  0.7818608E-02  0.1355447E+00
         11   -1    0    0    0    0  0.00000000000E+00  0.00000000000E+00  0.10002923314E+04  0.10002923314E+04  0.51100000000E-03 0.  1.
          2   -1    0    0  501    0 -0.00000000000E+00 -0.00000000000E+00 -0.99158436658E+02  0.99158436691E+02  0.25500000000E-02 0.  1.
         11    1    1    2    0    0 -0.23572766481E+03  0.12501428485E+03  0.72193094194E+03  0.76966251584E+03  0.51100000000E-03 0.  1.
         22    1    1    2    0    0  0.19152495637E+02 -0.35145824489E+01 -0.55771761509E+01  0.20255252967E+02  0.00000000000E+00 0. -1.
          2    1    1    2  501    0  0.21657516917E+03 -0.12149970240E+03  0.18478012898E+03  0.30953299930E+03  0.25500000000E-02 0.  1.
<mgrwt>
<rscale>  0 0.71384619E+02</rscale>
<asrwt>0</asrwt>
<pdfrwt beam="1">  1       11 0.10000000E+01 0.26169299E+03</pdfrwt>
<pdfrwt beam="2">  1        2 0.15259603E-01 0.71384619E+02</pdfrwt>
<totfact> 0.44509100E+02</totfact>
</mgrwt>
</event>
<event>
 5    1  0.2968854E-003  0.2125351E+03  0.7818608E-02  0.1152442E+00
         11   -1    0    0    0    0  0.00000000000E+00  0.00000000000E+00  0.10000995894E+04  0.10000995894E+04  0.51100000000E-03 0.  1.
          2   -1    0    0  501    0 -0.00000000000E+00 -0.00000000000E+00 -0.79499172446E+03  0.79499172447E+03  0.25500000000E-02 0.  1.
         11    1    1    2    0    0 -0.92360736715E+02  0.14711311970E+02  0.36965314193E+03  0.38130089657E+03  0.51100000000E-03 0.  1.
         22    1    1    2    0    0 -0.73468039911E+02  0.91320310507E+02  0.60665259320E+03  0.61787079623E+03  0.00000000000E+00 0. -1.
          2    1    1    2  501    0  0.16582877663E+03 -0.10603162248E+03 -0.77119787022E+03  0.79591962104E+03  0.25500000000E-02 0.  1.
<mgrwt>
<rscale>  0 0.19682959E+03</rscale>
<asrwt>0</asrwt>
<pdfrwt beam="1">  1       11 0.10000000E+01 0.21253513E+03</pdfrwt>
<pdfrwt beam="2">  1        2 0.12231860E+00 0.19682959E+03</pdfrwt>
<totfact> 0.45190269E+01</totfact>
</mgrwt>
</event>
<event>
 5    1  0.2968854E-003  0.1402388E+03  0.7818608E-02  0.1213008E+00
         11   -1    0    0    0    0  0.00000000000E+00  0.00000000000E+00  0.10001160902E+04  0.10001160902E+04  0.51100000000E-03 0. -1.
          2   -1    0    0  501    0 -0.00000000000E+00 -0.00000000000E+00 -0.74854367861E+03  0.74854367862E+03  0.25500000000E-02 0.  1.
         11    1    1    2    0    0 -0.11595415595E+03  0.12219100537E+03  0.92585917898E+03  0.94105856745E+03  0.51100000000E-03 0. -1.
         22    1    1    2    0    0  0.18953372619E+02 -0.21188751986E+02  0.56643350274E+02  0.63377146311E+02  0.00000000000E+00 0. -1.
          2    1    1    2  501    0  0.97000783327E+02 -0.10100225339E+03 -0.73093011768E+03  0.74422405504E+03  0.25500000000E-02 0.  1.
<mgrwt>
<rscale>  0 0.14023876E+03</rscale>
<asrwt>0</asrwt>
<pdfrwt beam="1">  1       11 0.10000000E+01 0.28428745E+02</pdfrwt>
<pdfrwt beam="2">  1        2 0.11517393E+00 0.14023876E+03</pdfrwt>
<totfact> 0.49262501E+01</totfact>
</mgrwt>
</event>
<event>
 5    1  0.2968854E-003  0.9653913E+02  0.7818608E-02  0.1287747E+00
         11   -1    0    0    0    0  0.00000000000E+00  0.00000000000E+00  0.10003802138E+04  0.10003802138E+04  0.51100000000E-03 0. -1.
          2   -1    0    0  501    0 -0.00000000000E+00 -0.00000000000E+00 -0.13921582846E+02  0.13921583080E+02  0.25500000000E-02 0. -1.
         11    1    1    2    0    0  0.37610647861E+01  0.37118822726E+02  0.20271481676E+03  0.20611950306E+03  0.51100000000E-03 0. -1.
         22    1    1    2    0    0 -0.86722272516E+02  0.26311262085E+02  0.42457178067E+03  0.43413619062E+03  0.00000000000E+00 0. -1.
          2    1    1    2  501    0  0.82961207729E+02 -0.63430084811E+02  0.35917203355E+03  0.37404610323E+03  0.25500000000E-02 0. -1.
<mgrwt>
<rscale>  0 0.96539135E+02</rscale>
<asrwt>0</asrwt>
<pdfrwt beam="1">  1       11 0.10000000E+01 0.37308881E+02</pdfrwt>
<pdfrwt beam="2">  1        2 0.21425963E-02 0.96539135E+02</pdfrwt>
<totfact> 0.54621413E+03</totfact>
</mgrwt>
</event>
<event>
 5    1  0.2968854E-003  0.1642782E+03  0.7818608E-02  0.1183950E+00
         11   -1    0    0    0    0  0.00000000000E+00  0.00000000000E+00  0.10001688810E+04  0.10001688810E+04  0.51100000000E-03 0. -1.
         -2   -1    0    0    0  501 -0.00000000000E+00 -0.00000000000E+00 -0.67360792520E+02  0.67360792569E+02  0.25500000000E-02 0.  1.
         11    1    1    2    0    0 -0.24907091194E+02  0.17094988895E+02  0.74444568454E+02  0.80340497942E+02  0.51100000000E-03 0. -1.
         22    1    1    2    0    0 -0.10914773830E+02 -0.17587316137E+03  0.79207609307E+03  0.81144010154E+03  0.00000000000E+00 0. -1.
         -2    1    1    2    0  501  0.35821865024E+02  0.15877817248E+03  0.66287426983E+02  0.17574907411E+03  0.25500000000E-02 0.  1.
<mgrwt>
<rscale>  0 0.16427825E+03</rscale>
<asrwt>0</asrwt>
<pdfrwt beam="1">  1       11 0.10000000E+01 0.30209301E+02</pdfrwt>
<pdfrwt beam="2">  1       -2 0.10364949E-01 0.16427825E+03</pdfrwt>
<totfact> 0.48780172E+02</totfact>
</mgrwt>
</event>
<event>
 5    1  0.2968854E-003  0.1172442E+03  0.7818608E-02  0.1247714E+00
         11   -1    0    0    0    0  0.00000000000E+00  0.00000000000E+00  0.10003218471E+04  0.10003218471E+04  0.51100000000E-03 0. -1.
          2   -1    0    0  501    0 -0.00000000000E+00 -0.00000000000E+00 -0.84185181633E+02  0.84185181672E+02  0.25500000000E-02 0. -1.
         11    1    1    2    0    0 -0.26891883435E+02  0.36669114158E+02  0.58149674224E+02  0.73818574494E+02  0.51100000000E-03 0. -1.
         22    1    1    2    0    0  0.80304153652E+01 -0.15072673836E+03  0.88013093649E+03  0.89298012441E+03  0.00000000000E+00 0. -1.
          2    1    1    2  501    0  0.18861468069E+02  0.11405762420E+03 -0.22143945199E+02  0.11770832991E+03  0.25500000000E-02 0. -1.
<mgrwt>
<rscale>  0 0.11724423E+03</rscale>
<asrwt>0</asrwt>
<pdfrwt beam="1">  1       11 0.10000000E+01 0.45473062E+02</pdfrwt>
<pdfrwt beam="2">  1        2 0.12955734E-01 0.11724423E+03</pdfrwt>
<totfact> 0.55221892E+02</totfact>
</mgrwt>
</event>
<event>
 5    1  0.2968854E-003  0.3410118E+03  0.7818608E-02  0.1119526E+00
         11   -1    0    0    0    0  0.00000000000E+00  0.00000000000E+00  0.10003394603E+04  0.10003394603E+04  0.51100000000E-03 0.  1.
          2   -1    0    0  501    0 -0.00000000000E+00 -0.00000000000E+00 -0.16203001246E+04  0.16203001246E+04  0.25500000000E-02 0.  1.
         11    1    1    2    0    0  0.79587093598E+02  0.25606454729E+03  0.33795943958E+03  0.43141597171E+03  0.51100000000E-03 0.  1.
         22    1    1    2    0    0 -0.18343901589E+03 -0.47287584428E+03  0.49964076751E+03  0.71197073902E+03  0.00000000000E+00 0.  1.
          2    1    1    2  501    0  0.10385192230E+03  0.21681129699E+03 -0.14575608715E+04  0.14772528742E+04  0.25500000000E-02 0.  1.
<mgrwt>
<rscale>  0 0.24040042E+03</rscale>
<asrwt>0</asrwt>
<pdfrwt beam="1">  1       11 0.10000000E+01 0.34101185E+03</pdfrwt>
<pdfrwt beam="2">  1        2 0.24936155E+00 0.24040042E+03</pdfrwt>
<totfact> 0.14892297E+01</totfact>
</mgrwt>
</event>
<event>
 5    1  0.2968854E-003  0.2027429E+03  0.7818608E-02  0.1151915E+00
         11   -1    0    0    0    0  0.00000000000E+00  0.00000000000E+00  0.10002495674E+04  0.10002495674E+04  0.51100000000E-03 0. -1.
         -2   -1    0    0    0  501 -0.00000000000E+00 -0.00000000000E+00 -0.40597717178E+02  0.40597717258E+02  0.25500000000E-02 0. -1.
         11    1    1    2    0    0  0.42937951964E+02 -0.14899595053E+03  0.36777545430E+03  0.39912685425E+03  0.51100000000E-03 0. -1.
         22    1    1    2    0    0  0.20655406625E+02 -0.37924230038E+02  0.56616033486E+02  0.71205816438E+02  0.00000000000E+00 0. -1.
         -2    1    1    2    0  501 -0.63593358589E+02  0.18692018056E+03  0.53526036239E+03  0.57051461393E+03  0.25500000000E-02 0. -1.
<mgrwt>
<rscale>  0 0.19744181E+03</rscale>
<asrwt>0</asrwt>
<pdfrwt beam="1">  1       11 0.10000000E+01 0.20274291E+03</pdfrwt>
<pdfrwt beam="2">  1       -2 0.62473612E-02 0.19744181E+03</pdfrwt>
<totfact> 0.10854167E+03</totfact>
</mgrwt>
</event>
<event>
 5    1  0.2968854E-003  0.2314706E+03  0.7818608E-02  0.1127217E+00
         11   -1    0    0    0    0  0.00000000000E+00  0.00000000000E+00  0.10001362800E+04  0.10001362800E+04  0.51100000000E-03 0. -1.
          2   -1    0    0  501    0 -0.00000000000E+00 -0.00000000000E+00 -0.74471760940E+02  0.74471760983E+02  0.25500000000E-02 0. -1.
         11    1    1    2    0    0 -0.60678949460E+02 -0.20901793470E+03  0.69171133973E+03  0.72514481964E+03  0.51100000000E-03 0. -1.
         22    1    1    2    0    0 -0.89341544181E+01 -0.93361442333E+01  0.60974946742E+02  0.62329181244E+02  0.00000000000E+00 0.  1.
          2    1    1    2  501    0  0.69613103878E+02  0.21835407893E+03  0.17297823254E+03  0.28713404005E+03  0.25500000000E-02 0. -1.
<mgrwt>
<rscale>  0 0.22918222E+03</rscale>
<asrwt>0</asrwt>
<pdfrwt beam="1">  1       11 0.10000000E+01 0.23147064E+03</pdfrwt>
<pdfrwt beam="2">  1        2 0.11458755E-01 0.22918222E+03</pdfrwt>
<totfact> 0.66096399E+02</totfact>
</mgrwt>
</event>
<event>
 5    1  0.2968854E-003  0.1644542E+03  0.7818608E-02  0.1316669E+00
         11   -1    0    0    0    0  0.00000000000E+00  0.00000000000E+00  0.10003086127E+04  0.10003086127E+04  0.51100000000E-03 0. -1.
          2   -1    0    0  501    0 -0.00000000000E+00 -0.00000000000E+00 -0.14675748902E+03  0.14675748904E+03  0.25500000000E-02 0. -1.
         11    1    1    2    0    0  0.30887607333E+02 -0.14243057019E+03  0.56556182590E+03  0.58403826119E+03  0.51100000000E-03 0. -1.
         22    1    1    2    0    0 -0.53917340602E+02  0.22376175884E+03  0.37609205182E+03  0.44093268849E+03  0.00000000000E+00 0. -1.
          2    1    1    2  501    0  0.23029733270E+02 -0.81331188657E+02 -0.88102754087E+02  0.12209515202E+03  0.25500000000E-02 0. -1.
<mgrwt>
<rscale>  0 0.84528876E+02</rscale>
<asrwt>0</asrwt>
<pdfrwt beam="1">  1       11 0.10000000E+01 0.16445419E+03</pdfrwt>
<pdfrwt beam="2">  1        2 0.22585042E-01 0.84528876E+02</pdfrwt>
<totfact> 0.28881158E+02</totfact>
</mgrwt>
</event>
<event>
 5    1  0.2968854E-003  0.2406584E+03  0.7818608E-02  0.1119355E+00
         11   -1    0    0    0    0  0.00000000000E+00  0.00000000000E+00  0.10005664287E+04  0.10005664287E+04  0.51100000000E-03 0.  1.
          2   -1    0    0  501    0 -0.00000000000E+00 -0.00000000000E+00 -0.75308818195E+02  0.75308818238E+02  0.25500000000E-02 0.  1.
         11    1    1    2    0    0 -0.10030452730E+02  0.23911712506E+03  0.64752287203E+03  0.69033577285E+03  0.51100000000E-03 0.  1.
         22    1    1    2    0    0 -0.13897425179E+02  0.10129476566E+01  0.56375575971E+02  0.58072110824E+02  0.00000000000E+00 0. -1.
          2    1    1    2  501    0  0.23927877909E+02 -0.24013007272E+03  0.22135916247E+03  0.32746736323E+03  0.25500000000E-02 0.  1.
<mgrwt>
<rscale>  0 0.24065836E+03</rscale>
<asrwt>0</asrwt>
<pdfrwt beam="1">  1       11 0.10000000E+01 0.13934292E+02</pdfrwt>
<pdfrwt beam="2">  1        2 0.11592534E-01 0.24065836E+03</pdfrwt>
<totfact> 0.65303534E+02</totfact>
</mgrwt>
</event>
<event>
 5    1  0.2968854E-003  0.3585460E+02  0.7818608E-02  0.1628769E+00
         11   -1    0    0    0    0  0.00000000000E+00  0.00000000000E+00  0.10002497850E+04  0.10002497850E+04  0.51100000000E-03 0. -1.
          2   -1    0    0  501    0 -0.00000000000E+00 -0.00000000000E+00 -0.41569313155E+01  0.41569320976E+01  0.25500000000E-02 0. -1.
         11    1    1    2    0    0 -0.40161741521E+02  0.33971767605E+02  0.27015266939E+03  0.27522629099E+03  0.51100000000E-03 0. -1.
         22    1    1    2    0    0  0.19215432281E+02 -0.83119618619E+01  0.91019760168E+02  0.93396564652E+02  0.00000000000E+00 0. -1.
          2    1    1    2  501    0  0.20946309240E+02 -0.25659805743E+02  0.63492042417E+03  0.63578386150E+03  0.25500000000E-02 0. -1.
<mgrwt>
<rscale>  0 0.27398105E+02</rscale>
<asrwt>0</asrwt>
<pdfrwt beam="1">  1       11 0.10000000E+01 0.35854599E+02</pdfrwt>
<pdfrwt beam="2">  1        2 0.63968768E-03 0.27398105E+02</pdfrwt>
<totfact> 0.22031867E+04</totfact>
</mgrwt>
</event>
<event>
 5    1  0.2968854E-003  0.4339087E+02  0.7818608E-02  0.1484645E+00
         11   -1    0    0    0    0  0.00000000000E+00  0.00000000000E+00  0.10000284208E+04  0.10000284208E+04  0.51100000000E-03 0. -1.
          2   -1    0    0  501    0 -0.00000000000E+00 -0.00000000000E+00 -0.51846128985E+01  0.51846135256E+01  0.25500000000E-02 0. -1.
         11    1    1    2    0    0  0.99657994254E+01  0.24510866868E+01  0.10339135096E+02  0.14567865284E+02  0.51100000000E-03 0. -1.
         22    1    1    2    0    0  0.39167657987E+02 -0.14374741833E+02  0.18969745744E+03  0.19423147015E+03  0.00000000000E+00 0. -1.
          2    1    1    2  501    0 -0.49133457412E+02  0.11923655146E+02  0.79480721541E+03  0.79641369894E+03  0.25500000000E-02 0. -1.
<mgrwt>
<rscale>  0 0.43390873E+02</rscale>
<asrwt>0</asrwt>
<pdfrwt beam="1">  1       11 0.10000000E+01 0.10262801E+02</pdfrwt>
<pdfrwt beam="2">  1        2 0.79765545E-03 0.43390873E+02</pdfrwt>
<totfact> 0.18172100E+04</totfact>
</mgrwt>
</event>
<event>
 5    1  0.2968854E-003  0.2607670E+03  0.7818608E-02  0.1106683E+00
         11   -1    0    0    0    0  0.00000000000E+00  0.00000000000E+00  0.99979171039E+03  0.99979171039E+03  0.51100000000E-03 0. -1.
          2   -1    0    0  501    0 -0.00000000000E+00 -0.00000000000E+00 -0.40285891216E+03  0.40285891217E+03  0.25500000000E-02 0. -1.
         11    1    1    2    0    0  0.50990845445E+02  0.17827115955E+03  0.74098711920E+03  0.76383413348E+03  0.51100000000E-03 0. -1.
         22    1    1    2    0    0 -0.50670591620E+02  0.87590255040E+02  0.18796393511E+03  0.21347131548E+03  0.00000000000E+00 0.  1.
          2    1    1    2  501    0 -0.32025382414E+00 -0.26586141459E+03 -0.33201825608E+03  0.42534517360E+03  0.25500000000E-02 0. -1.
<mgrwt>
<rscale>  0 0.26076703E+03</rscale>
<asrwt>0</asrwt>
<pdfrwt beam="1">  1       11 0.10000000E+01 0.10119072E+03</pdfrwt>
<pdfrwt beam="2">  1        2 0.61965383E-01 0.26076703E+03</pdfrwt>
<totfact> 0.98565262E+01</totfact>
</mgrwt>
</event>
<event>
 5    1  0.2968854E-003  0.1001206E+03  0.7818608E-02  0.1301697E+00
         11   -1    0    0    0    0  0.00000000000E+00  0.00000000000E+00  0.10002696113E+04  0.10002696113E+04  0.51100000000E-03 0. -1.
          2   -1    0    0  501    0 -0.00000000000E+00 -0.00000000000E+00 -0.11398422396E+02  0.11398422681E+02  0.25500000000E-02 0. -1.
         11    1    1    2    0    0 -0.21210322465E+02 -0.69079085373E+02  0.22634171697E+03  0.23759707628E+03  0.51100000000E-03 0. -1.
         22    1    1    2    0    0  0.16434815680E+02 -0.21273433225E+02  0.60099510215E+02  0.65837779851E+02  0.00000000000E+00 0. -1.
          2    1    1    2  501    0  0.47755067854E+01  0.90352518599E+02  0.70242996177E+03  0.70823317790E+03  0.25500000000E-02 0. -1.
<mgrwt>
<rscale>  0 0.90478633E+02</rscale>
<asrwt>0</asrwt>
<pdfrwt beam="1">  1       11 0.10000000E+01 0.10012060E+03</pdfrwt>
<pdfrwt beam="2">  1        2 0.17540762E-02 0.90478633E+02</pdfrwt>
<totfact> 0.70974049E+03</totfact>
</mgrwt>
</event>
<event>
 5    1  0.2968854E-003  0.2170178E+03  0.7818608E-02  0.1422051E+00
         11   -1    0    0    0    0  0.00000000000E+00  0.00000000000E+00  0.10001880164E+04  0.10001880164E+04  0.51100000000E-03 0.  1.
          2   -1    0    0  501    0 -0.00000000000E+00 -0.00000000000E+00 -0.62200678097E+02  0.62200678149E+02  0.25500000000E-02 0.  1.
         11    1    1    2    0    0  0.21485492286E+03 -0.35073602258E+02  0.23747482011E+03  0.32216003110E+03  0.51100000000E-03 0.  1.
         22    1    1    2    0    0 -0.34451314146E+01 -0.13292326891E+02  0.11564254393E+02  0.17952349827E+02  0.00000000000E+00 0. -1.
          2    1    1    2  501    0 -0.21140979144E+03  0.48365929150E+02  0.68894826382E+03  0.72227631364E+03  0.25500000000E-02 0.  1.
<mgrwt>
<rscale>  0 0.54589230E+02</rscale>
<asrwt>0</asrwt>
<pdfrwt beam="1">  1       11 0.10000000E+01 0.21701775E+03</pdfrwt>
<pdfrwt beam="2">  1        2 0.95711340E-02 0.54589230E+02</pdfrwt>
<totfact> 0.75583961E+02</totfact>
</mgrwt>
</event>
<event>
 5    1  0.2968854E-003  0.2084402E+03  0.7818608E-02  0.1147916E+00
         11   -1    0    0    0    0  0.00000000000E+00  0.00000000000E+00  0.10000550518E+04  0.10000550518E+04  0.51100000000E-03 0. -1.
         -2   -1    0    0    0  501 -0.00000000000E+00 -0.00000000000E+00 -0.50300254061E+02  0.50300254126E+02  0.25500000000E-02 0.  1.
         11    1    1    2    0    0 -0.10371173410E+03 -0.15042346679E+03  0.65290668240E+03  0.67799002874E+03  0.51100000000E-03 0. -1.
         22    1    1    2    0    0 -0.19354550652E+02 -0.99811708105E+01  0.39434817669E+02  0.45048054856E+02  0.00000000000E+00 0.  1.
         -2    1    1    2    0  501  0.12306628475E+03  0.16040463760E+03  0.25741329765E+03  0.32731722231E+03  0.25500000000E-02 0.  1.
<mgrwt>
<rscale>  0 0.20217556E+03</rscale>
<asrwt>0</asrwt>
<pdfrwt beam="1">  1       11 0.10000000E+01 0.20844020E+03</pdfrwt>
<pdfrwt beam="2">  1       -2 0.77389264E-02 0.20217556E+03</pdfrwt>
<totfact> 0.78105482E+02</totfact>
</mgrwt>
</event>
<event>
 5    1  0.2968854E-003  0.2254467E+03  0.7818608E-02  0.1137596E+00
         11   -1    0    0    0    0  0.00000000000E+00  0.00000000000E+00  0.10001065425E+04  0.10001065425E+04  0.51100000000E-03 0. -1.
          2   -1    0    0  501    0 -0.00000000000E+00 -0.00000000000E+00 -0.27535097087E+03  0.27535097089E+03  0.25500000000E-02 0. -1.
         11    1    1    2    0    0  0.15377571397E+03 -0.71450629198E+02  0.64562682340E+03  0.66752240240E+03  0.51100000000E-03 0. -1.
         22    1    1    2    0    0  0.52152999667E+02  0.93378391302E+01  0.29705226464E+03  0.30174025012E+03  0.00000000000E+00 0. -1.
          2    1    1    2  501    0 -0.20592871364E+03  0.62112790068E+02 -0.21792351643E+03  0.30619486085E+03  0.25500000000E-02 0. -1.
<mgrwt>
<rscale>  0 0.21509215E+03</rscale>
<asrwt>0</asrwt>
<pdfrwt beam="1">  1       11 0.10000000E+01 0.22544673E+03</pdfrwt>
<pdfrwt beam="2">  1        2 0.42366200E-01 0.21509215E+03</pdfrwt>
<totfact> 0.14873282E+02</totfact>
</mgrwt>
</event>
<event>
 5    1  0.2968854E-003  0.1156227E+03  0.7818608E-02  0.1413102E+00
         11   -1    0    0    0    0  0.00000000000E+00  0.00000000000E+00  0.10000909330E+04  0.10000909330E+04  0.51100000000E-03 0.  1.
          2   -1    0    0  501    0 -0.00000000000E+00 -0.00000000000E+00 -0.23084623577E+02  0.23084623717E+02  0.25500000000E-02 0.  1.
         11    1    1    2    0    0 -0.91112698964E+02 -0.86122628207E+02  0.58609537625E+03  0.59935500420E+03  0.51100000000E-03 0.  1.
         22    1    1    2    0    0  0.36318619004E+02  0.99931399027E+02  0.23332234920E+03  0.25640718639E+03  0.00000000000E+00 0. -1.
          2    1    1    2  501    0  0.54794079960E+02 -0.13808770820E+02  0.15758858395E+03  0.16741336609E+03  0.25500000000E-02 0.  1.
<mgrwt>
<rscale>  0 0.56507286E+02</rscale>
<asrwt>0</asrwt>
<pdfrwt beam="1">  1       11 0.10000000E+01 0.11562266E+03</pdfrwt>
<pdfrwt beam="2">  1        2 0.35518034E-02 0.56507286E+02</pdfrwt>
<totfact> 0.26214331E+03</totfact>
</mgrwt>
</event>
<event>
 5    1  0.2968854E-003  0.1184940E+03  0.7818608E-02  0.1245602E+00
         11   -1    0    0    0    0  0.00000000000E+00  0.00000000000E+00  0.10001946747E+04  0.10001946747E+04  0.51100000000E-03 0.  1.
         -2   -1    0    0    0  501 -0.00000000000E+00 -0.00000000000E+00 -0.62319072650E+02  0.62319072702E+02  0.25500000000E-02 0. -1.
         11    1    1    2    0    0  0.16307491252E+01  0.15340418211E+03  0.52203167344E+03  0.54410713146E+03  0.51100000000E-03 0.  1.
         22    1    1    2    0    0  0.65382937647E+02 -0.57684609852E+02  0.38881941726E+03  0.39847582359E+03  0.00000000000E+00 0.  1.
         -2    1    1    2    0  501 -0.67013686773E+02 -0.95719572255E+02  0.27024511318E+02  0.11993079232E+03  0.25500000000E-02 0. -1.
<mgrwt>
<rscale>  0 0.11849404E+03</rscale>
<asrwt>0</asrwt>
<pdfrwt beam="1">  1       11 0.10000000E+01 0.87191988E+02</pdfrwt>
<pdfrwt beam="2">  1       -2 0.95894158E-02 0.11849404E+03</pdfrwt>
<totfact> 0.54043954E+02</totfact>
</mgrwt>
</event>
<event>
 5    1  0.2968854E-003  0.7114532E+02  0.7818608E-02  0.1560097E+00
         11   -1    0    0    0    0  0.00000000000E+00  0.00000000000E+00  0.10002423959E+04  0.10002423959E+04  0.51100000000E-03 0. -1.
          2   -1    0    0  501    0 -0.00000000000E+00 -0.00000000000E+00 -0.79563490831E+01  0.79563494918E+01  0.25500000000E-02 0. -1.
         11    1    1    2    0    0  0.55683105417E+02  0.53586371701E+02  0.29413479425E+03  0.30411738630E+03  0.51100000000E-03 0. -1.
         22    1    1    2    0    0 -0.15727431207E+02  0.29378094124E+01  0.56954027830E+02  0.59158635064E+02  0.00000000000E+00 0. -1.
          2    1    1    2  501    0 -0.39955674210E+02 -0.56524181113E+02  0.64119722475E+03  0.64492272404E+03  0.25500000000E-02 0. -1.
<mgrwt>
<rscale>  0 0.33738499E+02</rscale>
<asrwt>0</asrwt>
<pdfrwt beam="1">  1       11 0.10000000E+01 0.71145319E+02</pdfrwt>
<pdfrwt beam="2">  1        2 0.12243504E-02 0.33738499E+02</pdfrwt>
<totfact> 0.97817038E+03</totfact>
</mgrwt>
</event>
<event>
 5    1  0.2968854E-003  0.4253633E+03  0.7818608E-02  0.1046825E+00
         11   -1    0    0    0    0  0.00000000000E+00  0.00000000000E+00  0.10004959530E+04  0.10004959530E+04  0.51100000000E-03 0. -1.
          2   -1    0    0  501    0 -0.00000000000E+00 -0.00000000000E+00 -0.57791359455E+03  0.57791359455E+03  0.25500000000E-02 0. -1.
         11    1    1    2    0    0 -0.17394288733E+03  0.11810508766E+03  0.42442463443E+03  0.47364671444E+03  0.51100000000E-03 0. -1.
         22    1    1    2    0    0 -0.36332916185E+02  0.21192610761E+03  0.45498984425E+03  0.50323802942E+03  0.00000000000E+00 0. -1.
          2    1    1    2  501    0  0.21027580352E+03 -0.33003119527E+03 -0.45683212022E+03  0.60152480370E+03  0.25500000000E-02 0. -1.
<mgrwt>
<rscale>  0 0.39132659E+03</rscale>
<asrwt>0</asrwt>
<pdfrwt beam="1">  1       11 0.10000000E+01 0.42536335E+03</pdfrwt>
<pdfrwt beam="2">  1        2 0.88953876E-01 0.39132659E+03</pdfrwt>
<totfact> 0.65166291E+01</totfact>
</mgrwt>
</event>
<event>
 5    1  0.2968854E-003  0.1037357E+03  0.7818608E-02  0.1272631E+00
         11   -1    0    0    0    0  0.00000000000E+00  0.00000000000E+00  0.10007085999E+04  0.10007085999E+04  0.51100000000E-03 0.  1.
          2   -1    0    0  501    0 -0.00000000000E+00 -0.00000000000E+00 -0.20717606950E+02  0.20717607107E+02  0.25500000000E-02 0.  1.
         11    1    1    2    0    0 -0.63068461092E+02  0.23809166735E+01  0.33100506393E+03  0.33696832477E+03  0.51100000000E-03 0.  1.
         22    1    1    2    0    0 -0.20075712973E+02 -0.92470455206E+02  0.29964342815E+03  0.31422922106E+03  0.00000000000E+00 0.  1.
          2    1    1    2  501    0  0.83144174065E+02  0.90089538533E+02  0.34934250085E+03  0.37022866115E+03  0.25500000000E-02 0.  1.
<mgrwt>
<rscale>  0 0.10373570E+03</rscale>
<asrwt>0</asrwt>
<pdfrwt beam="1">  1       11 0.10000000E+01 0.63113386E+02</pdfrwt>
<pdfrwt beam="2">  1        2 0.31895826E-02 0.10373570E+03</pdfrwt>
<totfact> 0.32324009E+03</totfact>
</mgrwt>
</event>
<event>
 5    1  0.2968854E-003  0.5824680E+02  0.7818608E-02  0.1415783E+00
         11   -1    0    0    0    0  0.00000000000E+00  0.00000000000E+00  0.10001844354E+04  0.10001844354E+04  0.51100000000E-03 0. -1.
          2   -1    0    0  501    0 -0.00000000000E+00 -0.00000000000E+00 -0.40810042246E+01  0.40810050213E+01  0.25500000000E-02 0. -1.
         11    1    1    2    0    0  0.28082857966E+02 -0.14256762647E+02  0.12715162073E+03  0.13099403363E+03  0.51100000000E-03 0. -1.
         22    1    1    2    0    0  0.16066637246E+02 -0.20068549408E+02  0.15354853184E+03  0.15568569342E+03  0.00000000000E+00 0. -1.
          2    1    1    2  501    0 -0.44149495211E+02  0.34325312056E+02  0.71540327862E+03  0.71758571337E+03  0.25500000000E-02 0. -1.
<mgrwt>
<rscale>  0 0.55923206E+02</rscale>
<asrwt>0</asrwt>
<pdfrwt beam="1">  1       11 0.10000000E+01 0.58246805E+02</pdfrwt>
<pdfrwt beam="2">  1        2 0.62796264E-03 0.55923206E+02</pdfrwt>
<totfact> 0.26391568E+04</totfact>
</mgrwt>
</event>
<event>
 5    1  0.2968854E-003  0.1437016E+03  0.7818608E-02  0.1208433E+00
         11   -1    0    0    0    0  0.00000000000E+00  0.00000000000E+00  0.10000828211E+04  0.10000828211E+04  0.51100000000E-03 0.  1.
         -2   -1    0    0    0  501 -0.00000000000E+00 -0.00000000000E+00 -0.46140723416E+02  0.46140723487E+02  0.25500000000E-02 0. -1.
         11    1    1    2    0    0 -0.13703983948E+02 -0.44617046392E+02  0.19668547090E+02  0.50649104135E+02  0.51100000000E-03 0.  1.
         22    1    1    2    0    0  0.13872122938E+03 -0.30651906952E+02  0.73488042566E+03  0.74848671258E+03  0.00000000000E+00 0.  1.
         -2    1    1    2    0  501 -0.12501724543E+03  0.75268953345E+02  0.19939312497E+03  0.24708772791E+03  0.25500000000E-02 0. -1.
<mgrwt>
<rscale>  0 0.14370164E+03</rscale>
<asrwt>0</asrwt>
<pdfrwt beam="1">  1       11 0.10000000E+01 0.46674213E+02</pdfrwt>
<pdfrwt beam="2">  1       -2 0.70991605E-02 0.14370164E+03</pdfrwt>
<totfact> 0.87191591E+02</totfact>
</mgrwt>
</event>
<event>
 5    1  0.2968854E-003  0.7437307E+02  0.7818608E-02  0.1465568E+00
         11   -1    0    0    0    0  0.00000000000E+00  0.00000000000E+00  0.10004116153E+04  0.10004116153E+04  0.51100000000E-03 0.  1.
          2   -1    0    0  501    0 -0.00000000000E+00 -0.00000000000E+00 -0.86098749991E+01  0.86098753768E+01  0.25500000000E-02 0.  1.
         11    1    1    2    0    0  0.58750983744E+02 -0.38303197042E+02  0.27528206472E+03  0.28407574369E+03  0.51100000000E-03 0.  1.
         22    1    1    2    0    0  0.18466741163E+02  0.22351965573E+02  0.13304231744E+03  0.13616493353E+03  0.00000000000E+00 0.  1.
          2    1    1    2  501    0 -0.77217724908E+02  0.15951231468E+02  0.58347735809E+03  0.58878081341E+03  0.25500000000E-02 0.  1.
<mgrwt>
<rscale>  0 0.46436457E+02</rscale>
<asrwt>0</asrwt>
<pdfrwt beam="1">  1       11 0.10000000E+01 0.74373069E+02</pdfrwt>
<pdfrwt beam="2">  1        2 0.13251414E-02 0.46436457E+02</pdfrwt>
<totfact> 0.93376859E+03</totfact>
</mgrwt>
</event>
<event>
 5    1  0.2968854E-003  0.1171121E+03  0.7818608E-02  0.1247939E+00
         11   -1    0    0    0    0  0.00000000000E+00  0.00000000000E+00  0.10003202976E+04  0.10003202976E+04  0.51100000000E-03 0.  1.
          2   -1    0    0  501    0 -0.00000000000E+00 -0.00000000000E+00 -0.34968360053E+02  0.34968360146E+02  0.25500000000E-02 0.  1.
         11    1    1    2    0    0  0.16515502029E+03  0.93788314595E+01  0.44809537366E+03  0.47765427571E+03  0.51100000000E-03 0.  1.
         22    1    1    2    0    0 -0.63518729716E+02 -0.15830190567E+02  0.38595363498E+03  0.39146574858E+03  0.00000000000E+00 0.  1.
          2    1    1    2  501    0 -0.10163629057E+03  0.64513591074E+01  0.13130292886E+03  0.16616863341E+03  0.25500000000E-02 0.  1.
<mgrwt>
<rscale>  0 0.11711213E+03</rscale>
<asrwt>0</asrwt>
<pdfrwt beam="1">  1       11 0.10000000E+01 0.65461622E+02</pdfrwt>
<pdfrwt beam="2">  1        2 0.53814707E-02 0.11711213E+03</pdfrwt>
<totfact> 0.16455015E+03</totfact>
</mgrwt>
</event>
<event>
 5    1  0.2968854E-003  0.1629306E+03  0.7818608E-02  0.1185427E+00
         11   -1    0    0    0    0  0.00000000000E+00  0.00000000000E+00  0.10002565226E+04  0.10002565226E+04  0.51100000000E-03 0.  1.
          2   -1    0    0  501    0 -0.00000000000E+00 -0.00000000000E+00 -0.54355268786E+02  0.54355268846E+02  0.25500000000E-02 0.  1.
         11    1    1    2    0    0 -0.52564990369E+02 -0.14870989010E+03  0.79581473887E+03  0.81129452619E+03  0.51100000000E-03 0.  1.
         22    1    1    2    0    0  0.10413971601E+02 -0.97431973505E+01  0.48224220110E+02  0.50288727408E+02  0.00000000000E+00 0.  1.
          2    1    1    2  501    0  0.42151018768E+02  0.15845308745E+03  0.10186229481E+03  0.19302853783E+03  0.25500000000E-02 0.  1.
<mgrwt>
<rscale>  0 0.16293057E+03</rscale>
<asrwt>0</asrwt>
<pdfrwt beam="1">  1       11 0.10000000E+01 0.14261161E+02</pdfrwt>
<pdfrwt beam="2">  1        2 0.83644939E-02 0.16293057E+03</pdfrwt>
<totfact> 0.95971219E+02</totfact>
</mgrwt>
</event>
<event>
 5    1  0.2968854E-003  0.1910791E+03  0.7818608E-02  0.1174905E+00
         11   -1    0    0    0    0  0.00000000000E+00  0.00000000000E+00  0.10001531530E+04  0.10001531530E+04  0.51100000000E-03 0. -1.
          2   -1    0    0  501    0 -0.00000000000E+00 -0.00000000000E+00 -0.55965534246E+02  0.55965534304E+02  0.25500000000E-02 0. -1.
         11    1    1    2    0    0 -0.34847687670E+02  0.55007663677E+02  0.21586619350E+03  0.22547376321E+03  0.51100000000E-03 0. -1.
         22    1    1    2    0    0  0.34294924037E+02  0.11784458846E+03  0.60744496338E+03  0.61971999514E+03  0.00000000000E+00 0. -1.
          2    1    1    2  501    0  0.55276363314E+00 -0.17285225214E+03  0.12087646190E+03  0.21092492898E+03  0.25500000000E-02 0. -1.
<mgrwt>
<rscale>  0 0.17285314E+03</rscale>
<asrwt>0</asrwt>
<pdfrwt beam="1">  1       11 0.10000000E+01 0.19107911E+03</pdfrwt>
<pdfrwt beam="2">  1        2 0.86114006E-02 0.17285314E+03</pdfrwt>
<totfact> 0.92850418E+02</totfact>
</mgrwt>
</event>
<event>
 5    1  0.2968854E-003  0.6455647E+02  0.7818608E-02  0.1579232E+00
         11   -1    0    0    0    0  0.00000000000E+00  0.00000000000E+00  0.99969254136E+03  0.99969254136E+03  0.51100000000E-03 0. -1.
          2   -1    0    0  501    0 -0.00000000000E+00 -0.00000000000E+00 -0.73204028283E+01  0.73204032725E+01  0.25500000000E-02 0. -1.
         11    1    1    2    0    0 -0.36056935131E+02 -0.41873414380E+02  0.14377719717E+03  0.15403041203E+03  0.51100000000E-03 0. -1.
         22    1    1    2    0    0 -0.15571456856E+02 -0.14877367290E+01  0.85838389087E+02  0.87252006683E+02  0.00000000000E+00 0. -1.
          2    1    1    2  501    0  0.51628391988E+02  0.43361151109E+02  0.76275655227E+03  0.76573052592E+03  0.25500000000E-02 0. -1.
<mgrwt>
<rscale>  0 0.31777593E+02</rscale>
<asrwt>0</asrwt>
<pdfrwt beam="1">  1       11 0.10000000E+01 0.64556468E+02</pdfrwt>
<pdfrwt beam="2">  1        2 0.11258696E-02 0.31777593E+02</pdfrwt>
<totfact> 0.10796868E+04</totfact>
</mgrwt>
</event>
<event>
 5    1  0.2968854E-003  0.7044751E+02  0.7818608E-02  0.1369131E+00
         11   -1    0    0    0    0  0.00000000000E+00  0.00000000000E+00  0.10001509347E+04  0.10001509347E+04  0.51100000000E-03 0.  1.
          2   -1    0    0  501    0 -0.00000000000E+00 -0.00000000000E+00 -0.50429903897E+01  0.50429910344E+01  0.25500000000E-02 0.  1.
         11    1    1    2    0    0  0.27630043034E+02 -0.19863047683E+02  0.17676735796E+03  0.18001294059E+03  0.51100000000E-03 0.  1.
         22    1    1    2    0    0  0.36287274525E+02 -0.15517539235E+01  0.21008410363E+03  0.21320062108E+03  0.00000000000E+00 0.  1.
          2    1    1    2  501    0 -0.63917317558E+02  0.21414801606E+02  0.60825648277E+03  0.61198036410E+03  0.25500000000E-02 0.  1.
<mgrwt>
<rscale>  0 0.67409326E+02</rscale>
<asrwt>0</asrwt>
<pdfrwt beam="1">  1       11 0.10000000E+01 0.70447511E+02</pdfrwt>
<pdfrwt beam="2">  1        2 0.77596180E-03 0.67409326E+02</pdfrwt>
<totfact> 0.20516650E+04</totfact>
</mgrwt>
</event>
<event>
 5    1  0.2968854E-003  0.2054242E+03  0.7818608E-02  0.1147012E+00
         11   -1    0    0    0    0  0.00000000000E+00  0.00000000000E+00  0.10003532753E+04  0.10003532753E+04  0.51100000000E-03 0. -1.
          2   -1    0    0  501    0 -0.00000000000E+00 -0.00000000000E+00 -0.53598652725E+02  0.53598652786E+02  0.25500000000E-02 0. -1.
         11    1    1    2    0    0 -0.16441647229E+03  0.95889358843E+02  0.20242951254E+03  0.27785833269E+03  0.51100000000E-03 0. -1.
         22    1    1    2    0    0 -0.13766472989E+02  0.19265214288E+01  0.25045774839E+02  0.28644687128E+02  0.00000000000E+00 0. -1.
          2    1    1    2  501    0  0.17818294528E+03 -0.97815880272E+02  0.71927933524E+03  0.74744890831E+03  0.25500000000E-02 0. -1.
<mgrwt>
<rscale>  0 0.20326610E+03</rscale>
<asrwt>0</asrwt>
<pdfrwt beam="1">  1       11 0.10000000E+01 0.20542418E+03</pdfrwt>
<pdfrwt beam="2">  1        2 0.82488594E-02 0.20326610E+03</pdfrwt>
<totfact> 0.98944922E+02</totfact>
</mgrwt>
</event>
<event>
 5    1  0.2968854E-003  0.9243258E+02  0.7818608E-02  0.1414797E+00
         11   -1    0    0    0    0  0.00000000000E+00  0.00000000000E+00  0.10004637505E+04  0.10004637505E+04  0.51100000000E-03 0. -1.
         -2   -1    0    0    0  501 -0.00000000000E+00 -0.00000000000E+00 -0.98381034621E+02  0.98381034654E+02  0.25500000000E-02 0. -1.
         11    1    1    2    0    0 -0.10808372343E+03  0.25184348211E+02  0.58448565800E+03  0.59492842181E+03  0.51100000000E-03 0. -1.
         22    1    1    2    0    0  0.61149443969E+02 -0.55982879357E+02  0.39761738119E+03  0.40616858458E+03  0.00000000000E+00 0. -1.
         -2    1    1    2    0  501  0.46934279463E+02  0.30798531147E+02 -0.80020323295E+02  0.97747778779E+02  0.25500000000E-02 0. -1.
<mgrwt>
<rscale>  0 0.56137119E+02</rscale>
<asrwt>0</asrwt>
<pdfrwt beam="1">  1       11 0.10000000E+01 0.92432581E+02</pdfrwt>
<pdfrwt beam="2">  1       -2 0.15142562E-01 0.56137119E+02</pdfrwt>
<totfact> 0.25084327E+02</totfact>
</mgrwt>
</event>
<event>
 5    1  0.2968854E-003  0.2837479E+03  0.7818608E-02  0.1093659E+00
         11   -1    0    0    0    0  0.00000000000E+00  0.00000000000E+00  0.10003786323E+04  0.10003786323E+04  0.51100000000E-03 0.  1.
          2   -1    0    0  501    0 -0.00000000000E+00 -0.00000000000E+00 -0.28945696510E+03  0.28945696511E+03  0.25500000000E-02 0.  1.
         11    1    1    2    0    0  0.24314455325E+03  0.11784848180E+03  0.84108141455E+03  0.88341693686E+03  0.51100000000E-03 0.  1.
         22    1    1    2    0    0  0.13332313807E+01  0.28706244686E+02  0.58101286744E+02  0.64819638315E+02  0.00000000000E+00 0. -1.
          2    1    1    2  501    0 -0.24447778463E+03 -0.14655472649E+03 -0.18826103409E+03  0.34159902224E+03  0.25500000000E-02 0.  1.
<mgrwt>
<rscale>  0 0.28374792E+03</rscale>
<asrwt>0</asrwt>
<pdfrwt beam="1">  1       11 0.10000000E+01 0.28737188E+02</pdfrwt>
<pdfrwt beam="2">  1        2 0.44548701E-01 0.28374792E+03</pdfrwt>
<totfact> 0.14102837E+02</totfact>
</mgrwt>
</event>
<event>
 5    1  0.2968854E-003  0.5097656E+02  0.7818608E-02  0.1620128E+00
         11   -1    0    0    0    0  0.00000000000E+00  0.00000000000E+00  0.10003684244E+04  0.10003684244E+04  0.51100000000E-03 0. -1.
          2   -1    0    0  501    0 -0.00000000000E+00 -0.00000000000E+00 -0.84850108855E+01  0.84850112687E+01  0.25500000000E-02 0. -1.
         11    1    1    2    0    0 -0.12075774867E+02 -0.52936294993E+02  0.10902808413E+03  0.12179983085E+03  0.51100000000E-03 0. -1.
         22    1    1    2    0    0  0.15325963282E+02  0.22239121110E+01  0.43733815801E+02  0.46394801218E+02  0.00000000000E+00 0. -1.
          2    1    1    2  501    0 -0.32501884149E+01  0.50712382882E+02  0.83912151361E+03  0.84065880363E+03  0.25500000000E-02 0. -1.
<mgrwt>
<rscale>  0 0.28097098E+02</rscale>
<asrwt>0</asrwt>
<pdfrwt beam="1">  1       11 0.10000000E+01 0.50976565E+02</pdfrwt>
<pdfrwt beam="2">  1        2 0.13058672E-02 0.28097098E+02</pdfrwt>
<totfact> 0.86718819E+03</totfact>
</mgrwt>
</event>
<event>
 5    1  0.2968854E-003  0.2714396E+03  0.7818608E-02  0.1104438E+00
         11   -1    0    0    0    0  0.00000000000E+00  0.00000000000E+00  0.10003879006E+04  0.10003879006E+04  0.51100000000E-03 0.  1.
         -2   -1    0    0    0  501 -0.00000000000E+00 -0.00000000000E+00 -0.11476393179E+03  0.11476393182E+03  0.25500000000E-02 0. -1.
         11    1    1    2    0    0  0.57090451977E+02 -0.18383189330E+03  0.48176575317E+03  0.51879834775E+03  0.51100000000E-03 0.  1.
         22    1    1    2    0    0  0.28049114756E+02 -0.66646979804E+02  0.30576682847E+03  0.31420045536E+03  0.00000000000E+00 0.  1.
         -2    1    1    2    0  501 -0.85139566733E+02  0.25047887311E+03  0.98091387153E+02  0.28215302929E+03  0.25500000000E-02 0. -1.
<mgrwt>
<rscale>  0 0.26455323E+03</rscale>
<asrwt>0</asrwt>
<pdfrwt beam="1">  1       11 0.10000000E+01 0.27143957E+03</pdfrwt>
<pdfrwt beam="2">  1       -2 0.17662838E-01 0.26455323E+03</pdfrwt>
<totfact> 0.20846596E+02</totfact>
</mgrwt>
</event>
<event>
 5    1  0.2968854E-003  0.2051109E+03  0.7818608E-02  0.1145497E+00
         11   -1    0    0    0    0  0.00000000000E+00  0.00000000000E+00  0.10004964243E+04  0.10004964243E+04  0.51100000000E-03 0. -1.
          2   -1    0    0  501    0 -0.00000000000E+00 -0.00000000000E+00 -0.74074865718E+02  0.74074865761E+02  0.25500000000E-02 0. -1.
         11    1    1    2    0    0 -0.96684535325E+02 -0.18636772569E+03  0.14815456628E+03  0.25696420775E+03  0.51100000000E-03 0. -1.
         22    1    1    2    0    0  0.54731343297E+02 -0.37701827607E+01  0.14266613650E+03  0.15285077926E+03  0.00000000000E+00 0. -1.
          2    1    1    2  501    0  0.41953192028E+02  0.19013790845E+03  0.63560085579E+03  0.66475630305E+03  0.25500000000E-02 0. -1.
<mgrwt>
<rscale>  0 0.20511093E+03</rscale>
<asrwt>0</asrwt>
<pdfrwt beam="1">  1       11 0.10000000E+01 0.54861045E+02</pdfrwt>
<pdfrwt beam="2">  1        2 0.11401790E-01 0.20511093E+03</pdfrwt>
<totfact> 0.66163044E+02</totfact>
</mgrwt>
</event>
<event>
 5    1  0.2968854E-003  0.7625055E+02  0.7818608E-02  0.1340042E+00
         11   -1    0    0    0    0  0.00000000000E+00  0.00000000000E+00  0.10000422589E+04  0.10000422589E+04  0.51100000000E-03 0. -1.
          2   -1    0    0  501    0 -0.00000000000E+00 -0.00000000000E+00 -0.36046479066E+03  0.36046479067E+03  0.25500000000E-02 0.  1.
         11    1    1    2    0    0 -0.10100420806E+03 -0.90107515339E+02  0.57533259496E+03  0.59104044632E+03  0.51100000000E-03 0. -1.
         22    1    1    2    0    0  0.69111331789E+02  0.21221615791E+02  0.40956725671E+03  0.41589911148E+03  0.00000000000E+00 0. -1.
          2    1    1    2  501    0  0.31892876269E+02  0.68885899547E+02 -0.34532238345E+03  0.35356749176E+03  0.25500000000E-02 0.  1.
<mgrwt>
<rscale>  0 0.76250553E+02</rscale>
<asrwt>0</asrwt>
<pdfrwt beam="1">  1       11 0.10000000E+01 0.72296149E+02</pdfrwt>
<pdfrwt beam="2">  1        2 0.55458464E-01 0.76250553E+02</pdfrwt>
<totfact> 0.11149773E+02</totfact>
</mgrwt>
</event>
<event>
 5    1  0.2968854E-003  0.2038992E+03  0.7818608E-02  0.1150344E+00
         11   -1    0    0    0    0  0.00000000000E+00  0.00000000000E+00  0.10004173459E+04  0.10004173459E+04  0.51100000000E-03 0. -1.
         -2   -1    0    0    0  501 -0.00000000000E+00 -0.00000000000E+00 -0.46523207311E+02  0.46523207381E+02  0.25500000000E-02 0.  1.
         11    1    1    2    0    0 -0.15516511304E+02  0.17811062356E+03  0.56618979564E+03  0.59374661350E+03  0.51100000000E-03 0. -1.
         22    1    1    2    0    0 -0.15515048366E+02  0.18742667300E+02  0.10194453788E+03  0.10480788666E+03  0.00000000000E+00 0. -1.
         -2    1    1    2    0  501  0.31031559670E+02 -0.19685329086E+03  0.28575980511E+03  0.34838605317E+03  0.25500000000E-02 0.  1.
<mgrwt>
<rscale>  0 0.19928416E+03</rscale>
<asrwt>0</asrwt>
<pdfrwt beam="1">  1       11 0.10000000E+01 0.20389924E+03</pdfrwt>
<pdfrwt beam="2">  1       -2 0.71604034E-02 0.19928416E+03</pdfrwt>
<totfact> 0.88028244E+02</totfact>
</mgrwt>
</event>
<event>
 5    1  0.2968854E-003  0.6277165E+02  0.7818608E-02  0.1457023E+00
         11   -1    0    0    0    0  0.00000000000E+00  0.00000000000E+00  0.10004233751E+04  0.10004233751E+04  0.51100000000E-03 0. -1.
          2   -1    0    0  501    0 -0.00000000000E+00 -0.00000000000E+00 -0.81532020872E+02  0.81532020911E+02  0.25500000000E-02 0. -1.
         11    1    1    2    0    0 -0.19266723502E+02  0.49560828438E+02  0.35043385671E+02  0.63682974408E+02  0.51100000000E-03 0. -1.
         22    1    1    2    0    0  0.34212176888E+02  0.12856099703E+02 -0.61073437119E+02  0.71173851017E+02  0.00000000000E+00 0. -1.
          2    1    1    2  501    0 -0.14945453387E+02 -0.62416928141E+02  0.94492140565E+03  0.94709857056E+03  0.25500000000E-02 0. -1.
<mgrwt>
<rscale>  0 0.47897534E+02</rscale>
<asrwt>0</asrwt>
<pdfrwt beam="1">  1       11 0.10000000E+01 0.62771652E+02</pdfrwt>
<pdfrwt beam="2">  1        2 0.12548698E-01 0.47897534E+02</pdfrwt>
<totfact> 0.54454820E+02</totfact>
</mgrwt>
</event>
<event>
 5    1  0.2968854E-003  0.1101936E+03  0.7818608E-02  0.1275174E+00
         11   -1    0    0    0    0  0.00000000000E+00  0.00000000000E+00  0.10000693082E+04  0.10000693082E+04  0.51100000000E-03 0. -1.
          2   -1    0    0  501    0 -0.00000000000E+00 -0.00000000000E+00 -0.12030761753E+02  0.12030762023E+02  0.25500000000E-02 0. -1.
         11    1    1    2    0    0  0.72390017390E+02  0.28506309352E+02  0.44219059220E+03  0.44898267686E+03  0.51100000000E-03 0. -1.
         22    1    1    2    0    0  0.11586145471E+02  0.30224126735E+02  0.19278399998E+03  0.19548249859E+03  0.00000000000E+00 0. -1.
          2    1    1    2  501    0 -0.83976162861E+02 -0.58730436087E+02  0.35306395429E+03  0.36763489480E+03  0.25500000000E-02 0. -1.
<mgrwt>
<rscale>  0 0.10247566E+03</rscale>
<asrwt>0</asrwt>
<pdfrwt beam="1">  1       11 0.10000000E+01 0.11019360E+03</pdfrwt>
<pdfrwt beam="2">  1        2 0.18510147E-02 0.10247566E+03</pdfrwt>
<totfact> 0.67074859E+03</totfact>
</mgrwt>
</event>
<event>
 5    1  0.2968854E-003  0.5381283E+02  0.7818608E-02  0.1436897E+00
         11   -1    0    0    0    0  0.00000000000E+00  0.00000000000E+00  0.10001668478E+04  0.10001668478E+04  0.51100000000E-03 0.  1.
          2   -1    0    0  501    0 -0.00000000000E+00 -0.00000000000E+00 -0.38249765861E+01  0.38249774361E+01  0.25500000000E-02 0.  1.
         11    1    1    2    0    0 -0.27091293099E+02 -0.29163675379E+02  0.16324120810E+03  0.16802425463E+03  0.51100000000E-03 0.  1.
         22    1    1    2    0    0 -0.25684486613E+01 -0.13060335288E+02  0.79867339038E+02  0.80968889898E+02  0.00000000000E+00 0. -1.
          2    1    1    2  501    0  0.29659741761E+02  0.42224010667E+02  0.75323332406E+03  0.75499868069E+03  0.25500000000E-02 0.  1.
<mgrwt>
<rscale>  0 0.51600071E+02</rscale>
<asrwt>0</asrwt>
<pdfrwt beam="1">  1       11 0.10000000E+01 0.53812827E+02</pdfrwt>
<pdfrwt beam="2">  1        2 0.58855617E-03 0.51600071E+02</pdfrwt>
<totfact> 0.28345406E+04</totfact>
</mgrwt>
</event>
<event>
 5    1  0.2968854E-003  0.4044941E+03  0.7818608E-02  0.1318180E+00
         11   -1    0    0    0    0  0.00000000000E+00  0.00000000000E+00  0.10002544020E+04  0.10002544020E+04  0.51100000000E-03 0. -1.
          2   -1    0    0  501    0 -0.00000000000E+00 -0.00000000000E+00 -0.54661232646E+03  0.54661232646E+03  0.25500000000E-02 0. -1.
         11    1    1    2    0    0  0.15432494548E+03 -0.33536117495E+03  0.39307657997E+03  0.53925180036E+03  0.51100000000E-03 0. -1.
         22    1    1    2    0    0 -0.20644159575E+03  0.40118543505E+03  0.43329309140E+03  0.62554839046E+03  0.00000000000E+00 0. -1.
          2    1    1    2  501    0  0.52116650266E+02 -0.65824260101E+02 -0.37272759585E+03  0.38206653762E+03  0.25500000000E-02 0. -1.
<mgrwt>
<rscale>  0 0.83958195E+02</rscale>
<asrwt>0</asrwt>
<pdfrwt beam="1">  1       11 0.10000000E+01 0.40449414E+03</pdfrwt>
<pdfrwt beam="2">  1        2 0.84115595E-01 0.83958195E+02</pdfrwt>
<totfact> 0.71610661E+01</totfact>
</mgrwt>
</event>
<event>
 5    1  0.2968854E-003  0.9373814E+02  0.7818608E-02  0.1638902E+00
         11   -1    0    0    0    0  0.00000000000E+00  0.00000000000E+00  0.10001279294E+04  0.10001279294E+04  0.51100000000E-03 0. -1.
          2   -1    0    0  501    0 -0.00000000000E+00 -0.00000000000E+00 -0.13260924959E+02  0.13260925204E+02  0.25500000000E-02 0. -1.
         11    1    1    2    0    0 -0.60341385695E+02  0.79629379507E+02  0.30405177323E+03  0.32004593688E+03  0.51100000000E-03 0. -1.
         22    1    1    2    0    0  0.34251437339E+02 -0.84863253672E+02  0.46600800252E+03  0.47490882409E+03  0.00000000000E+00 0. -1.
          2    1    1    2  501    0  0.26089948356E+02  0.52338741650E+01  0.21680722872E+03  0.21843409367E+03  0.25500000000E-02 0. -1.
<mgrwt>
<rscale>  0 0.26609751E+02</rscale>
<asrwt>0</asrwt>
<pdfrwt beam="1">  1       11 0.10000000E+01 0.93738138E+02</pdfrwt>
<pdfrwt beam="2">  1        2 0.20404033E-02 0.26609751E+02</pdfrwt>
<totfact> 0.48093048E+03</totfact>
</mgrwt>
</event>
<event>
 5    1  0.2968854E-003  0.1680135E+03  0.7818608E-02  0.1182903E+00
         11   -1    0    0    0    0  0.00000000000E+00  0.00000000000E+00  0.10004831262E+04  0.10004831262E+04  0.51100000000E-03 0. -1.
          2   -1    0    0  501    0 -0.00000000000E+00 -0.00000000000E+00 -0.27917512109E+02  0.27917512225E+02  0.25500000000E-02 0. -1.
         11    1    1    2    0    0  0.12003921019E+03  0.95195544970E+02  0.42520590543E+03  0.45196423064E+03  0.51100000000E-03 0. -1.
         22    1    1    2    0    0  0.48450231135E+01  0.13010617166E+02  0.25419069647E+02  0.28963416749E+02  0.00000000000E+00 0.  1.
          2    1    1    2  501    0 -0.12488423331E+03 -0.10820616214E+03  0.52194063904E+03  0.54747299106E+03  0.25500000000E-02 0. -1.
<mgrwt>
<rscale>  0 0.16524117E+03</rscale>
<asrwt>0</asrwt>
<pdfrwt beam="1">  1       11 0.10000000E+01 0.16801349E+03</pdfrwt>
<pdfrwt beam="2">  1        2 0.42970768E-02 0.16524117E+03</pdfrwt>
<totfact> 0.22737523E+03</totfact>
</mgrwt>
</event>
<event>
 5    1  0.2968854E-003  0.2205388E+03  0.7818608E-02  0.1133482E+00
         11   -1    0    0    0    0  0.00000000000E+00  0.00000000000E+00  0.10002237024E+04  0.10002237024E+04  0.51100000000E-03 0. -1.
          2   -1    0    0  501    0 -0.00000000000E+00 -0.00000000000E+00 -0.74210145661E+03  0.74210145661E+03  0.25500000000E-02 0. -1.
         11    1    1    2    0    0 -0.12183435559E+03 -0.17133356208E+03  0.89997389859E+03  0.92420334225E+03  0.51100000000E-03 0. -1.
         22    1    1    2    0    0  0.89404578279E+01 -0.18353561841E+02  0.69955251774E+02  0.72873330301E+02  0.00000000000E+00 0.  1.
          2    1    1    2  501    0  0.11289389776E+03  0.18968712393E+03 -0.71180690458E+03  0.74524848645E+03  0.25500000000E-02 0. -1.
<mgrwt>
<rscale>  0 0.22053880E+03</rscale>
<asrwt>0</asrwt>
<pdfrwt beam="1">  1       11 0.10000000E+01 0.20415313E+02</pdfrwt>
<pdfrwt beam="2">  1        2 0.11419499E+00 0.22053880E+03</pdfrwt>
<totfact> 0.49040605E+01</totfact>
</mgrwt>
</event>
<event>
 5    1  0.2968854E-003  0.7593415E+02  0.7818608E-02  0.1341002E+00
         11   -1    0    0    0    0  0.00000000000E+00  0.00000000000E+00  0.10002261819E+04  0.10002261819E+04  0.51100000000E-03 0.  1.
          2   -1    0    0  501    0 -0.00000000000E+00 -0.00000000000E+00 -0.10226293023E+02  0.10226293341E+02  0.25500000000E-02 0.  1.
         11    1    1    2    0    0 -0.40411992043E+02 -0.11725089218E+02  0.25259363477E+03  0.25607450312E+03  0.51100000000E-03 0.  1.
         22    1    1    2    0    0  0.61037285255E+02  0.67102706844E+02  0.31306414056E+03  0.32594091422E+03  0.00000000000E+00 0.  1.
          2    1    1    2  501    0 -0.20625293213E+02 -0.55377617626E+02  0.42434211350E+03  0.42843705786E+03  0.25500000000E-02 0.  1.
<mgrwt>
<rscale>  0 0.75934152E+02</rscale>
<asrwt>0</asrwt>
<pdfrwt beam="1">  1       11 0.10000000E+01 0.42078579E+02</pdfrwt>
<pdfrwt beam="2">  1        2 0.15736317E-02 0.75934152E+02</pdfrwt>
<totfact> 0.80193199E+03</totfact>
</mgrwt>
</event>
<event>
 5    1  0.2968854E-003  0.2061591E+03  0.7818608E-02  0.1157106E+00
         11   -1    0    0    0    0  0.00000000000E+00  0.00000000000E+00  0.10000292135E+04  0.10000292135E+04  0.51100000000E-03 0.  1.
          2   -1    0    0  501    0 -0.00000000000E+00 -0.00000000000E+00 -0.41238318081E+03  0.41238318082E+03  0.25500000000E-02 0.  1.
         11    1    1    2    0    0  0.16437421445E+03  0.22833478736E+02  0.78710175451E+03  0.80440625437E+03  0.51100000000E-03 0.  1.
         22    1    1    2    0    0  0.27012539230E+02 -0.29703949706E+02  0.17921770984E+03  0.18365998318E+03  0.00000000000E+00 0.  1.
          2    1    1    2  501    0 -0.19138675368E+03  0.68704709697E+01 -0.37867343169E+03  0.42434615673E+03  0.25500000000E-02 0.  1.
<mgrwt>
<rscale>  0 0.19151003E+03</rscale>
<asrwt>0</asrwt>
<pdfrwt beam="1">  1       11 0.10000000E+01 0.20615912E+03</pdfrwt>
<pdfrwt beam="2">  1        2 0.63445418E-01 0.19151003E+03</pdfrwt>
<totfact> 0.96307047E+01</totfact>
</mgrwt>
</event>
<event>
 5    1  0.2968854E-003  0.4121464E+03  0.7818608E-02  0.1039653E+00
         11   -1    0    0    0    0  0.00000000000E+00  0.00000000000E+00  0.10000837357E+04  0.10000837357E+04  0.51100000000E-03 0.  1.
          2   -1    0    0  501    0 -0.00000000000E+00 -0.00000000000E+00 -0.10045523851E+04  0.10045523851E+04  0.25500000000E-02 0.  1.
         11    1    1    2    0    0 -0.27438113500E+03 -0.30381226600E+03  0.87994381302E+03  0.97050915209E+03  0.51100000000E-03 0.  1.
         22    1    1    2    0    0 -0.98972344024E+01  0.52065232297E+01  0.29485915249E+02  0.31535413919E+02  0.00000000000E+00 0. -1.
          2    1    1    2  501    0  0.28427836940E+03  0.29860574277E+03 -0.91389837767E+03  0.10025915547E+04  0.25500000000E-02 0.  1.
<mgrwt>
<rscale>  0 0.41214644E+03</rscale>
<asrwt>0</asrwt>
<pdfrwt beam="1">  1       11 0.10000000E+01 0.11183163E+02</pdfrwt>
<pdfrwt beam="2">  1        2 0.15455946E+00 0.41214644E+03</pdfrwt>
<totfact> 0.31986756E+01</totfact>
</mgrwt>
</event>
<event>
 5    1  0.2968854E-003  0.7630822E+03  0.7818608E-02  0.9638741E-01
         11   -1    0    0    0    0  0.00000000000E+00  0.00000000000E+00  0.10001601232E+04  0.10001601232E+04  0.51100000000E-03 0. -1.
          2   -1    0    0  501    0 -0.00000000000E+00 -0.00000000000E+00 -0.79361395004E+03  0.79361395004E+03  0.25500000000E-02 0. -1.
         11    1    1    2    0    0  0.71903858771E+03  0.11510517241E+03 -0.35667859222E+03  0.81085467840E+03  0.51100000000E-03 0. -1.
         22    1    1    2    0    0  0.14236772682E+02  0.31782182822E+02 -0.14691493091E+02  0.37797259300E+02  0.00000000000E+00 0.  1.
          2    1    1    2  501    0 -0.73327536039E+03 -0.14688735524E+03  0.57791625850E+03  0.94512213556E+03  0.25500000000E-02 0. -1.
<mgrwt>
<rscale>  0 0.74784266E+03</rscale>
<asrwt>0</asrwt>
<pdfrwt beam="1">  1       11 0.10000000E+01 0.76308215E+03</pdfrwt>
<pdfrwt beam="2">  1        2 0.12211400E+00 0.74784266E+03</pdfrwt>
<totfact> 0.43195185E+01</totfact>
</mgrwt>
</event>
<event>
 5    1  0.2968854E-003  0.1076550E+03  0.7818608E-02  0.1264975E+00
         11   -1    0    0    0    0  0.00000000000E+00  0.00000000000E+00  0.10000296522E+04  0.10000296522E+04  0.51100000000E-03 0. -1.
          2   -1    0    0  501    0 -0.00000000000E+00 -0.00000000000E+00 -0.26264280751E+02  0.26264280875E+02  0.25500000000E-02 0. -1.
         11    1    1    2    0    0  0.13008466871E+02  0.95801476364E+02  0.29611320135E+03  0.31149666306E+03  0.51100000000E-03 0. -1.
         22    1    1    2    0    0 -0.86482665593E+02  0.19815919244E+02  0.31025866851E+03  0.32269546556E+03  0.00000000000E+00 0. -1.
          2    1    1    2  501    0  0.73474198723E+02 -0.11561739561E+03  0.36739350158E+03  0.39210180445E+03  0.25500000000E-02 0. -1.
<mgrwt>
<rscale>  0 0.10765497E+03</rscale>
<asrwt>0</asrwt>
<pdfrwt beam="1">  1       11 0.10000000E+01 0.88723853E+02</pdfrwt>
<pdfrwt beam="2">  1        2 0.40407783E-02 0.10765497E+03</pdfrwt>
<totfact> 0.23731795E+03</totfact>
</mgrwt>
</event>
<event>
 5    1  0.2968854E-003  0.1569764E+03  0.7818608E-02  0.1192153E+00
         11   -1    0    0    0    0  0.00000000000E+00  0.00000000000E+00  0.10001598764E+04  0.10001598764E+04  0.51100000000E-03 0. -1.
          2   -1    0    0  501    0 -0.00000000000E+00 -0.00000000000E+00 -0.16057243793E+03  0.16057243795E+03  0.25500000000E-02 0.  1.
         11    1    1    2    0    0 -0.81306932929E+02  0.10818247570E+03  0.68896910410E+03  0.70213438301E+03  0.51100000000E-03 0. -1.
         22    1    1    2    0    0 -0.86030814495E+02 -0.12432514780E+03  0.22796522112E+03  0.27354375420E+03  0.00000000000E+00 0. -1.
          2    1    1    2  501    0  0.16733774742E+03  0.16142672094E+02 -0.77346886773E+02  0.18505417714E+03  0.25500000000E-02 0.  1.
<mgrwt>
<rscale>  0 0.15697637E+03</rscale>
<asrwt>0</asrwt>
<pdfrwt beam="1">  1       11 0.10000000E+01 0.13533021E+03</pdfrwt>
<pdfrwt beam="2">  1        2 0.24707401E-01 0.15697637E+03</pdfrwt>
<totfact> 0.26628317E+02</totfact>
</mgrwt>
</event>
<event>
 5    1  0.2968854E-003  0.6699837E+03  0.7818608E-02  0.9888238E-01
         11   -1    0    0    0    0  0.00000000000E+00  0.00000000000E+00  0.10002145433E+04  0.10002145433E+04  0.51100000000E-03 0. -1.
          2   -1    0    0  501    0 -0.00000000000E+00 -0.00000000000E+00 -0.79152241727E+03  0.79152241727E+03  0.25500000000E-02 0. -1.
         11    1    1    2    0    0 -0.82139659940E+02  0.30136411068E+03  0.19617991060E+03  0.36885472515E+03  0.51100000000E-03 0. -1.
         22    1    1    2    0    0  0.87848698848E+02  0.30695627666E+03  0.53362942557E+03  0.62185200289E+03  0.00000000000E+00 0. -1.
          2    1    1    2  501    0 -0.57090389079E+01 -0.60832038734E+03 -0.52111721011E+03  0.80103023255E+03  0.25500000000E-02 0. -1.
<mgrwt>
<rscale>  0 0.60834718E+03</rscale>
<asrwt>0</asrwt>
<pdfrwt beam="1">  1       11 0.10000000E+01 0.66998370E+03</pdfrwt>
<pdfrwt beam="2">  1        2 0.12179880E+00 0.60834718E+03</pdfrwt>
<totfact> 0.43654078E+01</totfact>
</mgrwt>
</event>
<event>
 5    1  0.2968854E-003  0.3643728E+03  0.7818608E-02  0.1056866E+00
         11   -1    0    0    0    0  0.00000000000E+00  0.00000000000E+00  0.99988753322E+03  0.99988753322E+03  0.51100000000E-03 0.  1.
          2   -1    0    0  501    0 -0.00000000000E+00 -0.00000000000E+00 -0.31012156170E+03  0.31012156171E+03  0.25500000000E-02 0.  1.
         11    1    1    2    0    0 -0.12080620128E+03  0.29736960127E+03  0.10135372074E+03  0.33659381268E+03  0.51100000000E-03 0.  1.
         22    1    1    2    0    0  0.18871686789E+03  0.16684011876E+03  0.38946670849E+03  0.46382539654E+03  0.00000000000E+00 0. -1.
          2    1    1    2  501    0 -0.67910666613E+02 -0.46420972003E+03  0.19894554228E+03  0.50958988571E+03  0.25500000000E-02 0.  1.
<mgrwt>
<rscale>  0 0.36437278E+03</rscale>
<asrwt>0</asrwt>
<pdfrwt beam="1">  1       11 0.10000000E+01 0.25189220E+03</pdfrwt>
<pdfrwt beam="2">  1        2 0.47705642E-01 0.36437278E+03</pdfrwt>
<totfact> 0.13093020E+02</totfact>
</mgrwt>
</event>
<event>
 5    1  0.2968854E-003  0.1780017E+03  0.7818608E-02  0.1173216E+00
         11   -1    0    0    0    0  0.00000000000E+00  0.00000000000E+00  0.10000112213E+04  0.10000112213E+04  0.51100000000E-03 0. -1.
         -2   -1    0    0    0  501 -0.00000000000E+00 -0.00000000000E+00 -0.34563172709E+02  0.34563172803E+02  0.25500000000E-02 0.  1.
         11    1    1    2    0    0 -0.44858047864E+02 -0.14533535384E+03  0.55689770007E+03  0.57729512199E+03  0.51100000000E-03 0. -1.
         22    1    1    2    0    0  0.68184238129E+01 -0.24987358252E+02  0.94619054267E+02  0.98100073425E+02  0.00000000000E+00 0. -1.
         -2    1    1    2    0  501  0.38039624051E+02  0.17032271209E+03  0.31393129426E+03  0.35917919869E+03  0.25500000000E-02 0.  1.
<mgrwt>
<rscale>  0 0.17451888E+03</rscale>
<asrwt>0</asrwt>
<pdfrwt beam="1">  1       11 0.10000000E+01 0.17800165E+03</pdfrwt>
<pdfrwt beam="2">  1       -2 0.53174707E-02 0.17451888E+03</pdfrwt>
<totfact> 0.13747471E+03</totfact>
</mgrwt>
</event>
<event>
 5    1  0.2968854E-003  0.1299308E+03  0.7818608E-02  0.1227558E+00
         11   -1    0    0    0    0  0.00000000000E+00  0.00000000000E+00  0.10003334437E+04  0.10003334437E+04  0.51100000000E-03 0. -1.
         -2   -1    0    0    0  501 -0.00000000000E+00 -0.00000000000E+00 -0.36275361355E+02  0.36275361444E+02  0.25500000000E-02 0.  1.
         11    1    1    2    0    0 -0.73202535189E+02 -0.32865017350E+02  0.28291937348E+03  0.29407837801E+03  0.51100000000E-03 0. -1.
         22    1    1    2    0    0 -0.13527919593E+02 -0.89354530331E+02  0.49682541102E+03  0.50497794579E+03  0.00000000000E+00 0.  1.
         -2    1    1    2    0  501  0.86730454782E+02  0.12221954768E+03  0.18431329784E+03  0.23755248134E+03  0.25500000000E-02 0.  1.
<mgrwt>
<rscale>  0 0.12993080E+03</rscale>
<asrwt>0</asrwt>
<pdfrwt beam="1">  1       11 0.10000000E+01 0.80241638E+02</pdfrwt>
<pdfrwt beam="2">  1       -2 0.55826856E-02 0.12993080E+03</pdfrwt>
<totfact> 0.12467841E+03</totfact>
</mgrwt>
</event>
<event>
 5    1  0.2968854E-003  0.9083976E+02  0.7818608E-02  0.1304283E+00
         11   -1    0    0    0    0  0.00000000000E+00  0.00000000000E+00  0.10001640586E+04  0.10001640586E+04  0.51100000000E-03 0. -1.
          2   -1    0    0  501    0 -0.00000000000E+00 -0.00000000000E+00 -0.83062085590E+01  0.83062089505E+01  0.25500000000E-02 0.  1.
         11    1    1    2    0    0  0.12492113747E+02  0.79237544779E+02  0.38963187882E+03  0.39780352236E+03  0.51100000000E-03 0. -1.
         22    1    1    2    0    0 -0.29991137920E+01  0.96685971011E+01  0.34907676688E+02  0.36345871088E+02  0.00000000000E+00 0.  1.
          2    1    1    2  501    0 -0.94929999548E+01 -0.88906141880E+02  0.56731829456E+03  0.57432087413E+03  0.25500000000E-02 0.  1.
<mgrwt>
<rscale>  0 0.89411516E+02</rscale>
<asrwt>0</asrwt>
<pdfrwt beam="1">  1       11 0.10000000E+01 0.90839758E+02</pdfrwt>
<pdfrwt beam="2">  1        2 0.12780879E-02 0.89411516E+02</pdfrwt>
<totfact> 0.10892238E+04</totfact>
</mgrwt>
</event>
<event>
 5    1  0.2968854E-003  0.8777151E+02  0.7818608E-02  0.1387220E+00
         11   -1    0    0    0    0  0.00000000000E+00  0.00000000000E+00  0.10002092400E+04  0.10002092400E+04  0.51100000000E-03 0. -1.
          2   -1    0    0  501    0 -0.00000000000E+00 -0.00000000000E+00 -0.72266823788E+03  0.72266823789E+03  0.25500000000E-02 0. -1.
         11    1    1    2    0    0 -0.82560859638E+02  0.66783465734E+01  0.45922921766E+03  0.46663944348E+03  0.51100000000E-03 0. -1.
         22    1    1    2    0    0  0.90023932583E+02  0.55478576079E+02  0.53068563859E+03  0.54111868185E+03  0.00000000000E+00 0. -1.
          2    1    1    2  501    0 -0.74630729451E+01 -0.62156922652E+02 -0.71237385408E+03  0.71511935261E+03  0.25500000000E-02 0. -1.
<mgrwt>
<rscale>  0 0.62603359E+02</rscale>
<asrwt>0</asrwt>
<pdfrwt beam="1">  1       11 0.10000000E+01 0.87771507E+02</pdfrwt>
<pdfrwt beam="2">  1        2 0.11120299E+00 0.62603359E+02</pdfrwt>
<totfact> 0.52730668E+01</totfact>
</mgrwt>
</event>
<event>
 5    1  0.2968854E-003  0.2142861E+03  0.7818608E-02  0.1138216E+00
         11   -1    0    0    0    0  0.00000000000E+00  0.00000000000E+00  0.10001891383E+04  0.10001891383E+04  0.51100000000E-03 0. -1.
         -2   -1    0    0    0  501 -0.00000000000E+00 -0.00000000000E+00 -0.41607407765E+03  0.41607407766E+03  0.25500000000E-02 0.  1.
         11    1    1    2    0    0  0.22567638135E+01  0.28572496262E+02  0.55574287540E+02  0.62529848563E+02  0.51100000000E-03 0. -1.
         22    1    1    2    0    0  0.19849299724E+03  0.47436953957E+02  0.90101156167E+03  0.92383524983E+03  0.00000000000E+00 0. -1.
         -2    1    1    2    0  501 -0.20074976106E+03 -0.76009450219E+02 -0.37247078860E+03  0.42989811753E+03  0.25500000000E-02 0.  1.
<mgrwt>
<rscale>  0 0.21428609E+03</rscale>
<asrwt>0</asrwt>
<pdfrwt beam="1">  1       11 0.10000000E+01 0.28661482E+02</pdfrwt>
<pdfrwt beam="2">  1       -2 0.64023502E-01 0.21428609E+03</pdfrwt>
<totfact> 0.18775793E+01</totfact>
</mgrwt>
</event>
<event>
 5    1  0.2968854E-003  0.1187307E+03  0.7818608E-02  0.1250750E+00
         11   -1    0    0    0    0  0.00000000000E+00  0.00000000000E+00  0.10002738695E+04  0.10002738695E+04  0.51100000000E-03 0. -1.
          2   -1    0    0  501    0 -0.00000000000E+00 -0.00000000000E+00 -0.13825045861E+02  0.13825046096E+02  0.25500000000E-02 0. -1.
         11    1    1    2    0    0 -0.30831941735E+02 -0.88449296997E+02  0.34785049371E+03  0.36024138122E+03  0.51100000000E-03 0. -1.
         22    1    1    2    0    0  0.56362213197E+01 -0.24245763137E+02  0.10583698638E+03  0.10872484402E+03  0.00000000000E+00 0.  1.
          2    1    1    2  501    0  0.25195720415E+02  0.11269506013E+03  0.53276134350E+03  0.54513269031E+03  0.25500000000E-02 0. -1.
<mgrwt>
<rscale>  0 0.11547727E+03</rscale>
<asrwt>0</asrwt>
<pdfrwt beam="1">  1       11 0.10000000E+01 0.11873075E+03</pdfrwt>
<pdfrwt beam="2">  1        2 0.21275126E-02 0.11547727E+03</pdfrwt>
<totfact> 0.56365742E+03</totfact>
</mgrwt>
</event>
<event>
 5    1  0.2968854E-003  0.1845475E+03  0.7818608E-02  0.1163473E+00
         11   -1    0    0    0    0  0.00000000000E+00  0.00000000000E+00  0.10000989062E+04  0.10000989062E+04  0.51100000000E-03 0. -1.
          2   -1    0    0  501    0 -0.00000000000E+00 -0.00000000000E+00 -0.10624506617E+03  0.10624506620E+03  0.25500000000E-02 0. -1.
         11    1    1    2    0    0  0.26620894976E+02  0.39743728429E+02  0.23460165675E+02  0.53278657758E+02  0.51100000000E-03 0. -1.
         22    1    1    2    0    0 -0.20355430980E+03 -0.76760637817E+02  0.84253418507E+03  0.87016688374E+03  0.00000000000E+00 0. -1.
          2    1    1    2  501    0  0.17693341482E+03  0.37016909388E+02  0.27859489241E+02  0.18289843085E+03  0.25500000000E-02 0. -1.
<mgrwt>
<rscale>  0 0.18454749E+03</rscale>
<asrwt>0</asrwt>
<pdfrwt beam="1">  1       11 0.10000000E+01 0.47835534E+02</pdfrwt>
<pdfrwt beam="2">  1        2 0.16347011E-01 0.18454749E+03</pdfrwt>
<totfact> 0.42816119E+02</totfact>
</mgrwt>
</event>
<event>
 5    1  0.2968854E-003  0.1315782E+03  0.7818608E-02  0.1523971E+00
         11   -1    0    0    0    0  0.00000000000E+00  0.00000000000E+00  0.10003931935E+04  0.10003931935E+04  0.51100000000E-03 0.  1.
          2   -1    0    0  501    0 -0.00000000000E+00 -0.00000000000E+00 -0.57150875058E+03  0.57150875058E+03  0.25500000000E-02 0.  1.
         11    1    1    2    0    0 -0.14569035846E+03  0.16680117326E+02  0.70074369637E+03  0.71592292522E+03  0.51100000000E-03 0.  1.
         22    1    1    2    0    0  0.11096767871E+03 -0.13993381852E+01  0.28084398484E+03  0.30197537596E+03  0.00000000000E+00 0.  1.
          2    1    1    2  501    0  0.34722679748E+02 -0.15280779141E+02 -0.55270323830E+03  0.55400364288E+03  0.25500000000E-02 0.  1.
<mgrwt>
<rscale>  0 0.37936351E+02</rscale>
<asrwt>0</asrwt>
<pdfrwt beam="1">  1       11 0.10000000E+01 0.13157816E+03</pdfrwt>
<pdfrwt beam="2">  1        2 0.87958992E-01 0.37936351E+02</pdfrwt>
<totfact> 0.69212627E+01</totfact>
</mgrwt>
</event>
<event>
 5    1  0.2968854E-003  0.2007316E+03  0.7818608E-02  0.1149123E+00
         11   -1    0    0    0    0  0.00000000000E+00  0.00000000000E+00  0.10001081947E+04  0.10001081947E+04  0.51100000000E-03 0. -1.
          2   -1    0    0  501    0 -0.00000000000E+00 -0.00000000000E+00 -0.13126369568E+03  0.13126369571E+03  0.25500000000E-02 0.  1.
         11    1    1    2    0    0  0.74971486599E+02  0.13287584440E+03  0.65054605287E+03  0.66819673805E+03  0.51100000000E-03 0. -1.
         22    1    1    2    0    0  0.85879995401E+02  0.54214221162E+00  0.23823694088E+03  0.25324396840E+03  0.00000000000E+00 0. -1.
          2    1    1    2  501    0 -0.16085148200E+03 -0.13341798661E+03 -0.19938494755E+02  0.20993118394E+03  0.25500000000E-02 0.  1.
<mgrwt>
<rscale>  0 0.20073159E+03</rscale>
<asrwt>0</asrwt>
<pdfrwt beam="1">  1       11 0.10000000E+01 0.85881707E+02</pdfrwt>
<pdfrwt beam="2">  1        2 0.20196599E-01 0.20073159E+03</pdfrwt>
<totfact> 0.33627140E+02</totfact>
</mgrwt>
</event>
<event>
 5    1  0.2968854E-003  0.1542037E+03  0.7818608E-02  0.1347155E+00
         11   -1    0    0    0    0  0.00000000000E+00  0.00000000000E+00  0.10001481628E+04  0.10001481628E+04  0.51100000000E-03 0.  1.
          2   -1    0    0  501    0 -0.00000000000E+00 -0.00000000000E+00 -0.32295157164E+02  0.32295157265E+02  0.25500000000E-02 0.  1.
         11    1    1    2    0    0 -0.14157701133E+03  0.27850557676E+02  0.32800081890E+03  0.35833537489E+03  0.51100000000E-03 0.  1.
         22    1    1    2    0    0 -0.86031464318E+01  0.34403862368E+02  0.44197048232E+02  0.56665853447E+02  0.00000000000E+00 0.  1.
          2    1    1    2  501    0  0.15018015776E+03 -0.62254420045E+02  0.59565513848E+03  0.61744209170E+03  0.25500000000E-02 0.  1.
<mgrwt>
<rscale>  0 0.73949682E+02</rscale>
<asrwt>0</asrwt>
<pdfrwt beam="1">  1       11 0.10000000E+01 0.15420366E+03</pdfrwt>
<pdfrwt beam="2">  1        2 0.49692217E-02 0.73949682E+02</pdfrwt>
<totfact> 0.17501298E+03</totfact>
</mgrwt>
</event>
<event>
 5    1  0.2968854E-003  0.1667003E+03  0.7818608E-02  0.1190776E+00
         11   -1    0    0    0    0  0.00000000000E+00  0.00000000000E+00  0.10004761204E+04  0.10004761204E+04  0.51100000000E-03 0. -1.
         -2   -1    0    0    0  501 -0.00000000000E+00 -0.00000000000E+00 -0.26373125757E+02  0.26373125880E+02  0.25500000000E-02 0.  1.
         11    1    1    2    0    0 -0.53496251613E+02  0.86616566613E+02  0.38129925233E+03  0.39465605073E+03  0.51100000000E-03 0. -1.
         22    1    1    2    0    0 -0.46618257197E+02  0.35839207900E+02  0.11998383633E+03  0.13361823119E+03  0.00000000000E+00 0. -1.
         -2    1    1    2    0  501  0.10011450881E+03 -0.12245577451E+03  0.47281990603E+03  0.49857496440E+03  0.25500000000E-02 0.  1.
<mgrwt>
<rscale>  0 0.15817184E+03</rscale>
<asrwt>0</asrwt>
<pdfrwt beam="1">  1       11 0.10000000E+01 0.16670028E+03</pdfrwt>
<pdfrwt beam="2">  1       -2 0.40593357E-02 0.15817184E+03</pdfrwt>
<totfact> 0.20460084E+03</totfact>
</mgrwt>
</event>
<event>
 5    1  0.2968854E-003  0.6868068E+02  0.7818608E-02  0.1403487E+00
         11   -1    0    0    0    0  0.00000000000E+00  0.00000000000E+00  0.10002319631E+04  0.10002319631E+04  0.51100000000E-03 0. -1.
          2   -1    0    0  501    0 -0.00000000000E+00 -0.00000000000E+00 -0.10556250573E+02  0.10556250881E+02  0.25500000000E-02 0. -1.
         11    1    1    2    0    0  0.57070683099E+02 -0.70913396519E+01  0.25356592010E+03  0.26000581879E+03  0.51100000000E-03 0. -1.
         22    1    1    2    0    0  0.18499830582E+02  0.46584300281E+02  0.14203761058E+03  0.15062212182E+03  0.00000000000E+00 0.  1.
          2    1    1    2  501    0 -0.75570513680E+02 -0.39492960629E+02  0.59407218186E+03  0.60016027338E+03  0.25500000000E-02 0. -1.
<mgrwt>
<rscale>  0 0.58672800E+02</rscale>
<asrwt>0</asrwt>
<pdfrwt beam="1">  1       11 0.10000000E+01 0.68680677E+02</pdfrwt>
<pdfrwt beam="2">  1        2 0.16244152E-02 0.58672800E+02</pdfrwt>
<totfact> 0.73927904E+03</totfact>
</mgrwt>
</event>
<event>
 5    1  0.2968854E-003  0.1622213E+03  0.7818608E-02  0.1207014E+00
         11   -1    0    0    0    0  0.00000000000E+00  0.00000000000E+00  0.10003478518E+04  0.10003478518E+04  0.51100000000E-03 0.  1.
          2   -1    0    0  501    0 -0.00000000000E+00 -0.00000000000E+00 -0.32716945864E+02  0.32716945963E+02  0.25500000000E-02 0.  1.
         11    1    1    2    0    0 -0.10450720097E+03  0.34687808223E+02  0.49596075809E+03  0.50803747171E+03  0.51100000000E-03 0.  1.
         22    1    1    2    0    0 -0.13083429865E+02  0.49805700479E+02  0.28061516895E+03  0.28530099366E+03  0.00000000000E+00 0.  1.
          2    1    1    2  501    0  0.11759063084E+03 -0.84493508702E+02  0.19105497886E+03  0.23972633236E+03  0.25500000000E-02 0.  1.
<mgrwt>
<rscale>  0 0.14479886E+03</rscale>
<asrwt>0</asrwt>
<pdfrwt beam="1">  1       11 0.10000000E+01 0.16222130E+03</pdfrwt>
<pdfrwt beam="2">  1        2 0.50351270E-02 0.14479886E+03</pdfrwt>
<totfact> 0.18254490E+03</totfact>
</mgrwt>
</event>
<event>
 5    1  0.2968854E-003  0.1622386E+03  0.7818608E-02  0.1186192E+00
         11   -1    0    0    0    0  0.00000000000E+00  0.00000000000E+00  0.10005733158E+04  0.10005733158E+04  0.51100000000E-03 0. -1.
          2   -1    0    0  501    0 -0.00000000000E+00 -0.00000000000E+00 -0.26205491605E+04  0.26205491605E+04  0.25500000000E-02 0. -1.
         11    1    1    2    0    0 -0.84837411922E+02  0.52632631843E+02  0.14266043340E+03  0.17412518386E+03  0.51100000000E-03 0. -1.
         22    1    1    2    0    0  0.11006796670E+03  0.10775012411E+03  0.83257975385E+03  0.84670779674E+03  0.00000000000E+00 0. -1.
          2    1    1    2  501    0 -0.25230554774E+02 -0.16038275596E+03 -0.25952160320E+04  0.26002894958E+04  0.25500000000E-02 0. -1.
<mgrwt>
<rscale>  0 0.16223857E+03</rscale>
<asrwt>0</asrwt>
<pdfrwt beam="1">  1       11 0.10000000E+01 0.99837770E+02</pdfrwt>
<pdfrwt beam="2">  1        2 0.40339254E+00 0.16223857E+03</pdfrwt>
<totfact> 0.46021939E+00</totfact>
</mgrwt>
</event>
<event>
 5    1  0.2968854E-003  0.1755752E+03  0.7818608E-02  0.1278139E+00
         11   -1    0    0    0    0  0.00000000000E+00  0.00000000000E+00  0.10003429832E+04  0.10003429832E+04  0.51100000000E-03 0. -1.
          2   -1    0    0  501    0 -0.00000000000E+00 -0.00000000000E+00 -0.48701782639E+02  0.48701782705E+02  0.25500000000E-02 0. -1.
         11    1    1    2    0    0 -0.13470133989E+03  0.81366032009E+02  0.44286629356E+03  0.46999514477E+03  0.51100000000E-03 0. -1.
         22    1    1    2    0    0 -0.22943543108E+02  0.53419762859E+02  0.54605377823E+02  0.79761046391E+02  0.00000000000E+00 0. -1.
          2    1    1    2  501    0  0.15764488300E+03 -0.13478579487E+03  0.45416952918E+03  0.49928857475E+03  0.25500000000E-02 0. -1.
<mgrwt>
<rscale>  0 0.10103301E+03</rscale>
<asrwt>0</asrwt>
<pdfrwt beam="1">  1       11 0.10000000E+01 0.17557524E+03</pdfrwt>
<pdfrwt beam="2">  1        2 0.74951516E-02 0.10103301E+03</pdfrwt>
<totfact> 0.10670494E+03</totfact>
</mgrwt>
</event>
<event>
 5    1  0.2968854E-003  0.2742683E+03  0.7818608E-02  0.1189929E+00
         11   -1    0    0    0    0  0.00000000000E+00  0.00000000000E+00  0.99999718266E+03  0.99999718266E+03  0.51100000000E-03 0.  1.
          2   -1    0    0  501    0 -0.00000000000E+00 -0.00000000000E+00 -0.13138295240E+03  0.13138295242E+03  0.25500000000E-02 0.  1.
         11    1    1    2    0    0 -0.21074010540E+03  0.10872360399E+03  0.27722411913E+03  0.36480875307E+03  0.51100000000E-03 0.  1.
         22    1    1    2    0    0 -0.27389532457E+02  0.87907782724E+02 -0.78769437909E+01  0.92412179907E+02  0.00000000000E+00 0.  1.
          2    1    1    2  501    0  0.23812963785E+03 -0.19663138671E+03  0.59926705492E+03  0.67415920210E+03  0.25500000000E-02 0.  1.
<mgrwt>
<rscale>  0 0.15891344E+03</rscale>
<asrwt>0</asrwt>
<pdfrwt beam="1">  1       11 0.10000000E+01 0.27426834E+03</pdfrwt>
<pdfrwt beam="2">  1        2 0.20212704E-01 0.15891344E+03</pdfrwt>
<totfact> 0.33365029E+02</totfact>
</mgrwt>
</event>
<event>
 5    1  0.2968854E-003  0.5674263E+02  0.7818608E-02  0.1412033E+00
         11   -1    0    0    0    0  0.00000000000E+00  0.00000000000E+00  0.10002549341E+04  0.10002549341E+04  0.51100000000E-03 0. -1.
          2   -1    0    0  501    0 -0.00000000000E+00 -0.00000000000E+00 -0.64627993514E+01  0.64627998544E+01  0.25500000000E-02 0.  1.
         11    1    1    2    0    0 -0.12315061576E+02  0.33766325242E+02  0.13528147062E+03  0.13997464683E+03  0.51100000000E-03 0. -1.
         22    1    1    2    0    0 -0.19222976031E+02 -0.66941618518E+02  0.40678421434E+03  0.41270340456E+03  0.00000000000E+00 0. -1.
          2    1    1    2  501    0  0.31538037607E+02  0.33175293276E+02  0.45172644982E+03  0.45403968260E+03  0.25500000000E-02 0.  1.
<mgrwt>
<rscale>  0 0.56742628E+02</rscale>
<asrwt>0</asrwt>
<pdfrwt beam="1">  1       11 0.10000000E+01 0.35941992E+02</pdfrwt>
<pdfrwt beam="2">  1        2 0.99453031E-03 0.56742628E+02</pdfrwt>
<totfact> 0.14211791E+04</totfact>
</mgrwt>
</event>
<event>
 5    1  0.2968854E-003  0.1246471E+03  0.7818608E-02  0.1415472E+00
         11   -1    0    0    0    0  0.00000000000E+00  0.00000000000E+00  0.10002684018E+04  0.10002684018E+04  0.51100000000E-03 0. -1.
          2   -1    0    0  501    0 -0.00000000000E+00 -0.00000000000E+00 -0.20147492453E+02  0.20147492614E+02  0.25500000000E-02 0. -1.
         11    1    1    2    0    0 -0.71289663941E+02  0.10446290975E+03  0.36427639028E+03  0.38560602202E+03  0.51100000000E-03 0. -1.
         22    1    1    2    0    0  0.22973547501E+02  0.10235603061E+02  0.57464896279E+02  0.62727711254E+02  0.00000000000E+00 0. -1.
          2    1    1    2  501    0  0.48316116440E+02 -0.11469851281E+03  0.55837962280E+03  0.57208216116E+03  0.25500000000E-02 0. -1.
<mgrwt>
<rscale>  0 0.55990585E+02</rscale>
<asrwt>0</asrwt>
<pdfrwt beam="1">  1       11 0.10000000E+01 0.12464713E+03</pdfrwt>
<pdfrwt beam="2">  1        2 0.31004461E-02 0.55990585E+02</pdfrwt>
<totfact> 0.31246415E+03</totfact>
</mgrwt>
</event>
<event>
 5    1  0.2968854E-003  0.5875003E+03  0.7818608E-02  0.9931684E-01
         11   -1    0    0    0    0  0.00000000000E+00  0.00000000000E+00  0.10005802508E+04  0.10005802508E+04  0.51100000000E-03 0.  1.
         -2   -1    0    0    0  501 -0.00000000000E+00 -0.00000000000E+00 -0.41664449578E+03  0.41664449579E+03  0.25500000000E-02 0. -1.
         11    1    1    2    0    0  0.21679298376E+02 -0.12924975860E+02  0.69502623320E+02  0.73943638183E+02  0.51100000000E-03 0.  1.
         22    1    1    2    0    0  0.56139453631E+03 -0.10855915569E+03  0.48022796862E+03  0.74670463875E+03  0.00000000000E+00 0.  1.
         -2    1    1    2    0  501 -0.58307383469E+03  0.12148413155E+03  0.34205163040E+02  0.59657646962E+03  0.25500000000E-02 0. -1.
<mgrwt>
<rscale>  0 0.58750032E+03</rscale>
<asrwt>0</asrwt>
<pdfrwt beam="1">  1       11 0.10000000E+01 0.25239790E+02</pdfrwt>
<pdfrwt beam="2">  1       -2 0.64136345E-01 0.58750032E+03</pdfrwt>
<totfact> 0.18419483E+01</totfact>
</mgrwt>
</event>
<event>
 5    1  0.2968854E-003  0.2094767E+03  0.7818608E-02  0.1144776E+00
         11   -1    0    0    0    0  0.00000000000E+00  0.00000000000E+00  0.10005007891E+04  0.10005007891E+04  0.51100000000E-03 0. -1.
          2   -1    0    0  501    0 -0.00000000000E+00 -0.00000000000E+00 -0.54196529941E+03  0.54196529942E+03  0.25500000000E-02 0. -1.
         11    1    1    2    0    0  0.22369149252E+03  0.51855491080E+02 -0.26398977956E+02  0.23113585144E+03  0.51100000000E-03 0. -1.
         22    1    1    2    0    0 -0.16150878411E+03  0.14453154994E+03  0.85811870507E+03  0.88506619428E+03  0.00000000000E+00 0. -1.
          2    1    1    2  501    0 -0.62182708419E+02 -0.19638704102E+03 -0.37318423743E+03  0.42626404279E+03  0.25500000000E-02 0. -1.
<mgrwt>
<rscale>  0 0.20599650E+03</rscale>
<asrwt>0</asrwt>
<pdfrwt beam="1">  1       11 0.10000000E+01 0.20947675E+03</pdfrwt>
<pdfrwt beam="2">  1        2 0.83421030E-01 0.20599650E+03</pdfrwt>
<totfact> 0.71095535E+01</totfact>
</mgrwt>
</event>
<event>
 5    1  0.2968854E-003  0.1287004E+03  0.7818608E-02  0.1229397E+00
         11   -1    0    0    0    0  0.00000000000E+00  0.00000000000E+00  0.10000335869E+04  0.10000335869E+04  0.51100000000E-03 0. -1.
          2   -1    0    0  501    0 -0.00000000000E+00 -0.00000000000E+00 -0.10811768237E+03  0.10811768240E+03  0.25500000000E-02 0. -1.
         11    1    1    2    0    0  0.67541622489E+02  0.70419323001E+02  0.56002550201E+02  0.11250349972E+03  0.51100000000E-03 0. -1.
         22    1    1    2    0    0 -0.16637803385E+03  0.11073666255E+02  0.85052533287E+03  0.86671657310E+03  0.00000000000E+00 0. -1.
          2    1    1    2  501    0  0.98836411363E+02 -0.81492989257E+02 -0.14611978511E+02  0.12893119650E+03  0.25500000000E-02 0. -1.
<mgrwt>
<rscale>  0 0.12870042E+03</rscale>
<asrwt>0</asrwt>
<pdfrwt beam="1">  1       11 0.10000000E+01 0.97574389E+02</pdfrwt>
<pdfrwt beam="2">  1        2 0.16634048E-01 0.12870042E+03</pdfrwt>
<totfact> 0.41391731E+02</totfact>
</mgrwt>
</event>
<event>
 5    1  0.2968854E-003  0.8340031E+02  0.7818608E-02  0.1325411E+00
         11   -1    0    0    0    0  0.00000000000E+00  0.00000000000E+00  0.99998863524E+03  0.99998863524E+03  0.51100000000E-03 0. -1.
         -2   -1    0    0    0  501 -0.00000000000E+00 -0.00000000000E+00 -0.84344898485E+01  0.84344902339E+01  0.25500000000E-02 0. -1.
         11    1    1    2    0    0  0.16596969123E+01 -0.53240479419E+02  0.18945330893E+03  0.19679903330E+03  0.51100000000E-03 0. -1.
         22    1    1    2    0    0  0.13424778271E+02 -0.26644567482E+02  0.88207382480E+02  0.93116593430E+02  0.00000000000E+00 0. -1.
         -2    1    1    2    0  501 -0.15084475183E+02  0.79885046901E+02  0.71389345398E+03  0.71850749875E+03  0.25500000000E-02 0. -1.
<mgrwt>
<rscale>  0 0.81296753E+02</rscale>
<asrwt>0</asrwt>
<pdfrwt beam="1">  1       11 0.10000000E+01 0.83400306E+02</pdfrwt>
<pdfrwt beam="2">  1       -2 0.12975991E-02 0.81296753E+02</pdfrwt>
<totfact> 0.98791572E+03</totfact>
</mgrwt>
</event>
<event>
 5    1  0.2968854E-003  0.1060232E+03  0.7818608E-02  0.1718182E+00
         11   -1    0    0    0    0  0.00000000000E+00  0.00000000000E+00  0.10001603568E+04  0.10001603568E+04  0.51100000000E-03 0. -1.
         -2   -1    0    0    0  501 -0.00000000000E+00 -0.00000000000E+00 -0.16109595015E+02  0.16109595217E+02  0.25500000000E-02 0. -1.
         11    1    1    2    0    0  0.17052325954E+02 -0.11112739933E+03  0.49629796317E+03  0.50887301849E+03  0.51100000000E-03 0. -1.
         22    1    1    2    0    0 -0.32199535873E+02  0.95958662724E+02  0.46596564935E+03  0.47683211033E+03  0.00000000000E+00 0. -1.
         -2    1    1    2    0  501  0.15147209920E+02  0.15168736603E+02  0.21787149308E+02  0.30564823244E+02  0.25500000000E-02 0. -1.
<mgrwt>
<rscale>  0 0.21436617E+02</rscale>
<asrwt>0</asrwt>
<pdfrwt beam="1">  1       11 0.10000000E+01 0.10602318E+03</pdfrwt>
<pdfrwt beam="2">  1       -2 0.24787966E-02 0.21436617E+02</pdfrwt>
<totfact> 0.31874384E+03</totfact>
</mgrwt>
</event>
<event>
 5    1  0.2968854E-003  0.9746155E+02  0.7818608E-02  0.1285726E+00
         11   -1    0    0    0    0  0.00000000000E+00  0.00000000000E+00  0.10001826716E+04  0.10001826716E+04  0.51100000000E-03 0. -1.
          2   -1    0    0  501    0 -0.00000000000E+00 -0.00000000000E+00 -0.11241327778E+02  0.11241328067E+02  0.25500000000E-02 0.  1.
         11    1    1    2    0    0 -0.92116494833E+02  0.28714350724E+02  0.37533587373E+03  0.38753965045E+03  0.51100000000E-03 0. -1.
         22    1    1    2    0    0 -0.58424589481E+01 -0.11932150203E+02  0.63871301761E+02  0.65238437471E+02  0.00000000000E+00 0. -1.
          2    1    1    2  501    0  0.97958953781E+02 -0.16782200522E+02  0.54973416835E+03  0.55864591177E+03  0.25500000000E-02 0.  1.
<mgrwt>
<rscale>  0 0.97461551E+02</rscale>
<asrwt>0</asrwt>
<pdfrwt beam="1">  1       11 0.10000000E+01 0.13285727E+02</pdfrwt>
<pdfrwt beam="2">  1        2 0.17297509E-02 0.97461551E+02</pdfrwt>
<totfact> 0.73051295E+03</totfact>
</mgrwt>
</event>
<event>
 5    1  0.2968854E-003  0.1567676E+03  0.7818608E-02  0.1200191E+00
         11   -1    0    0    0    0  0.00000000000E+00  0.00000000000E+00  0.10000821299E+04  0.10000821299E+04  0.51100000000E-03 0. -1.
          2   -1    0    0  501    0 -0.00000000000E+00 -0.00000000000E+00 -0.26560820931E+02  0.26560821053E+02  0.25500000000E-02 0. -1.
         11    1    1    2    0    0 -0.51966888291E+02  0.65812492613E+02  0.27961936413E+03  0.29192264465E+03  0.51100000000E-03 0. -1.
         22    1    1    2    0    0 -0.27052361731E+02  0.61956472136E+02  0.38884425351E+03  0.39467744831E+03  0.00000000000E+00 0. -1.
          2    1    1    2  501    0  0.79019250023E+02 -0.12776896475E+03  0.30505769131E+03  0.34004285798E+03  0.25500000000E-02 0. -1.
<mgrwt>
<rscale>  0 0.15022966E+03</rscale>
<asrwt>0</asrwt>
<pdfrwt beam="1">  1       11 0.10000000E+01 0.15676760E+03</pdfrwt>
<pdfrwt beam="2">  1        2 0.40866156E-02 0.15022966E+03</pdfrwt>
<totfact> 0.24105058E+03</totfact>
</mgrwt>
</event>
<event>
 5    1  0.2968854E-003  0.1688025E+03  0.7818608E-02  0.1190327E+00
         11   -1    0    0    0    0  0.00000000000E+00  0.00000000000E+00  0.10002444815E+04  0.10002444815E+04  0.51100000000E-03 0.  1.
          2   -1    0    0  501    0 -0.00000000000E+00 -0.00000000000E+00 -0.37120881021E+02  0.37120881109E+02  0.25500000000E-02 0.  1.
         11    1    1    2    0    0  0.14007991996E+03  0.35193403183E+02  0.68104903361E+03  0.69619591049E+03  0.51100000000E-03 0.  1.
         22    1    1    2    0    0  0.17331150462E+02 -0.16101163520E+02  0.84967637494E+02  0.88199295147E+02  0.00000000000E+00 0. -1.
          2    1    1    2  501    0 -0.15741107042E+03 -0.19092239663E+02  0.19710692940E+03  0.25297015700E+03  0.25500000000E-02 0.  1.
<mgrwt>
<rscale>  0 0.15856468E+03</rscale>
<asrwt>0</asrwt>
<pdfrwt beam="1">  1       11 0.10000000E+01 0.16880254E+03</pdfrwt>
<pdfrwt beam="2">  1        2 0.57123008E-02 0.15856468E+03</pdfrwt>
<totfact> 0.15597100E+03</totfact>
</mgrwt>
</event>
<event>
 5    1  0.2968854E-003  0.5327375E+02  0.7818608E-02  0.1435456E+00
         11   -1    0    0    0    0  0.00000000000E+00  0.00000000000E+00  0.10001179314E+04  0.10001179314E+04  0.51100000000E-03 0.  1.
          2   -1    0    0  501    0 -0.00000000000E+00 -0.00000000000E+00 -0.41840956479E+01  0.41840964249E+01  0.25500000000E-02 0.  1.
         11    1    1    2    0    0  0.20605378568E+02 -0.17488216442E+01  0.87823632468E+02  0.90225442217E+02  0.51100000000E-03 0.  1.
         22    1    1    2    0    0  0.30298326792E+02  0.11767518259E+02  0.12197633693E+03  0.12623268143E+03  0.00000000000E+00 0.  1.
          2    1    1    2  501    0 -0.50903705360E+02 -0.10018696615E+02  0.78613386632E+03  0.78784390414E+03  0.25500000000E-02 0.  1.
<mgrwt>
<rscale>  0 0.51880261E+02</rscale>
<asrwt>0</asrwt>
<pdfrwt beam="1">  1       11 0.10000000E+01 0.53273747E+02</pdfrwt>
<pdfrwt beam="2">  1        2 0.64378298E-03 0.51880261E+02</pdfrwt>
<totfact> 0.25137285E+04</totfact>
</mgrwt>
</event>
<event>
 5    1  0.2968854E-003  0.3483880E+03  0.7818608E-02  0.1064975E+00
         11   -1    0    0    0    0  0.00000000000E+00  0.00000000000E+00  0.10007781569E+04  0.10007781569E+04  0.51100000000E-03 0. -1.
          2   -1    0    0  501    0 -0.00000000000E+00 -0.00000000000E+00 -0.11664507680E+04  0.11664507680E+04  0.25500000000E-02 0. -1.
         11    1    1    2    0    0 -0.31125393415E+03 -0.25554761687E+01  0.86699168908E+03  0.92117323611E+03  0.51100000000E-03 0. -1.
         22    1    1    2    0    0 -0.32580611101E+02 -0.15532338461E+02  0.76549583995E+02  0.84632077651E+02  0.00000000000E+00 0. -1.
          2    1    1    2  501    0  0.34383454525E+03  0.18087814630E+02 -0.11092138842E+04  0.11614236111E+04  0.25500000000E-02 0. -1.
<mgrwt>
<rscale>  0 0.34430998E+03</rscale>
<asrwt>0</asrwt>
<pdfrwt beam="1">  1       11 0.10000000E+01 0.34838800E+03</pdfrwt>
<pdfrwt beam="2">  1        2 0.17959360E+00 0.34430998E+03</pdfrwt>
<totfact> 0.25776046E+01</totfact>
</mgrwt>
</event>
<event>
 5    1  0.2968854E-003  0.1722132E+03  0.7818608E-02  0.1576521E+00
         11   -1    0    0    0    0  0.00000000000E+00  0.00000000000E+00  0.10001501475E+04  0.10001501475E+04  0.51100000000E-03 0. -1.
          2   -1    0    0  501    0 -0.00000000000E+00 -0.00000000000E+00 -0.37630524904E+02  0.37630524991E+02  0.25500000000E-02 0. -1.
         11    1    1    2    0    0 -0.75239693264E+02 -0.16677513183E+03  0.38307813946E+03  0.42452775760E+03  0.51100000000E-03 0. -1.
         22    1    1    2    0    0  0.91246334471E+02  0.13901369923E+03  0.51675793042E+03  0.54285307476E+03  0.00000000000E+00 0. -1.
          2    1    1    2  501    0 -0.16006641207E+02  0.27761432599E+02  0.62683552717E+02  0.70399840131E+02  0.25500000000E-02 0. -1.
<mgrwt>
<rscale>  0 0.32045432E+02</rscale>
<asrwt>0</asrwt>
<pdfrwt beam="1">  1       11 0.10000000E+01 0.17221317E+03</pdfrwt>
<pdfrwt beam="2">  1        2 0.57901806E-02 0.32045432E+02</pdfrwt>
<totfact> 0.13236029E+03</totfact>
</mgrwt>
</event>
<event>
 5    1  0.2968854E-003  0.2012729E+03  0.7818608E-02  0.1155696E+00
         11   -1    0    0    0    0  0.00000000000E+00  0.00000000000E+00  0.10002547633E+04  0.10002547633E+04  0.51100000000E-03 0. -1.
          2   -1    0    0  501    0 -0.00000000000E+00 -0.00000000000E+00 -0.48593283347E+02  0.48593283414E+02  0.25500000000E-02 0. -1.
         11    1    1    2    0    0  0.64494638993E+02  0.67723391072E+02  0.75843126161E+02  0.12040845462E+03  0.51100000000E-03 0. -1.
         22    1    1    2    0    0  0.68274142532E+02  0.72488754952E+02  0.17335994273E+03  0.19992410529E+03  0.00000000000E+00 0. -1.
          2    1    1    2  501    0 -0.13276878153E+03 -0.14021214602E+03  0.70245841109E+03  0.72851548683E+03  0.25500000000E-02 0. -1.
<mgrwt>
<rscale>  0 0.19309841E+03</rscale>
<asrwt>0</asrwt>
<pdfrwt beam="1">  1       11 0.10000000E+01 0.20127290E+03</pdfrwt>
<pdfrwt beam="2">  1        2 0.74777941E-02 0.19309841E+03</pdfrwt>
<totfact> 0.11175060E+03</totfact>
</mgrwt>
</event>
<event>
 5    1  0.2968854E-003  0.1041515E+03  0.7818608E-02  0.1360230E+00
         11   -1    0    0    0    0  0.00000000000E+00  0.00000000000E+00  0.10000090261E+04  0.10000090261E+04  0.51100000000E-03 0. -1.
          2   -1    0    0  501    0 -0.00000000000E+00 -0.00000000000E+00 -0.65322641824E+02  0.65322641874E+02  0.25500000000E-02 0. -1.
         11    1    1    2    0    0 -0.10029405159E+03  0.76427459955E+02  0.35515259705E+03  0.37687321557E+03  0.51100000000E-03 0. -1.
         22    1    1    2    0    0  0.10107029785E+03 -0.64718901013E+01  0.60544280023E+03  0.61385509269E+03  0.00000000000E+00 0. -1.
          2    1    1    2  501    0 -0.77624625998E+00 -0.69955569853E+02 -0.25909013045E+02  0.74603359678E+02  0.25500000000E-02 0. -1.
<mgrwt>
<rscale>  0 0.69959876E+02</rscale>
<asrwt>0</asrwt>
<pdfrwt beam="1">  1       11 0.10000000E+01 0.10415147E+03</pdfrwt>
<pdfrwt beam="2">  1        2 0.10049728E-01 0.69959876E+02</pdfrwt>
<totfact> 0.72564441E+02</totfact>
</mgrwt>
</event>
<event>
 5    1  0.2968854E-003  0.2942450E+03  0.7818608E-02  0.1098758E+00
         11   -1    0    0    0    0  0.00000000000E+00  0.00000000000E+00  0.10000629723E+04  0.10000629723E+04  0.51100000000E-03 0.  1.
          2   -1    0    0  501    0 -0.00000000000E+00 -0.00000000000E+00 -0.17301293402E+03  0.17301293404E+03  0.25500000000E-02 0.  1.
         11    1    1    2    0    0  0.89932226985E+02  0.85150477394E+02  0.26229741373E+03  0.29006610023E+03  0.51100000000E-03 0.  1.
         22    1    1    2    0    0  0.15811141336E+03  0.32317194400E+02  0.58592354461E+03  0.60774173809E+03  0.00000000000E+00 0.  1.
          2    1    1    2  501    0 -0.24804364035E+03 -0.11746767179E+03 -0.21170920015E+02  0.27526806806E+03  0.25500000000E-02 0.  1.
<mgrwt>
<rscale>  0 0.27445273E+03</rscale>
<asrwt>0</asrwt>
<pdfrwt beam="1">  1       11 0.10000000E+01 0.29424500E+03</pdfrwt>
<pdfrwt beam="2">  1        2 0.26619050E-01 0.27445273E+03</pdfrwt>
<totfact> 0.24797213E+02</totfact>
</mgrwt>
</event>
<event>
 5    1  0.2968854E-003  0.1436036E+03  0.7818608E-02  0.1211574E+00
         11   -1    0    0    0    0  0.00000000000E+00  0.00000000000E+00  0.99999826196E+03  0.99999826196E+03  0.51100000000E-03 0.  1.
          2   -1    0    0  501    0 -0.00000000000E+00 -0.00000000000E+00 -0.32199943986E+02  0.32199944087E+02  0.25500000000E-02 0.  1.
         11    1    1    2    0    0  0.11017465445E+03 -0.45840720908E+02  0.13146033027E+03  0.17754335981E+03  0.51100000000E-03 0.  1.
         22    1    1    2    0    0  0.17787321152E+02 -0.14117604669E+02  0.41077245096E+02  0.46936506261E+02  0.00000000000E+00 0. -1.
          2    1    1    2  501    0 -0.12796197560E+03  0.59958325577E+02  0.79526074261E+03  0.80771833998E+03  0.25500000000E-02 0.  1.
<mgrwt>
<rscale>  0 0.14131266E+03</rscale>
<asrwt>0</asrwt>
<pdfrwt beam="1">  1       11 0.10000000E+01 0.14360360E+03</pdfrwt>
<pdfrwt beam="2">  1        2 0.49538288E-02 0.14131266E+03</pdfrwt>
<totfact> 0.18610427E+03</totfact>
</mgrwt>
</event>
<event>
 5    1  0.2968854E-003  0.3657168E+03  0.7818608E-02  0.1058832E+00
         11   -1    0    0    0    0  0.00000000000E+00  0.00000000000E+00  0.10001397860E+04  0.10001397860E+04  0.51100000000E-03 0. -1.
         -2   -1    0    0    0  501 -0.00000000000E+00 -0.00000000000E+00 -0.15294203876E+03  0.15294203879E+03  0.25500000000E-02 0. -1.
         11    1    1    2    0    0  0.13828312724E+03  0.31248160112E+03  0.57854081871E+03  0.67191997532E+03  0.51100000000E-03 0. -1.
         22    1    1    2    0    0 -0.36400791129E+01  0.20717476249E+02  0.64504746939E+02  0.67847817767E+02  0.00000000000E+00 0.  1.
         -2    1    1    2    0  501 -0.13464304813E+03 -0.33319907737E+03  0.20415218163E+03  0.41331403174E+03  0.25500000000E-02 0. -1.
<mgrwt>
<rscale>  0 0.35937498E+03</rscale>
<asrwt>0</asrwt>
<pdfrwt beam="1">  1       11 0.10000000E+01 0.36571681E+03</pdfrwt>
<pdfrwt beam="2">  1       -2 0.23532833E-01 0.35937498E+03</pdfrwt>
<totfact> 0.12796153E+02</totfact>
</mgrwt>
</event>
<event>
 5    1  0.2968854E-003  0.7886346E+02  0.7818608E-02  0.1341822E+00
         11   -1    0    0    0    0  0.00000000000E+00  0.00000000000E+00  0.10001503361E+04  0.10001503361E+04  0.51100000000E-03 0.  1.
          2   -1    0    0  501    0 -0.00000000000E+00 -0.00000000000E+00 -0.18166520192E+02  0.18166520371E+02  0.25500000000E-02 0.  1.
         11    1    1    2    0    0 -0.82951504947E+02  0.34753645215E+02  0.33231152265E+03  0.34426692568E+03  0.51100000000E-03 0.  1.
         22    1    1    2    0    0  0.74905398182E+02  0.40482857209E+02  0.49017193039E+03  0.49751201166E+03  0.00000000000E+00 0.  1.
          2    1    1    2  501    0  0.80461067643E+01 -0.75236502424E+02  0.15950036288E+03  0.17653791915E+03  0.25500000000E-02 0.  1.
<mgrwt>
<rscale>  0 0.75665521E+02</rscale>
<asrwt>0</asrwt>
<pdfrwt beam="1">  1       11 0.10000000E+01 0.78863455E+02</pdfrwt>
<pdfrwt beam="2">  1        2 0.27952694E-02 0.75665521E+02</pdfrwt>
<totfact> 0.37159957E+03</totfact>
</mgrwt>
</event>
<event>
 5    1  0.2968854E-003  0.3318810E+03  0.7818608E-02  0.1070308E+00
         11   -1    0    0    0    0  0.00000000000E+00  0.00000000000E+00  0.10003775696E+04  0.10003775696E+04  0.51100000000E-03 0. -1.
          2   -1    0    0  501    0 -0.00000000000E+00 -0.00000000000E+00 -0.13225504484E+04  0.13225504484E+04  0.25500000000E-02 0.  1.
         11    1    1    2    0    0 -0.22134374679E+03  0.23418301328E+03  0.83168818276E+03  0.89193047448E+03  0.51100000000E-03 0. -1.
         22    1    1    2    0    0 -0.66605996161E+02 -0.68015821675E+02  0.97475997954E+02  0.13625006752E+03  0.00000000000E+00 0.  1.
          2    1    1    2  501    0  0.28794974295E+03 -0.16616719161E+03 -0.12513370595E+04  0.12947474760E+04  0.25500000000E-02 0.  1.
<mgrwt>
<rscale>  0 0.33188104E+03</rscale>
<asrwt>0</asrwt>
<pdfrwt beam="1">  1       11 0.10000000E+01 0.95197220E+02</pdfrwt>
<pdfrwt beam="2">  1        2 0.20354612E+00 0.33188104E+03</pdfrwt>
<totfact> 0.21072291E+01</totfact>
</mgrwt>
</event>
<event>
 5    1  0.2968854E-003  0.1274125E+03  0.7818608E-02  0.1653199E+00
         11   -1    0    0    0    0  0.00000000000E+00  0.00000000000E+00  0.10001422693E+04  0.10001422693E+04  0.51100000000E-03 0. -1.
          2   -1    0    0  501    0 -0.00000000000E+00 -0.00000000000E+00 -0.90046253794E+02  0.90046253830E+02  0.25500000000E-02 0.  1.
         11    1    1    2    0    0  0.13392160273E+03  0.54369100115E+02  0.39845783328E+03  0.42386276037E+03  0.51100000000E-03 0. -1.
         22    1    1    2    0    0 -0.10918000596E+03 -0.47985343728E+02  0.58063154765E+03  0.59275278240E+03  0.00000000000E+00 0.  1.
          2    1    1    2  501    0 -0.24741596765E+02 -0.63837563870E+01 -0.68993365439E+02  0.73572980348E+02  0.25500000000E-02 0.  1.
<mgrwt>
<rscale>  0 0.25551888E+02</rscale>
<asrwt>0</asrwt>
<pdfrwt beam="1">  1       11 0.10000000E+01 0.12741252E+03</pdfrwt>
<pdfrwt beam="2">  1        2 0.13855240E-01 0.25551888E+02</pdfrwt>
<totfact> 0.46542424E+02</totfact>
</mgrwt>
</event>
<event>
 5    1  0.2968854E-003  0.2838441E+03  0.7818608E-02  0.1096864E+00
         11   -1    0    0    0    0  0.00000000000E+00  0.00000000000E+00  0.10003341704E+04  0.10003341704E+04  0.51100000000E-03 0. -1.
         -2   -1    0    0    0  501 -0.00000000000E+00 -0.00000000000E+00 -0.12927198032E+03  0.12927198034E+03  0.25500000000E-02 0.  1.
         11    1    1    2    0    0  0.68460897044E+01  0.16460980124E+03  0.51319668395E+03  0.53899359182E+03  0.51100000000E-03 0. -1.
         22    1    1    2    0    0  0.42783533621E+02  0.10878060054E+03  0.27788914563E+03  0.30147309509E+03  0.00000000000E+00 0. -1.
         -2    1    1    2    0  501 -0.49629623325E+02 -0.27339040177E+03  0.79976360480E+02  0.28913946382E+03  0.25500000000E-02 0.  1.
<mgrwt>
<rscale>  0 0.27785862E+03</rscale>
<asrwt>0</asrwt>
<pdfrwt beam="1">  1       11 0.10000000E+01 0.28384408E+03</pdfrwt>
<pdfrwt beam="2">  1       -2 0.19894642E-01 0.27785862E+03</pdfrwt>
<totfact> 0.17046655E+02</totfact>
</mgrwt>
</event>
<event>
 5    1  0.2968854E-003  0.1689254E+03  0.7818608E-02  0.1181772E+00
         11   -1    0    0    0    0  0.00000000000E+00  0.00000000000E+00  0.10000717295E+04  0.10000717295E+04  0.51100000000E-03 0. -1.
          2   -1    0    0  501    0 -0.00000000000E+00 -0.00000000000E+00 -0.29546876994E+02  0.29546877104E+02  0.25500000000E-02 0. -1.
         11    1    1    2    0    0 -0.64718300652E+02 -0.12833998030E+03  0.49847092173E+03  0.51878017386E+03  0.51100000000E-03 0. -1.
         22    1    1    2    0    0 -0.76784431037E-01 -0.24808275657E+02  0.10470663752E+03  0.10760546630E+03  0.00000000000E+00 0. -1.
          2    1    1    2  501    0  0.64795085083E+02  0.15314825596E+03  0.36734729322E+03  0.40323296641E+03  0.25500000000E-02 0. -1.
<mgrwt>
<rscale>  0 0.16629128E+03</rscale>
<asrwt>0</asrwt>
<pdfrwt beam="1">  1       11 0.10000000E+01 0.16892543E+03</pdfrwt>
<pdfrwt beam="2">  1        2 0.45459993E-02 0.16629128E+03</pdfrwt>
<totfact> 0.21115152E+03</totfact>
</mgrwt>
</event>
<event>
 5    1  0.2968854E-003  0.1801014E+03  0.7818608E-02  0.1167705E+00
         11   -1    0    0    0    0  0.00000000000E+00  0.00000000000E+00  0.10008373019E+04  0.10008373019E+04  0.51100000000E-03 0. -1.
          2   -1    0    0  501    0 -0.00000000000E+00 -0.00000000000E+00 -0.12744330266E+04  0.12744330266E+04  0.25500000000E-02 0. -1.
         11    1    1    2    0    0  0.16690184699E+02 -0.79067251018E+01  0.32445218229E+02  0.37333239256E+02  0.51100000000E-03 0. -1.
         22    1    1    2    0    0  0.25130199137E+02 -0.16735086945E+03  0.95206840737E+03  0.96699125784E+03  0.00000000000E+00 0. -1.
          2    1    1    2  501    0 -0.41820383836E+02  0.17525759455E+03 -0.12581093503E+04  0.12709458314E+04  0.25500000000E-02 0. -1.
<mgrwt>
<rscale>  0 0.18010139E+03</rscale>
<asrwt>0</asrwt>
<pdfrwt beam="1">  1       11 0.10000000E+01 0.18468313E+02</pdfrwt>
<pdfrwt beam="2">  1        2 0.19623078E+00 0.18010139E+03</pdfrwt>
<totfact> 0.23285253E+01</totfact>
</mgrwt>
</event>
<event>
 5    1  0.2968854E-003  0.1673229E+03  0.7818608E-02  0.1556693E+00
         11   -1    0    0    0    0  0.00000000000E+00  0.00000000000E+00  0.10000024484E+04  0.10000024484E+04  0.51100000000E-03 0.  1.
         -2   -1    0    0    0  501 -0.00000000000E+00 -0.00000000000E+00 -0.50243720736E+02  0.50243720801E+02  0.25500000000E-02 0.  1.
         11    1    1    2    0    0  0.59049066106E+02 -0.15984693663E+03  0.55576790795E+03  0.58130525791E+03  0.51100000000E-03 0.  1.
         22    1    1    2    0    0 -0.87108729374E+02  0.14046079506E+03  0.40135106337E+03  0.43405050599E+03  0.00000000000E+00 0.  1.
         -2    1    1    2    0  501  0.28059663268E+02  0.19386141568E+02 -0.73602436768E+01  0.34890405287E+02  0.25500000000E-02 0.  1.
<mgrwt>
<rscale>  0 0.34105237E+02</rscale>
<asrwt>0</asrwt>
<pdfrwt beam="1">  1       11 0.10000000E+01 0.16732286E+03</pdfrwt>
<pdfrwt beam="2">  1       -2 0.77298219E-02 0.34105237E+02</pdfrwt>
<totfact> 0.67596993E+02</totfact>
</mgrwt>
</event>
<event>
 5    1  0.2968854E-003  0.4669573E+02  0.7818608E-02  0.1511717E+00
         11   -1    0    0    0    0  0.00000000000E+00  0.00000000000E+00  0.10000223724E+04  0.10000223724E+04  0.51100000000E-03 0. -1.
          2   -1    0    0  501    0 -0.00000000000E+00 -0.00000000000E+00 -0.44873178048E+01  0.44873185294E+01  0.25500000000E-02 0. -1.
         11    1    1    2    0    0 -0.25245454925E+02  0.24833343565E+02  0.18984221453E+03  0.19311678945E+03  0.51100000000E-03 0. -1.
         22    1    1    2    0    0  0.89354267179E+01  0.32244545655E+02  0.19796947054E+03  0.20077714970E+03  0.00000000000E+00 0. -1.
          2    1    1    2  501    0  0.16310028208E+02 -0.57077889220E+02  0.60772336953E+03  0.61061575180E+03  0.25500000000E-02 0. -1.
<mgrwt>
<rscale>  0 0.39527523E+02</rscale>
<asrwt>0</asrwt>
<pdfrwt beam="1">  1       11 0.10000000E+01 0.46695729E+02</pdfrwt>
<pdfrwt beam="2">  1        2 0.69037207E-03 0.39527523E+02</pdfrwt>
<totfact> 0.21626496E+04</totfact>
</mgrwt>
</event>
<event>
 5    1  0.2968854E-003  0.2910573E+03  0.7818608E-02  0.1090948E+00
         11   -1    0    0    0    0  0.00000000000E+00  0.00000000000E+00  0.10003295461E+04  0.10003295462E+04  0.51100000000E-03 0. -1.
          2   -1    0    0  501    0 -0.00000000000E+00 -0.00000000000E+00 -0.10952405536E+03  0.10952405539E+03  0.25500000000E-02 0. -1.
         11    1    1    2    0    0 -0.87998239009E+02  0.26015682241E+03  0.66121448591E+03  0.71598174466E+03  0.51100000000E-03 0. -1.
         22    1    1    2    0    0  0.17808132683E+01  0.15531829006E+02  0.53126545153E+02  0.55379046652E+02  0.00000000000E+00 0. -1.
          2    1    1    2  501    0  0.86217425741E+02 -0.27568865141E+03  0.17646445973E+03  0.33849281023E+03  0.25500000000E-02 0. -1.
<mgrwt>
<rscale>  0 0.28885581E+03</rscale>
<asrwt>0</asrwt>
<pdfrwt beam="1">  1       11 0.10000000E+01 0.29105732E+03</pdfrwt>
<pdfrwt beam="2">  1        2 0.16855407E-01 0.28885581E+03</pdfrwt>
<totfact> 0.41926674E+02</totfact>
</mgrwt>
</event>
<event>
 5    1  0.3060885E-003  0.1886887E+03  0.7818608E-02  0.1163970E+00
         11   -1    0    0    0    0  0.00000000000E+00  0.00000000000E+00  0.10000937212E+04  0.10000937212E+04  0.51100000000E-03 0. -1.
          2   -1    0    0  501    0 -0.00000000000E+00 -0.00000000000E+00 -0.46464396830E+03  0.46464396830E+03  0.25500000000E-02 0. -1.
         11    1    1    2    0    0  0.16232417165E+03  0.66663826625E+02  0.91144497588E+03  0.92818378920E+03  0.51100000000E-03 0. -1.
         22    1    1    2    0    0  0.11517016276E+02 -0.63159964258E+01  0.60997889169E+02  0.62396121337E+02  0.00000000000E+00 0. -1.
          2    1    1    2  501    0 -0.17384118793E+03 -0.60347830199E+02 -0.43699311218E+03  0.47415777893E+03  0.25500000000E-02 0. -1.
<mgrwt>
<rscale>  0 0.18401799E+03</rscale>
<asrwt>0</asrwt>
<pdfrwt beam="1">  1       11 0.10000000E+01 0.18868872E+03</pdfrwt>
<pdfrwt beam="2">  1        2 0.71490385E-01 0.18401799E+03</pdfrwt>
<totfact> 0.84580605E+01</totfact>
</mgrwt>
</event>
<event>
 5    1  0.2968854E-003  0.4107401E+03  0.7818608E-02  0.1040617E+00
         11   -1    0    0    0    0  0.00000000000E+00  0.00000000000E+00  0.10002574385E+04  0.10002574385E+04  0.51100000000E-03 0. -1.
          2   -1    0    0  501    0 -0.00000000000E+00 -0.00000000000E+00 -0.27271279637E+03  0.27271279639E+03  0.25500000000E-02 0. -1.
         11    1    1    2    0    0  0.20508518267E+03 -0.33212775410E+03  0.70541026435E+03  0.80620866917E+03  0.51100000000E-03 0. -1.
         22    1    1    2    0    0  0.10546531984E+02 -0.15725633162E+02  0.53051244232E+02  0.56329027950E+02  0.00000000000E+00 0. -1.
          2    1    1    2  501    0 -0.21563171465E+03  0.34785338726E+03 -0.30916866487E+02  0.41043253774E+03  0.25500000000E-02 0. -1.
<mgrwt>
<rscale>  0 0.40926644E+03</rscale>
<asrwt>0</asrwt>
<pdfrwt beam="1">  1       11 0.10000000E+01 0.41074009E+03</pdfrwt>
<pdfrwt beam="2">  1        2 0.41966615E-01 0.40926644E+03</pdfrwt>
<totfact> 0.15064602E+02</totfact>
</mgrwt>
</event>
<event>
 5    1  0.2968854E-003  0.1249045E+03  0.7818608E-02  0.1241190E+00
         11   -1    0    0    0    0  0.00000000000E+00  0.00000000000E+00  0.99994537760E+03  0.99994537760E+03  0.51100000000E-03 0. -1.
         -2   -1    0    0    0  501 -0.00000000000E+00 -0.00000000000E+00 -0.18548426573E+02  0.18548426748E+02  0.25500000000E-02 0. -1.
         11    1    1    2    0    0 -0.10536662149E+03 -0.13715785118E+02  0.61442396494E+03  0.62354394903E+03  0.51100000000E-03 0. -1.
         22    1    1    2    0    0 -0.12668658798E+02 -0.13638841301E+02  0.10069908815E+03  0.10240517204E+03  0.00000000000E+00 0. -1.
         -2    1    1    2    0  501  0.11803528028E+03  0.27354626419E+02  0.26627389794E+03  0.29254468327E+03  0.25500000000E-02 0. -1.
<mgrwt>
<rscale>  0 0.12116354E+03</rscale>
<asrwt>0</asrwt>
<pdfrwt beam="1">  1       11 0.10000000E+01 0.12490454E+03</pdfrwt>
<pdfrwt beam="2">  1       -2 0.28534481E-02 0.12116354E+03</pdfrwt>
<totfact> 0.33520137E+03</totfact>
</mgrwt>
</event>
<event>
 5    1  0.2968854E-003  0.1595390E+03  0.7818608E-02  0.1190827E+00
         11   -1    0    0    0    0  0.00000000000E+00  0.00000000000E+00  0.10001261429E+04  0.10001261430E+04  0.51100000000E-03 0. -1.
          2   -1    0    0  501    0 -0.00000000000E+00 -0.00000000000E+00 -0.29166855405E+02  0.29166855517E+02  0.25500000000E-02 0. -1.
         11    1    1    2    0    0 -0.12943825352E+02 -0.14204018215E+03  0.62437767922E+03  0.64046111691E+03  0.51100000000E-03 0. -1.
         22    1    1    2    0    0 -0.65265129279E+01 -0.14883823748E+02  0.52168548705E+02  0.54641385912E+02  0.00000000000E+00 0. -1.
          2    1    1    2  501    0  0.19470338280E+02  0.15692400590E+03  0.29441305961E+03  0.33419049564E+03  0.25500000000E-02 0. -1.
<mgrwt>
<rscale>  0 0.15812728E+03</rscale>
<asrwt>0</asrwt>
<pdfrwt beam="1">  1       11 0.10000000E+01 0.15953899E+03</pdfrwt>
<pdfrwt beam="2">  1        2 0.44877744E-02 0.15812728E+03</pdfrwt>
<totfact> 0.21389371E+03</totfact>
</mgrwt>
</event>
<event>
 5    1  0.2968854E-003  0.8998343E+02  0.7818608E-02  0.1302892E+00
         11   -1    0    0    0    0  0.00000000000E+00  0.00000000000E+00  0.10003022469E+04  0.10003022469E+04  0.51100000000E-03 0.  1.
          2   -1    0    0  501    0 -0.00000000000E+00 -0.00000000000E+00 -0.13089020478E+02  0.13089020727E+02  0.25500000000E-02 0.  1.
         11    1    1    2    0    0  0.16309755623E+02 -0.82370636123E+02  0.37818192877E+03  0.38739192180E+03  0.51100000000E-03 0.  1.
         22    1    1    2    0    0  0.42711581449E+02  0.11866924074E+01  0.22804737179E+03  0.23201571328E+03  0.00000000000E+00 0.  1.
          2    1    1    2  501    0 -0.59021337072E+02  0.81183943715E+02  0.38098392587E+03  0.39398363256E+03  0.25500000000E-02 0.  1.
<mgrwt>
<rscale>  0 0.89983430E+02</rscale>
<asrwt>0</asrwt>
<pdfrwt beam="1">  1       11 0.10000000E+01 0.42728064E+02</pdfrwt>
<pdfrwt beam="2">  1        2 0.20143041E-02 0.89983430E+02</pdfrwt>
<totfact> 0.58836427E+03</totfact>
</mgrwt>
</event>
<event>
 5    1  0.2968854E-003  0.3557404E+03  0.7818608E-02  0.1064653E+00
         11   -1    0    0    0    0  0.00000000000E+00  0.00000000000E+00  0.10001408210E+04  0.10001408210E+04  0.51100000000E-03 0. -1.
          2   -1    0    0  501    0 -0.00000000000E+00 -0.00000000000E+00 -0.16542046222E+03  0.16542046224E+03  0.25500000000E-02 0. -1.
         11    1    1    2    0    0 -0.15838044232E+03  0.27713468476E+03  0.87768566411E+02  0.33104579631E+03  0.51100000000E-03 0. -1.
         22    1    1    2    0    0 -0.10184024485E+02  0.23973998620E+02  0.38410460485E+02  0.46409378785E+02  0.00000000000E+00 0.  1.
          2    1    1    2  501    0  0.16856446681E+03 -0.30110868338E+03  0.70854133184E+03  0.78810610809E+03  0.25500000000E-02 0. -1.
<mgrwt>
<rscale>  0 0.34508031E+03</rscale>
<asrwt>0</asrwt>
<pdfrwt beam="1">  1       11 0.10000000E+01 0.35574044E+03</pdfrwt>
<pdfrwt beam="2">  1        2 0.25452885E-01 0.34508031E+03</pdfrwt>
<totfact> 0.26183691E+02</totfact>
</mgrwt>
</event>
<event>
 5    1  0.2968854E-003  0.1711859E+03  0.7818608E-02  0.1240430E+00
         11   -1    0    0    0    0  0.00000000000E+00  0.00000000000E+00  0.10006398429E+04  0.10006398429E+04  0.51100000000E-03 0.  1.
          2   -1    0    0  501    0 -0.00000000000E+00 -0.00000000000E+00 -0.10717185034E+04  0.10717185034E+04  0.25500000000E-02 0.  1.
         11    1    1    2    0    0  0.20554584009E+03 -0.12032360954E+03  0.71565983779E+03  0.75425185901E+03  0.51100000000E-03 0.  1.
         22    1    1    2    0    0 -0.89276599499E+02  0.84606754232E+02  0.24769176763E+03  0.27654986138E+03  0.00000000000E+00 0.  1.
          2    1    1    2  501    0 -0.11626924059E+03  0.35716855305E+02 -0.10344302659E+04  0.10415566259E+04  0.25500000000E-02 0.  1.
<mgrwt>
<rscale>  0 0.12163153E+03</rscale>
<asrwt>0</asrwt>
<pdfrwt beam="1">  1       11 0.10000000E+01 0.17118594E+03</pdfrwt>
<pdfrwt beam="2">  1        2 0.16498526E+00 0.12163153E+03</pdfrwt>
<totfact> 0.30984938E+01</totfact>
</mgrwt>
</event>
<event>
 5    1  0.2968854E-003  0.1865031E+03  0.7818608E-02  0.1161654E+00
         11   -1    0    0    0    0  0.00000000000E+00  0.00000000000E+00  0.99984431690E+03  0.99984431690E+03  0.51100000000E-03 0. -1.
          2   -1    0    0  501    0 -0.00000000000E+00 -0.00000000000E+00 -0.14832855250E+03  0.14832855252E+03  0.25500000000E-02 0. -1.
         11    1    1    2    0    0  0.36446882024E+02  0.46318844613E+02 -0.84007533934E+02  0.10262103261E+03  0.51100000000E-03 0. -1.
         22    1    1    2    0    0 -0.18080559047E+03 -0.78143194308E+02  0.15360553283E+03  0.24978326621E+03  0.00000000000E+00 0. -1.
          2    1    1    2  501    0  0.14435870845E+03  0.31824349695E+02  0.78191776550E+03  0.79576857060E+03  0.25500000000E-02 0. -1.
<mgrwt>
<rscale>  0 0.18650306E+03</rscale>
<asrwt>0</asrwt>
<pdfrwt beam="1">  1       11 0.10000000E+01 0.58939071E+02</pdfrwt>
<pdfrwt beam="2">  1        2 0.22816224E-01 0.18650306E+03</pdfrwt>
<totfact> 0.29229781E+02</totfact>
</mgrwt>
</event>
<event>
 5    1  0.2968854E-003  0.1857713E+03  0.7818608E-02  0.1450563E+00
         11   -1    0    0    0    0  0.00000000000E+00  0.00000000000E+00  0.10003674960E+04  0.10003674960E+04  0.51100000000E-03 0. -1.
         -2   -1    0    0    0  501 -0.00000000000E+00 -0.00000000000E+00 -0.12029784674E+03  0.12029784676E+03  0.25500000000E-02 0. -1.
         11    1    1    2    0    0  0.10665789157E+03  0.13932827159E+03  0.15482789820E+03  0.23400844250E+03  0.51100000000E-03 0. -1.
         22    1    1    2    0    0 -0.73329978126E+02 -0.17530932651E+03  0.78595941834E+03  0.80860549895E+03  0.00000000000E+00 0. -1.
         -2    1    1    2    0  501 -0.33327913443E+02  0.35981054922E+02 -0.60717667257E+02  0.78051401342E+02  0.25500000000E-02 0. -1.
<mgrwt>
<rscale>  0 0.49044736E+02</rscale>
<asrwt>0</asrwt>
<pdfrwt beam="1">  1       11 0.10000000E+01 0.18577130E+03</pdfrwt>
<pdfrwt beam="2">  1       -2 0.18514162E-01 0.49044736E+02</pdfrwt>
<totfact> 0.17993786E+02</totfact>
</mgrwt>
</event>
<event>
 5    1  0.2968854E-003  0.2375760E+02  0.7818608E-02  0.1679516E+00
         11   -1    0    0    0    0  0.00000000000E+00  0.00000000000E+00  0.10002202704E+04  0.10002202704E+04  0.51100000000E-03 0. -1.
          2   -1    0    0  501    0 -0.00000000000E+00 -0.00000000000E+00 -0.23848013430E+01  0.23848027063E+01  0.25500000000E-02 0. -1.
         11    1    1    2    0    0 -0.17937718002E+00 -0.19152514223E+02  0.11036080156E+03  0.11201052405E+03  0.51100000000E-03 0. -1.
         22    1    1    2    0    0 -0.23476874919E+02 -0.11112447477E+01  0.10937911344E+03  0.11187577476E+03  0.00000000000E+00 0. -1.
          2    1    1    2  501    0  0.23656252099E+02  0.20263758971E+02  0.77809555409E+03  0.77871877433E+03  0.25500000000E-02 0. -1.
<mgrwt>
<rscale>  0 0.23757603E+02</rscale>
<asrwt>0</asrwt>
<pdfrwt beam="1">  1       11 0.10000000E+01 0.19153364E+02</pdfrwt>
<pdfrwt beam="2">  1        2 0.36697342E-03 0.23757603E+02</pdfrwt>
<totfact> 0.44179349E+04</totfact>
</mgrwt>
</event>
<event>
 5    1  0.2968854E-003  0.1454614E+03  0.7818608E-02  0.1214146E+00
         11   -1    0    0    0    0  0.00000000000E+00  0.00000000000E+00  0.10002465441E+04  0.10002465441E+04  0.51100000000E-03 0. -1.
          2   -1    0    0  501    0 -0.00000000000E+00 -0.00000000000E+00 -0.28195472100E+02  0.28195472216E+02  0.25500000000E-02 0. -1.
         11    1    1    2    0    0  0.66886295493E+02 -0.77702034548E+02  0.57409267797E+03  0.58317560443E+03  0.51100000000E-03 0. -1.
         22    1    1    2    0    0  0.40931269098E+02 -0.10651055160E+02  0.19177818459E+03  0.19638657248E+03  0.00000000000E+00 0. -1.
          2    1    1    2  501    0 -0.10781756459E+03  0.88353089708E+02  0.20618020946E+03  0.24887983943E+03  0.25500000000E-02 0. -1.
<mgrwt>
<rscale>  0 0.13939475E+03</rscale>
<asrwt>0</asrwt>
<pdfrwt beam="1">  1       11 0.10000000E+01 0.14546137E+03</pdfrwt>
<pdfrwt beam="2">  1        2 0.43388343E-02 0.13939475E+03</pdfrwt>
<totfact> 0.22124301E+03</totfact>
</mgrwt>
</event>
<event>
 5    1  0.2968854E-003  0.1756126E+03  0.7818608E-02  0.1178800E+00
         11   -1    0    0    0    0  0.00000000000E+00  0.00000000000E+00  0.10003305585E+04  0.10003305585E+04  0.51100000000E-03 0. -1.
          2   -1    0    0  501    0 -0.00000000000E+00 -0.00000000000E+00 -0.47720627364E+02  0.47720627432E+02  0.25500000000E-02 0. -1.
         11    1    1    2    0    0  0.11676372023E+03 -0.10738973319E+03  0.71885000714E+03  0.73614648944E+03  0.51100000000E-03 0. -1.
         22    1    1    2    0    0 -0.19823235455E+01 -0.16774913010E+02  0.85090508515E+02  0.86750919029E+02  0.00000000000E+00 0.  1.
          2    1    1    2  501    0 -0.11478139669E+03  0.12416464620E+03  0.14866941545E+03  0.22515377742E+03  0.25500000000E-02 0. -1.
<mgrwt>
<rscale>  0 0.16909059E+03</rscale>
<asrwt>0</asrwt>
<pdfrwt beam="1">  1       11 0.10000000E+01 0.17561262E+03</pdfrwt>
<pdfrwt beam="2">  1        2 0.73440616E-02 0.16909059E+03</pdfrwt>
<totfact> 0.11339714E+03</totfact>
</mgrwt>
</event>
<event>
 5    1  0.2968854E-003  0.7641915E+02  0.7818608E-02  0.1339532E+00
         11   -1    0    0    0    0  0.00000000000E+00  0.00000000000E+00  0.10004492190E+04  0.10004492190E+04  0.51100000000E-03 0.  1.
          2   -1    0    0  501    0 -0.00000000000E+00 -0.00000000000E+00 -0.13898049833E+02  0.13898050066E+02  0.25500000000E-02 0.  1.
         11    1    1    2    0    0 -0.21197175145E+02 -0.64920499303E+02  0.29276085527E+03  0.30062087393E+03  0.51100000000E-03 0.  1.
         22    1    1    2    0    0 -0.65016748955E+02  0.41391813231E+02  0.36178331619E+03  0.36990218669E+03  0.00000000000E+00 0.  1.
          2    1    1    2  501    0  0.86213924101E+02  0.23528686072E+02  0.33200699767E+03  0.34382420840E+03  0.25500000000E-02 0.  1.
<mgrwt>
<rscale>  0 0.76419148E+02</rscale>
<asrwt>0</asrwt>
<pdfrwt beam="1">  1       11 0.10000000E+01 0.68293422E+02</pdfrwt>
<pdfrwt beam="2">  1        2 0.21391220E-02 0.76419148E+02</pdfrwt>
<totfact> 0.53125326E+03</totfact>
</mgrwt>
</event>
<event>
 5    1  0.2968854E-003  0.3600515E+02  0.7818608E-02  0.1706947E+00
         11   -1    0    0    0    0  0.00000000000E+00  0.00000000000E+00  0.10004242279E+04  0.10004242279E+04  0.51100000000E-03 0. -1.
          2   -1    0    0  501    0 -0.00000000000E+00 -0.00000000000E+00 -0.80904677236E+01  0.80904681254E+01  0.25500000000E-02 0. -1.
         11    1    1    2    0    0  0.30456793222E+02 -0.22744334747E+02  0.71561837727E+02  0.81030967140E+02  0.51100000000E-03 0. -1.
         22    1    1    2    0    0 -0.11149696084E+02 -0.76735769102E+01  0.12273586993E+02  0.18271301076E+02  0.00000000000E+00 0. -1.
          2    1    1    2  501    0 -0.19307097138E+02  0.30417911657E+02  0.90849833544E+03  0.90921242779E+03  0.25500000000E-02 0. -1.
<mgrwt>
<rscale>  0 0.22075638E+02</rscale>
<asrwt>0</asrwt>
<pdfrwt beam="1">  1       11 0.10000000E+01 0.36005146E+02</pdfrwt>
<pdfrwt beam="2">  1        2 0.12452154E-02 0.22075638E+02</pdfrwt>
<totfact> 0.87760413E+03</totfact>
</mgrwt>
</event>
<event>
 5    1  0.2968854E-003  0.1508852E+03  0.7818608E-02  0.1199389E+00
         11   -1    0    0    0    0  0.00000000000E+00  0.00000000000E+00  0.10000314611E+04  0.10000314611E+04  0.51100000000E-03 0.  1.
          2   -1    0    0  501    0 -0.00000000000E+00 -0.00000000000E+00 -0.55943972357E+02  0.55943972415E+02  0.25500000000E-02 0.  1.
         11    1    1    2    0    0  0.56867651848E+02 -0.57685347962E+02  0.75999990338E+02  0.11107442427E+03  0.51100000000E-03 0.  1.
         22    1    1    2    0    0 -0.13577157689E+03  0.99705172417E+02  0.16378559020E+03  0.23494842424E+03  0.00000000000E+00 0.  1.
          2    1    1    2  501    0  0.78903925041E+02 -0.42019824455E+02  0.70430190822E+03  0.70995258501E+03  0.25500000000E-02 0.  1.
<mgrwt>
<rscale>  0 0.15088519E+03</rscale>
<asrwt>0</asrwt>
<pdfrwt beam="1">  1       11 0.10000000E+01 0.81003307E+02</pdfrwt>
<pdfrwt beam="2">  1        2 0.86070355E-02 0.15088519E+03</pdfrwt>
<totfact> 0.92164514E+02</totfact>
</mgrwt>
</event>
<event>
 5    1  0.2968854E-003  0.2313290E+02  0.7818608E-02  0.1697229E+00
         11   -1    0    0    0    0  0.00000000000E+00  0.00000000000E+00  0.10003416274E+04  0.10003416274E+04  0.51100000000E-03 0. -1.
          2   -1    0    0  501    0 -0.00000000000E+00 -0.00000000000E+00 -0.14502494177E+01  0.14502516596E+01  0.25500000000E-02 0. -1.
         11    1    1    2    0    0 -0.67013513730E+01 -0.81594554934E+01  0.47239670696E+02  0.48405281859E+02  0.51100000000E-03 0. -1.
         22    1    1    2    0    0 -0.11177417614E+02 -0.57481302982E+01  0.53779062533E+02  0.55228282912E+02  0.00000000000E+00 0. -1.
          2    1    1    2  501    0  0.17878768987E+02  0.13907585792E+02  0.89787264479E+03  0.89815831433E+03  0.25500000000E-02 0. -1.
<mgrwt>
<rscale>  0 0.22651078E+02</rscale>
<asrwt>0</asrwt>
<pdfrwt beam="1">  1       11 0.10000000E+01 0.23132905E+02</pdfrwt>
<pdfrwt beam="2">  1        2 0.22319168E-03 0.22651078E+02</pdfrwt>
<totfact> 0.83778221E+04</totfact>
</mgrwt>
</event>
<event>
 5    1  0.2968854E-003  0.9091899E+02  0.7818608E-02  0.1300641E+00
         11   -1    0    0    0    0  0.00000000000E+00  0.00000000000E+00  0.10000551272E+04  0.10000551272E+04  0.51100000000E-03 0.  1.
          2   -1    0    0  501    0 -0.00000000000E+00 -0.00000000000E+00 -0.97314784715E+01  0.97314788056E+01  0.25500000000E-02 0.  1.
         11    1    1    2    0    0 -0.62235640708E+02  0.62490696821E+02  0.51045257138E+03  0.51801562698E+03  0.51100000000E-03 0.  1.
         22    1    1    2    0    0  0.61916244987E+01  0.12352952080E+02  0.72784321842E+02  0.74084338055E+02  0.00000000000E+00 0.  1.
          2    1    1    2  501    0  0.56044016209E+02 -0.74843648901E+02  0.40708675554E+03  0.41768664101E+03  0.25500000000E-02 0.  1.
<mgrwt>
<rscale>  0 0.90918988E+02</rscale>
<asrwt>0</asrwt>
<pdfrwt beam="1">  1       11 0.10000000E+01 0.13817802E+02</pdfrwt>
<pdfrwt beam="2">  1        2 0.14972331E-02 0.90918988E+02</pdfrwt>
<totfact> 0.88033283E+03</totfact>
</mgrwt>
</event>
<event>
 5    1  0.2968854E-003  0.1071249E+03  0.7818608E-02  0.1269390E+00
         11   -1    0    0    0    0  0.00000000000E+00  0.00000000000E+00  0.10003432137E+04  0.10003432137E+04  0.51100000000E-03 0.  1.
          2   -1    0    0  501    0 -0.00000000000E+00 -0.00000000000E+00 -0.11305758118E+02  0.11305758406E+02  0.25500000000E-02 0.  1.
         11    1    1    2    0    0  0.21059280309E+02 -0.78456166380E+02  0.35266807619E+03  0.36190279813E+03  0.51100000000E-03 0.  1.
         22    1    1    2    0    0 -0.38597155696E+01 -0.25501807862E+02  0.12413369182E+03  0.12678490862E+03  0.00000000000E+00 0.  1.
          2    1    1    2  501    0 -0.17199564740E+02  0.10395797424E+03  0.51223568756E+03  0.52296126535E+03  0.25500000000E-02 0.  1.
<mgrwt>
<rscale>  0 0.10537118E+03</rscale>
<asrwt>0</asrwt>
<pdfrwt beam="1">  1       11 0.10000000E+01 0.10712492E+03</pdfrwt>
<pdfrwt beam="2">  1        2 0.17399443E-02 0.10537118E+03</pdfrwt>
<totfact> 0.73221295E+03</totfact>
</mgrwt>
</event>
<event>
 5    1  0.2968854E-003  0.3036014E+03  0.7818608E-02  0.1093299E+00
         11   -1    0    0    0    0  0.00000000000E+00  0.00000000000E+00  0.99961514286E+03  0.99961514286E+03  0.51100000000E-03 0. -1.
          2   -1    0    0  501    0 -0.00000000000E+00 -0.00000000000E+00 -0.86478698933E+02  0.86478698970E+02  0.25500000000E-02 0. -1.
         11    1    1    2    0    0  0.18785139926E+03 -0.15394552384E+03  0.37204805885E+03  0.44430522235E+03  0.51100000000E-03 0. -1.
         22    1    1    2    0    0  0.59270572683E+02  0.13144213938E+02  0.96035619475E+02  0.11361606996E+03  0.00000000000E+00 0.  1.
          2    1    1    2  501    0 -0.24712197194E+03  0.14080130990E+03  0.44505276560E+03  0.52817254952E+03  0.25500000000E-02 0. -1.
<mgrwt>
<rscale>  0 0.28441919E+03</rscale>
<asrwt>0</asrwt>
<pdfrwt beam="1">  1       11 0.10000000E+01 0.30360145E+03</pdfrwt>
<pdfrwt beam="2">  1        2 0.13299295E-01 0.28441919E+03</pdfrwt>
<totfact> 0.55617462E+02</totfact>
</mgrwt>
</event>
<event>
 5    1  0.2968854E-003  0.2780966E+03  0.7818608E-02  0.1096733E+00
         11   -1    0    0    0    0  0.00000000000E+00  0.00000000000E+00  0.10005013821E+04  0.10005013821E+04  0.51100000000E-03 0. -1.
          2   -1    0    0  501    0 -0.00000000000E+00 -0.00000000000E+00 -0.13132219367E+04  0.13132219367E+04  0.25500000000E-02 0. -1.
         11    1    1    2    0    0 -0.13134114532E+03 -0.11245399729E+03  0.30417011886E+03  0.34987977816E+03  0.51100000000E-03 0. -1.
         22    1    1    2    0    0 -0.13055367075E+03  0.38315164924E+01  0.65134009869E+03  0.66430630407E+03  0.00000000000E+00 0.  1.
          2    1    1    2  501    0  0.26189481606E+03  0.10862248080E+03 -0.12682307721E+04  0.12995372366E+04  0.25500000000E-02 0. -1.
<mgrwt>
<rscale>  0 0.27809656E+03</rscale>
<asrwt>0</asrwt>
<pdfrwt beam="1">  1       11 0.10000000E+01 0.13060988E+03</pdfrwt>
<pdfrwt beam="2">  1        2 0.20213543E+00 0.27809656E+03</pdfrwt>
<totfact> 0.21564358E+01</totfact>
</mgrwt>
</event>
<event>
 5    1  0.2983614E-003  0.1618399E+03  0.7818608E-02  0.1186635E+00
         11   -1    0    0    0    0  0.00000000000E+00  0.00000000000E+00  0.99996974983E+03  0.99996974983E+03  0.51100000000E-03 0. -1.
          2   -1    0    0  501    0 -0.00000000000E+00 -0.00000000000E+00 -0.95976117597E+03  0.95976117597E+03  0.25500000000E-02 0. -1.
         11    1    1    2    0    0 -0.15193899243E+03 -0.68081765363E+02  0.93561797041E+03  0.95031656344E+03  0.51100000000E-03 0. -1.
         22    1    1    2    0    0 -0.53147173289E+00  0.13904654035E+02  0.49157113202E+02  0.51088586244E+02  0.00000000000E+00 0.  1.
          2    1    1    2  501    0  0.15247046416E+03  0.54177111328E+02 -0.94456650975E+03  0.95832577612E+03  0.25500000000E-02 0. -1.
<mgrwt>
<rscale>  0 0.16183989E+03</rscale>
<asrwt>0</asrwt>
<pdfrwt beam="1">  1       11 0.10000000E+01 0.13914807E+02</pdfrwt>
<pdfrwt beam="2">  1        2 0.14765109E+00 0.16183989E+03</pdfrwt>
<totfact> 0.35628908E+01</totfact>
</mgrwt>
</event>
<event>
 5    1  0.2968854E-003  0.1557873E+03  0.7818608E-02  0.1202900E+00
         11   -1    0    0    0    0  0.00000000000E+00  0.00000000000E+00  0.10005640731E+04  0.10005640731E+04  0.51100000000E-03 0. -1.
         -2   -1    0    0    0  501 -0.00000000000E+00 -0.00000000000E+00 -0.43888899139E+02  0.43888899213E+02  0.25500000000E-02 0.  1.
         11    1    1    2    0    0 -0.94097725871E+02 -0.22500197260E+02  0.52609622198E+03  0.53491856919E+03  0.51100000000E-03 0. -1.
         22    1    1    2    0    0 -0.37244592262E+02 -0.45804405093E+02  0.31830692491E+03  0.32373523383E+03  0.00000000000E+00 0. -1.
         -2    1    1    2    0  501  0.13134231813E+03  0.68304602353E+02  0.11227202706E+03  0.18579916927E+03  0.25500000000E-02 0.  1.
<mgrwt>
<rscale>  0 0.14804163E+03</rscale>
<asrwt>0</asrwt>
<pdfrwt beam="1">  1       11 0.10000000E+01 0.15578729E+03</pdfrwt>
<pdfrwt beam="2">  1       -2 0.67559468E-02 0.14804163E+03</pdfrwt>
<totfact> 0.94275649E+02</totfact>
</mgrwt>
</event>
<event>
 5    1  0.2968854E-003  0.1766468E+03  0.7818608E-02  0.1171088E+00
         11   -1    0    0    0    0  0.00000000000E+00  0.00000000000E+00  0.10000223638E+04  0.10000223638E+04  0.51100000000E-03 0. -1.
          2   -1    0    0  501    0 -0.00000000000E+00 -0.00000000000E+00 -0.61948287995E+02  0.61948288048E+02  0.25500000000E-02 0. -1.
         11    1    1    2    0    0  0.52790735170E+02 -0.35342795674E+02  0.82531532426E+02  0.10415099025E+03  0.51100000000E-03 0. -1.
         22    1    1    2    0    0 -0.91632053603E+02 -0.14970254060E+03  0.16161279375E+03  0.23859165747E+03  0.00000000000E+00 0. -1.
          2    1    1    2  501    0  0.38841318433E+02  0.18504533627E+03  0.69392974958E+03  0.71922800408E+03  0.25500000000E-02 0. -1.
<mgrwt>
<rscale>  0 0.17664675E+03</rscale>
<asrwt>0</asrwt>
<pdfrwt beam="1">  1       11 0.10000000E+01 0.63529355E+02</pdfrwt>
<pdfrwt beam="2">  1        2 0.95307187E-02 0.17664675E+03</pdfrwt>
<totfact> 0.81905787E+02</totfact>
</mgrwt>
</event>
<event>
 5    1  0.2968854E-003  0.2631325E+03  0.7818608E-02  0.1105276E+00
         11   -1    0    0    0    0  0.00000000000E+00  0.00000000000E+00  0.99990273301E+03  0.99990273301E+03  0.51100000000E-03 0. -1.
         -2   -1    0    0    0  501 -0.00000000000E+00 -0.00000000000E+00 -0.89590324250E+02  0.89590324286E+02  0.25500000000E-02 0.  1.
         11    1    1    2    0    0  0.22438834697E+03 -0.12111615101E+03  0.72259306086E+03  0.76626365168E+03  0.51100000000E-03 0. -1.
         22    1    1    2    0    0 -0.20692215632E+03  0.10454681646E+03  0.18901248058E+03  0.29911959719E+03  0.00000000000E+00 0.  1.
         -2    1    1    2    0  501 -0.17466190651E+02  0.16569334554E+02 -0.12931326812E+01  0.24109808420E+02  0.25500000000E-02 0.  1.
<mgrwt>
<rscale>  0 0.26313247E+03</rscale>
<asrwt>0</asrwt>
<pdfrwt beam="1">  1       11 0.10000000E+01 0.25498873E+03</pdfrwt>
<pdfrwt beam="2">  1       -2 0.13781786E-01 0.26313247E+03</pdfrwt>
<totfact> 0.31509527E+02</totfact>
</mgrwt>
</event>
<event>
 5    1  0.2968854E-003  0.5497022E+03  0.7818608E-02  0.1001563E+00
         11   -1    0    0    0    0  0.00000000000E+00  0.00000000000E+00  0.10009891565E+04  0.10009891565E+04  0.51100000000E-03 0.  1.
          2   -1    0    0  501    0 -0.00000000000E+00 -0.00000000000E+00 -0.13487992461E+04  0.13487992461E+04  0.25500000000E-02 0.  1.
         11    1    1    2    0    0 -0.37083221120E+03  0.39371598466E+03  0.84964972521E+03  0.10071908761E+04  0.51100000000E-03 0.  1.
         22    1    1    2    0    0  0.53801033104E+01  0.17696864869E+02  0.58756660096E+01  0.19407420974E+02  0.00000000000E+00 0.  1.
          2    1    1    2  501    0  0.36545210789E+03 -0.41141284953E+03 -0.12033354808E+04  0.13231901055E+04  0.25500000000E-02 0.  1.
<mgrwt>
<rscale>  0 0.54970224E+03</rscale>
<asrwt>0</asrwt>
<pdfrwt beam="1">  1       11 0.10000000E+01 0.18496609E+02</pdfrwt>
<pdfrwt beam="2">  1        2 0.20771283E+00 0.54970224E+03</pdfrwt>
<totfact> 0.19706049E+01</totfact>
</mgrwt>
</event>
<event>
 5    1  0.2968854E-003  0.2606279E+03  0.7818608E-02  0.1107842E+00
         11   -1    0    0    0    0  0.00000000000E+00  0.00000000000E+00  0.99985111315E+03  0.99985111316E+03  0.51100000000E-03 0. -1.
          2   -1    0    0  501    0 -0.00000000000E+00 -0.00000000000E+00 -0.49568756913E+03  0.49568756913E+03  0.25500000000E-02 0. -1.
         11    1    1    2    0    0 -0.75368742072E+02 -0.22605473795E+03  0.89674380432E+03  0.92786348264E+03  0.51100000000E-03 0. -1.
         22    1    1    2    0    0 -0.89866096538E+01 -0.18654392450E+02  0.50471673112E+02  0.54553966835E+02  0.00000000000E+00 0.  1.
          2    1    1    2  501    0  0.84355351726E+02  0.24470913040E+03 -0.44305193340E+03  0.51312123281E+03  0.25500000000E-02 0. -1.
<mgrwt>
<rscale>  0 0.25884046E+03</rscale>
<asrwt>0</asrwt>
<pdfrwt beam="1">  1       11 0.10000000E+01 0.26062787E+03</pdfrwt>
<pdfrwt beam="2">  1        2 0.76248270E-01 0.25884046E+03</pdfrwt>
<totfact> 0.78364421E+01</totfact>
</mgrwt>
</event>
<event>
 5    1  0.2968854E-003  0.1143996E+03  0.7818608E-02  0.1270447E+00
         11   -1    0    0    0    0  0.00000000000E+00  0.00000000000E+00  0.99980279874E+03  0.99980279874E+03  0.51100000000E-03 0.  1.
          2   -1    0    0  501    0 -0.00000000000E+00 -0.00000000000E+00 -0.12514986032E+02  0.12514986292E+02  0.25500000000E-02 0.  1.
         11    1    1    2    0    0  0.32893503000E+02  0.35949405335E+02  0.17275401020E+03  0.17949454121E+03  0.51100000000E-03 0.  1.
         22    1    1    2    0    0  0.65657099553E+02 -0.20164960129E+00  0.24081997170E+03  0.24961000412E+03  0.00000000000E+00 0.  1.
          2    1    1    2  501    0 -0.98550602553E+02 -0.35747755734E+02  0.57371383080E+03  0.58321323970E+03  0.25500000000E-02 0.  1.
<mgrwt>
<rscale>  0 0.10483379E+03</rscale>
<asrwt>0</asrwt>
<pdfrwt beam="1">  1       11 0.10000000E+01 0.11439962E+03</pdfrwt>
<pdfrwt beam="2">  1        2 0.19250027E-02 0.10483379E+03</pdfrwt>
<totfact> 0.63788616E+03</totfact>
</mgrwt>
</event>
<event>
 5    1  0.2968854E-003  0.1965797E+03  0.7818608E-02  0.1154546E+00
         11   -1    0    0    0    0  0.00000000000E+00  0.00000000000E+00  0.10001203847E+04  0.10001203847E+04  0.51100000000E-03 0. -1.
          2   -1    0    0  501    0 -0.00000000000E+00 -0.00000000000E+00 -0.49114157488E+02  0.49114157554E+02  0.25500000000E-02 0. -1.
         11    1    1    2    0    0  0.14713421651E+03 -0.71690657452E+02  0.56707438510E+03  0.59022147222E+03  0.51100000000E-03 0. -1.
         22    1    1    2    0    0  0.25263348964E+02 -0.18159757802E+02  0.15764007172E+03  0.16068106863E+03  0.00000000000E+00 0.  1.
          2    1    1    2  501    0 -0.17239756547E+03  0.89850415255E+02  0.22629177035E+03  0.29833200136E+03  0.25500000000E-02 0. -1.
<mgrwt>
<rscale>  0 0.19440684E+03</rscale>
<asrwt>0</asrwt>
<pdfrwt beam="1">  1       11 0.10000000E+01 0.19657971E+03</pdfrwt>
<pdfrwt beam="2">  1        2 0.75569336E-02 0.19440684E+03</pdfrwt>
<totfact> 0.11030503E+03</totfact>
</mgrwt>
</event>
<event>
 5    1  0.2968854E-003  0.9621848E+02  0.7818608E-02  0.1292465E+00
         11   -1    0    0    0    0  0.00000000000E+00  0.00000000000E+00  0.10003951261E+04  0.10003951261E+04  0.51100000000E-03 0.  1.
         -2   -1    0    0    0  501 -0.00000000000E+00 -0.00000000000E+00 -0.97301964956E+01  0.97301968298E+01  0.25500000000E-02 0. -1.
         11    1    1    2    0    0  0.37371400248E+01  0.70211335538E+02  0.25637122042E+03  0.26583792151E+03  0.51100000000E-03 0.  1.
         22    1    1    2    0    0 -0.85952799003E+01  0.24093458342E+02  0.11305793763E+03  0.11591579199E+03  0.00000000000E+00 0.  1.
         -2    1    1    2    0  501  0.48581398755E+01 -0.94304793879E+02  0.62123577159E+03  0.62837160947E+03  0.25500000000E-02 0. -1.
<mgrwt>
<rscale>  0 0.94429845E+02</rscale>
<asrwt>0</asrwt>
<pdfrwt beam="1">  1       11 0.10000000E+01 0.96218475E+02</pdfrwt>
<pdfrwt beam="2">  1       -2 0.14975448E-02 0.94429845E+02</pdfrwt>
<totfact> 0.82399858E+03</totfact>
</mgrwt>
</event>
<event>
 5    1  0.2968854E-003  0.4996073E+03  0.7818608E-02  0.1014973E+00
         11   -1    0    0    0    0  0.00000000000E+00  0.00000000000E+00  0.10005708142E+04  0.10005708142E+04  0.51100000000E-03 0. -1.
         -2   -1    0    0    0  501 -0.00000000000E+00 -0.00000000000E+00 -0.80381588191E+03  0.80381588192E+03  0.25500000000E-02 0.  1.
         11    1    1    2    0    0  0.46382017379E+03 -0.12646193223E+03  0.82410493428E+03  0.95408108493E+03  0.51100000000E-03 0. -1.
         22    1    1    2    0    0  0.17057346690E+02  0.71757548911E+01  0.25022407872E+02  0.31121783851E+02  0.00000000000E+00 0.  1.
         -2    1    1    2    0  501 -0.48087752048E+03  0.11928617734E+03 -0.65237240987E+03  0.81918382734E+03  0.25500000000E-02 0.  1.
<mgrwt>
<rscale>  0 0.49545169E+03</rscale>
<asrwt>0</asrwt>
<pdfrwt beam="1">  1       11 0.10000000E+01 0.49960730E+03</pdfrwt>
<pdfrwt beam="2">  1       -2 0.12373457E+00 0.49545169E+03</pdfrwt>
<totfact> 0.40904123E+00</totfact>
</mgrwt>
</event>
<event>
 5    1  0.2968854E-003  0.1124677E+03  0.7818608E-02  0.1258739E+00
         11   -1    0    0    0    0  0.00000000000E+00  0.00000000000E+00  0.10003648190E+04  0.10003648190E+04  0.51100000000E-03 0. -1.
         -2   -1    0    0    0  501 -0.00000000000E+00 -0.00000000000E+00 -0.51708466161E+02  0.51708466224E+02  0.25500000000E-02 0. -1.
         11    1    1    2    0    0  0.46119862591E+02 -0.81604447082E+02  0.88721770325E+01  0.94154357491E+02  0.51100000000E-03 0. -1.
         22    1    1    2    0    0  0.12765185864E+02 -0.12482336855E+02  0.80291920846E+01  0.19576175036E+02  0.00000000000E+00 0.  1.
         -2    1    1    2    0  501 -0.58885048455E+02  0.94086783937E+02  0.93175498368E+03  0.93834275265E+03  0.25500000000E-02 0. -1.
<mgrwt>
<rscale>  0 0.11099447E+03</rscale>
<asrwt>0</asrwt>
<pdfrwt beam="1">  1       11 0.10000000E+01 0.11246767E+03</pdfrwt>
<pdfrwt beam="2">  1       -2 0.79580506E-02 0.11099447E+03</pdfrwt>
<totfact> 0.71805894E+02</totfact>
</mgrwt>
</event>
<event>
 5    1  0.2968854E-003  0.1633232E+03  0.7818608E-02  0.1316104E+00
         11   -1    0    0    0    0  0.00000000000E+00  0.00000000000E+00  0.10002640407E+04  0.10002640407E+04  0.51100000000E-03 0.  1.
          2   -1    0    0  501    0 -0.00000000000E+00 -0.00000000000E+00 -0.37294039622E+02  0.37294039709E+02  0.25500000000E-02 0.  1.
         11    1    1    2    0    0 -0.17035367818E+03 -0.11194432899E+01  0.54584958726E+03  0.57181588010E+03  0.51100000000E-03 0.  1.
         22    1    1    2    0    0  0.17773619385E+02  0.40218848299E+02  0.52017437635E+02  0.68112195109E+02  0.00000000000E+00 0.  1.
          2    1    1    2  501    0  0.15258005879E+03 -0.39099405009E+02  0.36510297621E+03  0.39763000523E+03  0.25500000000E-02 0.  1.
<mgrwt>
<rscale>  0 0.84743737E+02</rscale>
<asrwt>0</asrwt>
<pdfrwt beam="1">  1       11 0.10000000E+01 0.16332322E+03</pdfrwt>
<pdfrwt beam="2">  1        2 0.57390593E-02 0.84743737E+02</pdfrwt>
<totfact> 0.14741851E+03</totfact>
</mgrwt>
</event>
<event>
 5    1  0.2968854E-003  0.2111339E+03  0.7818608E-02  0.1142943E+00
         11   -1    0    0    0    0  0.00000000000E+00  0.00000000000E+00  0.10002090136E+04  0.10002090136E+04  0.51100000000E-03 0. -1.
         -2   -1    0    0    0  501 -0.00000000000E+00 -0.00000000000E+00 -0.51326448669E+02  0.51326448733E+02  0.25500000000E-02 0. -1.
         11    1    1    2    0    0 -0.86588938661E+01 -0.93089088636E+01  0.24065794665E+02  0.27217543980E+02  0.51100000000E-03 0. -1.
         22    1    1    2    0    0 -0.56798437784E+02 -0.18840826576E+03  0.65224915164E+03  0.68128752591E+03  0.00000000000E+00 0. -1.
         -2    1    1    2    0  501  0.65457331650E+02  0.19771717463E+03  0.27256761861E+03  0.34303039243E+03  0.25500000000E-02 0. -1.
<mgrwt>
<rscale>  0 0.20827084E+03</rscale>
<asrwt>0</asrwt>
<pdfrwt beam="1">  1       11 0.10000000E+01 0.21113391E+03</pdfrwt>
<pdfrwt beam="2">  1       -2 0.78980269E-02 0.20827084E+03</pdfrwt>
<totfact> 0.75809794E+02</totfact>
</mgrwt>
</event>
<event>
 5    1  0.2968854E-003  0.4906524E+02  0.7818608E-02  0.1619680E+00
         11   -1    0    0    0    0  0.00000000000E+00  0.00000000000E+00  0.10000720710E+04  0.10000720710E+04  0.51100000000E-03 0. -1.
          2   -1    0    0  501    0 -0.00000000000E+00 -0.00000000000E+00 -0.57708268947E+01  0.57708274581E+01  0.25500000000E-02 0. -1.
         11    1    1    2    0    0  0.41035227751E+02 -0.16146011302E+01  0.10822594712E+03  0.11575557215E+03  0.51100000000E-03 0. -1.
         22    1    1    2    0    0  0.85124179594E+01  0.13703421952E+02  0.51784192036E+02  0.54238801402E+02  0.00000000000E+00 0.  1.
          2    1    1    2  501    0 -0.49547645710E+02 -0.12088820822E+02  0.83429110499E+03  0.83584852495E+03  0.25500000000E-02 0. -1.
<mgrwt>
<rscale>  0 0.28134065E+02</rscale>
<asrwt>0</asrwt>
<pdfrwt beam="1">  1       11 0.10000000E+01 0.49065243E+02</pdfrwt>
<pdfrwt beam="2">  1        2 0.88788353E-03 0.28134065E+02</pdfrwt>
<totfact> 0.14388462E+04</totfact>
</mgrwt>
</event>
<event>
 5    1  0.2968854E-003  0.5021987E+03  0.7818608E-02  0.1014832E+00
         11   -1    0    0    0    0  0.00000000000E+00  0.00000000000E+00  0.10002784785E+04  0.10002784785E+04  0.51100000000E-03 0.  1.
          2   -1    0    0  501    0 -0.00000000000E+00 -0.00000000000E+00 -0.57593842028E+03  0.57593842029E+03  0.25500000000E-02 0.  1.
         11    1    1    2    0    0  0.34207839447E+03 -0.33003359842E+03  0.77020142359E+03  0.90506907855E+03  0.51100000000E-03 0.  1.
         22    1    1    2    0    0  0.26549234945E+02 -0.18025607518E+01  0.36300604282E+02  0.45009387606E+02  0.00000000000E+00 0. -1.
          2    1    1    2  501    0 -0.36862762941E+03  0.33183615918E+03 -0.38216196968E+03  0.62613843260E+03  0.25500000000E-02 0.  1.
<mgrwt>
<rscale>  0 0.49598545E+03</rscale>
<asrwt>0</asrwt>
<pdfrwt beam="1">  1       11 0.10000000E+01 0.50219874E+03</pdfrwt>
<pdfrwt beam="2">  1        2 0.88630583E-01 0.49598545E+03</pdfrwt>
<totfact> 0.65105340E+01</totfact>
</mgrwt>
</event>
<event>
 5    1  0.2968854E-003  0.2126225E+03  0.7818608E-02  0.1139506E+00
         11   -1    0    0    0    0  0.00000000000E+00  0.00000000000E+00  0.10001803832E+04  0.10001803832E+04  0.51100000000E-03 0. -1.
          2   -1    0    0  501    0 -0.00000000000E+00 -0.00000000000E+00 -0.17292448453E+03  0.17292448454E+03  0.25500000000E-02 0. -1.
         11    1    1    2    0    0  0.24573395203E+02 -0.17483858886E+03  0.77197308916E+03  0.79190582413E+03  0.51100000000E-03 0. -1.
         22    1    1    2    0    0 -0.40336850687E+02 -0.40995502002E+02  0.13801219891E+03  0.14951608527E+03  0.00000000000E+00 0.  1.
          2    1    1    2  501    0  0.15763455483E+02  0.21583409087E+03 -0.82729389394E+02  0.23168295834E+03  0.25500000000E-02 0. -1.
<mgrwt>
<rscale>  0 0.21262249E+03</rscale>
<asrwt>0</asrwt>
<pdfrwt beam="1">  1       11 0.10000000E+01 0.57512544E+02</pdfrwt>
<pdfrwt beam="2">  1        2 0.26608565E-01 0.21262249E+03</pdfrwt>
<totfact> 0.24689186E+02</totfact>
</mgrwt>
</event>
<event>
 5    1  0.2968854E-003  0.2308345E+03  0.7818608E-02  0.1132741E+00
         11   -1    0    0    0    0  0.00000000000E+00  0.00000000000E+00  0.10005946957E+04  0.10005946957E+04  0.51100000000E-03 0.  1.
          2   -1    0    0  501    0 -0.00000000000E+00 -0.00000000000E+00 -0.14647324726E+04  0.14647324726E+04  0.25500000000E-02 0.  1.
         11    1    1    2    0    0  0.20306921903E+03  0.17449843153E+02  0.93190740595E+03  0.95393554186E+03  0.51100000000E-03 0.  1.
         22    1    1    2    0    0  0.16130880010E+02  0.14655295325E+02  0.46806259584E+02  0.51631472061E+02  0.00000000000E+00 0.  1.
          2    1    1    2  501    0 -0.21920009904E+03 -0.32105138478E+02 -0.14428514424E+04  0.14597601543E+04  0.25500000000E-02 0.  1.
<mgrwt>
<rscale>  0 0.22153876E+03</rscale>
<asrwt>0</asrwt>
<pdfrwt beam="1">  1       11 0.10000000E+01 0.23083453E+03</pdfrwt>
<pdfrwt beam="2">  1        2 0.22547746E+00 0.22153876E+03</pdfrwt>
<totfact> 0.18115824E+01</totfact>
</mgrwt>
</event>
<event>
 5    1  0.2968854E-003  0.8206795E+02  0.7818608E-02  0.1326217E+00
         11   -1    0    0    0    0  0.00000000000E+00  0.00000000000E+00  0.10000017198E+04  0.10000017198E+04  0.51100000000E-03 0.  1.
          2   -1    0    0  501    0 -0.00000000000E+00 -0.00000000000E+00 -0.97298889253E+01  0.97298892594E+01  0.25500000000E-02 0.  1.
         11    1    1    2    0    0 -0.66438676859E+02 -0.82994563426E+01  0.17788928685E+03  0.19007255755E+03  0.51100000000E-03 0.  1.
         22    1    1    2    0    0 -0.14460361015E+02  0.41105243187E+01  0.35329801437E+02  0.38395225230E+02  0.00000000000E+00 0.  1.
          2    1    1    2  501    0  0.80899037873E+02  0.41889320239E+01  0.77705274259E+03  0.78126382628E+03  0.25500000000E-02 0.  1.
<mgrwt>
<rscale>  0 0.81007416E+02</rscale>
<asrwt>0</asrwt>
<pdfrwt beam="1">  1       11 0.10000000E+01 0.82067948E+02</pdfrwt>
<pdfrwt beam="2">  1        2 0.14969085E-02 0.81007416E+02</pdfrwt>
<totfact> 0.86607007E+03</totfact>
</mgrwt>
</event>
<event>
 5    1  0.2968854E-003  0.1971046E+03  0.7818608E-02  0.1569674E+00
         11   -1    0    0    0    0  0.00000000000E+00  0.00000000000E+00  0.10002516292E+04  0.10002516292E+04  0.51100000000E-03 0. -1.
          2   -1    0    0  501    0 -0.00000000000E+00 -0.00000000000E+00 -0.10629218503E+03  0.10629218506E+03  0.25500000000E-02 0. -1.
         11    1    1    2    0    0 -0.31668562588E+02 -0.18128311197E+03  0.31380309400E+03  0.36378406555E+03  0.51100000000E-03 0. -1.
         22    1    1    2    0    0  0.10082494953E+02  0.20589408784E+03  0.64118394190E+03  0.67350640640E+03  0.00000000000E+00 0. -1.
          2    1    1    2  501    0  0.21586067634E+02 -0.24610975877E+02 -0.61027591780E+02  0.69253342262E+02  0.25500000000E-02 0. -1.
<mgrwt>
<rscale>  0 0.32736195E+02</rscale>
<asrwt>0</asrwt>
<pdfrwt beam="1">  1       11 0.10000000E+01 0.19710455E+03</pdfrwt>
<pdfrwt beam="2">  1        2 0.16356758E-01 0.32736195E+02</pdfrwt>
<totfact> 0.39395164E+02</totfact>
</mgrwt>
</event>
<event>
 5    1  0.2968854E-003  0.1066464E+03  0.7818608E-02  0.1270702E+00
         11   -1    0    0    0    0  0.00000000000E+00  0.00000000000E+00  0.10003022915E+04  0.10003022915E+04  0.51100000000E-03 0. -1.
          2   -1    0    0  501    0 -0.00000000000E+00 -0.00000000000E+00 -0.11614723394E+02  0.11614723674E+02  0.25500000000E-02 0. -1.
         11    1    1    2    0    0 -0.87814019587E+02  0.17909095593E+02  0.30856612307E+03  0.32131774001E+03  0.51100000000E-03 0. -1.
         22    1    1    2    0    0 -0.14980128449E+02  0.20028893762E+01  0.90473204398E+02  0.91726858270E+02  0.00000000000E+00 0. -1.
          2    1    1    2  501    0  0.10279414804E+03 -0.19911984969E+02  0.58964824064E+03  0.59887241689E+03  0.25500000000E-02 0. -1.
<mgrwt>
<rscale>  0 0.10470494E+03</rscale>
<asrwt>0</asrwt>
<pdfrwt beam="1">  1       11 0.10000000E+01 0.10664640E+03</pdfrwt>
<pdfrwt beam="2">  1        2 0.17874207E-02 0.10470494E+03</pdfrwt>
<totfact> 0.70531770E+03</totfact>
</mgrwt>
</event>
<event>
 5    1  0.2968854E-003  0.1296796E+03  0.7818608E-02  0.1227932E+00
         11   -1    0    0    0    0  0.00000000000E+00  0.00000000000E+00  0.10001595860E+04  0.10001595860E+04  0.51100000000E-03 0. -1.
          2   -1    0    0  501    0 -0.00000000000E+00 -0.00000000000E+00 -0.24081055453E+02  0.24081055588E+02  0.25500000000E-02 0. -1.
         11    1    1    2    0    0 -0.10479620669E+03  0.73504830509E+02  0.24308139084E+03  0.27472489443E+03  0.51100000000E-03 0. -1.
         22    1    1    2    0    0  0.73472147417E+01  0.19944675561E+02  0.86817459772E+02  0.89381446447E+02  0.00000000000E+00 0. -1.
          2    1    1    2  501    0  0.97448991944E+02 -0.93449506071E+02  0.64617967997E+03  0.66013430076E+03  0.25500000000E-02 0. -1.
<mgrwt>
<rscale>  0 0.12967957E+03</rscale>
<asrwt>0</asrwt>
<pdfrwt beam="1">  1       11 0.10000000E+01 0.21254921E+02</pdfrwt>
<pdfrwt beam="2">  1        2 0.37053689E-02 0.12967957E+03</pdfrwt>
<totfact> 0.27086303E+03</totfact>
</mgrwt>
</event>
<event>
 5    1  0.2968854E-003  0.1791184E+03  0.7818608E-02  0.1170676E+00
         11   -1    0    0    0    0  0.00000000000E+00  0.00000000000E+00  0.10002995750E+04  0.10002995750E+04  0.51100000000E-03 0. -1.
          2   -1    0    0  501    0 -0.00000000000E+00 -0.00000000000E+00 -0.74143494244E+02  0.74143494288E+02  0.25500000000E-02 0. -1.
         11    1    1    2    0    0 -0.14929883566E+03 -0.42653811149E+02  0.76245947586E+03  0.77810920973E+03  0.51100000000E-03 0. -1.
         22    1    1    2    0    0 -0.23468399925E+02  0.38868223207E+01  0.10818985506E+03  0.11077417533E+03  0.00000000000E+00 0. -1.
          2    1    1    2  501    0  0.17276723559E+03  0.38766988828E+02  0.55506749796E+02  0.18555968419E+03  0.25500000000E-02 0. -1.
<mgrwt>
<rscale>  0 0.17706326E+03</rscale>
<asrwt>0</asrwt>
<pdfrwt beam="1">  1       11 0.10000000E+01 0.17911844E+03</pdfrwt>
<pdfrwt beam="2">  1        2 0.11410108E-01 0.17706326E+03</pdfrwt>
<totfact> 0.65644835E+02</totfact>
</mgrwt>
</event>
<event>
 5    1  0.2968854E-003  0.1786446E+03  0.7818608E-02  0.1169121E+00
         11   -1    0    0    0    0  0.00000000000E+00  0.00000000000E+00  0.10000685055E+04  0.10000685055E+04  0.51100000000E-03 0. -1.
         -2   -1    0    0    0  501 -0.00000000000E+00 -0.00000000000E+00 -0.38007549963E+03  0.38007549964E+03  0.25500000000E-02 0.  1.
         11    1    1    2    0    0 -0.16205714078E+03 -0.59391607642E+02  0.88399806939E+03  0.90068999474E+03  0.51100000000E-03 0. -1.
         22    1    1    2    0    0 -0.20867585737E+00 -0.15713535683E+02  0.85465059362E+02  0.86897843017E+02  0.00000000000E+00 0.  1.
         -2    1    1    2    0  501  0.16226581664E+03  0.75105143324E+02 -0.34947012285E+03  0.39255616741E+03  0.25500000000E-02 0.  1.
<mgrwt>
<rscale>  0 0.17864456E+03</rscale>
<asrwt>0</asrwt>
<pdfrwt beam="1">  1       11 0.10000000E+01 0.15714921E+02</pdfrwt>
<pdfrwt beam="2">  1       -2 0.58477158E-01 0.17864456E+03</pdfrwt>
<totfact> 0.22706777E+01</totfact>
</mgrwt>
</event>
<event>
 5    1  0.2968854E-003  0.1279015E+03  0.7818608E-02  0.1234708E+00
         11   -1    0    0    0    0  0.00000000000E+00  0.00000000000E+00  0.10000867104E+04  0.10000867104E+04  0.51100000000E-03 0.  1.
          2   -1    0    0  501    0 -0.00000000000E+00 -0.00000000000E+00 -0.16390185008E+02  0.16390185206E+02  0.25500000000E-02 0.  1.
         11    1    1    2    0    0 -0.13741725020E+02  0.18181264007E+02  0.11136616199E+03  0.11367416331E+03  0.51100000000E-03 0.  1.
         22    1    1    2    0    0 -0.80373929910E+02  0.64433705352E+02  0.30894037121E+03  0.32566213160E+03  0.00000000000E+00 0.  1.
          2    1    1    2  501    0  0.94115654930E+02 -0.82614969359E+02  0.56338999221E+03  0.57714060071E+03  0.25500000000E-02 0.  1.
<mgrwt>
<rscale>  0 0.12523174E+03</rscale>
<asrwt>0</asrwt>
<pdfrwt beam="1">  1       11 0.10000000E+01 0.12790152E+03</pdfrwt>
<pdfrwt beam="2">  1        2 0.25217855E-02 0.12523174E+03</pdfrwt>
<totfact> 0.45201005E+03</totfact>
</mgrwt>
</event>
<event>
 5    1  0.2968854E-003  0.2840057E+03  0.7818608E-02  0.1093521E+00
         11   -1    0    0    0    0  0.00000000000E+00  0.00000000000E+00  0.10009694185E+04  0.10009694185E+04  0.51100000000E-03 0. -1.
          2   -1    0    0  501    0 -0.00000000000E+00 -0.00000000000E+00 -0.15678506500E+04  0.15678506500E+04  0.25500000000E-02 0. -1.
         11    1    1    2    0    0 -0.20266513072E+02 -0.26089744715E+03  0.80931254185E+03  0.85056745757E+03  0.51100000000E-03 0. -1.
         22    1    1    2    0    0  0.63424918737E+02 -0.20275875850E+02  0.15087437120E+03  0.16491484877E+03  0.00000000000E+00 0.  1.
          2    1    1    2  501    0 -0.43158405664E+02  0.28117332300E+03 -0.15270681445E+04  0.15533377622E+04  0.25500000000E-02 0. -1.
<mgrwt>
<rscale>  0 0.28400568E+03</rscale>
<asrwt>0</asrwt>
<pdfrwt beam="1">  1       11 0.10000000E+01 0.66587022E+02</pdfrwt>
<pdfrwt beam="2">  1        2 0.24144162E+00 0.28400568E+03</pdfrwt>
<totfact> 0.15651208E+01</totfact>
</mgrwt>
</event>
<event>
 5    1  0.2968854E-003  0.1257655E+03  0.7818608E-02  0.1261846E+00
         11   -1    0    0    0    0  0.00000000000E+00  0.00000000000E+00  0.10001702304E+04  0.10001702304E+04  0.51100000000E-03 0.  1.
          2   -1    0    0  501    0 -0.00000000000E+00 -0.00000000000E+00 -0.21181524272E+03  0.21181524274E+03  0.25500000000E-02 0. -1.
         11    1    1    2    0    0  0.11983926107E+03  0.78496336926E+02  0.79578670234E+03  0.80857875252E+03  0.51100000000E-03 0.  1.
         22    1    1    2    0    0 -0.10616633236E+03  0.29958861862E+02  0.16545677331E+03  0.19885866178E+03  0.00000000000E+00 0. -1.
          2    1    1    2  501    0 -0.13672928706E+02 -0.10845519879E+03 -0.17288848793E+03  0.20454805887E+03  0.25500000000E-02 0. -1.
<mgrwt>
<rscale>  0 0.10931367E+03</rscale>
<asrwt>0</asrwt>
<pdfrwt beam="1">  1       11 0.10000000E+01 0.12576546E+03</pdfrwt>
<pdfrwt beam="2">  1        2 0.32592507E-01 0.10931367E+03</pdfrwt>
<totfact> 0.19548140E+02</totfact>
</mgrwt>
</event>
<event>
 5    1  0.2968854E-003  0.9404704E+02  0.7818608E-02  0.1293337E+00
         11   -1    0    0    0    0  0.00000000000E+00  0.00000000000E+00  0.10002709469E+04  0.10002709469E+04  0.51100000000E-03 0. -1.
          2   -1    0    0  501    0 -0.00000000000E+00 -0.00000000000E+00 -0.16961374827E+02  0.16961375018E+02  0.25500000000E-02 0. -1.
         11    1    1    2    0    0  0.80445927253E+02 -0.61555105261E+02  0.53642028794E+03  0.54590045202E+03  0.51100000000E-03 0. -1.
         22    1    1    2    0    0  0.13673491524E+02  0.49104817146E+02  0.21064554591E+03  0.21672515648E+03  0.00000000000E+00 0. -1.
          2    1    1    2  501    0 -0.94119418777E+02  0.12450288115E+02  0.23624373817E+03  0.25460671338E+03  0.25500000000E-02 0. -1.
<mgrwt>
<rscale>  0 0.94047037E+02</rscale>
<asrwt>0</asrwt>
<pdfrwt beam="1">  1       11 0.10000000E+01 0.50973007E+02</pdfrwt>
<pdfrwt beam="2">  1        2 0.26101492E-02 0.94047037E+02</pdfrwt>
<totfact> 0.41772420E+03</totfact>
</mgrwt>
</event>
<event>
 5    1  0.2968854E-003  0.1673168E+03  0.7818608E-02  0.1180675E+00
         11   -1    0    0    0    0  0.00000000000E+00  0.00000000000E+00  0.10004890012E+04  0.10004890012E+04  0.51100000000E-03 0. -1.
          2   -1    0    0  501    0 -0.00000000000E+00 -0.00000000000E+00 -0.32501905019E+03  0.32501905020E+03  0.25500000000E-02 0. -1.
         11    1    1    2    0    0  0.14223610236E+03 -0.15476912436E+03  0.49241784716E+03  0.53540631942E+03  0.51100000000E-03 0. -1.
         22    1    1    2    0    0 -0.81116583421E+02  0.44040405977E+00  0.46006607358E+03  0.46716259067E+03  0.00000000000E+00 0. -1.
          2    1    1    2  501    0 -0.61119518941E+02  0.15432872030E+03 -0.27701396978E+03  0.32293914127E+03  0.25500000000E-02 0. -1.
<mgrwt>
<rscale>  0 0.16731677E+03</rscale>
<asrwt>0</asrwt>
<pdfrwt beam="1">  1       11 0.10000000E+01 0.81117779E+02</pdfrwt>
<pdfrwt beam="2">  1        2 0.50027381E-01 0.16731677E+03</pdfrwt>
<totfact> 0.12438159E+02</totfact>
</mgrwt>
</event>
<event>
 5    1  0.2968854E-003  0.2075404E+03  0.7818608E-02  0.1146778E+00
         11   -1    0    0    0    0  0.00000000000E+00  0.00000000000E+00  0.99979006621E+03  0.99979006621E+03  0.51100000000E-03 0. -1.
         -2   -1    0    0    0  501 -0.00000000000E+00 -0.00000000000E+00 -0.48744434735E+03  0.48744434735E+03  0.25500000000E-02 0.  1.
         11    1    1    2    0    0 -0.15564263825E+02 -0.16799618364E+03  0.79219262849E+03  0.80995933519E+03  0.51100000000E-03 0. -1.
         22    1    1    2    0    0 -0.21802174999E+02 -0.32094510124E+02  0.17484655660E+03  0.17909972298E+03  0.00000000000E+00 0. -1.
         -2    1    1    2    0  501  0.37366438825E+02  0.20009069376E+03 -0.45469346623E+03  0.49817535539E+03  0.25500000000E-02 0.  1.
<mgrwt>
<rscale>  0 0.20354984E+03</rscale>
<asrwt>0</asrwt>
<pdfrwt beam="1">  1       11 0.10000000E+01 0.20754044E+03</pdfrwt>
<pdfrwt beam="2">  1       -2 0.74975693E-01 0.20354984E+03</pdfrwt>
<totfact> 0.13412504E+01</totfact>
</mgrwt>
</event>
<event>
 5    1  0.2968854E-003  0.1194315E+03  0.7818608E-02  0.1360915E+00
         11   -1    0    0    0    0  0.00000000000E+00  0.00000000000E+00  0.10002166248E+04  0.10002166248E+04  0.51100000000E-03 0.  1.
         -2   -1    0    0    0  501 -0.00000000000E+00 -0.00000000000E+00 -0.17128640483E+03  0.17128640485E+03  0.25500000000E-02 0. -1.
         11    1    1    2    0    0 -0.65431783554E+02  0.71334558599E+02  0.27427646163E+03  0.29085651954E+03  0.51100000000E-03 0.  1.
         22    1    1    2    0    0  0.43969340688E+02 -0.13770980396E+03  0.70247341494E+03  0.71719327362E+03  0.00000000000E+00 0.  1.
         -2    1    1    2    0  501  0.21462442867E+02  0.66375245360E+02 -0.14781965658E+03  0.16345323652E+03  0.25500000000E-02 0. -1.
<mgrwt>
<rscale>  0 0.69758940E+02</rscale>
<asrwt>0</asrwt>
<pdfrwt beam="1">  1       11 0.10000000E+01 0.11943148E+03</pdfrwt>
<pdfrwt beam="2">  1       -2 0.26357462E-01 0.69758940E+02</pdfrwt>
<totfact> 0.10086907E+02</totfact>
</mgrwt>
</event>
<event>
 5    1  0.2968854E-003  0.2087907E+03  0.7818608E-02  0.1145934E+00
         11   -1    0    0    0    0  0.00000000000E+00  0.00000000000E+00  0.10005631236E+04  0.10005631236E+04  0.51100000000E-03 0.  1.
          2   -1    0    0  501    0 -0.00000000000E+00 -0.00000000000E+00 -0.12237776737E+03  0.12237776740E+03  0.25500000000E-02 0.  1.
         11    1    1    2    0    0 -0.66911218625E+02 -0.16749605001E+03  0.78236959190E+03  0.80289116091E+03  0.51100000000E-03 0.  1.
         22    1    1    2    0    0 -0.23266725340E+02 -0.16133487639E+02  0.11134069734E+03  0.11488420612E+03  0.00000000000E+00 0. -1.
          2    1    1    2  501    0  0.90177943965E+02  0.18362953765E+03 -0.15524932998E+02  0.20516552397E+03  0.25500000000E-02 0.  1.
<mgrwt>
<rscale>  0 0.20457729E+03</rscale>
<asrwt>0</asrwt>
<pdfrwt beam="1">  1       11 0.10000000E+01 0.20879067E+03</pdfrwt>
<pdfrwt beam="2">  1        2 0.18837950E-01 0.20457729E+03</pdfrwt>
<totfact> 0.36442868E+02</totfact>
</mgrwt>
</event>
<event>
 5    1  0.2968854E-003  0.2119814E+03  0.7818608E-02  0.1153880E+00
         11   -1    0    0    0    0  0.00000000000E+00  0.00000000000E+00  0.10002089751E+04  0.10002089751E+04  0.51100000000E-03 0. -1.
          2   -1    0    0  501    0 -0.00000000000E+00 -0.00000000000E+00 -0.78944080950E+02  0.78944080991E+02  0.25500000000E-02 0.  1.
         11    1    1    2    0    0 -0.41347295452E+02 -0.84156343158E+02  0.26684979681E+03  0.28284395520E+03  0.51100000000E-03 0. -1.
         22    1    1    2    0    0 -0.92737820861E+02 -0.57661426659E+02  0.57553289678E+03  0.58580138172E+03  0.00000000000E+00 0. -1.
          2    1    1    2  501    0  0.13408511631E+03  0.14181776982E+03  0.78882200525E+02  0.21050771914E+03  0.25500000000E-02 0.  1.
<mgrwt>
<rscale>  0 0.19516941E+03</rscale>
<asrwt>0</asrwt>
<pdfrwt beam="1">  1       11 0.10000000E+01 0.21198141E+03</pdfrwt>
<pdfrwt beam="2">  1        2 0.12147781E-01 0.19516941E+03</pdfrwt>
<totfact> 0.61111074E+02</totfact>
</mgrwt>
</event>
<event>
 5    1  0.2968854E-003  0.2268806E+03  0.7818608E-02  0.1137153E+00
         11   -1    0    0    0    0  0.00000000000E+00  0.00000000000E+00  0.10003013230E+04  0.10003013230E+04  0.51100000000E-03 0. -1.
         -2   -1    0    0    0  501 -0.00000000000E+00 -0.00000000000E+00 -0.52255688061E+02  0.52255688123E+02  0.25500000000E-02 0. -1.
         11    1    1    2    0    0 -0.13893451211E+03  0.10981901349E+03  0.40745201796E+03  0.44427487135E+03  0.51100000000E-03 0. -1.
         22    1    1    2    0    0 -0.28271928289E+02  0.26400341946E+02  0.21018350577E+03  0.21371332687E+03  0.00000000000E+00 0.  1.
         -2    1    1    2    0  501  0.16720644040E+03 -0.13621935544E+03  0.33041011117E+03  0.39456881285E+03  0.25500000000E-02 0. -1.
<mgrwt>
<rscale>  0 0.21567037E+03</rscale>
<asrwt>0</asrwt>
<pdfrwt beam="1">  1       11 0.10000000E+01 0.22688065E+03</pdfrwt>
<pdfrwt beam="2">  1       -2 0.80417588E-02 0.21567037E+03</pdfrwt>
<totfact> 0.73864973E+02</totfact>
</mgrwt>
</event>
<event>
 5    1  0.2968854E-003  0.3780507E+02  0.7818608E-02  0.1555220E+00
         11   -1    0    0    0    0  0.00000000000E+00  0.00000000000E+00  0.10001905884E+04  0.10001905884E+04  0.51100000000E-03 0. -1.
          2   -1    0    0  501    0 -0.00000000000E+00 -0.00000000000E+00 -0.21458765855E+01  0.21458781006E+01  0.25500000000E-02 0. -1.
         11    1    1    2    0    0  0.23328854621E+02 -0.10054041544E+02  0.14292689124E+03  0.14516685383E+03  0.51100000000E-03 0. -1.
         22    1    1    2    0    0  0.10690699347E+02  0.59550160764E+01  0.56181456990E+02  0.57498777192E+02  0.00000000000E+00 0. -1.
          2    1    1    2  501    0 -0.34019553968E+02  0.40990254678E+01  0.79893636355E+03  0.79967083545E+03  0.25500000000E-02 0. -1.
<mgrwt>
<rscale>  0 0.34265611E+02</rscale>
<asrwt>0</asrwt>
<pdfrwt beam="1">  1       11 0.10000000E+01 0.37805075E+02</pdfrwt>
<pdfrwt beam="2">  1        2 0.33019789E-03 0.34265611E+02</pdfrwt>
<totfact> 0.56066124E+04</totfact>
</mgrwt>
</event>
<event>
 5    1  0.2968854E-003  0.1554718E+03  0.7818608E-02  0.1387605E+00
         11   -1    0    0    0    0  0.00000000000E+00  0.00000000000E+00  0.99977115578E+03  0.99977115578E+03  0.51100000000E-03 0. -1.
          2   -1    0    0  501    0 -0.00000000000E+00 -0.00000000000E+00 -0.91304531722E+02  0.91304531757E+02  0.25500000000E-02 0. -1.
         11    1    1    2    0    0  0.73896544621E+02 -0.13856127521E+03  0.90547022301E+03  0.91898653475E+03  0.51100000000E-03 0. -1.
         22    1    1    2    0    0 -0.24566979702E+02  0.52901850364E+01 -0.14330639568E+02  0.28929047337E+02  0.00000000000E+00 0. -1.
          2    1    1    2  501    0 -0.49329564919E+02  0.13327109017E+03  0.17327040617E+02  0.14316010545E+03  0.25500000000E-02 0. -1.
<mgrwt>
<rscale>  0 0.62506199E+02</rscale>
<asrwt>0</asrwt>
<pdfrwt beam="1">  1       11 0.10000000E+01 0.15547184E+03</pdfrwt>
<pdfrwt beam="2">  1        2 0.14043636E-01 0.62506199E+02</pdfrwt>
<totfact> 0.48615484E+02</totfact>
</mgrwt>
</event>
<event>
 5    1  0.2968854E-003  0.2619552E+03  0.7818608E-02  0.1108027E+00
         11   -1    0    0    0    0  0.00000000000E+00  0.00000000000E+00  0.10000149957E+04  0.10000149957E+04  0.51100000000E-03 0. -1.
         -2   -1    0    0    0  501 -0.00000000000E+00 -0.00000000000E+00 -0.10389579563E+03  0.10389579566E+03  0.25500000000E-02 0. -1.
         11    1    1    2    0    0  0.24977703233E+03 -0.25290561918E+02  0.73083257407E+03  0.77275120817E+03  0.51100000000E-03 0. -1.
         22    1    1    2    0    0  0.80441244203E+01  0.60902002868E+01  0.44809497025E+02  0.45931356402E+02  0.00000000000E+00 0.  1.
         -2    1    1    2    0  501 -0.25782115675E+03  0.19200361632E+02  0.12047712899E+03  0.28522822682E+03  0.25500000000E-02 0. -1.
<mgrwt>
<rscale>  0 0.25853511E+03</rscale>
<asrwt>0</asrwt>
<pdfrwt beam="1">  1       11 0.10000000E+01 0.26195519E+03</pdfrwt>
<pdfrwt beam="2">  1       -2 0.15984208E-01 0.25853511E+03</pdfrwt>
<totfact> 0.24633799E+02</totfact>
</mgrwt>
</event>
<event>
 5    1  0.2968854E-003  0.3001053E+03  0.7818608E-02  0.1085188E+00
         11   -1    0    0    0    0  0.00000000000E+00  0.00000000000E+00  0.10001071776E+04  0.10001071776E+04  0.51100000000E-03 0. -1.
          2   -1    0    0  501    0 -0.00000000000E+00 -0.00000000000E+00 -0.29417763133E+03  0.29417763134E+03  0.25500000000E-02 0. -1.
         11    1    1    2    0    0 -0.51561056089E+02  0.30608236393E+03  0.80598875836E+03  0.86369140011E+03  0.51100000000E-03 0. -1.
         22    1    1    2    0    0  0.29658577036E+02 -0.77053790942E+01  0.77050665478E+02  0.82920498729E+02  0.00000000000E+00 0.  1.
          2    1    1    2  501    0  0.21902479053E+02 -0.29837698484E+03 -0.17710987758E+03  0.34767291010E+03  0.25500000000E-02 0. -1.
<mgrwt>
<rscale>  0 0.30010533E+03</rscale>
<asrwt>0</asrwt>
<pdfrwt beam="1">  1       11 0.10000000E+01 0.30643173E+02</pdfrwt>
<pdfrwt beam="2">  1        2 0.45262946E-01 0.30010533E+03</pdfrwt>
<totfact> 0.13862946E+02</totfact>
</mgrwt>
</event>
<event>
 5    1  0.2968854E-003  0.2904837E+03  0.7818608E-02  0.1093958E+00
         11   -1    0    0    0    0  0.00000000000E+00  0.00000000000E+00  0.10006653558E+04  0.10006653558E+04  0.51100000000E-03 0. -1.
          2   -1    0    0  501    0 -0.00000000000E+00 -0.00000000000E+00 -0.27916771472E+03  0.27916771473E+03  0.25500000000E-02 0. -1.
         11    1    1    2    0    0  0.13764106744E+03 -0.19631550492E+03  0.77718350855E+03  0.81332591677E+03  0.51100000000E-03 0. -1.
         22    1    1    2    0    0  0.45200772329E+02 -0.19941594117E+02  0.12238555752E+03  0.13198106562E+03  0.00000000000E+00 0. -1.
          2    1    1    2  501    0 -0.18284183977E+03  0.21625709904E+03 -0.17807142497E+03  0.33452608815E+03  0.25500000000E-02 0. -1.
<mgrwt>
<rscale>  0 0.28319299E+03</rscale>
<asrwt>0</asrwt>
<pdfrwt beam="1">  1       11 0.10000000E+01 0.29048371E+03</pdfrwt>
<pdfrwt beam="2">  1        2 0.42977454E-01 0.28319299E+03</pdfrwt>
<totfact> 0.14662515E+02</totfact>
</mgrwt>
</event>
<event>
 5    1  0.2968854E-003  0.6153366E+02  0.7818608E-02  0.1406844E+00
         11   -1    0    0    0    0  0.00000000000E+00  0.00000000000E+00  0.10004110507E+04  0.10004110507E+04  0.51100000000E-03 0.  1.
          2   -1    0    0  501    0 -0.00000000000E+00 -0.00000000000E+00 -0.49131530362E+01  0.49131536979E+01  0.25500000000E-02 0.  1.
         11    1    1    2    0    0  0.28206605761E+02  0.40446363377E+02  0.17946933240E+03  0.18612028957E+03  0.51100000000E-03 0.  1.
         22    1    1    2    0    0 -0.17550682005E+01  0.11062788300E+02  0.66022007586E+02  0.66965446576E+02  0.00000000000E+00 0.  1.
          2    1    1    2  501    0 -0.26451537561E+02 -0.51509151677E+02  0.75000655769E+03  0.75223846826E+03  0.25500000000E-02 0.  1.
<mgrwt>
<rscale>  0 0.57904029E+02</rscale>
<asrwt>0</asrwt>
<pdfrwt beam="1">  1       11 0.10000000E+01 0.61533664E+02</pdfrwt>
<pdfrwt beam="2">  1        2 0.75618043E-03 0.57904029E+02</pdfrwt>
<totfact> 0.20658332E+04</totfact>
</mgrwt>
</event>
<event>
 5    1  0.2968854E-003  0.9088933E+02  0.7818608E-02  0.1300712E+00
         11   -1    0    0    0    0  0.00000000000E+00  0.00000000000E+00  0.10000776057E+04  0.10000776057E+04  0.51100000000E-03 0.  1.
          2   -1    0    0  501    0 -0.00000000000E+00 -0.00000000000E+00 -0.24634521783E+02  0.24634521915E+02  0.25500000000E-02 0.  1.
         11    1    1    2    0    0 -0.10426077276E+03  0.25021910326E+01  0.42479934387E+03  0.43741405127E+03  0.51100000000E-03 0.  1.
         22    1    1    2    0    0  0.55548000965E+02 -0.79235081729E+02  0.39843710596E+03  0.41001939709E+03  0.00000000000E+00 0.  1.
          2    1    1    2  501    0  0.48712771793E+02  0.76732890696E+02  0.15220663408E+03  0.17727867925E+03  0.25500000000E-02 0.  1.
<mgrwt>
<rscale>  0 0.90889332E+02</rscale>
<asrwt>0</asrwt>
<pdfrwt beam="1">  1       11 0.10000000E+01 0.89590418E+02</pdfrwt>
<pdfrwt beam="2">  1        2 0.37902204E-02 0.90889332E+02</pdfrwt>
<totfact> 0.25384585E+03</totfact>
</mgrwt>
</event>
<event>
 5    1  0.2968854E-003  0.1894544E+03  0.7818608E-02  0.1162195E+00
         11   -1    0    0    0    0  0.00000000000E+00  0.00000000000E+00  0.10000997506E+04  0.10000997506E+04  0.51100000000E-03 0. -1.
          2   -1    0    0  501    0 -0.00000000000E+00 -0.00000000000E+00 -0.27064525206E+03  0.27064525207E+03  0.25500000000E-02 0. -1.
         11    1    1    2    0    0 -0.43678169064E+02 -0.16213003664E+03  0.84899767800E+03  0.86544265465E+03  0.51100000000E-03 0. -1.
         22    1    1    2    0    0  0.74327988390E+01 -0.20221096621E+02  0.10876047495E+03  0.11087371266E+03  0.00000000000E+00 0.  1.
          2    1    1    2  501    0  0.36245370225E+02  0.18235113326E+03 -0.22830365445E+03  0.29442863533E+03  0.25500000000E-02 0. -1.
<mgrwt>
<rscale>  0 0.18591843E+03</rscale>
<asrwt>0</asrwt>
<pdfrwt beam="1">  1       11 0.10000000E+01 0.18945440E+03</pdfrwt>
<pdfrwt beam="2">  1        2 0.41641883E-01 0.18591843E+03</pdfrwt>
<totfact> 0.15138440E+02</totfact>
</mgrwt>
</event>
<event>
 5    1  0.2968854E-003  0.1726934E+03  0.7818608E-02  0.1175068E+00
         11   -1    0    0    0    0  0.00000000000E+00  0.00000000000E+00  0.10001872258E+04  0.10001872258E+04  0.51100000000E-03 0.  1.
          2   -1    0    0  501    0 -0.00000000000E+00 -0.00000000000E+00 -0.49741931550E+03  0.49741931550E+03  0.25500000000E-02 0.  1.
         11    1    1    2    0    0  0.91454393661E+02  0.13245821892E+03  0.84424021581E+03  0.85944786222E+03  0.51100000000E-03 0.  1.
         22    1    1    2    0    0 -0.31052920172E+02  0.29646831694E+02  0.12949428818E+03  0.13642576425E+03  0.00000000000E+00 0. -1.
          2    1    1    2  501    0 -0.60401473489E+02 -0.16210505062E+03 -0.47096659370E+03  0.50173291482E+03  0.25500000000E-02 0.  1.
<mgrwt>
<rscale>  0 0.17269340E+03</rscale>
<asrwt>0</asrwt>
<pdfrwt beam="1">  1       11 0.10000000E+01 0.42932720E+02</pdfrwt>
<pdfrwt beam="2">  1        2 0.76540374E-01 0.17269340E+03</pdfrwt>
<totfact> 0.78517907E+01</totfact>
</mgrwt>
</event>
<event>
 5    1  0.2968854E-003  0.3808519E+03  0.7818608E-02  0.1051480E+00
         11   -1    0    0    0    0  0.00000000000E+00  0.00000000000E+00  0.10002102265E+04  0.10002102265E+04  0.51100000000E-03 0. -1.
          2   -1    0    0  501    0 -0.00000000000E+00 -0.00000000000E+00 -0.16396296905E+03  0.16396296907E+03  0.25500000000E-02 0. -1.
         11    1    1    2    0    0  0.35233855750E+02  0.36046765860E+03  0.57567067106E+03  0.68012872238E+03  0.51100000000E-03 0. -1.
         22    1    1    2    0    0 -0.17566406853E+01  0.16575022811E+02  0.46006426935E+02  0.48932693437E+02  0.00000000000E+00 0. -1.
          2    1    1    2  501    0 -0.33477215065E+02 -0.37704268141E+03  0.21457015942E+03  0.43511177972E+03  0.25500000000E-02 0. -1.
<mgrwt>
<rscale>  0 0.37852597E+03</rscale>
<asrwt>0</asrwt>
<pdfrwt beam="1">  1       11 0.10000000E+01 0.38085185E+03</pdfrwt>
<pdfrwt beam="2">  1        2 0.25230374E-01 0.37852597E+03</pdfrwt>
<totfact> 0.26487283E+02</totfact>
</mgrwt>
</event>
<event>
 5    1  0.5499257E-003  0.1842600E+03  0.7818608E-02  0.1165164E+00
         11   -1    0    0    0    0  0.00000000000E+00  0.00000000000E+00  0.10000412121E+04  0.10000412121E+04  0.51100000000E-03 0. -1.
         -2   -1    0    0    0  501 -0.00000000000E+00 -0.00000000000E+00 -0.49500157861E+03  0.49500157862E+03  0.25500000000E-02 0.  1.
         11    1    1    2    0    0 -0.61364910634E+02  0.15757182088E+03  0.92628639526E+03  0.94159493257E+03  0.51100000000E-03 0. -1.
         22    1    1    2    0    0 -0.26454697052E+01  0.13606083167E+02  0.47951236880E+02  0.49914377963E+02  0.00000000000E+00 0. -1.
         -2    1    1    2    0  501  0.64010380339E+02 -0.17117790405E+03 -0.46919799870E+03  0.50353348014E+03  0.25500000000E-02 0.  1.
<mgrwt>
<rscale>  0 0.18275449E+03</rscale>
<asrwt>0</asrwt>
<pdfrwt beam="1">  1       11 0.10000000E+01 0.18426000E+03</pdfrwt>
<pdfrwt beam="2">  1       -2 0.76157225E-01 0.18275449E+03</pdfrwt>
<totfact> 0.12990282E+01</totfact>
</mgrwt>
</event>
<event>
 5    1  0.2968854E-003  0.1083407E+03  0.7818608E-02  0.1443270E+00
         11   -1    0    0    0    0  0.00000000000E+00  0.00000000000E+00  0.10001605266E+04  0.10001605266E+04  0.51100000000E-03 0. -1.
         -2   -1    0    0    0  501 -0.00000000000E+00 -0.00000000000E+00 -0.23943958176E+02  0.23943958312E+02  0.25500000000E-02 0.  1.
         11    1    1    2    0    0  0.10653760509E+03  0.86593307418E+02  0.54127536778E+03  0.55841533463E+03  0.51100000000E-03 0. -1.
         22    1    1    2    0    0 -0.79634120416E+02 -0.43990938971E+02  0.38167367764E+03  0.39236665512E+03  0.00000000000E+00 0.  1.
         -2    1    1    2    0  501 -0.26903484671E+02 -0.42602368447E+02  0.53267523045E+02  0.73322495202E+02  0.25500000000E-02 0.  1.
<mgrwt>
<rscale>  0 0.50386102E+02</rscale>
<asrwt>0</asrwt>
<pdfrwt beam="1">  1       11 0.10000000E+01 0.10834068E+03</pdfrwt>
<pdfrwt beam="2">  1       -2 0.36842771E-02 0.50386102E+02</pdfrwt>
<totfact> 0.20830763E+03</totfact>
</mgrwt>
</event>
<event>
 5    1  0.2968854E-003  0.7657239E+02  0.7818608E-02  0.1343766E+00
         11   -1    0    0    0    0  0.00000000000E+00  0.00000000000E+00  0.10003420252E+04  0.10003420252E+04  0.51100000000E-03 0.  1.
         -2   -1    0    0    0  501 -0.00000000000E+00 -0.00000000000E+00 -0.63662211137E+01  0.63662216244E+01  0.25500000000E-02 0.  1.
         11    1    1    2    0    0  0.63569894477E+02  0.14632713285E+02  0.31640527364E+03  0.32305966163E+03  0.51100000000E-03 0.  1.
         22    1    1    2    0    0  0.89847502132E+01  0.44964827361E+01  0.27796494168E+02  0.29556542109E+02  0.00000000000E+00 0. -1.
         -2    1    1    2    0  501 -0.72554644690E+02 -0.19129196021E+02  0.64977403625E+03  0.65409204307E+03  0.25500000000E-02 0.  1.
<mgrwt>
<rscale>  0 0.75034010E+02</rscale>
<asrwt>0</asrwt>
<pdfrwt beam="1">  1       11 0.10000000E+01 0.76572385E+02</pdfrwt>
<pdfrwt beam="2">  1       -2 0.97975363E-03 0.75034010E+02</pdfrwt>
<totfact> 0.14501675E+04</totfact>
</mgrwt>
</event>
<event>
 5    1  0.2968854E-003  0.1851788E+03  0.7818608E-02  0.1166781E+00
         11   -1    0    0    0    0  0.00000000000E+00  0.00000000000E+00  0.10001707852E+04  0.10001707852E+04  0.51100000000E-03 0. -1.
          2   -1    0    0  501    0 -0.00000000000E+00 -0.00000000000E+00 -0.68172292732E+02  0.68172292779E+02  0.25500000000E-02 0. -1.
         11    1    1    2    0    0 -0.13237627803E+03 -0.53527921113E+02  0.64135065883E+03  0.65705356319E+03  0.51100000000E-03 0. -1.
         22    1    1    2    0    0 -0.41990557294E+02  0.47545092137E+01  0.20801627883E+03  0.21226536345E+03  0.00000000000E+00 0. -1.
          2    1    1    2  501    0  0.17436683532E+03  0.48773411899E+02  0.82631554844E+02  0.19902415138E+03  0.25500000000E-02 0. -1.
<mgrwt>
<rscale>  0 0.18105977E+03</rscale>
<asrwt>0</asrwt>
<pdfrwt beam="1">  1       11 0.10000000E+01 0.18517884E+03</pdfrwt>
<pdfrwt beam="2">  1        2 0.10489836E-01 0.18105977E+03</pdfrwt>
<totfact> 0.72844207E+02</totfact>
</mgrwt>
</event>
<event>
 5    1  0.2968854E-003  0.1689002E+03  0.7818608E-02  0.1179000E+00
         11   -1    0    0    0    0  0.00000000000E+00  0.00000000000E+00  0.10001652286E+04  0.10001652286E+04  0.51100000000E-03 0.  1.
          2   -1    0    0  501    0 -0.00000000000E+00 -0.00000000000E+00 -0.31343984459E+02  0.31343984562E+02  0.25500000000E-02 0. -1.
         11    1    1    2    0    0 -0.17019614437E+03  0.75966856174E+01  0.47895117381E+03  0.50834895897E+03  0.51100000000E-03 0.  1.
         22    1    1    2    0    0  0.24583193791E+01 -0.13364522122E+02  0.63666402427E+02  0.65100419229E+02  0.00000000000E+00 0.  1.
          2    1    1    2  501    0  0.16773782499E+03  0.57678365051E+01  0.42620366792E+03  0.45805983498E+03  0.25500000000E-02 0. -1.
<mgrwt>
<rscale>  0 0.16890020E+03</rscale>
<asrwt>0</asrwt>
<pdfrwt beam="1">  1       11 0.10000000E+01 0.13588737E+02</pdfrwt>
<pdfrwt beam="2">  1        2 0.48229481E-02 0.16890020E+03</pdfrwt>
<totfact> 0.19554777E+03</totfact>
</mgrwt>
</event>
<event>
 5    1  0.2968854E-003  0.1021181E+03  0.7818608E-02  0.1289616E+00
         11   -1    0    0    0    0  0.00000000000E+00  0.00000000000E+00  0.99994288623E+03  0.99994288623E+03  0.51100000000E-03 0. -1.
          2   -1    0    0  501    0 -0.00000000000E+00 -0.00000000000E+00 -0.10016159481E+02  0.10016159805E+02  0.25500000000E-02 0. -1.
         11    1    1    2    0    0 -0.73135737476E+02 -0.20927281849E+02  0.44827879458E+03  0.45468743648E+03  0.51100000000E-03 0. -1.
         22    1    1    2    0    0 -0.11821780014E+02 -0.23117864733E+02  0.13935626090E+03  0.14175456820E+03  0.00000000000E+00 0. -1.
          2    1    1    2  501    0  0.84957517490E+02  0.44045146581E+02  0.40229167127E+03  0.41351704136E+03  0.25500000000E-02 0. -1.
<mgrwt>
<rscale>  0 0.95696158E+02</rscale>
<asrwt>0</asrwt>
<pdfrwt beam="1">  1       11 0.10000000E+01 0.10211810E+03</pdfrwt>
<pdfrwt beam="2">  1        2 0.15408596E-02 0.95696158E+02</pdfrwt>
<totfact> 0.85267421E+03</totfact>
</mgrwt>
</event>
<event>
 5    1  0.2968854E-003  0.1441891E+03  0.7818608E-02  0.1222517E+00
         11   -1    0    0    0    0  0.00000000000E+00  0.00000000000E+00  0.10002644023E+04  0.10002644023E+04  0.51100000000E-03 0. -1.
          2   -1    0    0  501    0 -0.00000000000E+00 -0.00000000000E+00 -0.19271276760E+02  0.19271276929E+02  0.25500000000E-02 0. -1.
         11    1    1    2    0    0 -0.10560112156E+03  0.46427140317E+02  0.36382011014E+03  0.38167020944E+03  0.51100000000E-03 0. -1.
         22    1    1    2    0    0 -0.23500624220E+02 -0.12895492420E+02  0.13178955967E+03  0.13448814484E+03  0.00000000000E+00 0. -1.
          2    1    1    2  501    0  0.12910174578E+03 -0.33531647896E+02  0.48538345573E+03  0.50337732495E+03  0.25500000000E-02 0. -1.
<mgrwt>
<rscale>  0 0.13338528E+03</rscale>
<asrwt>0</asrwt>
<pdfrwt beam="1">  1       11 0.10000000E+01 0.14418912E+03</pdfrwt>
<pdfrwt beam="2">  1        2 0.29655956E-02 0.13338528E+03</pdfrwt>
<totfact> 0.36578431E+03</totfact>
</mgrwt>
</event>
<event>
 5    1  0.2968854E-003  0.1163394E+03  0.7818608E-02  0.1249261E+00
         11   -1    0    0    0    0  0.00000000000E+00  0.00000000000E+00  0.10001251898E+04  0.10001251898E+04  0.51100000000E-03 0. -1.
          2   -1    0    0  501    0 -0.00000000000E+00 -0.00000000000E+00 -0.26344796341E+02  0.26344796465E+02  0.25500000000E-02 0. -1.
         11    1    1    2    0    0 -0.55521704381E+02 -0.10350892008E+03  0.14844749408E+03  0.18929715976E+03  0.51100000000E-03 0. -1.
         22    1    1    2    0    0  0.24947087929E+02 -0.61983209731E+01  0.12198067717E+03  0.12465978494E+03  0.00000000000E+00 0.  1.
          2    1    1    2  501    0  0.30574616452E+02  0.10970724105E+03  0.70335222218E+03  0.71251304154E+03  0.25500000000E-02 0. -1.
<mgrwt>
<rscale>  0 0.11633943E+03</rscale>
<asrwt>0</asrwt>
<pdfrwt beam="1">  1       11 0.10000000E+01 0.25705571E+02</pdfrwt>
<pdfrwt beam="2">  1        2 0.40535529E-02 0.11633943E+03</pdfrwt>
<totfact> 0.23806976E+03</totfact>
</mgrwt>
</event>
<event>
 5    1  0.2968854E-003  0.4376548E+03  0.7818608E-02  0.1038374E+00
         11   -1    0    0    0    0  0.00000000000E+00  0.00000000000E+00  0.10004657582E+04  0.10004657582E+04  0.51100000000E-03 0.  1.
          2   -1    0    0  501    0 -0.00000000000E+00 -0.00000000000E+00 -0.11869603461E+04  0.11869603461E+04  0.25500000000E-02 0.  1.
         11    1    1    2    0    0  0.10604387687E+03 -0.28116712967E+03  0.59965907446E+03  0.67073934148E+03  0.51100000000E-03 0.  1.
         22    1    1    2    0    0 -0.41781169858E+02 -0.12984698004E+03  0.31300592901E+03  0.34143610819E+03  0.00000000000E+00 0.  1.
          2    1    1    2  501    0 -0.64262707009E+02  0.41101410970E+03 -0.10991595914E+04  0.11752506547E+04  0.25500000000E-02 0.  1.
<mgrwt>
<rscale>  0 0.41600756E+03</rscale>
<asrwt>0</asrwt>
<pdfrwt beam="1">  1       11 0.10000000E+01 0.43765481E+03</pdfrwt>
<pdfrwt beam="2">  1        2 0.18269433E+00 0.41600756E+03</pdfrwt>
<totfact> 0.24824511E+01</totfact>
</mgrwt>
</event>
<event>
 5    1  0.2968854E-003  0.8923454E+02  0.7818608E-02  0.1310895E+00
         11   -1    0    0    0    0  0.00000000000E+00  0.00000000000E+00  0.10002764520E+04  0.10002764520E+04  0.51100000000E-03 0.  1.
          2   -1    0    0  501    0 -0.00000000000E+00 -0.00000000000E+00 -0.10137823069E+02  0.10137823390E+02  0.25500000000E-02 0.  1.
         11    1    1    2    0    0  0.12500996520E+02 -0.60997714900E+02  0.16315741618E+03  0.17463487221E+03  0.51100000000E-03 0.  1.
         22    1    1    2    0    0  0.15795513595E+02 -0.21017573115E+02  0.91614851969E+02  0.95312736456E+02  0.00000000000E+00 0.  1.
          2    1    1    2  501    0 -0.28296510115E+02  0.82015288015E+02  0.73536636076E+03  0.74046666670E+03  0.25500000000E-02 0.  1.
<mgrwt>
<rscale>  0 0.86759437E+02</rscale>
<asrwt>0</asrwt>
<pdfrwt beam="1">  1       11 0.10000000E+01 0.89234538E+02</pdfrwt>
<pdfrwt beam="2">  1        2 0.15600962E-02 0.86759437E+02</pdfrwt>
<totfact> 0.82699806E+03</totfact>
</mgrwt>
</event>
<event>
 5    1  0.2968854E-003  0.1249140E+03  0.7818608E-02  0.1235204E+00
         11   -1    0    0    0    0  0.00000000000E+00  0.00000000000E+00  0.10001984463E+04  0.10001984463E+04  0.51100000000E-03 0.  1.
          2   -1    0    0  501    0 -0.00000000000E+00 -0.00000000000E+00 -0.35165839979E+02  0.35165840072E+02  0.25500000000E-02 0.  1.
         11    1    1    2    0    0 -0.77722441369E+02  0.92735395806E+02  0.11307089124E+03  0.16560693818E+03  0.51100000000E-03 0.  1.
         22    1    1    2    0    0 -0.22020780413E+02  0.14777967004E+02  0.90686245163E+02  0.94484380405E+02  0.00000000000E+00 0.  1.
          2    1    1    2  501    0  0.99743221782E+02 -0.10751336281E+03  0.76127546997E+03  0.77527296783E+03  0.25500000000E-02 0.  1.
<mgrwt>
<rscale>  0 0.12491399E+03</rscale>
<asrwt>0</asrwt>
<pdfrwt beam="1">  1       11 0.10000000E+01 0.26519862E+02</pdfrwt>
<pdfrwt beam="2">  1        2 0.54112027E-02 0.12491399E+03</pdfrwt>
<totfact> 0.16424421E+03</totfact>
</mgrwt>
</event>
<event>
 5    1  0.2968854E-003  0.2223064E+03  0.7818608E-02  0.1203047E+00
         11   -1    0    0    0    0  0.00000000000E+00  0.00000000000E+00  0.99973690898E+03  0.99973690898E+03  0.51100000000E-03 0.  1.
          2   -1    0    0  501    0 -0.00000000000E+00 -0.00000000000E+00 -0.39042650317E+03  0.39042650318E+03  0.25500000000E-02 0.  1.
         11    1    1    2    0    0  0.23193064082E+03 -0.14289334202E+03  0.58406658487E+03  0.64447195820E+03  0.51100000000E-03 0.  1.
         22    1    1    2    0    0 -0.87515441301E+02  0.17492078588E+03  0.34319304896E+03  0.39501607898E+03  0.00000000000E+00 0. -1.
          2    1    1    2  501    0 -0.14441519952E+03 -0.32027443858E+02 -0.31794922802E+03  0.35067537498E+03  0.25500000000E-02 0.  1.
<mgrwt>
<rscale>  0 0.14792399E+03</rscale>
<asrwt>0</asrwt>
<pdfrwt beam="1">  1       11 0.10000000E+01 0.22230644E+03</pdfrwt>
<pdfrwt beam="2">  1        2 0.60049811E-01 0.14792399E+03</pdfrwt>
<totfact> 0.10236160E+02</totfact>
</mgrwt>
</event>
<event>
 5    1  0.2968854E-003  0.3736692E+03  0.7818608E-02  0.1055741E+00
         11   -1    0    0    0    0  0.00000000000E+00  0.00000000000E+00  0.10001344942E+04  0.10001344942E+04  0.51100000000E-03 0. -1.
          2   -1    0    0  501    0 -0.00000000000E+00 -0.00000000000E+00 -0.18079974218E+03  0.18079974220E+03  0.25500000000E-02 0. -1.
         11    1    1    2    0    0  0.83182168932E+02  0.29767141109E+03  0.58206132666E+03  0.65903181274E+03  0.51100000000E-03 0. -1.
         22    1    1    2    0    0  0.44713287120E+02  0.46611997271E+02  0.12014410408E+03  0.13640587260E+03  0.00000000000E+00 0. -1.
          2    1    1    2  501    0 -0.12789545605E+03 -0.34428340836E+03  0.11712932124E+03  0.38549655102E+03  0.25500000000E-02 0. -1.
<mgrwt>
<rscale>  0 0.36727144E+03</rscale>
<asrwt>0</asrwt>
<pdfrwt beam="1">  1       11 0.10000000E+01 0.37366916E+03</pdfrwt>
<pdfrwt beam="2">  1        2 0.27819085E-01 0.36727144E+03</pdfrwt>
<totfact> 0.23714915E+02</totfact>
</mgrwt>
</event>
<event>
 5    1  0.2968854E-003  0.1488947E+03  0.7818608E-02  0.1209110E+00
         11   -1    0    0    0    0  0.00000000000E+00  0.00000000000E+00  0.10002121144E+04  0.10002121144E+04  0.51100000000E-03 0. -1.
          2   -1    0    0  501    0 -0.00000000000E+00 -0.00000000000E+00 -0.30563444531E+02  0.30563444638E+02  0.25500000000E-02 0. -1.
         11    1    1    2    0    0 -0.10088350019E+03  0.77336433167E+02  0.67036856975E+03  0.68231402141E+03  0.51100000000E-03 0. -1.
         22    1    1    2    0    0 -0.26779392886E+01  0.21538049583E+02  0.10442454376E+03  0.10665619662E+03  0.00000000000E+00 0.  1.
          2    1    1    2  501    0  0.10356143947E+03 -0.98874482750E+02  0.19485555633E+03  0.24180534098E+03  0.25500000000E-02 0. -1.
<mgrwt>
<rscale>  0 0.14318217E+03</rscale>
<asrwt>0</asrwt>
<pdfrwt beam="1">  1       11 0.10000000E+01 0.14889472E+03</pdfrwt>
<pdfrwt beam="2">  1        2 0.47030656E-02 0.14318217E+03</pdfrwt>
<totfact> 0.19942917E+03</totfact>
</mgrwt>
</event>
<event>
 5    1  0.2968854E-003  0.7760201E+02  0.7818608E-02  0.1350030E+00
         11   -1    0    0    0    0  0.00000000000E+00  0.00000000000E+00  0.99995469273E+03  0.99995469273E+03  0.51100000000E-03 0. -1.
          2   -1    0    0  501    0 -0.00000000000E+00 -0.00000000000E+00 -0.91118222630E+01  0.91118226198E+01  0.25500000000E-02 0. -1.
         11    1    1    2    0    0  0.40036774958E+02  0.32664761533E+02  0.10959668160E+03  0.12116667287E+03  0.51100000000E-03 0. -1.
         22    1    1    2    0    0  0.23830526647E+02  0.27853910948E+01  0.85336258414E+02  0.88644962654E+02  0.00000000000E+00 0.  1.
          2    1    1    2  501    0 -0.63867301604E+02 -0.35450152627E+02  0.79590993045E+03  0.79925487983E+03  0.25500000000E-02 0. -1.
<mgrwt>
<rscale>  0 0.73046188E+02</rscale>
<asrwt>0</asrwt>
<pdfrwt beam="1">  1       11 0.10000000E+01 0.77602006E+02</pdfrwt>
<pdfrwt beam="2">  1        2 0.14017553E-02 0.73046188E+02</pdfrwt>
<totfact> 0.93210020E+03</totfact>
</mgrwt>
</event>
<event>
 5    1  0.2968854E-003  0.1157235E+03  0.7818608E-02  0.1250323E+00
         11   -1    0    0    0    0  0.00000000000E+00  0.00000000000E+00  0.10002117513E+04  0.10002117513E+04  0.51100000000E-03 0. -1.
          2   -1    0    0  501    0 -0.00000000000E+00 -0.00000000000E+00 -0.17691707760E+02  0.17691707943E+02  0.25500000000E-02 0. -1.
         11    1    1    2    0    0 -0.10116508107E+03  0.48221638209E+02  0.28117968241E+03  0.30269078912E+03  0.51100000000E-03 0. -1.
         22    1    1    2    0    0 -0.49788204184E+01  0.15421700399E+02  0.94697116802E+02  0.96073729118E+02  0.00000000000E+00 0. -1.
          2    1    1    2  501    0  0.10614390149E+03 -0.63643338608E+02  0.60664324437E+03  0.61913894105E+03  0.25500000000E-02 0. -1.
<mgrwt>
<rscale>  0 0.11572350E+03</rscale>
<asrwt>0</asrwt>
<pdfrwt beam="1">  1       11 0.10000000E+01 0.16205477E+02</pdfrwt>
<pdfrwt beam="2">  1        2 0.27223775E-02 0.11572350E+03</pdfrwt>
<totfact> 0.40419801E+03</totfact>
</mgrwt>
</event>
<event>
 5    1  0.2968854E-003  0.1326219E+03  0.7818608E-02  0.1231115E+00
         11   -1    0    0    0    0  0.00000000000E+00  0.00000000000E+00  0.10003107802E+04  0.10003107802E+04  0.51100000000E-03 0. -1.
         -2   -1    0    0    0  501 -0.00000000000E+00 -0.00000000000E+00 -0.60239241191E+02  0.60239241245E+02  0.25500000000E-02 0. -1.
         11    1    1    2    0    0  0.11261305088E+03  0.68426772444E+02  0.52456617980E+03  0.54086375309E+03  0.51100000000E-03 0. -1.
         22    1    1    2    0    0 -0.74459414487E+02  0.97524297334E+02  0.89447103252E+02  0.15184194828E+03  0.00000000000E+00 0. -1.
         -2    1    1    2    0  501 -0.38153636393E+02 -0.16595106978E+03  0.32605825595E+03  0.36784432008E+03  0.25500000000E-02 0. -1.
<mgrwt>
<rscale>  0 0.12756433E+03</rscale>
<asrwt>0</asrwt>
<pdfrwt beam="1">  1       11 0.10000000E+01 0.13262192E+03</pdfrwt>
<pdfrwt beam="2">  1       -2 0.92704555E-02 0.12756433E+03</pdfrwt>
<totfact> 0.57246520E+02</totfact>
</mgrwt>
</event>
<event>
 5    1  0.2968854E-003  0.4166286E+03  0.7818608E-02  0.1039325E+00
         11   -1    0    0    0    0  0.00000000000E+00  0.00000000000E+00  0.10008706918E+04  0.10008706918E+04  0.51100000000E-03 0. -1.
          2   -1    0    0  501    0 -0.00000000000E+00 -0.00000000000E+00 -0.20296844739E+04  0.20296844739E+04  0.25500000000E-02 0. -1.
         11    1    1    2    0    0 -0.30399449077E+03 -0.21195607007E+03  0.79704177306E+03  0.87898442197E+03  0.51100000000E-03 0. -1.
         22    1    1    2    0    0 -0.29494565571E+02 -0.31892741606E+02  0.13802857389E+03  0.14470301854E+03  0.00000000000E+00 0.  1.
          2    1    1    2  501    0  0.33348905634E+03  0.24384881168E+03 -0.19638841291E+04  0.20068677251E+04  0.25500000000E-02 0. -1.
<mgrwt>
<rscale>  0 0.41313096E+03</rscale>
<asrwt>0</asrwt>
<pdfrwt beam="1">  1       11 0.10000000E+01 0.41662864E+03</pdfrwt>
<pdfrwt beam="2">  1        2 0.31253102E+00 0.41313096E+03</pdfrwt>
<totfact> 0.86050206E+00</totfact>
</mgrwt>
</event>
<event>
 5    1  0.2968854E-003  0.5698218E+02  0.7818608E-02  0.1421569E+00
         11   -1    0    0    0    0  0.00000000000E+00  0.00000000000E+00  0.10002380453E+04  0.10002380453E+04  0.51100000000E-03 0. -1.
          2   -1    0    0  501    0 -0.00000000000E+00 -0.00000000000E+00 -0.50919296927E+01  0.50919303312E+01  0.25500000000E-02 0. -1.
         11    1    1    2    0    0 -0.20119590526E+02 -0.24427560062E+02  0.81628343938E+02  0.87548216132E+02  0.51100000000E-03 0. -1.
         22    1    1    2    0    0 -0.15240975856E+02 -0.17293568081E+02  0.10918182057E+03  0.11158864093E+03  0.00000000000E+00 0. -1.
          2    1    1    2  501    0  0.35360566383E+02  0.41721128143E+02  0.80433595107E+03  0.80619311854E+03  0.25500000000E-02 0. -1.
<mgrwt>
<rscale>  0 0.54690239E+02</rscale>
<asrwt>0</asrwt>
<pdfrwt beam="1">  1       11 0.10000000E+01 0.56982181E+02</pdfrwt>
<pdfrwt beam="2">  1        2 0.78356030E-03 0.54690239E+02</pdfrwt>
<totfact> 0.19475630E+04</totfact>
</mgrwt>
</event>
<event>
 5    1  0.2968854E-003  0.1282076E+03  0.7818608E-02  0.1230140E+00
         11   -1    0    0    0    0  0.00000000000E+00  0.00000000000E+00  0.10003105279E+04  0.10003105279E+04  0.51100000000E-03 0.  1.
          2   -1    0    0  501    0 -0.00000000000E+00 -0.00000000000E+00 -0.46079058239E+02  0.46079058309E+02  0.25500000000E-02 0.  1.
         11    1    1    2    0    0  0.96319477563E+02  0.62513501781E+02  0.15996524427E+03  0.19691180523E+03  0.51100000000E-03 0.  1.
         22    1    1    2    0    0  0.67890419818E+02 -0.63461795639E+02  0.53191138830E+03  0.53996873392E+03  0.00000000000E+00 0.  1.
          2    1    1    2  501    0 -0.16420989738E+03  0.94829385741E+00  0.26235483706E+03  0.30950904703E+03  0.25500000000E-02 0.  1.
<mgrwt>
<rscale>  0 0.12820762E+03</rscale>
<asrwt>0</asrwt>
<pdfrwt beam="1">  1       11 0.10000000E+01 0.92932818E+02</pdfrwt>
<pdfrwt beam="2">  1        2 0.70912870E-02 0.12820762E+03</pdfrwt>
<totfact> 0.11637760E+03</totfact>
</mgrwt>
</event>
<event>
 5    1  0.2968854E-003  0.2796981E+02  0.7818608E-02  0.1649406E+00
         11   -1    0    0    0    0  0.00000000000E+00  0.00000000000E+00  0.10001761923E+04  0.10001761923E+04  0.51100000000E-03 0. -1.
          2   -1    0    0  501    0 -0.00000000000E+00 -0.00000000000E+00 -0.20111234041E+01  0.20111250207E+01  0.25500000000E-02 0. -1.
         11    1    1    2    0    0 -0.14510887049E+02  0.57165675353E+01  0.50282801882E+02  0.52646036438E+02  0.51100000000E-03 0. -1.
         22    1    1    2    0    0 -0.54687051024E+01  0.10648870602E+02  0.55094739238E+02  0.56380275560E+02  0.00000000000E+00 0. -1.
          2    1    1    2  501    0  0.19979592152E+02 -0.16365438137E+02  0.89278752776E+03  0.89316100530E+03  0.25500000000E-02 0. -1.
<mgrwt>
<rscale>  0 0.25826569E+02</rscale>
<asrwt>0</asrwt>
<pdfrwt beam="1">  1       11 0.10000000E+01 0.27969815E+02</pdfrwt>
<pdfrwt beam="2">  1        2 0.30945823E-03 0.25826569E+02</pdfrwt>
<totfact> 0.56624659E+04</totfact>
</mgrwt>
</event>
<event>
 5    1  0.2968854E-003  0.1209757E+03  0.7818608E-02  0.1539479E+00
         11   -1    0    0    0    0  0.00000000000E+00  0.00000000000E+00  0.10001908040E+04  0.10001908040E+04  0.51100000000E-03 0. -1.
          2   -1    0    0  501    0 -0.00000000000E+00 -0.00000000000E+00 -0.39586794515E+03  0.39586794516E+03  0.25500000000E-02 0. -1.
         11    1    1    2    0    0  0.38759109312E+02 -0.88771732142E+02  0.19678860227E+03  0.21933636946E+03  0.51100000000E-03 0. -1.
         22    1    1    2    0    0 -0.53347923261E+02  0.12173664653E+03  0.78568967806E+03  0.79685261011E+03  0.00000000000E+00 0. -1.
          2    1    1    2  501    0  0.14588813949E+02 -0.32964914383E+02 -0.37815542147E+03  0.37986976961E+03  0.25500000000E-02 0. -1.
<mgrwt>
<rscale>  0 0.36048843E+02</rscale>
<asrwt>0</asrwt>
<pdfrwt beam="1">  1       11 0.10000000E+01 0.12097570E+03</pdfrwt>
<pdfrwt beam="2">  1        2 0.60914380E-01 0.36048843E+02</pdfrwt>
<totfact> 0.10116920E+02</totfact>
</mgrwt>
</event>
<event>
 5    1  0.2968854E-003  0.1300913E+04  0.7818608E-02  0.9034618E-01
         11   -1    0    0    0    0  0.00000000000E+00  0.00000000000E+00  0.10008836020E+04  0.10008836020E+04  0.51100000000E-03 0. -1.
          2   -1    0    0  501    0 -0.00000000000E+00 -0.00000000000E+00 -0.19396776506E+04  0.19396776506E+04  0.25500000000E-02 0. -1.
         11    1    1    2    0    0  0.42819675860E+03  0.11988078580E+04  0.71433677639E+02  0.12749884371E+04  0.51100000000E-03 0. -1.
         22    1    1    2    0    0 -0.96457403210E+01  0.25258150624E+02 -0.55117981513E+01  0.27593375983E+02  0.00000000000E+00 0.  1.
          2    1    1    2  501    0 -0.41855101828E+03 -0.12240660086E+04 -0.10047159281E+04  0.16379794396E+04  0.25500000000E-02 0. -1.
<mgrwt>
<rscale>  0 0.12936470E+04</rscale>
<asrwt>0</asrwt>
<pdfrwt beam="1">  1       11 0.10000000E+01 0.13009126E+04</pdfrwt>
<pdfrwt beam="2">  1        2 0.29867562E+00 0.12936470E+04</pdfrwt>
<totfact> 0.87013941E+00</totfact>
</mgrwt>
</event>
<event>
 5    1  0.2968854E-003  0.1424386E+03  0.7818608E-02  0.1309499E+00
         11   -1    0    0    0    0  0.00000000000E+00  0.00000000000E+00  0.10003445500E+04  0.10003445500E+04  0.51100000000E-03 0.  1.
          2   -1    0    0  501    0 -0.00000000000E+00 -0.00000000000E+00 -0.33916146996E+03  0.33916146997E+03  0.25500000000E-02 0.  1.
         11    1    1    2    0    0  0.10668851216E+03  0.10616918124E+03  0.17297577218E+03  0.22929228385E+03  0.51100000000E-03 0.  1.
         22    1    1    2    0    0 -0.27500621573E+02 -0.14294403883E+03  0.78626762398E+03  0.79962870068E+03  0.00000000000E+00 0.  1.
          2    1    1    2  501    0 -0.79187890588E+02  0.36774857596E+02 -0.29806031613E+03  0.31058503542E+03  0.25500000000E-02 0.  1.
<mgrwt>
<rscale>  0 0.87310436E+02</rscale>
<asrwt>0</asrwt>
<pdfrwt beam="1">  1       11 0.10000000E+01 0.14243856E+03</pdfrwt>
<pdfrwt beam="2">  1        2 0.52196664E-01 0.87310436E+02</pdfrwt>
<totfact> 0.11880103E+02</totfact>
</mgrwt>
</event>
<event>
 5    1  0.2968854E-003  0.5241234E+02  0.7818608E-02  0.1564967E+00
         11   -1    0    0    0    0  0.00000000000E+00  0.00000000000E+00  0.10001331992E+04  0.10001331992E+04  0.51100000000E-03 0. -1.
          2   -1    0    0  501    0 -0.00000000000E+00 -0.00000000000E+00 -0.70372311865E+01  0.70372316485E+01  0.25500000000E-02 0. -1.
         11    1    1    2    0    0  0.48775513459E+02 -0.35802260954E+02  0.20829999795E+03  0.21690952434E+03  0.51100000000E-03 0. -1.
         22    1    1    2    0    0 -0.19980121558E+02 -0.66568151590E+01  0.58855436399E+02  0.62509845938E+02  0.00000000000E+00 0. -1.
          2    1    1    2  501    0 -0.28795391901E+02  0.42459076113E+02  0.72594053366E+03  0.72775106056E+03  0.25500000000E-02 0. -1.
<mgrwt>
<rscale>  0 0.33223441E+02</rscale>
<asrwt>0</asrwt>
<pdfrwt beam="1">  1       11 0.10000000E+01 0.52412344E+02</pdfrwt>
<pdfrwt beam="2">  1        2 0.10827952E-02 0.33223441E+02</pdfrwt>
<totfact> 0.11468648E+04</totfact>
</mgrwt>
</event>
<event>
 5    1  0.2968854E-003  0.9237326E+02  0.7818608E-02  0.1586030E+00
         11   -1    0    0    0    0  0.00000000000E+00  0.00000000000E+00  0.10001740144E+04  0.10001740144E+04  0.51100000000E-03 0. -1.
         -2   -1    0    0    0  501 -0.00000000000E+00 -0.00000000000E+00 -0.27593306147E+02  0.27593306264E+02  0.25500000000E-02 0. -1.
         11    1    1    2    0    0  0.32343970396E+01  0.88457812954E+02  0.52731221791E+03  0.53469002343E+03  0.51100000000E-03 0. -1.
         22    1    1    2    0    0 -0.33643820718E+02 -0.95069467571E+02  0.45038695443E+03  0.46153929308E+03  0.00000000000E+00 0. -1.
         -2    1    1    2    0  501  0.30409423678E+02  0.66116546174E+01 -0.51184640832E+01  0.31538004158E+02  0.25500000000E-02 0. -1.
<mgrwt>
<rscale>  0 0.31119882E+02</rscale>
<asrwt>0</asrwt>
<pdfrwt beam="1">  1       11 0.10000000E+01 0.92373256E+02</pdfrwt>
<pdfrwt beam="2">  1       -2 0.42458626E-02 0.31119882E+02</pdfrwt>
<totfact> 0.15939177E+03</totfact>
</mgrwt>
</event>
<event>
 5    1  0.2968854E-003  0.9114441E+02  0.7818608E-02  0.1440125E+00
         11   -1    0    0    0    0  0.00000000000E+00  0.00000000000E+00  0.10001336323E+04  0.10001336323E+04  0.51100000000E-03 0.  1.
          2   -1    0    0  501    0 -0.00000000000E+00 -0.00000000000E+00 -0.17143896738E+02  0.17143896928E+02  0.25500000000E-02 0.  1.
         11    1    1    2    0    0  0.82371883255E+02 -0.75674476973E+02  0.27855003211E+03  0.30016974198E+03  0.51100000000E-03 0.  1.
         22    1    1    2    0    0 -0.26552119377E+02  0.10396906651E+02  0.54419695517E+02  0.61437887101E+02  0.00000000000E+00 0.  1.
          2    1    1    2  501    0 -0.55819763878E+02  0.65277570322E+02  0.65002000795E+03  0.65566990016E+03  0.25500000000E-02 0.  1.
<mgrwt>
<rscale>  0 0.50980294E+02</rscale>
<asrwt>0</asrwt>
<pdfrwt beam="1">  1       11 0.10000000E+01 0.91144411E+02</pdfrwt>
<pdfrwt beam="2">  1        2 0.26378750E-02 0.50980294E+02</pdfrwt>
<totfact> 0.38123839E+03</totfact>
</mgrwt>
</event>
<event>
 5    1  0.2968854E-003  0.2086416E+03  0.7818608E-02  0.1148516E+00
         11   -1    0    0    0    0  0.00000000000E+00  0.00000000000E+00  0.10001109703E+04  0.10001109703E+04  0.51100000000E-03 0. -1.
          2   -1    0    0  501    0 -0.00000000000E+00 -0.00000000000E+00 -0.66543699592E+02  0.66543699641E+02  0.25500000000E-02 0.  1.
         11    1    1    2    0    0 -0.17205024618E+03 -0.68640088137E+01  0.73784382865E+03  0.75766873850E+03  0.51100000000E-03 0. -1.
         22    1    1    2    0    0 -0.29076217582E+02 -0.46644310858E+01  0.57707629292E+02  0.64786988081E+02  0.00000000000E+00 0.  1.
          2    1    1    2  501    0  0.20112646376E+03  0.11528439899E+02  0.13801581275E+03  0.24419894334E+03  0.25500000000E-02 0.  1.
<mgrwt>
<rscale>  0 0.20145659E+03</rscale>
<asrwt>0</asrwt>
<pdfrwt beam="1">  1       11 0.10000000E+01 0.20864156E+03</pdfrwt>
<pdfrwt beam="2">  1        2 0.10238628E-01 0.20145659E+03</pdfrwt>
<totfact> 0.75462187E+02</totfact>
</mgrwt>
</event>
<event>
 5    1  0.2968854E-003  0.1600608E+03  0.7818608E-02  0.1197260E+00
         11   -1    0    0    0    0  0.00000000000E+00  0.00000000000E+00  0.10002454053E+04  0.10002454053E+04  0.51100000000E-03 0.  1.
         -2   -1    0    0    0  501 -0.00000000000E+00 -0.00000000000E+00 -0.50626918152E+02  0.50626918217E+02  0.25500000000E-02 0. -1.
         11    1    1    2    0    0 -0.82069085697E+02  0.10176257818E+03  0.70944629201E+03  0.72139101629E+03  0.51100000000E-03 0.  1.
         22    1    1    2    0    0 -0.29143467005E+02  0.27953335381E+01  0.14864046127E+03  0.15149634413E+03  0.00000000000E+00 0.  1.
         -2    1    1    2    0  501  0.11121255270E+03 -0.10455791171E+03  0.91531733901E+02  0.17798496312E+03  0.25500000000E-02 0. -1.
<mgrwt>
<rscale>  0 0.15264530E+03</rscale>
<asrwt>0</asrwt>
<pdfrwt beam="1">  1       11 0.10000000E+01 0.16006083E+03</pdfrwt>
<pdfrwt beam="2">  1       -2 0.77906678E-02 0.15264530E+03</pdfrwt>
<totfact> 0.75886570E+02</totfact>
</mgrwt>
</event>
<event>
 5    1  0.2968854E-003  0.1009912E+03  0.7818608E-02  0.1668762E+00
         11   -1    0    0    0    0  0.00000000000E+00  0.00000000000E+00  0.10000936453E+04  0.10000936453E+04  0.51100000000E-03 0.  1.
          2   -1    0    0  501    0 -0.00000000000E+00 -0.00000000000E+00 -0.18365946744E+03  0.18365946746E+03  0.25500000000E-02 0.  1.
         11    1    1    2    0    0  0.32028289746E+02  0.93396443123E+02  0.52681506268E+03  0.53598770247E+03  0.51100000000E-03 0.  1.
         22    1    1    2    0    0 -0.56145366748E+02 -0.89266857461E+02  0.46188493455E+03  0.47377058458E+03  0.00000000000E+00 0.  1.
          2    1    1    2  501    0  0.24117077002E+02 -0.41295856617E+01 -0.17226581932E+03  0.17399482577E+03  0.25500000000E-02 0.  1.
<mgrwt>
<rscale>  0 0.24468079E+02</rscale>
<asrwt>0</asrwt>
<pdfrwt beam="1">  1       11 0.10000000E+01 0.10099120E+03</pdfrwt>
<pdfrwt beam="2">  1        2 0.28257948E-01 0.24468079E+02</pdfrwt>
<totfact> 0.21724017E+02</totfact>
</mgrwt>
</event>
<event>
 5    1  0.2968854E-003  0.1212750E+03  0.7818608E-02  0.1253392E+00
         11   -1    0    0    0    0  0.00000000000E+00  0.00000000000E+00  0.99998256600E+03  0.99998256600E+03  0.51100000000E-03 0. -1.
          2   -1    0    0  501    0 -0.00000000000E+00 -0.00000000000E+00 -0.18854312935E+02  0.18854313107E+02  0.25500000000E-02 0. -1.
         11    1    1    2    0    0  0.37972552489E+02  0.14186337039E+02  0.53163576592E+02  0.66854564372E+02  0.51100000000E-03 0. -1.
         22    1    1    2    0    0  0.75982750934E+02 -0.12425406294E+02  0.18583796059E+03  0.20115545421E+03  0.00000000000E+00 0.  1.
          2    1    1    2  501    0 -0.11395530342E+03 -0.17609307452E+01  0.74212671588E+03  0.75082686052E+03  0.25500000000E-02 0. -1.
<mgrwt>
<rscale>  0 0.11396891E+03</rscale>
<asrwt>0</asrwt>
<pdfrwt beam="1">  1       11 0.10000000E+01 0.12127504E+03</pdfrwt>
<pdfrwt beam="2">  1        2 0.29006129E-02 0.11396891E+03</pdfrwt>
<totfact> 0.37062825E+03</totfact>
</mgrwt>
</event>
<event>
 5    1  0.2968854E-003  0.2301737E+03  0.7818608E-02  0.1129726E+00
         11   -1    0    0    0    0  0.00000000000E+00  0.00000000000E+00  0.99982090654E+03  0.99982090654E+03  0.51100000000E-03 0.  1.
          2   -1    0    0  501    0 -0.00000000000E+00 -0.00000000000E+00 -0.52284212514E+02  0.52284212577E+02  0.25500000000E-02 0.  1.
         11    1    1    2    0    0  0.12497655384E+03  0.17613340981E+03  0.48077947846E+03  0.52705884299E+03  0.51100000000E-03 0.  1.
         22    1    1    2    0    0  0.13761389691E+02  0.18501110902E+01  0.39232135685E+02  0.41616814242E+02  0.00000000000E+00 0. -1.
          2    1    1    2  501    0 -0.13873794353E+03 -0.17798352090E+03  0.42752507988E+03  0.48342946189E+03  0.25500000000E-02 0.  1.
<mgrwt>
<rscale>  0 0.22566867E+03</rscale>
<asrwt>0</asrwt>
<pdfrwt beam="1">  1       11 0.10000000E+01 0.23017368E+03</pdfrwt>
<pdfrwt beam="2">  1        2 0.80422842E-02 0.22566867E+03</pdfrwt>
<totfact> 0.10279258E+03</totfact>
</mgrwt>
</event>
<event>
 5    1  0.3214956E-003  0.3463958E+03  0.7818608E-02  0.1066342E+00
         11   -1    0    0    0    0  0.00000000000E+00  0.00000000000E+00  0.10000590923E+04  0.10000590923E+04  0.51100000000E-03 0. -1.
          2   -1    0    0  501    0 -0.00000000000E+00 -0.00000000000E+00 -0.67182332298E+03  0.67182332298E+03  0.25500000000E-02 0. -1.
         11    1    1    2    0    0 -0.15307097152E+03 -0.28129654511E+03  0.81119752434E+03  0.87212378256E+03  0.51100000000E-03 0. -1.
         22    1    1    2    0    0 -0.96498401073E+01 -0.18453306486E+02  0.11202672505E+03  0.11394573735E+03  0.00000000000E+00 0.  1.
          2    1    1    2  501    0  0.16272081163E+03  0.29974985160E+03 -0.59498848006E+03  0.68581289538E+03  0.25500000000E-02 0. -1.
<mgrwt>
<rscale>  0 0.34106896E+03</rscale>
<asrwt>0</asrwt>
<pdfrwt beam="1">  1       11 0.10000000E+01 0.34639585E+03</pdfrwt>
<pdfrwt beam="2">  1        2 0.10336354E+00 0.34106896E+03</pdfrwt>
<totfact> 0.54673320E+01</totfact>
</mgrwt>
</event>
<event>
 5    1  0.2968854E-003  0.1085753E+03  0.7818608E-02  0.1276440E+00
         11   -1    0    0    0    0  0.00000000000E+00  0.00000000000E+00  0.10003519585E+04  0.10003519585E+04  0.51100000000E-03 0. -1.
          2   -1    0    0  501    0 -0.00000000000E+00 -0.00000000000E+00 -0.13762770567E+02  0.13762770803E+02  0.25500000000E-02 0. -1.
         11    1    1    2    0    0  0.58764215507E+01 -0.44306159348E+02  0.78441478679E+02  0.90280859898E+02  0.51100000000E-03 0. -1.
         22    1    1    2    0    0  0.28369624020E+02 -0.51620427440E+02  0.20317637050E+03  0.21154229276E+03  0.00000000000E+00 0.  1.
          2    1    1    2  501    0 -0.34246045571E+02  0.95926586787E+02  0.70497133873E+03  0.71229157663E+03  0.25500000000E-02 0. -1.
<mgrwt>
<rscale>  0 0.10185628E+03</rscale>
<asrwt>0</asrwt>
<pdfrwt beam="1">  1       11 0.10000000E+01 0.10857533E+03</pdfrwt>
<pdfrwt beam="2">  1        2 0.21180945E-02 0.10185628E+03</pdfrwt>
<totfact> 0.55845697E+03</totfact>
</mgrwt>
</event>
<event>
 5    1  0.2968854E-003  0.1402866E+03  0.7818608E-02  0.1212944E+00
         11   -1    0    0    0    0  0.00000000000E+00  0.00000000000E+00  0.10004225079E+04  0.10004225079E+04  0.51100000000E-03 0.  1.
          2   -1    0    0  501    0 -0.00000000000E+00 -0.00000000000E+00 -0.36678557390E+03  0.36678557391E+03  0.25500000000E-02 0.  1.
         11    1    1    2    0    0 -0.14254293968E+03 -0.21908971452E+02  0.65952898109E+03  0.67511256067E+03  0.51100000000E-03 0.  1.
         22    1    1    2    0    0  0.91739452279E+02 -0.10885548515E+03  0.30286759549E+03  0.33465567999E+03  0.00000000000E+00 0.  1.
          2    1    1    2  501    0  0.50803487405E+02  0.13076445660E+03 -0.32875964258E+03  0.35743984114E+03  0.25500000000E-02 0.  1.
<mgrwt>
<rscale>  0 0.14028663E+03</rscale>
<asrwt>0</asrwt>
<pdfrwt beam="1">  1       11 0.10000000E+01 0.12758860E+03</pdfrwt>
<pdfrwt beam="2">  1        2 0.56452390E-01 0.14028663E+03</pdfrwt>
<totfact> 0.10936149E+02</totfact>
</mgrwt>
</event>
<event>
 5    1  0.2968854E-003  0.3232540E+02  0.7818608E-02  0.1722235E+00
         11   -1    0    0    0    0  0.00000000000E+00  0.00000000000E+00  0.10003655542E+04  0.10003655542E+04  0.51100000000E-03 0.  1.
          2   -1    0    0  501    0 -0.00000000000E+00 -0.00000000000E+00 -0.46199693052E+01  0.46199700090E+01  0.25500000000E-02 0.  1.
         11    1    1    2    0    0 -0.10179537248E+02 -0.16711360779E+02  0.22272044690E+02  0.29646863790E+02  0.51100000000E-03 0.  1.
         22    1    1    2    0    0 -0.88615657781E+01 -0.10735320755E+02  0.77342199003E+02  0.78584923531E+02  0.00000000000E+00 0.  1.
          2    1    1    2  501    0  0.19041103026E+02  0.27446681534E+02  0.89613134118E+03  0.89675373687E+03  0.25500000000E-02 0.  1.
<mgrwt>
<rscale>  0 0.21212702E+02</rscale>
<asrwt>0</asrwt>
<pdfrwt beam="1">  1       11 0.10000000E+01 0.32325403E+02</pdfrwt>
<pdfrwt beam="2">  1        2 0.71102437E-03 0.21212702E+02</pdfrwt>
<totfact> 0.18015576E+04</totfact>
</mgrwt>
</event>
<event>
 5    1  0.2968854E-003  0.2714868E+03  0.7818608E-02  0.1102841E+00
         11   -1    0    0    0    0  0.00000000000E+00  0.00000000000E+00  0.99997684055E+03  0.99997684055E+03  0.51100000000E-03 0.  1.
          2   -1    0    0  501    0 -0.00000000000E+00 -0.00000000000E+00 -0.13006129645E+03  0.13006129648E+03  0.25500000000E-02 0.  1.
         11    1    1    2    0    0  0.50018034461E+02 -0.42941681096E+02  0.14753453631E+03  0.16159279424E+03  0.51100000000E-03 0.  1.
         22    1    1    2    0    0  0.17629069081E+03 -0.99282048163E+02  0.66495912906E+03  0.69505825373E+03  0.00000000000E+00 0.  1.
          2    1    1    2  501    0 -0.22630872528E+03  0.14222372926E+03  0.57421878728E+02  0.27338708906E+03  0.25500000000E-02 0.  1.
<mgrwt>
<rscale>  0 0.26728866E+03</rscale>
<asrwt>0</asrwt>
<pdfrwt beam="1">  1       11 0.10000000E+01 0.27148676E+03</pdfrwt>
<pdfrwt beam="2">  1        2 0.20008966E-01 0.26728866E+03</pdfrwt>
<totfact> 0.34257405E+02</totfact>
</mgrwt>
</event>
<event>
 5    1  0.2968854E-003  0.1378932E+03  0.7818608E-02  0.1221970E+00
         11   -1    0    0    0    0  0.00000000000E+00  0.00000000000E+00  0.10002958960E+04  0.10002958960E+04  0.51100000000E-03 0. -1.
          2   -1    0    0  501    0 -0.00000000000E+00 -0.00000000000E+00 -0.18444914700E+02  0.18444914876E+02  0.25500000000E-02 0. -1.
         11    1    1    2    0    0 -0.52462269186E+01 -0.20550009563E+02  0.59100535285E+02  0.62790915435E+02  0.51100000000E-03 0. -1.
         22    1    1    2    0    0 -0.88137743562E+02 -0.75227251289E+02  0.44175473428E+03  0.45669973334E+03  0.00000000000E+00 0. -1.
          2    1    1    2  501    0  0.93383970480E+02  0.95777260853E+02  0.48099571170E+03  0.49925016206E+03  0.25500000000E-02 0. -1.
<mgrwt>
<rscale>  0 0.13376789E+03</rscale>
<asrwt>0</asrwt>
<pdfrwt beam="1">  1       11 0.10000000E+01 0.13789319E+03</pdfrwt>
<pdfrwt beam="2">  1        2 0.28385188E-02 0.13376789E+03</pdfrwt>
<totfact> 0.38809895E+03</totfact>
</mgrwt>
</event>
<event>
 5    1  0.2968854E-003  0.6461101E+03  0.7818608E-02  0.1156392E+00
         11   -1    0    0    0    0  0.00000000000E+00  0.00000000000E+00  0.10000229323E+04  0.10000229323E+04  0.51100000000E-03 0.  1.
          2   -1    0    0  501    0 -0.00000000000E+00 -0.00000000000E+00 -0.52919501474E+03  0.52919501475E+03  0.25500000000E-02 0.  1.
         11    1    1    2    0    0 -0.58137732784E+03  0.21926532414E+03 -0.28959931522E+01  0.62135759951E+03  0.51100000000E-03 0.  1.
         22    1    1    2    0    0 -0.18608774917E+02  0.54131824012E+02 -0.41821878723E+02  0.70891539796E+02  0.00000000000E+00 0.  1.
          2    1    1    2  501    0  0.59998610275E+03 -0.27339714816E+03  0.51554578941E+03  0.83696880772E+03  0.25500000000E-02 0.  1.
<mgrwt>
<rscale>  0 0.19231230E+03</rscale>
<asrwt>0</asrwt>
<pdfrwt beam="1">  1       11 0.10000000E+01 0.64611011E+03</pdfrwt>
<pdfrwt beam="2">  1        2 0.81416482E-01 0.19231230E+03</pdfrwt>
<totfact> 0.73163954E+01</totfact>
</mgrwt>
</event>
<event>
 5    1  0.2968854E-003  0.2457483E+03  0.7818608E-02  0.1118073E+00
         11   -1    0    0    0    0  0.00000000000E+00  0.00000000000E+00  0.10002364960E+04  0.10002364960E+04  0.51100000000E-03 0.  1.
          2   -1    0    0  501    0 -0.00000000000E+00 -0.00000000000E+00 -0.13932400518E+03  0.13932400520E+03  0.25500000000E-02 0.  1.
         11    1    1    2    0    0  0.21287626725E+03  0.73598183240E+01  0.78637148318E+03  0.81470889381E+03  0.51100000000E-03 0.  1.
         22    1    1    2    0    0  0.29094624350E+02  0.10102909574E+02  0.76260897479E+02  0.82245306445E+02  0.00000000000E+00 0. -1.
          2    1    1    2  501    0 -0.24197089160E+03 -0.17462727898E+02 -0.17198898076E+01  0.24260630098E+03  0.25500000000E-02 0.  1.
<mgrwt>
<rscale>  0 0.24260020E+03</rscale>
<asrwt>0</asrwt>
<pdfrwt beam="1">  1       11 0.10000000E+01 0.24574827E+03</pdfrwt>
<pdfrwt beam="2">  1        2 0.21439531E-01 0.24260020E+03</pdfrwt>
<totfact> 0.31572639E+02</totfact>
</mgrwt>
</event>
<event>
 5    1  0.2968854E-003  0.5844144E+02  0.7818608E-02  0.1605704E+00
         11   -1    0    0    0    0  0.00000000000E+00  0.00000000000E+00  0.10001658893E+04  0.10001658893E+04  0.51100000000E-03 0. -1.
          2   -1    0    0  501    0 -0.00000000000E+00 -0.00000000000E+00 -0.81243222240E+01  0.81243226242E+01  0.25500000000E-02 0. -1.
         11    1    1    2    0    0 -0.14781009377E+00  0.70229496207E+02  0.26698912009E+03  0.27607135714E+03  0.51100000000E-03 0. -1.
         22    1    1    2    0    0  0.14714870673E+01 -0.14638236274E+02  0.19244658462E+02  0.24223957453E+02  0.00000000000E+00 0.  1.
          2    1    1    2  501    0 -0.13236769735E+01 -0.55591259934E+02  0.70580778855E+03  0.70799489736E+03  0.25500000000E-02 0. -1.
<mgrwt>
<rscale>  0 0.29322186E+02</rscale>
<asrwt>0</asrwt>
<pdfrwt beam="1">  1       11 0.10000000E+01 0.58441439E+02</pdfrwt>
<pdfrwt beam="2">  1        2 0.12501031E-02 0.29322186E+02</pdfrwt>
<totfact> 0.92602120E+03</totfact>
</mgrwt>
</event>
<event>
 5    1  0.2968854E-003  0.1772901E+03  0.7818608E-02  0.1172956E+00
         11   -1    0    0    0    0  0.00000000000E+00  0.00000000000E+00  0.10001154591E+04  0.10001154591E+04  0.51100000000E-03 0. -1.
          2   -1    0    0  501    0 -0.00000000000E+00 -0.00000000000E+00 -0.95820752196E+03  0.95820752196E+03  0.25500000000E-02 0. -1.
         11    1    1    2    0    0  0.13853205113E+02  0.30535248484E+02  0.13931277789E+03  0.14329118178E+03  0.51100000000E-03 0. -1.
         22    1    1    2    0    0  0.88624090960E+02  0.11104611299E+03  0.84484577488E+03  0.85670873233E+03  0.00000000000E+00 0. -1.
          2    1    1    2  501    0 -0.10247729607E+03 -0.14158136148E+03 -0.94225061560E+03  0.95832306699E+03  0.25500000000E-02 0. -1.
<mgrwt>
<rscale>  0 0.17477665E+03</rscale>
<asrwt>0</asrwt>
<pdfrwt beam="1">  1       11 0.10000000E+01 0.17729008E+03</pdfrwt>
<pdfrwt beam="2">  1        2 0.14743356E+00 0.17477665E+03</pdfrwt>
<totfact> 0.35573275E+01</totfact>
</mgrwt>
</event>
<event>
 5    1  0.2968854E-003  0.2135992E+03  0.7818608E-02  0.1139580E+00
         11   -1    0    0    0    0  0.00000000000E+00  0.00000000000E+00  0.10001294987E+04  0.10001294987E+04  0.51100000000E-03 0.  1.
          2   -1    0    0  501    0 -0.00000000000E+00 -0.00000000000E+00 -0.58523379658E+02  0.58523379713E+02  0.25500000000E-02 0.  1.
         11    1    1    2    0    0 -0.20043061689E+03 -0.23792043807E+02  0.69954483494E+03  0.72808067522E+03  0.51100000000E-03 0.  1.
         22    1    1    2    0    0 -0.10532119355E+02 -0.19455102022E+01  0.22930080587E+02  0.25308084554E+02  0.00000000000E+00 0.  1.
          2    1    1    2  501    0  0.21096273625E+03  0.25737554009E+02  0.21913120353E+03  0.30526411865E+03  0.25500000000E-02 0.  1.
<mgrwt>
<rscale>  0 0.21252693E+03</rscale>
<asrwt>0</asrwt>
<pdfrwt beam="1">  1       11 0.10000000E+01 0.21359920E+03</pdfrwt>
<pdfrwt beam="2">  1        2 0.90047626E-02 0.21252693E+03</pdfrwt>
<totfact> 0.88808006E+02</totfact>
</mgrwt>
</event>
<event>
 5    1  0.2968854E-003  0.3885953E+02  0.7818608E-02  0.1542253E+00
         11   -1    0    0    0    0  0.00000000000E+00  0.00000000000E+00  0.10001410469E+04  0.10001410469E+04  0.51100000000E-03 0.  1.
          2   -1    0    0  501    0 -0.00000000000E+00 -0.00000000000E+00 -0.25870610849E+01  0.25870623416E+01  0.25500000000E-02 0.  1.
         11    1    1    2    0    0 -0.27224687378E+01  0.26261605344E+02  0.13917207561E+03  0.14165433414E+03  0.51100000000E-03 0.  1.
         22    1    1    2    0    0  0.56532016100E+01  0.93431601546E+01  0.30065372197E+02  0.31987183925E+02  0.00000000000E+00 0.  1.
          2    1    1    2  501    0 -0.29307328722E+01 -0.35604765499E+02  0.82831653803E+03  0.82908659119E+03  0.25500000000E-02 0.  1.
<mgrwt>
<rscale>  0 0.35725181E+02</rscale>
<asrwt>0</asrwt>
<pdfrwt beam="1">  1       11 0.10000000E+01 0.38859530E+02</pdfrwt>
<pdfrwt beam="2">  1        2 0.39806562E-03 0.35725181E+02</pdfrwt>
<totfact> 0.44136206E+04</totfact>
</mgrwt>
</event>
<event>
 5    1  0.2968854E-003  0.1751616E+03  0.7818608E-02  0.1707982E+00
         11   -1    0    0    0    0  0.00000000000E+00  0.00000000000E+00  0.10000746688E+04  0.10000746688E+04  0.51100000000E-03 0. -1.
          2   -1    0    0  501    0 -0.00000000000E+00 -0.00000000000E+00 -0.17068604230E+03  0.17068604231E+03  0.25500000000E-02 0. -1.
         11    1    1    2    0    0 -0.15919652627E+03 -0.82570585666E+02  0.78968199263E+02  0.19595257612E+03  0.51100000000E-03 0. -1.
         22    1    1    2    0    0  0.14417493128E+03  0.98665248907E+02  0.85258408013E+03  0.87029929096E+03  0.00000000000E+00 0. -1.
          2    1    1    2  501    0  0.15021594992E+02 -0.16094663241E+02 -0.10216365289E+03  0.10450884403E+03  0.25500000000E-02 0. -1.
<mgrwt>
<rscale>  0 0.22015597E+02</rscale>
<asrwt>0</asrwt>
<pdfrwt beam="1">  1       11 0.10000000E+01 0.17516162E+03</pdfrwt>
<pdfrwt beam="2">  1        2 0.26261351E-01 0.22015597E+02</pdfrwt>
<totfact> 0.23299758E+02</totfact>
</mgrwt>
</event>
<event>
 5    1  0.2968854E-003  0.1231838E+03  0.7818608E-02  0.1237935E+00
         11   -1    0    0    0    0  0.00000000000E+00  0.00000000000E+00  0.99990272509E+03  0.99990272509E+03  0.51100000000E-03 0.  1.
          2   -1    0    0  501    0 -0.00000000000E+00 -0.00000000000E+00 -0.74377379628E+03  0.74377379628E+03  0.25500000000E-02 0.  1.
         11    1    1    2    0    0  0.14977841142E+02 -0.48902139354E+02  0.14269108835E+03  0.15158001733E+03  0.51100000000E-03 0.  1.
         22    1    1    2    0    0 -0.12800165375E+03  0.97384164625E+02  0.83996963442E+03  0.85522925911E+03  0.00000000000E+00 0.  1.
          2    1    1    2  501    0  0.11302381261E+03 -0.48482025271E+02 -0.72653179397E+03  0.73686724493E+03  0.25500000000E-02 0.  1.
<mgrwt>
<rscale>  0 0.12318378E+03</rscale>
<asrwt>0</asrwt>
<pdfrwt beam="1">  1       11 0.10000000E+01 0.51144452E+02</pdfrwt>
<pdfrwt beam="2">  1        2 0.11441560E+00 0.12318378E+03</pdfrwt>
<totfact> 0.49873144E+01</totfact>
</mgrwt>
</event>
<event>
 5    1  0.2968854E-003  0.3487410E+02  0.7818608E-02  0.1653300E+00
         11   -1    0    0    0    0  0.00000000000E+00  0.00000000000E+00  0.10002267643E+04  0.10002267643E+04  0.51100000000E-03 0.  1.
          2   -1    0    0  501    0 -0.00000000000E+00 -0.00000000000E+00 -0.38810271676E+01  0.38810280053E+01  0.25500000000E-02 0.  1.
         11    1    1    2    0    0 -0.12503698110E+02  0.24916360961E+02  0.75160460176E+02  0.80163971235E+02  0.51100000000E-03 0.  1.
         22    1    1    2    0    0 -0.18058676758E+02 -0.48976222413E+01  0.88448543522E+02  0.90406013965E+02  0.00000000000E+00 0.  1.
          2    1    1    2  501    0  0.30562374867E+02 -0.20018738720E+02  0.83273673341E+03  0.83353780708E+03  0.25500000000E-02 0.  1.
<mgrwt>
<rscale>  0 0.25544665E+02</rscale>
<asrwt>0</asrwt>
<pdfrwt beam="1">  1       11 0.10000000E+01 0.34874100E+02</pdfrwt>
<pdfrwt beam="2">  1        2 0.59721655E-03 0.25544665E+02</pdfrwt>
<totfact> 0.23713300E+04</totfact>
</mgrwt>
</event>
<event>
 5    1  0.2968854E-003  0.2761086E+03  0.7818608E-02  0.1097834E+00
         11   -1    0    0    0    0  0.00000000000E+00  0.00000000000E+00  0.99983159920E+03  0.99983159920E+03  0.51100000000E-03 0.  1.
          2   -1    0    0  501    0 -0.00000000000E+00 -0.00000000000E+00 -0.10060917255E+04  0.10060917255E+04  0.25500000000E-02 0.  1.
         11    1    1    2    0    0 -0.24991647395E+02  0.28898743388E+03  0.91739372031E+03  0.96215880053E+03  0.51100000000E-03 0.  1.
         22    1    1    2    0    0  0.58177596905E+01 -0.13832861542E+02  0.39310245291E+02  0.42077188251E+02  0.00000000000E+00 0.  1.
          2    1    1    2  501    0  0.19173887704E+02 -0.27515457234E+03 -0.96296409189E+03  0.10016873359E+04  0.25500000000E-02 0.  1.
<mgrwt>
<rscale>  0 0.27610856E+03</rscale>
<asrwt>0</asrwt>
<pdfrwt beam="1">  1       11 0.10000000E+01 0.15006478E+02</pdfrwt>
<pdfrwt beam="2">  1        2 0.15475727E+00 0.27610856E+03</pdfrwt>
<totfact> 0.32542052E+01</totfact>
</mgrwt>
</event>
<event>
 5    1  0.2968854E-003  0.1062218E+03  0.7818608E-02  0.1505929E+00
         11   -1    0    0    0    0  0.00000000000E+00  0.00000000000E+00  0.10001327506E+04  0.10001327506E+04  0.51100000000E-03 0.  1.
          2   -1    0    0  501    0 -0.00000000000E+00 -0.00000000000E+00 -0.30813295583E+03  0.30813295584E+03  0.25500000000E-02 0.  1.
         11    1    1    2    0    0 -0.83335889595E+02  0.33012556787E+02  0.27937493713E+03  0.29340254753E+03  0.51100000000E-03 0.  1.
         22    1    1    2    0    0  0.11871827813E+03 -0.13695802260E+02  0.70736000644E+03  0.71738398593E+03  0.00000000000E+00 0.  1.
          2    1    1    2  501    0 -0.35382388531E+02 -0.19316754526E+02 -0.29473514879E+03  0.29747917299E+03  0.25500000000E-02 0.  1.
<mgrwt>
<rscale>  0 0.40311914E+02</rscale>
<asrwt>0</asrwt>
<pdfrwt beam="1">  1       11 0.10000000E+01 0.10622183E+03</pdfrwt>
<pdfrwt beam="2">  1        2 0.47411362E-01 0.40311914E+02</pdfrwt>
<totfact> 0.13041455E+02</totfact>
</mgrwt>
</event>
<event>
 5    1  0.2968854E-003  0.2940773E+02  0.7818608E-02  0.1626929E+00
         11   -1    0    0    0    0  0.00000000000E+00  0.00000000000E+00  0.10003353439E+04  0.10003353439E+04  0.51100000000E-03 0. -1.
          2   -1    0    0  501    0 -0.00000000000E+00 -0.00000000000E+00 -0.20624157921E+01  0.20624173686E+01  0.25500000000E-02 0. -1.
         11    1    1    2    0    0 -0.50965649107E+01 -0.16040549985E+02  0.52838991748E+02  0.55454785789E+02  0.51100000000E-03 0. -1.
         22    1    1    2    0    0 -0.86043584248E+01 -0.78551111776E+01  0.62326764323E+02  0.63406334909E+02  0.00000000000E+00 0.  1.
          2    1    1    2  501    0  0.13700923335E+02  0.23895661163E+02  0.88310717200E+03  0.88353664054E+03  0.25500000000E-02 0. -1.
<mgrwt>
<rscale>  0 0.27544835E+02</rscale>
<asrwt>0</asrwt>
<pdfrwt beam="1">  1       11 0.10000000E+01 0.29407731E+02</pdfrwt>
<pdfrwt beam="2">  1        2 0.31740125E-03 0.27544835E+02</pdfrwt>
<totfact> 0.55749482E+04</totfact>
</mgrwt>
</event>
<event>
 5    1  0.5846790E-003  0.2330197E+03  0.7818608E-02  0.1126281E+00
         11   -1    0    0    0    0  0.00000000000E+00  0.00000000000E+00  0.10004390647E+04  0.10004390647E+04  0.51100000000E-03 0. -1.
          2   -1    0    0  501    0 -0.00000000000E+00 -0.00000000000E+00 -0.56316549762E+03  0.56316549763E+03  0.25500000000E-02 0.  1.
         11    1    1    2    0    0  0.14214450048E+03 -0.16850360325E+03  0.90077742669E+03  0.92736103851E+03  0.51100000000E-03 0. -1.
         22    1    1    2    0    0  0.12006706182E+02 -0.28803051057E+01  0.61572119045E+02  0.62797953744E+02  0.00000000000E+00 0.  1.
          2    1    1    2  501    0 -0.15415120667E+03  0.17138390836E+03 -0.52507597861E+03  0.57344557011E+03  0.25500000000E-02 0.  1.
<mgrwt>
<rscale>  0 0.23051039E+03</rscale>
<asrwt>0</asrwt>
<pdfrwt beam="1">  1       11 0.10000000E+01 0.23301970E+03</pdfrwt>
<pdfrwt beam="2">  1        2 0.86678884E-01 0.23051039E+03</pdfrwt>
<totfact> 0.67913625E+01</totfact>
</mgrwt>
</event>
<event>
 5    1  0.2968854E-003  0.2001465E+03  0.7818608E-02  0.1160818E+00
         11   -1    0    0    0    0  0.00000000000E+00  0.00000000000E+00  0.10003868212E+04  0.10003868212E+04  0.51100000000E-03 0. -1.
          2   -1    0    0  501    0 -0.00000000000E+00 -0.00000000000E+00 -0.38523560377E+02  0.38523560462E+02  0.25500000000E-02 0. -1.
         11    1    1    2    0    0  0.30740708679E+02 -0.75758588067E+00  0.15189209926E+03  0.15497346523E+03  0.51100000000E-03 0. -1.
         22    1    1    2    0    0  0.11345613138E+03 -0.11895075895E+03  0.42757930620E+03  0.45808911785E+03  0.00000000000E+00 0. -1.
          2    1    1    2  501    0 -0.14419684006E+03  0.11970834483E+03  0.38239185537E+03  0.42584779859E+03  0.25500000000E-02 0. -1.
<mgrwt>
<rscale>  0 0.18741082E+03</rscale>
<asrwt>0</asrwt>
<pdfrwt beam="1">  1       11 0.10000000E+01 0.20014650E+03</pdfrwt>
<pdfrwt beam="2">  1        2 0.59289940E-02 0.18741082E+03</pdfrwt>
<totfact> 0.15040269E+03</totfact>
</mgrwt>
</event>
<event>
 5    1  0.2968854E-003  0.1956639E+03  0.7818608E-02  0.1155444E+00
         11   -1    0    0    0    0  0.00000000000E+00  0.00000000000E+00  0.10001967479E+04  0.10001967479E+04  0.51100000000E-03 0. -1.
          2   -1    0    0  501    0 -0.00000000000E+00 -0.00000000000E+00 -0.39516736462E+02  0.39516736545E+02  0.25500000000E-02 0. -1.
         11    1    1    2    0    0  0.11383872955E+03  0.11334226430E+03  0.28895614390E+03  0.33060758963E+03  0.51100000000E-03 0. -1.
         22    1    1    2    0    0  0.28595184357E+02  0.17462554231E+02  0.86744734348E+02  0.92990721612E+02  0.00000000000E+00 0. -1.
          2    1    1    2  501    0 -0.14243391391E+03 -0.13080481853E+03  0.58497913323E+03  0.61611517325E+03  0.25500000000E-02 0. -1.
<mgrwt>
<rscale>  0 0.19338387E+03</rscale>
<asrwt>0</asrwt>
<pdfrwt beam="1">  1       11 0.10000000E+01 0.19566394E+03</pdfrwt>
<pdfrwt beam="2">  1        2 0.60806939E-02 0.19338387E+03</pdfrwt>
<totfact> 0.14586445E+03</totfact>
</mgrwt>
</event>
<event>
 5    1  0.2968854E-003  0.1039760E+03  0.7818608E-02  0.1436860E+00
         11   -1    0    0    0    0  0.00000000000E+00  0.00000000000E+00  0.10004746105E+04  0.10004746105E+04  0.51100000000E-03 0.  1.
          2   -1    0    0  501    0 -0.00000000000E+00 -0.00000000000E+00 -0.20446492041E+02  0.20446492200E+02  0.25500000000E-02 0.  1.
         11    1    1    2    0    0  0.31291166004E+02 -0.84586886127E+02  0.37058217452E+03  0.38139903834E+03  0.51100000000E-03 0.  1.
         22    1    1    2    0    0 -0.15096748537E+01  0.12673410609E+03  0.52880217281E+03  0.54377895393E+03  0.00000000000E+00 0.  1.
          2    1    1    2  501    0 -0.29781491150E+02 -0.42147219961E+02  0.80643771079E+02  0.95743110384E+02  0.25500000000E-02 0.  1.
<mgrwt>
<rscale>  0 0.51607416E+02</rscale>
<asrwt>0</asrwt>
<pdfrwt beam="1">  1       11 0.10000000E+01 0.10397597E+03</pdfrwt>
<pdfrwt beam="2">  1        2 0.31471070E-02 0.51607416E+02</pdfrwt>
<totfact> 0.30332072E+03</totfact>
</mgrwt>
</event>
<event>
 5    1  0.2968854E-003  0.6793310E+02  0.7818608E-02  0.1387789E+00
         11   -1    0    0    0    0  0.00000000000E+00  0.00000000000E+00  0.10001603690E+04  0.10001603690E+04  0.51100000000E-03 0.  1.
          2   -1    0    0  501    0 -0.00000000000E+00 -0.00000000000E+00 -0.47391504915E+01  0.47391511776E+01  0.25500000000E-02 0.  1.
         11    1    1    2    0    0 -0.32430019494E+01 -0.23830277694E+02  0.11819764483E+03  0.12061957735E+03  0.51100000000E-03 0.  1.
         22    1    1    2    0    0 -0.36327619551E+02 -0.24495707820E+02  0.23693631691E+03  0.24095342686E+03  0.00000000000E+00 0.  1.
          2    1    1    2  501    0  0.39570621500E+02  0.48325985514E+02  0.64028725672E+03  0.64332651592E+03  0.25500000000E-02 0.  1.
<mgrwt>
<rscale>  0 0.62459867E+02</rscale>
<asrwt>0</asrwt>
<pdfrwt beam="1">  1       11 0.10000000E+01 0.67933104E+02</pdfrwt>
<pdfrwt beam="2">  1        2 0.72921703E-03 0.62459867E+02</pdfrwt>
<totfact> 0.22014062E+04</totfact>
</mgrwt>
</event>
<event>
 5    1  0.2968854E-003  0.9103914E+02  0.7818608E-02  0.1300355E+00
         11   -1    0    0    0    0  0.00000000000E+00  0.00000000000E+00  0.10000548867E+04  0.10000548867E+04  0.51100000000E-03 0.  1.
          2   -1    0    0  501    0 -0.00000000000E+00 -0.00000000000E+00 -0.23903154008E+02  0.23903154144E+02  0.25500000000E-02 0.  1.
         11    1    1    2    0    0 -0.70836973396E+02  0.53727645732E+02  0.46313727797E+03  0.47159376052E+03  0.51100000000E-03 0.  1.
         22    1    1    2    0    0  0.70933321578E+02  0.48879569078E+02  0.34417274909E+03  0.35478955678E+03  0.00000000000E+00 0.  1.
          2    1    1    2  501    0 -0.96348182494E-01 -0.10260721481E+03  0.16884170559E+03  0.19757472350E+03  0.25500000000E-02 0.  1.
<mgrwt>
<rscale>  0 0.91039135E+02</rscale>
<asrwt>0</asrwt>
<pdfrwt beam="1">  1       11 0.10000000E+01 0.86143766E+02</pdfrwt>
<pdfrwt beam="2">  1        2 0.36776101E-02 0.91039135E+02</pdfrwt>
<totfact> 0.26414838E+03</totfact>
</mgrwt>
</event>
<event>
 5    1  0.2968854E-003  0.3224948E+03  0.7818608E-02  0.1087062E+00
         11   -1    0    0    0    0  0.00000000000E+00  0.00000000000E+00  0.99972372117E+03  0.99972372117E+03  0.51100000000E-03 0.  1.
          2   -1    0    0  501    0 -0.00000000000E+00 -0.00000000000E+00 -0.13666713227E+04  0.13666713227E+04  0.25500000000E-02 0.  1.
         11    1    1    2    0    0  0.19067925091E+03  0.11176371441E+03  0.50613679676E+03  0.55228992533E+03  0.51100000000E-03 0.  1.
         22    1    1    2    0    0  0.52011525932E+02  0.58367933730E+02  0.45075971894E+03  0.45748916789E+03  0.00000000000E+00 0.  1.
          2    1    1    2  501    0 -0.24269077684E+03 -0.17013164814E+03 -0.13238441172E+04  0.13566159506E+04  0.25500000000E-02 0.  1.
<mgrwt>
<rscale>  0 0.29638419E+03</rscale>
<asrwt>0</asrwt>
<pdfrwt beam="1">  1       11 0.10000000E+01 0.32249477E+03</pdfrwt>
<pdfrwt beam="2">  1        2 0.21019903E+00 0.29638419E+03</pdfrwt>
<totfact> 0.20091268E+01</totfact>
</mgrwt>
</event>
<event>
 5    1  0.2968854E-003  0.6465605E+02  0.7818608E-02  0.1379270E+00
         11   -1    0    0    0    0  0.00000000000E+00  0.00000000000E+00  0.10000323614E+04  0.10000323614E+04  0.51100000000E-03 0.  1.
          2   -1    0    0  501    0 -0.00000000000E+00 -0.00000000000E+00 -0.13972507929E+02  0.13972508162E+02  0.25500000000E-02 0.  1.
         11    1    1    2    0    0  0.17914078159E+02 -0.18748323580E+02  0.42385789705E+02  0.49688721080E+02  0.51100000000E-03 0.  1.
         22    1    1    2    0    0  0.45809201478E+02  0.45609361911E+02  0.10859506116E+03  0.12637873295E+03  0.00000000000E+00 0.  1.
          2    1    1    2  501    0 -0.63723279636E+02 -0.26861038331E+02  0.83507900262E+03  0.83793741555E+03  0.25500000000E-02 0.  1.
<mgrwt>
<rscale>  0 0.64656052E+02</rscale>
<asrwt>0</asrwt>
<pdfrwt beam="1">  1       11 0.10000000E+01 0.25930957E+02</pdfrwt>
<pdfrwt beam="2">  1        2 0.21496861E-02 0.64656052E+02</pdfrwt>
<totfact> 0.51600209E+03</totfact>
</mgrwt>
</event>
<event>
 5    1  0.2968854E-003  0.8762264E+02  0.7818608E-02  0.1308713E+00
         11   -1    0    0    0    0  0.00000000000E+00  0.00000000000E+00  0.10002126570E+04  0.10002126570E+04  0.51100000000E-03 0. -1.
         -2   -1    0    0    0  501 -0.00000000000E+00 -0.00000000000E+00 -0.21266591092E+02  0.21266591244E+02  0.25500000000E-02 0. -1.
         11    1    1    2    0    0  0.79344794051E+02 -0.25281706788E+02  0.27865756530E+03  0.29083466049E+03  0.51100000000E-03 0. -1.
         22    1    1    2    0    0 -0.22077732468E+02  0.98684340304E+02  0.49511968952E+03  0.50534100590E+03  0.00000000000E+00 0. -1.
         -2    1    1    2    0  501 -0.57267061583E+02 -0.73402633516E+02  0.20516881110E+03  0.22530358188E+03  0.25500000000E-02 0. -1.
<mgrwt>
<rscale>  0 0.87622644E+02</rscale>
<asrwt>0</asrwt>
<pdfrwt beam="1">  1       11 0.10000000E+01 0.83275254E+02</pdfrwt>
<pdfrwt beam="2">  1       -2 0.32724789E-02 0.87622644E+02</pdfrwt>
<totfact> 0.26452533E+03</totfact>
</mgrwt>
</event>
<event>
 5    1  0.2968854E-003  0.2727569E+03  0.7818608E-02  0.1104115E+00
         11   -1    0    0    0    0  0.00000000000E+00  0.00000000000E+00  0.10002860752E+04  0.10002860752E+04  0.51100000000E-03 0. -1.
         -2   -1    0    0    0  501 -0.00000000000E+00 -0.00000000000E+00 -0.93225654345E+02  0.93225654380E+02  0.25500000000E-02 0.  1.
         11    1    1    2    0    0  0.19857009578E+03 -0.11823375524E+03  0.66152443569E+03  0.70073096323E+03  0.51100000000E-03 0. -1.
         22    1    1    2    0    0  0.21483715480E+02 -0.29605624551E+02  0.56011137421E+02  0.66897612447E+02  0.00000000000E+00 0. -1.
         -2    1    1    2    0  501 -0.22005381126E+03  0.14783937979E+03  0.18952484771E+03  0.32588315387E+03  0.25500000000E-02 0.  1.
<mgrwt>
<rscale>  0 0.26510406E+03</rscale>
<asrwt>0</asrwt>
<pdfrwt beam="1">  1       11 0.10000000E+01 0.27275691E+03</pdfrwt>
<pdfrwt beam="2">  1       -2 0.14346511E-01 0.26510406E+03</pdfrwt>
<totfact> 0.29501398E+02</totfact>
</mgrwt>
</event>
<event>
 5    1  0.2968854E-003  0.8484574E+02  0.7818608E-02  0.1322094E+00
         11   -1    0    0    0    0  0.00000000000E+00  0.00000000000E+00  0.10001650360E+04  0.10001650360E+04  0.51100000000E-03 0. -1.
         -2   -1    0    0    0  501 -0.00000000000E+00 -0.00000000000E+00 -0.10382886162E+02  0.10382886476E+02  0.25500000000E-02 0. -1.
         11    1    1    2    0    0 -0.80461085348E+01 -0.50995923057E+02  0.15644753119E+03  0.16474572543E+03  0.51100000000E-03 0. -1.
         22    1    1    2    0    0 -0.46737481160E+01 -0.30521054030E+02  0.54733835548E+02  0.62842433231E+02  0.00000000000E+00 0. -1.
         -2    1    1    2    0  501  0.12719856651E+02  0.81516977088E+02  0.77860078313E+03  0.78295976385E+03  0.25500000000E-02 0. -1.
<mgrwt>
<rscale>  0 0.82503408E+02</rscale>
<asrwt>0</asrwt>
<pdfrwt beam="1">  1       11 0.10000000E+01 0.84845744E+02</pdfrwt>
<pdfrwt beam="2">  1       -2 0.15976307E-02 0.82503408E+02</pdfrwt>
<totfact> 0.73672691E+03</totfact>
</mgrwt>
</event>
<event>
 5    1  0.2968854E-003  0.1437064E+03  0.7818608E-02  0.1570958E+00
         11   -1    0    0    0    0  0.00000000000E+00  0.00000000000E+00  0.10003240454E+04  0.10003240454E+04  0.51100000000E-03 0. -1.
          2   -1    0    0  501    0 -0.00000000000E+00 -0.00000000000E+00 -0.43998819781E+02  0.43998819854E+02  0.25500000000E-02 0. -1.
         11    1    1    2    0    0  0.29154651674E+02 -0.16507168422E+03  0.28740665699E+03  0.33271796033E+03  0.51100000000E-03 0. -1.
         22    1    1    2    0    0 -0.15167619310E+02  0.13561914796E+03  0.66489245205E+03  0.67875222487E+03  0.00000000000E+00 0. -1.
          2    1    1    2  501    0 -0.13987032364E+02  0.29452536260E+02  0.40261165937E+01  0.32852680071E+02  0.25500000000E-02 0. -1.
<mgrwt>
<rscale>  0 0.32605045E+02</rscale>
<asrwt>0</asrwt>
<pdfrwt beam="1">  1       11 0.10000000E+01 0.14370637E+03</pdfrwt>
<pdfrwt beam="2">  1        2 0.67712425E-02 0.32605045E+02</pdfrwt>
<totfact> 0.10954900E+03</totfact>
</mgrwt>
</event>
<event>
 5    1  0.2968854E-003  0.1012101E+03  0.7818608E-02  0.1453817E+00
         11   -1    0    0    0    0  0.00000000000E+00  0.00000000000E+00  0.10003866185E+04  0.10003866185E+04  0.51100000000E-03 0. -1.
          2   -1    0    0  501    0 -0.00000000000E+00 -0.00000000000E+00 -0.13425101806E+03  0.13425101808E+03  0.25500000000E-02 0. -1.
         11    1    1    2    0    0 -0.38261281300E+02 -0.90907727561E+02  0.49085491241E+03  0.50066624174E+03  0.51100000000E-03 0. -1.
         22    1    1    2    0    0  0.83138225453E+02  0.72614389766E+02  0.49376813733E+03  0.50595630995E+03  0.00000000000E+00 0. -1.
          2    1    1    2  501    0 -0.44876944153E+02  0.18293337795E+02 -0.11848744928E+03  0.12801508492E+03  0.25500000000E-02 0. -1.
<mgrwt>
<rscale>  0 0.48462215E+02</rscale>
<asrwt>0</asrwt>
<pdfrwt beam="1">  1       11 0.10000000E+01 0.10121010E+03</pdfrwt>
<pdfrwt beam="2">  1        2 0.20661987E-01 0.48462215E+02</pdfrwt>
<totfact> 0.31145896E+02</totfact>
</mgrwt>
</event>
<event>
 5    1  0.2968854E-003  0.2122507E+02  0.7818608E-02  0.1722009E+00
         11   -1    0    0    0    0  0.00000000000E+00  0.00000000000E+00  0.10003518445E+04  0.10003518445E+04  0.51100000000E-03 0.  1.
          2   -1    0    0  501    0 -0.00000000000E+00 -0.00000000000E+00 -0.33368354356E+01  0.33368364100E+01  0.25500000000E-02 0.  1.
         11    1    1    2    0    0 -0.13106115099E+01 -0.17672985636E+02  0.43122032678E+02  0.46621473876E+02  0.51100000000E-03 0.  1.
         22    1    1    2    0    0  0.18619572640E+02 -0.88775877330E+01  0.80548916360E+02  0.83148228941E+02  0.00000000000E+00 0.  1.
          2    1    1    2  501    0 -0.17308961131E+02  0.26550573369E+02  0.87334406006E+03  0.87391897812E+03  0.25500000000E-02 0.  1.
<mgrwt>
<rscale>  0 0.21225066E+02</rscale>
<asrwt>0</asrwt>
<pdfrwt beam="1">  1       11 0.10000000E+01 0.17721525E+02</pdfrwt>
<pdfrwt beam="2">  1        2 0.51353998E-03 0.21225066E+02</pdfrwt>
<totfact> 0.27561357E+04</totfact>
</mgrwt>
</event>
<event>
 5    1  0.2968854E-003  0.1606403E+03  0.7818608E-02  0.1187976E+00
         11   -1    0    0    0    0  0.00000000000E+00  0.00000000000E+00  0.10000523856E+04  0.10000523856E+04  0.51100000000E-03 0. -1.
         -2   -1    0    0    0  501 -0.00000000000E+00 -0.00000000000E+00 -0.31252868592E+02  0.31252868696E+02  0.25500000000E-02 0. -1.
         11    1    1    2    0    0  0.15104973209E+03 -0.34981445645E+02  0.57213489023E+03  0.59277150381E+03  0.51100000000E-03 0. -1.
         22    1    1    2    0    0  0.50285103839E+01 -0.15573063550E+02  0.82536467869E+02  0.84143180076E+02  0.00000000000E+00 0. -1.
         -2    1    1    2    0  501 -0.15607824248E+03  0.50554509195E+02  0.31412815894E+03  0.35439057044E+03  0.25500000000E-02 0. -1.
<mgrwt>
<rscale>  0 0.16064027E+03</rscale>
<asrwt>0</asrwt>
<pdfrwt beam="1">  1       11 0.10000000E+01 0.16364786E+02</pdfrwt>
<pdfrwt beam="2">  1       -2 0.48083854E-02 0.16064027E+03</pdfrwt>
<totfact> 0.15895890E+03</totfact>
</mgrwt>
</event>
<event>
 5    1  0.2968854E-003  0.1317065E+03  0.7818608E-02  0.1321057E+00
         11   -1    0    0    0    0  0.00000000000E+00  0.00000000000E+00  0.10000701490E+04  0.10000701490E+04  0.51100000000E-03 0.  1.
          2   -1    0    0  501    0 -0.00000000000E+00 -0.00000000000E+00 -0.40346715772E+02  0.40346715853E+02  0.25500000000E-02 0.  1.
         11    1    1    2    0    0  0.95280300643E+02 -0.43978180630E+02  0.68967271519E+02  0.12557428321E+03  0.51100000000E-03 0.  1.
         22    1    1    2    0    0  0.46507145852E+01 -0.51953656623E+02  0.10815684619E+03  0.12007795369E+03  0.00000000000E+00 0.  1.
          2    1    1    2  501    0 -0.99931015228E+02  0.95931837253E+02  0.78259931547E+03  0.79476462791E+03  0.25500000000E-02 0.  1.
<mgrwt>
<rscale>  0 0.82885399E+02</rscale>
<asrwt>0</asrwt>
<pdfrwt beam="1">  1       11 0.10000000E+01 0.13170645E+03</pdfrwt>
<pdfrwt beam="2">  1        2 0.62076223E-02 0.82885399E+02</pdfrwt>
<totfact> 0.13318914E+03</totfact>
</mgrwt>
</event>
<event>
 5    1  0.2968854E-003  0.1143761E+03  0.7818608E-02  0.1256847E+00
         11   -1    0    0    0    0  0.00000000000E+00  0.00000000000E+00  0.10004693814E+04  0.10004693814E+04  0.51100000000E-03 0. -1.
          2   -1    0    0  501    0 -0.00000000000E+00 -0.00000000000E+00 -0.13455342076E+02  0.13455342318E+02  0.25500000000E-02 0. -1.
         11    1    1    2    0    0  0.67142082311E+02 -0.74188790187E+02  0.56977789880E+03  0.57849709573E+03  0.51100000000E-03 0. -1.
         22    1    1    2    0    0  0.52079947809E+01 -0.11352802898E+02  0.39648561923E+02  0.41569433553E+02  0.00000000000E+00 0. -1.
          2    1    1    2  501    0 -0.72350077092E+02  0.85541593085E+02  0.37758757856E+03  0.39385819440E+03  0.25500000000E-02 0. -1.
<mgrwt>
<rscale>  0 0.11203525E+03</rscale>
<asrwt>0</asrwt>
<pdfrwt beam="1">  1       11 0.10000000E+01 0.11437609E+03</pdfrwt>
<pdfrwt beam="2">  1        2 0.20710242E-02 0.11203525E+03</pdfrwt>
<totfact> 0.58248427E+03</totfact>
</mgrwt>
</event>
<event>
 5    1  0.2968854E-003  0.2061535E+03  0.7818608E-02  0.1152438E+00
         11   -1    0    0    0    0  0.00000000000E+00  0.00000000000E+00  0.10001755573E+04  0.10001755573E+04  0.51100000000E-03 0. -1.
          2   -1    0    0  501    0 -0.00000000000E+00 -0.00000000000E+00 -0.53734922098E+03  0.53734922098E+03  0.25500000000E-02 0. -1.
         11    1    1    2    0    0  0.58228754775E+02 -0.13273300581E+03  0.70981478257E+03  0.72446232771E+03  0.51100000000E-03 0. -1.
         22    1    1    2    0    0 -0.14326663202E+02 -0.59142537397E+02  0.26114295317E+03  0.26813939471E+03  0.00000000000E+00 0. -1.
          2    1    1    2  501    0 -0.43902091574E+02  0.19187554321E+03 -0.50813139942E+03  0.54492305586E+03  0.25500000000E-02 0. -1.
<mgrwt>
<rscale>  0 0.19683399E+03</rscale>
<asrwt>0</asrwt>
<pdfrwt beam="1">  1       11 0.10000000E+01 0.20615347E+03</pdfrwt>
<pdfrwt beam="2">  1        2 0.82683622E-01 0.19683399E+03</pdfrwt>
<totfact> 0.71872909E+01</totfact>
</mgrwt>
</event>
<event>
 5    1  0.2968854E-003  0.8287533E+02  0.7818608E-02  0.1331726E+00
         11   -1    0    0    0    0  0.00000000000E+00  0.00000000000E+00  0.10003084059E+04  0.10003084059E+04  0.51100000000E-03 0. -1.
          2   -1    0    0  501    0 -0.00000000000E+00 -0.00000000000E+00 -0.76038022021E+01  0.76038026297E+01  0.25500000000E-02 0. -1.
         11    1    1    2    0    0 -0.50487754267E+02  0.37131364200E+02  0.21878720528E+03  0.22758645112E+03  0.51100000000E-03 0. -1.
         22    1    1    2    0    0 -0.19000885248E+02  0.58626707818E+00  0.10043591492E+03  0.10221912911E+03  0.00000000000E+00 0. -1.
          2    1    1    2  501    0  0.69488639515E+02 -0.37717631278E+02  0.67348148344E+03  0.67810662825E+03  0.25500000000E-02 0. -1.
<mgrwt>
<rscale>  0 0.79065104E+02</rscale>
<asrwt>0</asrwt>
<pdfrwt beam="1">  1       11 0.10000000E+01 0.82875330E+02</pdfrwt>
<pdfrwt beam="2">  1        2 0.11701765E-02 0.79065104E+02</pdfrwt>
<totfact> 0.12052881E+04</totfact>
</mgrwt>
</event>
<event>
 5    1  0.2968854E-003  0.1822399E+03  0.7818608E-02  0.1181359E+00
         11   -1    0    0    0    0  0.00000000000E+00  0.00000000000E+00  0.10004555103E+04  0.10004555103E+04  0.51100000000E-03 0.  1.
          2   -1    0    0  501    0 -0.00000000000E+00 -0.00000000000E+00 -0.35781791300E+02  0.35781791391E+02  0.25500000000E-02 0.  1.
         11    1    1    2    0    0 -0.10962912686E+03 -0.77175343524E+02  0.20054508299E+03  0.24123206548E+03  0.51100000000E-03 0.  1.
         22    1    1    2    0    0 -0.22179400024E+01 -0.46400800688E+02  0.99721665410E+02  0.11001074545E+03  0.00000000000E+00 0. -1.
          2    1    1    2  501    0  0.11184706686E+03  0.12357614421E+03  0.66440697065E+03  0.68499449081E+03  0.25500000000E-02 0.  1.
<mgrwt>
<rscale>  0 0.16667582E+03</rscale>
<asrwt>0</asrwt>
<pdfrwt beam="1">  1       11 0.10000000E+01 0.18223993E+03</pdfrwt>
<pdfrwt beam="2">  1        2 0.55073984E-02 0.16667582E+03</pdfrwt>
<totfact> 0.16416739E+03</totfact>
</mgrwt>
</event>
<event>
 5    1  0.2968854E-003  0.2792682E+03  0.7818608E-02  0.1421930E+00
         11   -1    0    0    0    0  0.00000000000E+00  0.00000000000E+00  0.10000942588E+04  0.10000942588E+04  0.51100000000E-03 0. -1.
         -2   -1    0    0    0  501 -0.00000000000E+00 -0.00000000000E+00 -0.10250787690E+03  0.10250787693E+03  0.25500000000E-02 0. -1.
         11    1    1    2    0    0 -0.25104311963E+03  0.11598896277E+03  0.68015523553E+03  0.73422560009E+03  0.51100000000E-03 0. -1.
         22    1    1    2    0    0 -0.75303466398E+01  0.75742693694E+01  0.60762733837E+01  0.12288074513E+02  0.00000000000E+00 0. -1.
         -2    1    1    2    0  501  0.25857346627E+03 -0.12356323214E+03  0.21135487294E+03  0.35608846109E+03  0.25500000000E-02 0. -1.
<mgrwt>
<rscale>  0 0.54614631E+02</rscale>
<asrwt>0</asrwt>
<pdfrwt beam="1">  1       11 0.10000000E+01 0.27926820E+03</pdfrwt>
<pdfrwt beam="2">  1       -2 0.15771929E-01 0.54614631E+02</pdfrwt>
<totfact> 0.23462457E+02</totfact>
</mgrwt>
</event>
<event>
 5    1  0.2968854E-003  0.9192700E+02  0.7818608E-02  0.1303523E+00
         11   -1    0    0    0    0  0.00000000000E+00  0.00000000000E+00  0.10002936401E+04  0.10002936401E+04  0.51100000000E-03 0. -1.
          2   -1    0    0  501    0 -0.00000000000E+00 -0.00000000000E+00 -0.11127050683E+02  0.11127050975E+02  0.25500000000E-02 0. -1.
         11    1    1    2    0    0 -0.28255728423E+02 -0.21929709021E+02  0.80004287022E+02  0.87635519447E+02  0.51100000000E-03 0. -1.
         22    1    1    2    0    0 -0.53297359435E+02 -0.15478180047E+02  0.16174681528E+03  0.17100355211E+03  0.00000000000E+00 0. -1.
          2    1    1    2  501    0  0.81553087858E+02  0.37407889068E+02  0.74741548711E+03  0.75278161952E+03  0.25500000000E-02 0. -1.
<mgrwt>
<rscale>  0 0.89723221E+02</rscale>
<asrwt>0</asrwt>
<pdfrwt beam="1">  1       11 0.10000000E+01 0.91927003E+02</pdfrwt>
<pdfrwt beam="2">  1        2 0.17123566E-02 0.89723221E+02</pdfrwt>
<totfact> 0.73240596E+03</totfact>
</mgrwt>
</event>
<event>
 5    1  0.2968854E-003  0.8465855E+02  0.7818608E-02  0.1467317E+00
         11   -1    0    0    0    0  0.00000000000E+00  0.00000000000E+00  0.10004952725E+04  0.10004952725E+04  0.51100000000E-03 0.  1.
          2   -1    0    0  501    0 -0.00000000000E+00 -0.00000000000E+00 -0.13096557030E+02  0.13096557278E+02  0.25500000000E-02 0.  1.
         11    1    1    2    0    0  0.65857884402E+02 -0.22556746081E+02  0.12559757665E+03  0.14359950903E+03  0.51100000000E-03 0.  1.
         22    1    1    2    0    0  0.22746565190E+02  0.10735191792E+02  0.10700327487E+03  0.10991974984E+03  0.00000000000E+00 0. -1.
          2    1    1    2  501    0 -0.88604449592E+02  0.11821554289E+02  0.75479786398E+03  0.76007257095E+03  0.25500000000E-02 0.  1.
<mgrwt>
<rscale>  0 0.46145174E+02</rscale>
<asrwt>0</asrwt>
<pdfrwt beam="1">  1       11 0.10000000E+01 0.84658552E+02</pdfrwt>
<pdfrwt beam="2">  1        2 0.20158528E-02 0.46145174E+02</pdfrwt>
<totfact> 0.53497023E+03</totfact>
</mgrwt>
</event>
<event>
 5    1  0.2968854E-003  0.1279250E+03  0.7818608E-02  0.1629732E+00
         11   -1    0    0    0    0  0.00000000000E+00  0.00000000000E+00  0.10001034276E+04  0.10001034276E+04  0.51100000000E-03 0.  1.
          2   -1    0    0  501    0 -0.00000000000E+00 -0.00000000000E+00 -0.49176701833E+03  0.49176701834E+03  0.25500000000E-02 0. -1.
         11    1    1    2    0    0  0.71122193917E+02  0.89458439108E+02  0.37661172088E+03  0.39357028229E+03  0.51100000000E-03 0.  1.
         22    1    1    2    0    0 -0.82655669599E+02 -0.11422648194E+03  0.60653355184E+03  0.62270586828E+03  0.00000000000E+00 0.  1.
          2    1    1    2  501    0  0.11533475682E+02  0.24768042829E+02 -0.47480886343E+03  0.47559429538E+03  0.25500000000E-02 0. -1.
<mgrwt>
<rscale>  0 0.27321732E+02</rscale>
<asrwt>0</asrwt>
<pdfrwt beam="1">  1       11 0.10000000E+01 0.12792500E+03</pdfrwt>
<pdfrwt beam="2">  1        2 0.75664287E-01 0.27321732E+02</pdfrwt>
<totfact> 0.81273285E+01</totfact>
</mgrwt>
</event>
<event>
 5    1  0.2968854E-003  0.1361268E+03  0.7818608E-02  0.1220530E+00
         11   -1    0    0    0    0  0.00000000000E+00  0.00000000000E+00  0.10005382589E+04  0.10005382589E+04  0.51100000000E-03 0. -1.
          2   -1    0    0  501    0 -0.00000000000E+00 -0.00000000000E+00 -0.18338820554E+02  0.18338820731E+02  0.25500000000E-02 0. -1.
         11    1    1    2    0    0 -0.80068366346E+02  0.91473084680E+02  0.46554899363E+03  0.48115915660E+03  0.51100000000E-03 0. -1.
         22    1    1    2    0    0 -0.10096263246E+02  0.87072866805E+01  0.31777846345E+02  0.34461324571E+02  0.00000000000E+00 0.  1.
          2    1    1    2  501    0  0.90164629591E+02 -0.10018037136E+03  0.48487259838E+03  0.50325659847E+03  0.25500000000E-02 0. -1.
<mgrwt>
<rscale>  0 0.13478044E+03</rscale>
<asrwt>0</asrwt>
<pdfrwt beam="1">  1       11 0.10000000E+01 0.13612676E+03</pdfrwt>
<pdfrwt beam="2">  1        2 0.28228756E-02 0.13478044E+03</pdfrwt>
<totfact> 0.39130325E+03</totfact>
</mgrwt>
</event>
<event>
 5    1  0.2968854E-003  0.2854897E+03  0.7818608E-02  0.1092728E+00
         11   -1    0    0    0    0  0.00000000000E+00  0.00000000000E+00  0.10004113755E+04  0.10004113755E+04  0.51100000000E-03 0. -1.
          2   -1    0    0  501    0 -0.00000000000E+00 -0.00000000000E+00 -0.20789353920E+03  0.20789353921E+03  0.25500000000E-02 0.  1.
         11    1    1    2    0    0 -0.57840480980E+02  0.11466472434E+02  0.22219547242E+02  0.63013566079E+02  0.51100000000E-03 0. -1.
         22    1    1    2    0    0  0.16308769792E+03 -0.27220555320E+03  0.80184216023E+03  0.86234813755E+03  0.00000000000E+00 0. -1.
          2    1    1    2  501    0 -0.10524721694E+03  0.26073908077E+03 -0.31543871126E+02  0.28294321113E+03  0.25500000000E-02 0.  1.
<mgrwt>
<rscale>  0 0.28548968E+03</rscale>
<asrwt>0</asrwt>
<pdfrwt beam="1">  1       11 0.10000000E+01 0.58966132E+02</pdfrwt>
<pdfrwt beam="2">  1        2 0.31996778E-01 0.28548968E+03</pdfrwt>
<totfact> 0.20233866E+02</totfact>
</mgrwt>
</event>
<event>
 5    1  0.2968854E-003  0.9091044E+02  0.7818608E-02  0.1304470E+00
         11   -1    0    0    0    0  0.00000000000E+00  0.00000000000E+00  0.99998154172E+03  0.99998154172E+03  0.51100000000E-03 0. -1.
          2   -1    0    0  501    0 -0.00000000000E+00 -0.00000000000E+00 -0.17502146653E+02  0.17502146838E+02  0.25500000000E-02 0. -1.
         11    1    1    2    0    0 -0.13090156602E+02 -0.73562452178E+02  0.99508113581E+02  0.12443733860E+03  0.51100000000E-03 0. -1.
         22    1    1    2    0    0  0.49879072573E+01 -0.15404310713E+02  0.21295528067E+02  0.26752037736E+02  0.00000000000E+00 0.  1.
          2    1    1    2  501    0  0.81022493446E+01  0.88966762892E+02  0.86167575342E+03  0.86629431222E+03  0.25500000000E-02 0. -1.
<mgrwt>
<rscale>  0 0.89334939E+02</rscale>
<asrwt>0</asrwt>
<pdfrwt beam="1">  1       11 0.10000000E+01 0.90910438E+02</pdfrwt>
<pdfrwt beam="2">  1        2 0.26925882E-02 0.89334939E+02</pdfrwt>
<totfact> 0.39833261E+03</totfact>
</mgrwt>
</event>
<event>
 5    1  0.2968854E-003  0.2756971E+03  0.7818608E-02  0.1100672E+00
         11   -1    0    0    0    0  0.00000000000E+00  0.00000000000E+00  0.10000447103E+04  0.10000447103E+04  0.51100000000E-03 0.  1.
          2   -1    0    0  501    0 -0.00000000000E+00 -0.00000000000E+00 -0.20764845467E+03  0.20764845468E+03  0.25500000000E-02 0.  1.
         11    1    1    2    0    0 -0.29760214129E+02 -0.25491496510E+03  0.79360224583E+03  0.83406944217E+03  0.51100000000E-03 0.  1.
         22    1    1    2    0    0  0.79189364509E+01 -0.15267883521E+02  0.86911137166E+02  0.88596634164E+02  0.00000000000E+00 0. -1.
          2    1    1    2  501    0  0.21841277679E+02  0.27018284862E+03 -0.88117127388E+02  0.28502708862E+03  0.25500000000E-02 0.  1.
<mgrwt>
<rscale>  0 0.27106422E+03</rscale>
<asrwt>0</asrwt>
<pdfrwt beam="1">  1       11 0.10000000E+01 0.27569706E+03</pdfrwt>
<pdfrwt beam="2">  1        2 0.31947343E-01 0.27106422E+03</pdfrwt>
<totfact> 0.20255108E+02</totfact>
</mgrwt>
</event>
<event>
 5    1  0.2968854E-003  0.9326411E+02  0.7818608E-02  0.1295134E+00
         11   -1    0    0    0    0  0.00000000000E+00  0.00000000000E+00  0.10002575419E+04  0.10002575419E+04  0.51100000000E-03 0. -1.
          2   -1    0    0  501    0 -0.00000000000E+00 -0.00000000000E+00 -0.27825231127E+02  0.27825231244E+02  0.25500000000E-02 0. -1.
         11    1    1    2    0    0 -0.55018065594E+02 -0.66645227184E+02  0.91261809378E+02  0.12568727740E+03  0.51100000000E-03 0. -1.
         22    1    1    2    0    0 -0.24585403082E+02 -0.46716200530E+02  0.17590655460E+03  0.18365718442E+03  0.00000000000E+00 0. -1.
          2    1    1    2  501    0  0.79603468676E+02  0.11336142771E+03  0.70526394675E+03  0.71873831129E+03  0.25500000000E-02 0. -1.
<mgrwt>
<rscale>  0 0.93264108E+02</rscale>
<asrwt>0</asrwt>
<pdfrwt beam="1">  1       11 0.10000000E+01 0.52790581E+02</pdfrwt>
<pdfrwt beam="2">  1        2 0.42819072E-02 0.93264108E+02</pdfrwt>
<totfact> 0.21696026E+03</totfact>
</mgrwt>
</event>
<event>
 5    1  0.2968854E-003  0.1482827E+03  0.7818608E-02  0.1212632E+00
         11   -1    0    0    0    0  0.00000000000E+00  0.00000000000E+00  0.10000094955E+04  0.10000094955E+04  0.51100000000E-03 0.  1.
          2   -1    0    0  501    0 -0.00000000000E+00 -0.00000000000E+00 -0.26662309274E+02  0.26662309396E+02  0.25500000000E-02 0.  1.
         11    1    1    2    0    0  0.96603835476E+02  0.85176029435E+02  0.67426537851E+03  0.68645543022E+03  0.51100000000E-03 0.  1.
         22    1    1    2    0    0  0.17782863907E+02 -0.35588926016E+01  0.62219202110E+02  0.64808371963E+02  0.00000000000E+00 0. -1.
          2    1    1    2  501    0 -0.11438669938E+03 -0.81617136834E+02  0.23686260564E+03  0.27540800275E+03  0.25500000000E-02 0.  1.
<mgrwt>
<rscale>  0 0.14051930E+03</rscale>
<asrwt>0</asrwt>
<pdfrwt beam="1">  1       11 0.10000000E+01 0.14828271E+03</pdfrwt>
<pdfrwt beam="2">  1        2 0.41019326E-02 0.14051930E+03</pdfrwt>
<totfact> 0.23844692E+03</totfact>
</mgrwt>
</event>
<event>
 5    1  0.2968854E-003  0.6213005E+02  0.7818608E-02  0.1499614E+00
         11   -1    0    0    0    0  0.00000000000E+00  0.00000000000E+00  0.10001636108E+04  0.10001636108E+04  0.51100000000E-03 0. -1.
          2   -1    0    0  501    0 -0.00000000000E+00 -0.00000000000E+00 -0.68613779360E+01  0.68613784099E+01  0.25500000000E-02 0. -1.
         11    1    1    2    0    0 -0.53057923522E+02 -0.11989625656E+02  0.18242070603E+03  0.19035810558E+03  0.51100000000E-03 0. -1.
         22    1    1    2    0    0 -0.10416018844E+01 -0.27291107188E+02  0.15509668429E+03  0.15748292270E+03  0.00000000000E+00 0. -1.
          2    1    1    2  501    0  0.54099525406E+02  0.39280732843E+02  0.65578484258E+03  0.65918396096E+03  0.25500000000E-02 0. -1.
<mgrwt>
<rscale>  0 0.41192614E+02</rscale>
<asrwt>0</asrwt>
<pdfrwt beam="1">  1       11 0.10000000E+01 0.62130048E+02</pdfrwt>
<pdfrwt beam="2">  1        2 0.10557693E-02 0.41192614E+02</pdfrwt>
<totfact> 0.12367566E+04</totfact>
</mgrwt>
</event>
<event>
 5    1  0.2968854E-003  0.3128287E+03  0.7818608E-02  0.1079873E+00
         11   -1    0    0    0    0  0.00000000000E+00  0.00000000000E+00  0.10001721023E+04  0.10001721023E+04  0.51100000000E-03 0.  1.
          2   -1    0    0  501    0 -0.00000000000E+00 -0.00000000000E+00 -0.68026411370E+03  0.68026411371E+03  0.25500000000E-02 0.  1.
         11    1    1    2    0    0 -0.23994735490E+03  0.16013247133E+03  0.87188608013E+03  0.91836946717E+03  0.51100000000E-03 0.  1.
         22    1    1    2    0    0 -0.13425696170E+02  0.20188007335E+02  0.65966093382E+02  0.70280370189E+02  0.00000000000E+00 0. -1.
          2    1    1    2  501    0  0.25337305107E+03 -0.18032047866E+03 -0.61794418491E+03  0.69178637866E+03  0.25500000000E-02 0.  1.
<mgrwt>
<rscale>  0 0.31098775E+03</rscale>
<asrwt>0</asrwt>
<pdfrwt beam="1">  1       11 0.10000000E+01 0.31282871E+03</pdfrwt>
<pdfrwt beam="2">  1        2 0.10467403E+00 0.31098775E+03</pdfrwt>
<totfact> 0.53984403E+01</totfact>
</mgrwt>
</event>
<event>
 5    1  0.2968854E-003  0.2085223E+03  0.7818608E-02  0.1143797E+00
         11   -1    0    0    0    0  0.00000000000E+00  0.00000000000E+00  0.10000665009E+04  0.10000665009E+04  0.51100000000E-03 0. -1.
          2   -1    0    0  501    0 -0.00000000000E+00 -0.00000000000E+00 -0.15236373819E+03  0.15236373821E+03  0.25500000000E-02 0.  1.
         11    1    1    2    0    0 -0.26413197546E+02 -0.19605189094E+03  0.85963999703E+03  0.88210822773E+03  0.51100000000E-03 0. -1.
         22    1    1    2    0    0 -0.62959664372E+01 -0.85572090805E+01  0.52314087809E+02  0.53381914578E+02  0.00000000000E+00 0. -1.
          2    1    1    2  501    0  0.32709163984E+02  0.20460910002E+03 -0.64251322094E+02  0.21694009684E+03  0.25500000000E-02 0.  1.
<mgrwt>
<rscale>  0 0.20720708E+03</rscale>
<asrwt>0</asrwt>
<pdfrwt beam="1">  1       11 0.10000000E+01 0.20852231E+03</pdfrwt>
<pdfrwt beam="2">  1        2 0.23442133E-01 0.20720708E+03</pdfrwt>
<totfact> 0.28427226E+02</totfact>
</mgrwt>
</event>
<event>
 5    1  0.2968854E-003  0.1610123E+03  0.7818608E-02  0.1187559E+00
         11   -1    0    0    0    0  0.00000000000E+00  0.00000000000E+00  0.10000552780E+04  0.10000552780E+04  0.51100000000E-03 0. -1.
          2   -1    0    0  501    0 -0.00000000000E+00 -0.00000000000E+00 -0.78167505571E+03  0.78167505571E+03  0.25500000000E-02 0. -1.
         11    1    1    2    0    0 -0.76037738451E+02 -0.17523364020E+03  0.76135462440E+03  0.78495186504E+03  0.51100000000E-03 0. -1.
         22    1    1    2    0    0  0.34646835362E+02  0.19946530151E+02  0.21666651256E+03  0.22032395451E+03  0.00000000000E+00 0. -1.
          2    1    1    2  501    0  0.41390903089E+02  0.15528711005E+03 -0.75964091464E+03  0.77645451419E+03  0.25500000000E-02 0. -1.
<mgrwt>
<rscale>  0 0.16101231E+03</rscale>
<asrwt>0</asrwt>
<pdfrwt beam="1">  1       11 0.10000000E+01 0.39978335E+02</pdfrwt>
<pdfrwt beam="2">  1        2 0.12026435E+00 0.16101231E+03</pdfrwt>
<totfact> 0.46491307E+01</totfact>
</mgrwt>
</event>
<event>
 5    1  0.2968854E-003  0.8538696E+02  0.7818608E-02  0.1319723E+00
         11   -1    0    0    0    0  0.00000000000E+00  0.00000000000E+00  0.99994220372E+03  0.99994220372E+03  0.51100000000E-03 0.  1.
         -2   -1    0    0    0  501 -0.00000000000E+00 -0.00000000000E+00 -0.76343357161E+01  0.76343361420E+01  0.25500000000E-02 0.  1.
         11    1    1    2    0    0  0.61008398802E+02 -0.11063098539E+02  0.28631453171E+03  0.29295123817E+03  0.51100000000E-03 0.  1.
         22    1    1    2    0    0  0.22211759701E+02  0.58971411379E+01  0.84715965390E+02  0.87777749655E+02  0.00000000000E+00 0.  1.
         -2    1    1    2    0  501 -0.83220158503E+02  0.51659574011E+01  0.62127737090E+03  0.62684755204E+03  0.25500000000E-02 0.  1.
<mgrwt>
<rscale>  0 0.83380345E+02</rscale>
<asrwt>0</asrwt>
<pdfrwt beam="1">  1       11 0.10000000E+01 0.85386957E+02</pdfrwt>
<pdfrwt beam="2">  1       -2 0.11744453E-02 0.83380345E+02</pdfrwt>
<totfact> 0.11423759E+04</totfact>
</mgrwt>
</event>
<event>
 5    1  0.2968854E-003  0.1381107E+03  0.7818608E-02  0.1222108E+00
         11   -1    0    0    0    0  0.00000000000E+00  0.00000000000E+00  0.10000188155E+04  0.10000188155E+04  0.51100000000E-03 0. -1.
          2   -1    0    0  501    0 -0.00000000000E+00 -0.00000000000E+00 -0.21449962766E+02  0.21449962918E+02  0.25500000000E-02 0. -1.
         11    1    1    2    0    0  0.13383795726E+02  0.11204813054E+03  0.54777087929E+03  0.55927349816E+03  0.51100000000E-03 0. -1.
         22    1    1    2    0    0 -0.12741301681E+02  0.21621265923E+02  0.13886650661E+03  0.14111600394E+03  0.00000000000E+00 0.  1.
          2    1    1    2  501    0 -0.64249404450E+00 -0.13366939647E+03  0.29193146686E+03  0.32107927634E+03  0.25500000000E-02 0. -1.
<mgrwt>
<rscale>  0 0.13367094E+03</rscale>
<asrwt>0</asrwt>
<pdfrwt beam="1">  1       11 0.10000000E+01 0.13811066E+03</pdfrwt>
<pdfrwt beam="2">  1        2 0.33000563E-02 0.13367094E+03</pdfrwt>
<totfact> 0.31702066E+03</totfact>
</mgrwt>
</event>
<event>
 5    1  0.2968854E-003  0.7915968E+02  0.7818608E-02  0.1346708E+00
         11   -1    0    0    0    0  0.00000000000E+00  0.00000000000E+00  0.99994341393E+03  0.99994341393E+03  0.51100000000E-03 0.  1.
         -2   -1    0    0    0  501 -0.00000000000E+00 -0.00000000000E+00 -0.73736703200E+01  0.73736707609E+01  0.25500000000E-02 0.  1.
         11    1    1    2    0    0  0.34994439166E+02  0.82933324510E+01  0.10760435138E+03  0.11345521835E+03  0.51100000000E-03 0.  1.
         22    1    1    2    0    0  0.26665985978E+02  0.32786173891E+02  0.17454407357E+03  0.17958742057E+03  0.00000000000E+00 0.  1.
         -2    1    1    2    0  501 -0.61660425144E+02 -0.41079506342E+02  0.71042131866E+03  0.71427444577E+03  0.25500000000E-02 0.  1.
<mgrwt>
<rscale>  0 0.74091389E+02</rscale>
<asrwt>0</asrwt>
<pdfrwt beam="1">  1       11 0.10000000E+01 0.79159677E+02</pdfrwt>
<pdfrwt beam="2">  1       -2 0.11343466E-02 0.74091389E+02</pdfrwt>
<totfact> 0.11771989E+04</totfact>
</mgrwt>
</event>
<event>
 5    1  0.2968854E-003  0.1287581E+03  0.7818608E-02  0.1511691E+00
         11   -1    0    0    0    0  0.00000000000E+00  0.00000000000E+00  0.10000071398E+04  0.10000071398E+04  0.51100000000E-03 0.  1.
          2   -1    0    0  501    0 -0.00000000000E+00 -0.00000000000E+00 -0.69026057856E+03  0.69026057856E+03  0.25500000000E-02 0.  1.
         11    1    1    2    0    0 -0.95066320816E+02 -0.10684278518E+03  0.60521591145E+03  0.62188365919E+03  0.51100000000E-03 0.  1.
         22    1    1    2    0    0  0.55954157023E+02  0.10110360726E+03  0.37722614904E+03  0.39452804034E+03  0.00000000000E+00 0. -1.
          2    1    1    2  501    0  0.39112163794E+02  0.57391779191E+01 -0.67269549921E+03  0.67385601888E+03  0.25500000000E-02 0.  1.
<mgrwt>
<rscale>  0 0.39530995E+02</rscale>
<asrwt>0</asrwt>
<pdfrwt beam="1">  1       11 0.10000000E+01 0.12875810E+03</pdfrwt>
<pdfrwt beam="2">  1        2 0.10619469E+00 0.39530995E+02</pdfrwt>
<totfact> 0.56346466E+01</totfact>
</mgrwt>
</event>
<event>
 5    1  0.2968854E-003  0.2045317E+03  0.7818608E-02  0.1145971E+00
         11   -1    0    0    0    0  0.00000000000E+00  0.00000000000E+00  0.10002901819E+04  0.10002901819E+04  0.51100000000E-03 0. -1.
          2   -1    0    0  501    0 -0.00000000000E+00 -0.00000000000E+00 -0.44272254529E+02  0.44272254602E+02  0.25500000000E-02 0. -1.
         11    1    1    2    0    0 -0.19420706451E+03  0.62527719730E+02  0.49044889506E+03  0.53119320242E+03  0.51100000000E-03 0. -1.
         22    1    1    2    0    0  0.26426691450E+01  0.10840922477E+02  0.25821311191E+02  0.28129155905E+02  0.00000000000E+00 0.  1.
          2    1    1    2  501    0  0.19156439536E+03 -0.73368642206E+02  0.43974772116E+03  0.48524007821E+03  0.25500000000E-02 0. -1.
<mgrwt>
<rscale>  0 0.20453167E+03</rscale>
<asrwt>0</asrwt>
<pdfrwt beam="1">  1       11 0.10000000E+01 0.11158374E+02</pdfrwt>
<pdfrwt beam="2">  1        2 0.68130924E-02 0.20453167E+03</pdfrwt>
<totfact> 0.12636695E+03</totfact>
</mgrwt>
</event>
<event>
 5    1  0.2968854E-003  0.1857265E+03  0.7818608E-02  0.1448283E+00
         11   -1    0    0    0    0  0.00000000000E+00  0.00000000000E+00  0.10003046132E+04  0.10003046132E+04  0.51100000000E-03 0. -1.
          2   -1    0    0  501    0 -0.00000000000E+00 -0.00000000000E+00 -0.37558965948E+02  0.37558966035E+02  0.25500000000E-02 0. -1.
         11    1    1    2    0    0 -0.86689844714E+02  0.16226631194E+03  0.51613112771E+03  0.54793870657E+03  0.51100000000E-03 0. -1.
         22    1    1    2    0    0  0.93427165289E+01  0.92835460488E+01  0.26651706528E+02  0.29728505517E+02  0.00000000000E+00 0.  1.
          2    1    1    2  501    0  0.77347128185E+02 -0.17154985799E+03  0.41996281302E+03  0.46019636716E+03  0.25500000000E-02 0. -1.
<mgrwt>
<rscale>  0 0.49458778E+02</rscale>
<asrwt>0</asrwt>
<pdfrwt beam="1">  1       11 0.10000000E+01 0.18572649E+03</pdfrwt>
<pdfrwt beam="2">  1        2 0.57800624E-02 0.49458778E+02</pdfrwt>
<totfact> 0.13893773E+03</totfact>
</mgrwt>
</event>
<event>
 5    1  0.2968854E-003  0.7192971E+03  0.7818608E-02  0.9869034E-01
         11   -1    0    0    0    0  0.00000000000E+00  0.00000000000E+00  0.10007774741E+04  0.10007774741E+04  0.51100000000E-03 0.  1.
          2   -1    0    0  501    0 -0.00000000000E+00 -0.00000000000E+00 -0.31837133955E+04  0.31837133955E+04  0.25500000000E-02 0.  1.
         11    1    1    2    0    0  0.83238478853E+03 -0.32814388877E+03 -0.20430054078E+04  0.22303394235E+04  0.51100000000E-03 0.  1.
         22    1    1    2    0    0 -0.13817568400E+03  0.51242168877E+03 -0.81229344893E+03  0.97030364007E+03  0.00000000000E+00 0.  1.
          2    1    1    2  501    0 -0.69420910454E+03 -0.18427780000E+03  0.67236293541E+03  0.98384780597E+03  0.25500000000E-02 0.  1.
<mgrwt>
<rscale>  0 0.61785791E+03</rscale>
<asrwt>0</asrwt>
<pdfrwt beam="1">  1       11 0.10000000E+01 0.71929708E+03</pdfrwt>
<pdfrwt beam="2">  1        2 0.49018286E+00 0.61785791E+03</pdfrwt>
<totfact> 0.17890622E+00</totfact>
</mgrwt>
</event>
<event>
 5    1  0.2968854E-003  0.8317204E+02  0.7818608E-02  0.1327415E+00
         11   -1    0    0    0    0  0.00000000000E+00  0.00000000000E+00  0.10001622514E+04  0.10001622514E+04  0.51100000000E-03 0.  1.
          2   -1    0    0  501    0 -0.00000000000E+00 -0.00000000000E+00 -0.67600514538E+01  0.67600519348E+01  0.25500000000E-02 0.  1.
         11    1    1    2    0    0 -0.57891640561E+02  0.41205482321E+02  0.40052587444E+03  0.40678041978E+03  0.51100000000E-03 0.  1.
         22    1    1    2    0    0 -0.29616704941E+01  0.11614290984E+02  0.57545960847E+02  0.58780956584E+02  0.00000000000E+00 0.  1.
          2    1    1    2  501    0  0.60853311055E+02 -0.52819773304E+02  0.53533036469E+03  0.54136092700E+03  0.25500000000E-02 0.  1.
<mgrwt>
<rscale>  0 0.80579488E+02</rscale>
<asrwt>0</asrwt>
<pdfrwt beam="1">  1       11 0.10000000E+01 0.83172044E+02</pdfrwt>
<pdfrwt beam="2">  1        2 0.10401767E-02 0.80579488E+02</pdfrwt>
<totfact> 0.14191634E+04</totfact>
</mgrwt>
</event>
<event>
 5    1  0.2968854E-003  0.4538562E+03  0.7818608E-02  0.1042656E+00
         11   -1    0    0    0    0  0.00000000000E+00  0.00000000000E+00  0.99995571400E+03  0.99995571400E+03  0.51100000000E-03 0.  1.
          2   -1    0    0  501    0 -0.00000000000E+00 -0.00000000000E+00 -0.20155232265E+03  0.20155232267E+03  0.25500000000E-02 0.  1.
         11    1    1    2    0    0  0.50822756784E+02  0.20953352065E+03  0.21464108013E+03  0.30423353228E+03  0.51100000000E-03 0.  1.
         22    1    1    2    0    0 -0.13460733649E+03  0.18492767369E+03  0.38469018274E+03  0.44755325519E+03  0.00000000000E+00 0.  1.
          2    1    1    2  501    0  0.83784579702E+02 -0.39446119434E+03  0.19907212849E+03  0.44972124920E+03  0.25500000000E-02 0.  1.
<mgrwt>
<rscale>  0 0.40326107E+03</rscale>
<asrwt>0</asrwt>
<pdfrwt beam="1">  1       11 0.10000000E+01 0.45385616E+03</pdfrwt>
<pdfrwt beam="2">  1        2 0.31006676E-01 0.40326107E+03</pdfrwt>
<totfact> 0.21035185E+02</totfact>
</mgrwt>
</event>
<event>
 5    1  0.2968854E-003  0.1188335E+03  0.7818608E-02  0.1575826E+00
         11   -1    0    0    0    0  0.00000000000E+00  0.00000000000E+00  0.99998750964E+03  0.99998750964E+03  0.51100000000E-03 0.  1.
          2   -1    0    0  501    0 -0.00000000000E+00 -0.00000000000E+00 -0.27986151230E+02  0.27986151347E+02  0.25500000000E-02 0.  1.
         11    1    1    2    0    0 -0.11334314285E+03  0.52650633554E+02  0.58951875522E+03  0.60262021208E+03  0.51100000000E-03 0.  1.
         22    1    1    2    0    0  0.87489839173E+02 -0.71701928373E+02  0.37592640806E+03  0.39257649289E+03  0.00000000000E+00 0.  1.
          2    1    1    2  501    0  0.25853303675E+02  0.19051294818E+02  0.65561951289E+01  0.32776956024E+02  0.25500000000E-02 0.  1.
<mgrwt>
<rscale>  0 0.32114563E+02</rscale>
<asrwt>0</asrwt>
<pdfrwt beam="1">  1       11 0.10000000E+01 0.11883353E+03</pdfrwt>
<pdfrwt beam="2">  1        2 0.43055078E-02 0.32114563E+02</pdfrwt>
<totfact> 0.19124885E+03</totfact>
</mgrwt>
</event>
<event>
 5    1  0.2968854E-003  0.1812695E+03  0.7818608E-02  0.1647813E+00
         11   -1    0    0    0    0  0.00000000000E+00  0.00000000000E+00  0.10000937232E+04  0.10000937232E+04  0.51100000000E-03 0.  1.
          2   -1    0    0  501    0 -0.00000000000E+00 -0.00000000000E+00 -0.38265655010E+03  0.38265655011E+03  0.25500000000E-02 0.  1.
         11    1    1    2    0    0 -0.14156868363E+03  0.92655700408E+02  0.41772243963E+03  0.45068703950E+03  0.51100000000E-03 0.  1.
         22    1    1    2    0    0  0.16700565530E+03 -0.97755608988E+02  0.54885016539E+03  0.58196524985E+03  0.00000000000E+00 0.  1.
          2    1    1    2  501    0 -0.25436971673E+02  0.50999085806E+01 -0.34913543188E+03  0.35009798399E+03  0.25500000000E-02 0.  1.
<mgrwt>
<rscale>  0 0.25943180E+02</rscale>
<asrwt>0</asrwt>
<pdfrwt beam="1">  1       11 0.10000000E+01 0.18126952E+03</pdfrwt>
<pdfrwt beam="2">  1        2 0.58875754E-01 0.25943180E+02</pdfrwt>
<totfact> 0.10453944E+02</totfact>
</mgrwt>
</event>
<event>
 5    1  0.2968854E-003  0.1421533E+03  0.7818608E-02  0.1210461E+00
         11   -1    0    0    0    0  0.00000000000E+00  0.00000000000E+00  0.10000561402E+04  0.10000561402E+04  0.51100000000E-03 0. -1.
          2   -1    0    0  501    0 -0.00000000000E+00 -0.00000000000E+00 -0.40389338062E+02  0.40389338143E+02  0.25500000000E-02 0. -1.
         11    1    1    2    0    0  0.61361212675E+02  0.54339866199E+02  0.23504966031E+03  0.24893043665E+03  0.51100000000E-03 0. -1.
         22    1    1    2    0    0  0.11612018701E+03 -0.61123935811E+02  0.21553856221E+03  0.25234283259E+03  0.00000000000E+00 0. -1.
          2    1    1    2  501    0 -0.17748139969E+03  0.67840696125E+01  0.50907857965E+03  0.53917220913E+03  0.25500000000E-02 0. -1.
<mgrwt>
<rscale>  0 0.14215327E+03</rscale>
<asrwt>0</asrwt>
<pdfrwt beam="1">  1       11 0.10000000E+01 0.81963525E+02</pdfrwt>
<pdfrwt beam="2">  1        2 0.62140930E-02 0.14215327E+03</pdfrwt>
<totfact> 0.13876566E+03</totfact>
</mgrwt>
</event>
<event>
 5    1  0.2968854E-003  0.4128362E+03  0.7818608E-02  0.1039423E+00
         11   -1    0    0    0    0  0.00000000000E+00  0.00000000000E+00  0.10001750007E+04  0.10001750007E+04  0.51100000000E-03 0. -1.
          2   -1    0    0  501    0 -0.00000000000E+00 -0.00000000000E+00 -0.32525396030E+03  0.32525396031E+03  0.25500000000E-02 0. -1.
         11    1    1    2    0    0  0.35564474981E+03  0.23546777383E+03  0.64361105345E+03  0.77211621451E+03  0.51100000000E-03 0. -1.
         22    1    1    2    0    0 -0.53741897190E+02  0.42869675137E+02  0.11524534104E+03  0.13419198632E+03  0.00000000000E+00 0. -1.
          2    1    1    2  501    0 -0.30190285262E+03 -0.27833744896E+03 -0.83935354122E+02  0.41912076015E+03  0.25500000000E-02 0. -1.
<mgrwt>
<rscale>  0 0.41283625E+03</rscale>
<asrwt>0</asrwt>
<pdfrwt beam="1">  1       11 0.10000000E+01 0.68745913E+02</pdfrwt>
<pdfrwt beam="2">  1        2 0.50047826E-01 0.41283625E+03</pdfrwt>
<totfact> 0.12421550E+02</totfact>
</mgrwt>
</event>
<event>
 5    1  0.2968854E-003  0.3028127E+03  0.7818608E-02  0.1089167E+00
         11   -1    0    0    0    0  0.00000000000E+00  0.00000000000E+00  0.99991749335E+03  0.99991749335E+03  0.51100000000E-03 0.  1.
         -2   -1    0    0    0  501 -0.00000000000E+00 -0.00000000000E+00 -0.79762434854E+03  0.79762434854E+03  0.25500000000E-02 0. -1.
         11    1    1    2    0    0  0.12712345599E+02  0.65023330982E+02  0.13449945172E+03  0.14993245085E+03  0.51100000000E-03 0.  1.
         22    1    1    2    0    0  0.12208182922E+03  0.19431322293E+03  0.81425142418E+03  0.84597102989E+03  0.00000000000E+00 0.  1.
         -2    1    1    2    0  501 -0.13479417482E+03 -0.25933655391E+03 -0.74645773109E+03  0.80163836115E+03  0.25500000000E-02 0. -1.
<mgrwt>
<rscale>  0 0.29227541E+03</rscale>
<asrwt>0</asrwt>
<pdfrwt beam="1">  1       11 0.10000000E+01 0.30281268E+03</pdfrwt>
<pdfrwt beam="2">  1       -2 0.12270131E+00 0.29227541E+03</pdfrwt>
<totfact> 0.42643913E+00</totfact>
</mgrwt>
</event>
<event>
 5    1  0.2968854E-003  0.9825995E+02  0.7818608E-02  0.1292821E+00
         11   -1    0    0    0    0  0.00000000000E+00  0.00000000000E+00  0.10002698343E+04  0.10002698343E+04  0.51100000000E-03 0.  1.
          2   -1    0    0  501    0 -0.00000000000E+00 -0.00000000000E+00 -0.10160272322E+02  0.10160272642E+02  0.25500000000E-02 0.  1.
         11    1    1    2    0    0  0.28934251989E+02  0.81902903497E+02  0.31745225370E+03  0.32912187700E+03  0.51100000000E-03 0.  1.
         22    1    1    2    0    0  0.10745739882E+02  0.36131305377E+01  0.36991550392E+02  0.38689797600E+02  0.00000000000E+00 0.  1.
          2    1    1    2  501    0 -0.39679991872E+02 -0.85516034035E+02  0.63566575786E+03  0.64261843231E+03  0.25500000000E-02 0.  1.
<mgrwt>
<rscale>  0 0.94273505E+02</rscale>
<asrwt>0</asrwt>
<pdfrwt beam="1">  1       11 0.10000000E+01 0.98259950E+02</pdfrwt>
<pdfrwt beam="2">  1        2 0.15635406E-02 0.94273505E+02</pdfrwt>
<totfact> 0.83417646E+03</totfact>
</mgrwt>
</event>
<event>
 5    1  0.2968854E-003  0.8404713E+02  0.7818608E-02  0.1324093E+00
         11   -1    0    0    0    0  0.00000000000E+00  0.00000000000E+00  0.10001819745E+04  0.10001819745E+04  0.51100000000E-03 0. -1.
          2   -1    0    0  501    0 -0.00000000000E+00 -0.00000000000E+00 -0.74462393305E+01  0.74462397672E+01  0.25500000000E-02 0. -1.
         11    1    1    2    0    0  0.28411672269E+02  0.48727890482E+02  0.23362291621E+03  0.24033580135E+03  0.51100000000E-03 0. -1.
         22    1    1    2    0    0  0.12607335279E+01  0.27472046950E+02  0.12923390684E+03  0.13212761062E+03  0.00000000000E+00 0. -1.
          2    1    1    2  501    0 -0.29672405797E+02 -0.76199937432E+02  0.62987891216E+03  0.63516480233E+03  0.25500000000E-02 0. -1.
<mgrwt>
<rscale>  0 0.81773358E+02</rscale>
<asrwt>0</asrwt>
<pdfrwt beam="1">  1       11 0.10000000E+01 0.84047125E+02</pdfrwt>
<pdfrwt beam="2">  1        2 0.11457837E-02 0.81773358E+02</pdfrwt>
<totfact> 0.12468896E+04</totfact>
</mgrwt>
</event>
<event>
 5    1  0.2968854E-003  0.7344084E+03  0.7818608E-02  0.9749651E-01
         11   -1    0    0    0    0  0.00000000000E+00  0.00000000000E+00  0.10003854054E+04  0.10003854054E+04  0.51100000000E-03 0.  1.
          2   -1    0    0  501    0 -0.00000000000E+00 -0.00000000000E+00 -0.87445110255E+03  0.87445110256E+03  0.25500000000E-02 0.  1.
         11    1    1    2    0    0 -0.54951931255E+03  0.71534157225E+02  0.38505801976E+03  0.67480240745E+03  0.51100000000E-03 0.  1.
         22    1    1    2    0    0 -0.11428788349E+03  0.82127048736E+02  0.29169814680E+03  0.32387402072E+03  0.00000000000E+00 0.  1.
          2    1    1    2  501    0  0.66380719604E+03 -0.15366120596E+03 -0.55082186376E+03  0.87616007974E+03  0.25500000000E-02 0.  1.
<mgrwt>
<rscale>  0 0.68136023E+03</rscale>
<asrwt>0</asrwt>
<pdfrwt beam="1">  1       11 0.10000000E+01 0.73440840E+03</pdfrwt>
<pdfrwt beam="2">  1        2 0.13458278E+00 0.68136023E+03</pdfrwt>
<totfact> 0.38027683E+01</totfact>
</mgrwt>
</event>
<event>
 5    1  0.2968854E-003  0.1408380E+03  0.7818608E-02  0.1622779E+00
         11   -1    0    0    0    0  0.00000000000E+00  0.00000000000E+00  0.10005875286E+04  0.10005875286E+04  0.51100000000E-03 0. -1.
          2   -1    0    0  501    0 -0.00000000000E+00 -0.00000000000E+00 -0.10793374730E+04  0.10793374730E+04  0.25500000000E-02 0. -1.
         11    1    1    2    0    0 -0.12489180801E+03  0.18160316075E+02  0.35698458936E+03  0.37863670956E+03  0.51100000000E-03 0. -1.
         22    1    1    2    0    0  0.15266625512E+03 -0.15737058644E+02  0.62328465784E+03  0.64190217726E+03  0.00000000000E+00 0. -1.
          2    1    1    2  501    0 -0.27774447112E+02 -0.24232574304E+01 -0.10590191916E+04  0.10593861148E+04  0.25500000000E-02 0. -1.
<mgrwt>
<rscale>  0 0.27879959E+02</rscale>
<asrwt>0</asrwt>
<pdfrwt beam="1">  1       11 0.10000000E+01 0.14083803E+03</pdfrwt>
<pdfrwt beam="2">  1        2 0.16614947E+00 0.27879959E+02</pdfrwt>
<totfact> 0.33421125E+01</totfact>
</mgrwt>
</event>
<event>
 5    1  0.2968854E-003  0.5527229E+02  0.7818608E-02  0.1425849E+00
         11   -1    0    0    0    0  0.00000000000E+00  0.00000000000E+00  0.10002095991E+04  0.10002095991E+04  0.51100000000E-03 0.  1.
          2   -1    0    0  501    0 -0.00000000000E+00 -0.00000000000E+00 -0.12294087044E+02  0.12294087309E+02  0.25500000000E-02 0.  1.
         11    1    1    2    0    0 -0.28037172228E+02 -0.84708588619E+01  0.21104012362E+02  0.36100108233E+02  0.51100000000E-03 0.  1.
         22    1    1    2    0    0 -0.24294613755E+02 -0.40218379862E+01  0.33679683439E+02  0.41721990782E+02  0.00000000000E+00 0.  1.
          2    1    1    2  501    0  0.52331785983E+02  0.12492696848E+02  0.93313181624E+03  0.93468158738E+03  0.25500000000E-02 0.  1.
<mgrwt>
<rscale>  0 0.53802261E+02</rscale>
<asrwt>0</asrwt>
<pdfrwt beam="1">  1       11 0.10000000E+01 0.55272288E+02</pdfrwt>
<pdfrwt beam="2">  1        2 0.18917944E-02 0.53802261E+02</pdfrwt>
<totfact> 0.59556582E+03</totfact>
</mgrwt>
</event>
<event>
 5    1  0.2968854E-003  0.4027518E+02  0.7818608E-02  0.1708925E+00
         11   -1    0    0    0    0  0.00000000000E+00  0.00000000000E+00  0.10003209847E+04  0.10003209847E+04  0.51100000000E-03 0. -1.
          2   -1    0    0  501    0 -0.00000000000E+00 -0.00000000000E+00 -0.32788192900E+01  0.32788202816E+01  0.25500000000E-02 0. -1.
         11    1    1    2    0    0 -0.74223647835E+01 -0.38064418687E+02  0.19030901469E+03  0.19422026810E+03  0.51100000000E-03 0. -1.
         22    1    1    2    0    0  0.11644509369E+02 -0.27934528963E+01  0.45833617398E+02  0.47372127473E+02  0.00000000000E+00 0. -1.
          2    1    1    2  501    0 -0.42221445854E+01  0.40857871583E+02  0.76089953331E+03  0.76200740939E+03  0.25500000000E-02 0. -1.
<mgrwt>
<rscale>  0 0.21961115E+02</rscale>
<asrwt>0</asrwt>
<pdfrwt beam="1">  1       11 0.10000000E+01 0.40275179E+02</pdfrwt>
<pdfrwt beam="2">  1        2 0.50459571E-03 0.21961115E+02</pdfrwt>
<totfact> 0.28461219E+04</totfact>
</mgrwt>
</event>
<event>
 5    1  0.2968854E-003  0.1660223E+03  0.7818608E-02  0.1189566E+00
         11   -1    0    0    0    0  0.00000000000E+00  0.00000000000E+00  0.10002496422E+04  0.10002496422E+04  0.51100000000E-03 0. -1.
          2   -1    0    0  501    0 -0.00000000000E+00 -0.00000000000E+00 -0.35090615534E+02  0.35090615627E+02  0.25500000000E-02 0. -1.
         11    1    1    2    0    0  0.21900683272E+02  0.48263359091E+02  0.18023263183E+03  0.18786376269E+03  0.51100000000E-03 0. -1.
         22    1    1    2    0    0  0.85727491156E+02  0.69086746833E+02  0.56690938416E+03  0.57750188846E+03  0.00000000000E+00 0. -1.
          2    1    1    2  501    0 -0.10762817443E+03 -0.11735010592E+03  0.21801701065E+03  0.26997460664E+03  0.25500000000E-02 0. -1.
<mgrwt>
<rscale>  0 0.15923213E+03</rscale>
<asrwt>0</asrwt>
<pdfrwt beam="1">  1       11 0.10000000E+01 0.16602225E+03</pdfrwt>
<pdfrwt beam="2">  1        2 0.53999038E-02 0.15923213E+03</pdfrwt>
<totfact> 0.16786750E+03</totfact>
</mgrwt>
</event>
<event>
 5    1  0.2968854E-003  0.4877401E+03  0.7818608E-02  0.1018892E+00
         11   -1    0    0    0    0  0.00000000000E+00  0.00000000000E+00  0.10003735932E+04  0.10003735932E+04  0.51100000000E-03 0.  1.
          2   -1    0    0  501    0 -0.00000000000E+00 -0.00000000000E+00 -0.98181542580E+03  0.98181542580E+03  0.25500000000E-02 0.  1.
         11    1    1    2    0    0 -0.39786239421E+03 -0.93970545924E+02  0.79343467318E+03  0.89256009817E+03  0.51100000000E-03 0.  1.
         22    1    1    2    0    0 -0.71807900658E+02 -0.92788481568E+01  0.80545031958E+02  0.10830500355E+03  0.00000000000E+00 0. -1.
          2    1    1    2  501    0  0.46967029487E+03  0.10324939408E+03 -0.85542153778E+03  0.98132391725E+03  0.25500000000E-02 0.  1.
<mgrwt>
<rscale>  0 0.48088525E+03</rscale>
<asrwt>0</asrwt>
<pdfrwt beam="1">  1       11 0.10000000E+01 0.48774012E+03</pdfrwt>
<pdfrwt beam="2">  1        2 0.15110495E+00 0.48088525E+03</pdfrwt>
<totfact> 0.32809025E+01</totfact>
</mgrwt>
</event>
<event>
 5    1  0.2968854E-003  0.1115544E+03  0.7818608E-02  0.1257718E+00
         11   -1    0    0    0    0  0.00000000000E+00  0.00000000000E+00  0.10002005858E+04  0.10002005858E+04  0.51100000000E-03 0. -1.
          2   -1    0    0  501    0 -0.00000000000E+00 -0.00000000000E+00 -0.16324572591E+02  0.16324572790E+02  0.25500000000E-02 0. -1.
         11    1    1    2    0    0  0.10571034464E+03 -0.34881226249E+01  0.34411295704E+03  0.36000079328E+03  0.51100000000E-03 0. -1.
         22    1    1    2    0    0  0.12888579828E+02 -0.22538999272E+02  0.11658698618E+03  0.11944307148E+03  0.00000000000E+00 0. -1.
          2    1    1    2  501    0 -0.11859892447E+03  0.26027121897E+02  0.52317607004E+03  0.53708129388E+03  0.25500000000E-02 0. -1.
<mgrwt>
<rscale>  0 0.11155444E+03</rscale>
<asrwt>0</asrwt>
<pdfrwt beam="1">  1       11 0.10000000E+01 0.25963859E+02</pdfrwt>
<pdfrwt beam="2">  1        2 0.25119764E-02 0.11155444E+03</pdfrwt>
<totfact> 0.44854315E+03</totfact>
</mgrwt>
</event>
<event>
 5    1  0.2968854E-003  0.3972896E+03  0.7818608E-02  0.1050615E+00
         11   -1    0    0    0    0  0.00000000000E+00  0.00000000000E+00  0.10004958446E+04  0.10004958446E+04  0.51100000000E-03 0.  1.
         -2   -1    0    0    0  501 -0.00000000000E+00 -0.00000000000E+00 -0.52051520147E+03  0.52051520147E+03  0.25500000000E-02 0. -1.
         11    1    1    2    0    0  0.15434354898E+03  0.20933488784E+03  0.71797868774E+03  0.76363369649E+03  0.51100000000E-03 0.  1.
         22    1    1    2    0    0  0.73881186034E+02  0.95577382288E+02  0.16394670682E+03  0.20364672433E+03  0.00000000000E+00 0.  1.
         -2    1    1    2    0  501 -0.22822473501E+03 -0.30491227013E+03 -0.40194475142E+03  0.55373062525E+03  0.25500000000E-02 0. -1.
<mgrwt>
<rscale>  0 0.38086483E+03</rscale>
<asrwt>0</asrwt>
<pdfrwt beam="1">  1       11 0.10000000E+01 0.39728958E+03</pdfrwt>
<pdfrwt beam="2">  1       -2 0.80118966E-01 0.38086483E+03</pdfrwt>
<totfact> 0.11439940E+01</totfact>
</mgrwt>
</event>
<event>
 5    1  0.2968854E-003  0.1024089E+03  0.7818608E-02  0.1275310E+00
         11   -1    0    0    0    0  0.00000000000E+00  0.00000000000E+00  0.10001203435E+04  0.10001203435E+04  0.51100000000E-03 0.  1.
         -2   -1    0    0    0  501 -0.00000000000E+00 -0.00000000000E+00 -0.45385528129E+02  0.45385528201E+02  0.25500000000E-02 0. -1.
         11    1    1    2    0    0  0.11823667789E+02 -0.75831716074E+02  0.28022531208E+03  0.29054513214E+03  0.51100000000E-03 0.  1.
         22    1    1    2    0    0 -0.70348466318E+02  0.15079980497E+03  0.62688866814E+03  0.64859763347E+03  0.00000000000E+00 0.  1.
         -2    1    1    2    0  501  0.58524798528E+02 -0.74968088891E+02  0.47620835185E+02  0.10636310613E+03  0.25500000000E-02 0. -1.
<mgrwt>
<rscale>  0 0.10240889E+03</rscale>
<asrwt>0</asrwt>
<pdfrwt beam="1">  1       11 0.10000000E+01 0.76747953E+02</pdfrwt>
<pdfrwt beam="2">  1       -2 0.69832290E-02 0.10240889E+03</pdfrwt>
<totfact> 0.87122097E+02</totfact>
</mgrwt>
</event>
<event>
 5    1  0.2968854E-003  0.2251301E+02  0.7818608E-02  0.1867647E+00
         11   -1    0    0    0    0  0.00000000000E+00  0.00000000000E+00  0.10003009648E+04  0.10003009648E+04  0.51100000000E-03 0. -1.
          2   -1    0    0  501    0 -0.00000000000E+00 -0.00000000000E+00 -0.17930995238E+01  0.17931013370E+01  0.25500000000E-02 0. -1.
         11    1    1    2    0    0  0.21265221031E+02 -0.35926220944E+00  0.91393857831E+02  0.93835899017E+02  0.51100000000E-03 0. -1.
         22    1    1    2    0    0 -0.47908379243E+00  0.10001179587E+02  0.59654197340E+02  0.60488646659E+02  0.00000000000E+00 0. -1.
          2    1    1    2  501    0 -0.20786137239E+02 -0.96419173774E+01  0.84745981007E+03  0.84776952043E+03  0.25500000000E-02 0. -1.
<mgrwt>
<rscale>  0 0.15013818E+02</rscale>
<asrwt>0</asrwt>
<pdfrwt beam="1">  1       11 0.10000000E+01 0.22513009E+02</pdfrwt>
<pdfrwt beam="2">  1        2 0.27594462E-03 0.15013818E+02</pdfrwt>
<totfact> 0.55689552E+04</totfact>
</mgrwt>
</event>
<event>
 5    1  0.4860560E-003  0.1912418E+03  0.7818608E-02  0.1159594E+00
         11   -1    0    0    0    0  0.00000000000E+00  0.00000000000E+00  0.10005227765E+04  0.10005227765E+04  0.51100000000E-03 0. -1.
          2   -1    0    0  501    0 -0.00000000000E+00 -0.00000000000E+00 -0.11661531110E+04  0.11661531110E+04  0.25500000000E-02 0.  1.
         11    1    1    2    0    0 -0.16663483400E+03  0.31255629426E+02  0.91940687286E+03  0.93490805972E+03  0.51100000000E-03 0. -1.
         22    1    1    2    0    0 -0.18105830609E+02  0.74411935630E+01  0.64208039714E+02  0.67125738936E+02  0.00000000000E+00 0. -1.
          2    1    1    2  501    0  0.18474066461E+03 -0.38696822989E+02 -0.11492452471E+04  0.11646420889E+04  0.25500000000E-02 0.  1.
<mgrwt>
<rscale>  0 0.18874999E+03</rscale>
<asrwt>0</asrwt>
<pdfrwt beam="1">  1       11 0.10000000E+01 0.19124183E+03</pdfrwt>
<pdfrwt beam="2">  1        2 0.17950196E+00 0.18874999E+03</pdfrwt>
<totfact> 0.26697641E+01</totfact>
</mgrwt>
</event>
<event>
 5    1  0.2968854E-003  0.3356694E+03  0.7818608E-02  0.1068656E+00
         11   -1    0    0    0    0  0.00000000000E+00  0.00000000000E+00  0.10000646662E+04  0.10000646662E+04  0.51100000000E-03 0. -1.
          2   -1    0    0  501    0 -0.00000000000E+00 -0.00000000000E+00 -0.76251036463E+03  0.76251036464E+03  0.25500000000E-02 0. -1.
         11    1    1    2    0    0  0.10711446539E+03  0.16772367801E+03  0.49358254580E+03  0.53219213672E+03  0.51100000000E-03 0. -1.
         22    1    1    2    0    0 -0.34716211873E+03 -0.37763944001E+03  0.29646063857E+03  0.59247109090E+03  0.00000000000E+00 0. -1.
          2    1    1    2  501    0  0.24004765334E+03  0.20991576200E+03 -0.55248888282E+03  0.63791180320E+03  0.25500000000E-02 0. -1.
<mgrwt>
<rscale>  0 0.33566935E+03</rscale>
<asrwt>0</asrwt>
<pdfrwt beam="1">  1       11 0.10000000E+01 0.19900940E+03</pdfrwt>
<pdfrwt beam="2">  1        2 0.11731687E+00 0.33566935E+03</pdfrwt>
<totfact> 0.46757537E+01</totfact>
</mgrwt>
</event>
<event>
 5    1  0.2968854E-003  0.1062525E+03  0.7818608E-02  0.1387670E+00
         11   -1    0    0    0    0  0.00000000000E+00  0.00000000000E+00  0.10001111999E+04  0.10001111999E+04  0.51100000000E-03 0.  1.
          2   -1    0    0  501    0 -0.00000000000E+00 -0.00000000000E+00 -0.20668964799E+04  0.20668964799E+04  0.25500000000E-02 0.  1.
         11    1    1    2    0    0  0.26479405028E+02  0.88405551015E+02  0.54763677968E+03  0.55535821125E+03  0.51100000000E-03 0.  1.
         22    1    1    2    0    0 -0.37899669232E+02 -0.14984317194E+03  0.43481038799E+03  0.46146444566E+03  0.00000000000E+00 0. -1.
          2    1    1    2  501    0  0.11420264203E+02  0.61437620922E+02 -0.20492324476E+04  0.20501850229E+04  0.25500000000E-02 0.  1.
<mgrwt>
<rscale>  0 0.62490029E+02</rscale>
<asrwt>0</asrwt>
<pdfrwt beam="1">  1       11 0.10000000E+01 0.10625255E+03</pdfrwt>
<pdfrwt beam="2">  1        2 0.31801942E+00 0.62490029E+02</pdfrwt>
<totfact> 0.10076434E+01</totfact>
</mgrwt>
</event>
<event>
 5    1  0.2968854E-003  0.1882664E+03  0.7818608E-02  0.1165643E+00
         11   -1    0    0    0    0  0.00000000000E+00  0.00000000000E+00  0.10001954565E+04  0.10001954565E+04  0.51100000000E-03 0. -1.
          2   -1    0    0  501    0 -0.00000000000E+00 -0.00000000000E+00 -0.75832855823E+02  0.75832855866E+02  0.25500000000E-02 0. -1.
         11    1    1    2    0    0 -0.62389024052E+02  0.12613572438E+03  0.60280667701E+03  0.61901413646E+03  0.51100000000E-03 0. -1.
         22    1    1    2    0    0  0.30489455701E+01  0.46183070597E+02  0.26084335086E+03  0.26491777171E+03  0.00000000000E+00 0. -1.
          2    1    1    2  501    0  0.59340078481E+02 -0.17231879497E+03  0.60712572850E+02  0.19209640424E+03  0.25500000000E-02 0. -1.
<mgrwt>
<rscale>  0 0.18224986E+03</rscale>
<asrwt>0</asrwt>
<pdfrwt beam="1">  1       11 0.10000000E+01 0.18826643E+03</pdfrwt>
<pdfrwt beam="2">  1        2 0.11668873E-01 0.18224986E+03</pdfrwt>
<totfact> 0.63965925E+02</totfact>
</mgrwt>
</event>
<event>
 5    1  0.2968854E-003  0.2287166E+03  0.7818608E-02  0.1143459E+00
         11   -1    0    0    0    0  0.00000000000E+00  0.00000000000E+00  0.10002457776E+04  0.10002457776E+04  0.51100000000E-03 0. -1.
          2   -1    0    0  501    0 -0.00000000000E+00 -0.00000000000E+00 -0.58650554183E+02  0.58650554238E+02  0.25500000000E-02 0.  1.
         11    1    1    2    0    0 -0.95384482031E+02  0.11086289835E+03  0.35578568793E+03  0.38467159679E+03  0.51100000000E-03 0. -1.
         22    1    1    2    0    0 -0.80350008749E+01  0.69174038711E+02  0.36320527217E+03  0.36982114407E+03  0.00000000000E+00 0. -1.
          2    1    1    2  501    0  0.10341948291E+03 -0.18003693706E+03  0.22260426336E+03  0.30440359101E+03  0.25500000000E-02 0.  1.
<mgrwt>
<rscale>  0 0.20762680E+03</rscale>
<asrwt>0</asrwt>
<pdfrwt beam="1">  1       11 0.10000000E+01 0.22871663E+03</pdfrwt>
<pdfrwt beam="2">  1        2 0.90253796E-02 0.20762680E+03</pdfrwt>
<totfact> 0.88442450E+02</totfact>
</mgrwt>
</event>
<event>
 5    1  0.2968854E-003  0.5364443E+02  0.7818608E-02  0.1615270E+00
         11   -1    0    0    0    0  0.00000000000E+00  0.00000000000E+00  0.10006865138E+04  0.10006865138E+04  0.51100000000E-03 0. -1.
          2   -1    0    0  501    0 -0.00000000000E+00 -0.00000000000E+00 -0.47389132885E+01  0.47389139745E+01  0.25500000000E-02 0. -1.
         11    1    1    2    0    0  0.34663524722E+02  0.36222477741E+02  0.25075116975E+03  0.25571424866E+03  0.51100000000E-03 0. -1.
         22    1    1    2    0    0  0.13160192975E+02 -0.74909417192E+01  0.49087411082E+02  0.51370018627E+02  0.00000000000E+00 0. -1.
          2    1    1    2  501    0 -0.47823717698E+02 -0.28731536021E+02  0.69610901969E+03  0.69834116049E+03  0.25500000000E-02 0. -1.
<mgrwt>
<rscale>  0 0.28501357E+02</rscale>
<asrwt>0</asrwt>
<pdfrwt beam="1">  1       11 0.10000000E+01 0.53644429E+02</pdfrwt>
<pdfrwt beam="2">  1        2 0.72956413E-03 0.28501357E+02</pdfrwt>
<totfact> 0.18694291E+04</totfact>
</mgrwt>
</event>
<event>
 5    1  0.2968854E-003  0.3417161E+03  0.7818608E-02  0.1068388E+00
         11   -1    0    0    0    0  0.00000000000E+00  0.00000000000E+00  0.99997840532E+03  0.99997840532E+03  0.51100000000E-03 0. -1.
          2   -1    0    0  501    0 -0.00000000000E+00 -0.00000000000E+00 -0.37519670369E+03  0.37519670370E+03  0.25500000000E-02 0. -1.
         11    1    1    2    0    0  0.88678605887E+02  0.23565117363E+03  0.59614650404E+03  0.64713679006E+03  0.51100000000E-03 0. -1.
         22    1    1    2    0    0  0.96287956312E+01  0.85947647222E+02  0.28968449413E+03  0.30231906640E+03  0.00000000000E+00 0. -1.
          2    1    1    2  501    0 -0.98307401518E+02 -0.32159882086E+03 -0.26104929653E+03  0.42571925255E+03  0.25500000000E-02 0. -1.
<mgrwt>
<rscale>  0 0.33628878E+03</rscale>
<asrwt>0</asrwt>
<pdfrwt beam="1">  1       11 0.10000000E+01 0.34171606E+03</pdfrwt>
<pdfrwt beam="2">  1        2 0.57721322E-01 0.33628878E+03</pdfrwt>
<totfact> 0.10632648E+02</totfact>
</mgrwt>
</event>
<event>
 5    1  0.2968854E-003  0.8759102E+02  0.7818608E-02  0.1319206E+00
         11   -1    0    0    0    0  0.00000000000E+00  0.00000000000E+00  0.10002283889E+04  0.10002283889E+04  0.51100000000E-03 0. -1.
          2   -1    0    0  501    0 -0.00000000000E+00 -0.00000000000E+00 -0.76115697891E+01  0.76115702163E+01  0.25500000000E-02 0. -1.
         11    1    1    2    0    0  0.19942616594E+02 -0.61701598077E+02  0.27842100905E+03  0.28587244261E+03  0.51100000000E-03 0. -1.
         22    1    1    2    0    0  0.17630105930E+02 -0.12949421326E+02  0.13093960724E+03  0.13275424246E+03  0.00000000000E+00 0. -1.
          2    1    1    2  501    0 -0.37572722523E+02  0.74651019403E+02  0.58325620280E+03  0.58921327402E+03  0.25500000000E-02 0. -1.
<mgrwt>
<rscale>  0 0.83573226E+02</rscale>
<asrwt>0</asrwt>
<pdfrwt beam="1">  1       11 0.10000000E+01 0.87591023E+02</pdfrwt>
<pdfrwt beam="2">  1        2 0.11712782E-02 0.83573226E+02</pdfrwt>
<totfact> 0.12141839E+04</totfact>
</mgrwt>
</event>
<event>
 5    1  0.2968854E-003  0.1261751E+03  0.7818608E-02  0.1552209E+00
         11   -1    0    0    0    0  0.00000000000E+00  0.00000000000E+00  0.10001633709E+04  0.10001633709E+04  0.51100000000E-03 0. -1.
          2   -1    0    0  501    0 -0.00000000000E+00 -0.00000000000E+00 -0.15372676784E+04  0.15372676784E+04  0.25500000000E-02 0.  1.
         11    1    1    2    0    0 -0.11098677674E+03  0.49253031908E+02  0.67525080800E+03  0.68608132132E+03  0.51100000000E-03 0. -1.
         22    1    1    2    0    0  0.13927327654E+03 -0.29332607673E+02  0.30343908869E+03  0.33516074946E+03  0.00000000000E+00 0. -1.
          2    1    1    2  501    0 -0.28286499795E+02 -0.19920424235E+02 -0.15157942042E+04  0.15161889786E+04  0.25500000000E-02 0.  1.
<mgrwt>
<rscale>  0 0.34596956E+02</rscale>
<asrwt>0</asrwt>
<pdfrwt beam="1">  1       11 0.10000000E+01 0.12617508E+03</pdfrwt>
<pdfrwt beam="2">  1        2 0.23654135E+00 0.34596956E+02</pdfrwt>
<totfact> 0.19406890E+01</totfact>
</mgrwt>
</event>
<event>
 5    1  0.2968854E-003  0.2122122E+03  0.7818608E-02  0.1156272E+00
         11   -1    0    0    0    0  0.00000000000E+00  0.00000000000E+00  0.10002100319E+04  0.10002100319E+04  0.51100000000E-03 0. -1.
          2   -1    0    0  501    0 -0.00000000000E+00 -0.00000000000E+00 -0.22393391936E+03  0.22393391938E+03  0.25500000000E-02 0.  1.
         11    1    1    2    0    0 -0.69092867623E+02  0.35625295557E+02  0.40666008962E+03  0.41402344683E+03  0.51100000000E-03 0. -1.
         22    1    1    2    0    0 -0.12273375431E+03 -0.51068156422E+02  0.53813963538E+03  0.55431561246E+03  0.00000000000E+00 0. -1.
          2    1    1    2  501    0  0.19182662193E+03  0.15442860864E+02 -0.16852361242E+03  0.25580489202E+03  0.25500000000E-02 0.  1.
<mgrwt>
<rscale>  0 0.19244723E+03</rscale>
<asrwt>0</asrwt>
<pdfrwt beam="1">  1       11 0.10000000E+01 0.21221219E+03</pdfrwt>
<pdfrwt beam="2">  1        2 0.34458607E-01 0.19244723E+03</pdfrwt>
<totfact> 0.18570251E+02</totfact>
</mgrwt>
</event>
<event>
 5    1  0.4394777E-003  0.1883986E+03  0.7818608E-02  0.1160810E+00
         11   -1    0    0    0    0  0.00000000000E+00  0.00000000000E+00  0.10001464841E+04  0.10001464841E+04  0.51100000000E-03 0.  1.
          2   -1    0    0  501    0 -0.00000000000E+00 -0.00000000000E+00 -0.31260809845E+03  0.31260809847E+03  0.25500000000E-02 0.  1.
         11    1    1    2    0    0 -0.10126943234E+03  0.14348746987E+03  0.91603537236E+03  0.93271911921E+03  0.51100000000E-03 0.  1.
         22    1    1    2    0    0 -0.94228029033E+01  0.77510177575E+01  0.46037866159E+02  0.47627225526E+02  0.00000000000E+00 0. -1.
          2    1    1    2  501    0  0.11069223524E+03 -0.15123848763E+03 -0.27453485291E+03  0.33240823779E+03  0.25500000000E-02 0.  1.
<mgrwt>
<rscale>  0 0.18741892E+03</rscale>
<asrwt>0</asrwt>
<pdfrwt beam="1">  1       11 0.10000000E+01 0.18839862E+03</pdfrwt>
<pdfrwt beam="2">  1        2 0.48100597E-01 0.18741892E+03</pdfrwt>
<totfact> 0.12973438E+02</totfact>
</mgrwt>
</event>
<event>
 5    1  0.2968854E-003  0.1923185E+03  0.7818608E-02  0.1255134E+00
         11   -1    0    0    0    0  0.00000000000E+00  0.00000000000E+00  0.10002076218E+04  0.10002076218E+04  0.51100000000E-03 0. -1.
          2   -1    0    0  501    0 -0.00000000000E+00 -0.00000000000E+00 -0.59720394039E+02  0.59720394094E+02  0.25500000000E-02 0.  1.
         11    1    1    2    0    0 -0.17731460674E+03  0.13223003520E+03  0.43141179589E+03  0.48481067398E+03  0.51100000000E-03 0. -1.
         22    1    1    2    0    0  0.66158339059E+02  0.54361205518E+01  0.49944871206E+02  0.83072061449E+02  0.00000000000E+00 0. -1.
          2    1    1    2  501    0  0.11115626768E+03 -0.13766615575E+03  0.45913056064E+03  0.49204528044E+03  0.25500000000E-02 0.  1.
<mgrwt>
<rscale>  0 0.11298826E+03</rscale>
<asrwt>0</asrwt>
<pdfrwt beam="1">  1       11 0.10000000E+01 0.19231851E+03</pdfrwt>
<pdfrwt beam="2">  1        2 0.91896602E-02 0.11298826E+03</pdfrwt>
<totfact> 0.83476139E+02</totfact>
</mgrwt>
</event>
<event>
 5    1  0.2968854E-003  0.1134446E+03  0.7818608E-02  0.1257386E+00
         11   -1    0    0    0    0  0.00000000000E+00  0.00000000000E+00  0.10001403935E+04  0.10001403935E+04  0.51100000000E-03 0.  1.
          2   -1    0    0  501    0 -0.00000000000E+00 -0.00000000000E+00 -0.13210658470E+02  0.13210658716E+02  0.25500000000E-02 0.  1.
         11    1    1    2    0    0  0.58570412010E+02  0.85073930937E+02  0.35737697544E+03  0.37200318475E+03  0.51100000000E-03 0.  1.
         22    1    1    2    0    0  0.95002364398E+01  0.35354938379E+01  0.37649717467E+02  0.38990453119E+02  0.00000000000E+00 0.  1.
          2    1    1    2  501    0 -0.68070648450E+02 -0.88609424775E+02  0.59190304212E+03  0.60235741434E+03  0.25500000000E-02 0.  1.
<mgrwt>
<rscale>  0 0.11173739E+03</rscale>
<asrwt>0</asrwt>
<pdfrwt beam="1">  1       11 0.10000000E+01 0.11344462E+03</pdfrwt>
<pdfrwt beam="2">  1        2 0.20326943E-02 0.11173739E+03</pdfrwt>
<totfact> 0.59723555E+03</totfact>
</mgrwt>
</event>
<event>
 5    1  0.2968854E-003  0.2747543E+03  0.7818608E-02  0.1105011E+00
         11   -1    0    0    0    0  0.00000000000E+00  0.00000000000E+00  0.99965755821E+03  0.99965755821E+03  0.51100000000E-03 0. -1.
          2   -1    0    0  501    0 -0.00000000000E+00 -0.00000000000E+00 -0.13404499076E+04  0.13404499076E+04  0.25500000000E-02 0.  1.
         11    1    1    2    0    0 -0.94962688678E+02  0.98698233734E+02  0.43566810547E+03  0.45669021415E+03  0.51100000000E-03 0. -1.
         22    1    1    2    0    0 -0.13170361289E+03  0.35828347277E+02  0.53171393843E+03  0.54895284355E+03  0.00000000000E+00 0. -1.
          2    1    1    2  501    0  0.22666630157E+03 -0.13452658101E+03 -0.13081743933E+04  0.13344644081E+04  0.25500000000E-02 0.  1.
<mgrwt>
<rscale>  0 0.26358113E+03</rscale>
<asrwt>0</asrwt>
<pdfrwt beam="1">  1       11 0.10000000E+01 0.27475433E+03</pdfrwt>
<pdfrwt beam="2">  1        2 0.20615244E+00 0.26358113E+03</pdfrwt>
<totfact> 0.20934039E+01</totfact>
</mgrwt>
</event>
<event>
 5    1  0.2968854E-003  0.9020164E+02  0.7818608E-02  0.1556748E+00
         11   -1    0    0    0    0  0.00000000000E+00  0.00000000000E+00  0.10000411483E+04  0.10000411483E+04  0.51100000000E-03 0.  1.
          2   -1    0    0  501    0 -0.00000000000E+00 -0.00000000000E+00 -0.24314036271E+03  0.24314036272E+03  0.25500000000E-02 0. -1.
         11    1    1    2    0    0 -0.19137325129E+02 -0.76102466285E+02  0.38334309362E+03  0.39129240986E+03  0.51100000000E-03 0.  1.
         22    1    1    2    0    0  0.48911947733E+02  0.92722751442E+02  0.60699157355E+03  0.61597780611E+03  0.00000000000E+00 0.  1.
          2    1    1    2  501    0 -0.29774622603E+02 -0.16620285158E+02 -0.23343388161E+03  0.23591129502E+03  0.25500000000E-02 0. -1.
<mgrwt>
<rscale>  0 0.34099297E+02</rscale>
<asrwt>0</asrwt>
<pdfrwt beam="1">  1       11 0.10000000E+01 0.90201637E+02</pdfrwt>
<pdfrwt beam="2">  1        2 0.37407748E-01 0.34099297E+02</pdfrwt>
<totfact> 0.16519084E+02</totfact>
</mgrwt>
</event>
<event>
 5    1  0.2968854E-003  0.3248812E+03  0.7818608E-02  0.1073424E+00
         11   -1    0    0    0    0  0.00000000000E+00  0.00000000000E+00  0.10003113180E+04  0.10003113180E+04  0.51100000000E-03 0. -1.
          2   -1    0    0  501    0 -0.00000000000E+00 -0.00000000000E+00 -0.23221320852E+03  0.23221320854E+03  0.25500000000E-02 0. -1.
         11    1    1    2    0    0  0.21278413974E+03 -0.17386879864E+03  0.76694795630E+03  0.81468804885E+03  0.51100000000E-03 0. -1.
         22    1    1    2    0    0  0.33441768049E+02 -0.51911902454E+02  0.50970631185E+02  0.80069986324E+02  0.00000000000E+00 0.  1.
          2    1    1    2  501    0 -0.24622590779E+03  0.22578070109E+03 -0.49820478012E+02  0.33776649136E+03  0.25500000000E-02 0. -1.
<mgrwt>
<rscale>  0 0.32488122E+03</rscale>
<asrwt>0</asrwt>
<pdfrwt beam="1">  1       11 0.10000000E+01 0.61751093E+02</pdfrwt>
<pdfrwt beam="2">  1        2 0.35736230E-01 0.32488122E+03</pdfrwt>
<totfact> 0.17943481E+02</totfact>
</mgrwt>
</event>
<event>
 5    1  0.2968854E-003  0.2599767E+03  0.7818608E-02  0.1107157E+00
         11   -1    0    0    0    0  0.00000000000E+00  0.00000000000E+00  0.10002797549E+04  0.10002797549E+04  0.51100000000E-03 0. -1.
          2   -1    0    0  501    0 -0.00000000000E+00 -0.00000000000E+00 -0.73880378983E+03  0.73880378983E+03  0.25500000000E-02 0.  1.
         11    1    1    2    0    0 -0.21497114925E+02  0.54469418160E+02  0.14863180815E+03  0.15975123742E+03  0.51100000000E-03 0. -1.
         22    1    1    2    0    0  0.12802988064E+03  0.18393394786E+03  0.80707768379E+03  0.83761431171E+03  0.00000000000E+00 0. -1.
          2    1    1    2  501    0 -0.10653276571E+03 -0.23840336602E+03 -0.69423352689E+03  0.74171799557E+03  0.25500000000E-02 0.  1.
<mgrwt>
<rscale>  0 0.25997667E+03</rscale>
<asrwt>0</asrwt>
<pdfrwt beam="1">  1       11 0.10000000E+01 0.58558035E+02</pdfrwt>
<pdfrwt beam="2">  1        2 0.11369392E+00 0.25997667E+03</pdfrwt>
<totfact> 0.49044589E+01</totfact>
</mgrwt>
</event>
<event>
 5    1  0.2968854E-003  0.3401981E+03  0.7818608E-02  0.1068170E+00
         11   -1    0    0    0    0  0.00000000000E+00  0.00000000000E+00  0.99966932329E+03  0.99966932329E+03  0.51100000000E-03 0.  1.
          2   -1    0    0  501    0 -0.00000000000E+00 -0.00000000000E+00 -0.12205898604E+03  0.12205898607E+03  0.25500000000E-02 0.  1.
         11    1    1    2    0    0  0.19080112049E+03  0.22406960134E+03  0.48690121887E+03  0.56893325686E+03  0.51100000000E-03 0.  1.
         22    1    1    2    0    0  0.39875806231E+02  0.21323859033E+02  0.92461749309E+02  0.10292697398E+03  0.00000000000E+00 0. -1.
          2    1    1    2  501    0 -0.23067692672E+03 -0.24539346037E+03  0.29824736907E+03  0.44986807852E+03  0.25500000000E-02 0.  1.
<mgrwt>
<rscale>  0 0.33679340E+03</rscale>
<asrwt>0</asrwt>
<pdfrwt beam="1">  1       11 0.10000000E+01 0.34019806E+03</pdfrwt>
<pdfrwt beam="2">  1        2 0.18772095E-01 0.33679340E+03</pdfrwt>
<totfact> 0.37113848E+02</totfact>
</mgrwt>
</event>
<event>
 5    1  0.2968854E-003  0.9016779E+02  0.7818608E-02  0.1306002E+00
         11   -1    0    0    0    0  0.00000000000E+00  0.00000000000E+00  0.99999689325E+03  0.99999689325E+03  0.51100000000E-03 0.  1.
          2   -1    0    0  501    0 -0.00000000000E+00 -0.00000000000E+00 -0.10208243982E+02  0.10208244301E+02  0.25500000000E-02 0.  1.
         11    1    1    2    0    0 -0.69447120577E+02  0.30064600545E+02  0.20623994207E+03  0.21968544892E+03  0.51100000000E-03 0.  1.
         22    1    1    2    0    0 -0.13368943786E+02  0.17360733586E+01  0.56866473908E+02  0.58442608287E+02  0.00000000000E+00 0. -1.
          2    1    1    2  501    0  0.82816064363E+02 -0.31800673904E+02  0.72668223329E+03  0.73207708034E+03  0.25500000000E-02 0.  1.
<mgrwt>
<rscale>  0 0.88711800E+02</rscale>
<asrwt>0</asrwt>
<pdfrwt beam="1">  1       11 0.10000000E+01 0.90167788E+02</pdfrwt>
<pdfrwt beam="2">  1        2 0.15704942E-02 0.88711800E+02</pdfrwt>
<totfact> 0.82217093E+03</totfact>
</mgrwt>
</event>
<event>
 5    1  0.2968854E-003  0.3808654E+03  0.7818608E-02  0.1050614E+00
         11   -1    0    0    0    0  0.00000000000E+00  0.00000000000E+00  0.10007610403E+04  0.10007610403E+04  0.51100000000E-03 0.  1.
          2   -1    0    0  501    0 -0.00000000000E+00 -0.00000000000E+00 -0.47098239902E+03  0.47098239903E+03  0.25500000000E-02 0.  1.
         11    1    1    2    0    0 -0.27620838386E+03  0.13138309390E+03  0.46542814787E+03  0.55693442119E+03  0.51100000000E-03 0.  1.
         22    1    1    2    0    0 -0.12551354282E+03 -0.17213539475E+03  0.35727221927E+03  0.41596596281E+03  0.00000000000E+00 0.  1.
          2    1    1    2  501    0  0.40172192668E+03  0.40752300848E+02 -0.29292172584E+03  0.49884305535E+03  0.25500000000E-02 0.  1.
<mgrwt>
<rscale>  0 0.38086539E+03</rscale>
<asrwt>0</asrwt>
<pdfrwt beam="1">  1       11 0.10000000E+01 0.21303578E+03</pdfrwt>
<pdfrwt beam="2">  1        2 0.72513973E-01 0.38086539E+03</pdfrwt>
<totfact> 0.82436706E+01</totfact>
</mgrwt>
</event>
<event>
 5    1  0.2968854E-003  0.1708842E+03  0.7818608E-02  0.1487914E+00
         11   -1    0    0    0    0  0.00000000000E+00  0.00000000000E+00  0.10001048419E+04  0.10001048419E+04  0.51100000000E-03 0.  1.
          2   -1    0    0  501    0 -0.00000000000E+00 -0.00000000000E+00 -0.37881444205E+02  0.37881444291E+02  0.25500000000E-02 0. -1.
         11    1    1    2    0    0  0.68050176234E+02 -0.16035425112E+03  0.52070410819E+03  0.54906928582E+03  0.51100000000E-03 0.  1.
         22    1    1    2    0    0 -0.10286039664E+02  0.31869969015E+01 -0.51182644484E+01  0.11922927165E+02  0.00000000000E+00 0. -1.
          2    1    1    2  501    0 -0.57764136570E+02  0.15716725422E+03  0.44663755397E+03  0.47699407323E+03  0.25500000000E-02 0. -1.
<mgrwt>
<rscale>  0 0.42897071E+02</rscale>
<asrwt>0</asrwt>
<pdfrwt beam="1">  1       11 0.10000000E+01 0.17088423E+03</pdfrwt>
<pdfrwt beam="2">  1        2 0.58285253E-02 0.42897071E+02</pdfrwt>
<totfact> 0.13552430E+03</totfact>
</mgrwt>
</event>
<event>
 5    1  0.2968854E-003  0.1447645E+03  0.7818608E-02  0.1207058E+00
         11   -1    0    0    0    0  0.00000000000E+00  0.00000000000E+00  0.10001664082E+04  0.10001664082E+04  0.51100000000E-03 0. -1.
          2   -1    0    0  501    0 -0.00000000000E+00 -0.00000000000E+00 -0.11772513209E+03  0.11772513211E+03  0.25500000000E-02 0. -1.
         11    1    1    2    0    0 -0.11177781703E+03  0.41615347145E+02  0.51177344470E+03  0.52548851195E+03  0.51100000000E-03 0. -1.
         22    1    1    2    0    0  0.23065699331E+02  0.78247979702E+02  0.42570427054E+03  0.43344999570E+03  0.00000000000E+00 0. -1.
          2    1    1    2  501    0  0.88712117701E+02 -0.11986332685E+03 -0.55036439137E+02  0.15895303265E+03  0.25500000000E-02 0. -1.
<mgrwt>
<rscale>  0 0.14476453E+03</rscale>
<asrwt>0</asrwt>
<pdfrwt beam="1">  1       11 0.10000000E+01 0.81576791E+02</pdfrwt>
<pdfrwt beam="2">  1        2 0.18114572E-01 0.14476453E+03</pdfrwt>
<totfact> 0.37688751E+02</totfact>
</mgrwt>
</event>
<event>
 5    1  0.2968854E-003  0.5328431E+03  0.7818608E-02  0.1005545E+00
         11   -1    0    0    0    0  0.00000000000E+00  0.00000000000E+00  0.10000453338E+04  0.10000453338E+04  0.51100000000E-03 0.  1.
          2   -1    0    0  501    0 -0.00000000000E+00 -0.00000000000E+00 -0.10099024114E+04  0.10099024114E+04  0.25500000000E-02 0.  1.
         11    1    1    2    0    0  0.19646304449E+03  0.45972554479E+03  0.77536466683E+03  0.92257014419E+03  0.51100000000E-03 0.  1.
         22    1    1    2    0    0 -0.44216814911E+02  0.54360895614E+02  0.56082353056E+02  0.89752236836E+02  0.00000000000E+00 0. -1.
          2    1    1    2  501    0 -0.15224622958E+03 -0.51408644040E+03 -0.84130409755E+03  0.99762536415E+03  0.25500000000E-02 0.  1.
<mgrwt>
<rscale>  0 0.53284310E+03</rscale>
<asrwt>0</asrwt>
<pdfrwt beam="1">  1       11 0.10000000E+01 0.70073060E+02</pdfrwt>
<pdfrwt beam="2">  1        2 0.15537664E+00 0.53284310E+03</pdfrwt>
<totfact> 0.31364202E+01</totfact>
</mgrwt>
</event>
<event>
 5    1  0.2968854E-003  0.1481852E+03  0.7818608E-02  0.1202721E+00
         11   -1    0    0    0    0  0.00000000000E+00  0.00000000000E+00  0.10001309378E+04  0.10001309378E+04  0.51100000000E-03 0. -1.
          2   -1    0    0  501    0 -0.00000000000E+00 -0.00000000000E+00 -0.54909764146E+02  0.54909764206E+02  0.25500000000E-02 0. -1.
         11    1    1    2    0    0  0.81923251967E+02 -0.11028603397E+03  0.82337698974E+03  0.83475990305E+03  0.51100000000E-03 0. -1.
         22    1    1    2    0    0  0.17028309010E+02 -0.21413118502E+01  0.52502851613E+02  0.55236744578E+02  0.00000000000E+00 0. -1.
          2    1    1    2  501    0 -0.98951560977E+02  0.11242734582E+03  0.69341332267E+02  0.16504405435E+03  0.25500000000E-02 0. -1.
<mgrwt>
<rscale>  0 0.14818517E+03</rscale>
<asrwt>0</asrwt>
<pdfrwt beam="1">  1       11 0.10000000E+01 0.17162416E+02</pdfrwt>
<pdfrwt beam="2">  1        2 0.84487619E-02 0.14818517E+03</pdfrwt>
<totfact> 0.94225236E+02</totfact>
</mgrwt>
</event>
<event>
 5    1  0.2968854E-003  0.1758209E+02  0.7818608E-02  0.1798179E+00
         11   -1    0    0    0    0  0.00000000000E+00  0.00000000000E+00  0.10003475164E+04  0.10003475164E+04  0.51100000000E-03 0. -1.
          2   -1    0    0  501    0 -0.00000000000E+00 -0.00000000000E+00 -0.37447026084E+01  0.37447034766E+01  0.25500000000E-02 0. -1.
         11    1    1    2    0    0  0.12249819957E+02  0.84296006562E+01  0.41296164628E+02  0.43891792735E+02  0.51100000000E-03 0. -1.
         22    1    1    2    0    0  0.16127393651E+02 -0.62132085832E+01  0.31292415388E+02  0.35747895710E+02  0.00000000000E+00 0. -1.
          2    1    1    2  501    0 -0.28377213607E+02 -0.22163920730E+01  0.92401423382E+03  0.92445253148E+03  0.25500000000E-02 0. -1.
<mgrwt>
<rscale>  0 0.17582095E+02</rscale>
<asrwt>0</asrwt>
<pdfrwt beam="1">  1       11 0.10000000E+01 0.14869986E+02</pdfrwt>
<pdfrwt beam="2">  1        2 0.57630835E-03 0.17582095E+02</pdfrwt>
<totfact> 0.22534023E+04</totfact>
</mgrwt>
</event>
<event>
 5    1  0.2968854E-003  0.3132143E+02  0.7818608E-02  0.1591429E+00
         11   -1    0    0    0    0  0.00000000000E+00  0.00000000000E+00  0.10001497781E+04  0.10001497781E+04  0.51100000000E-03 0. -1.
          2   -1    0    0  501    0 -0.00000000000E+00 -0.00000000000E+00 -0.26412753020E+01  0.26412765330E+01  0.25500000000E-02 0. -1.
         11    1    1    2    0    0  0.12720088596E+02 -0.67132220379E+01  0.36832773130E+02  0.39541385670E+02  0.51100000000E-03 0. -1.
         22    1    1    2    0    0  0.15399540518E+02 -0.53835206768E+01  0.63830317646E+02  0.65881997494E+02  0.00000000000E+00 0. -1.
          2    1    1    2  501    0 -0.28119629114E+02  0.12096742715E+02  0.89684541204E+03  0.89736767149E+03  0.25500000000E-02 0. -1.
<mgrwt>
<rscale>  0 0.30611186E+02</rscale>
<asrwt>0</asrwt>
<pdfrwt beam="1">  1       11 0.10000000E+01 0.31321428E+02</pdfrwt>
<pdfrwt beam="2">  1        2 0.40641099E-03 0.30611186E+02</pdfrwt>
<totfact> 0.41300386E+04</totfact>
</mgrwt>
</event>
<event>
 5    1  0.2968854E-003  0.1208645E+03  0.7818608E-02  0.1241678E+00
         11   -1    0    0    0    0  0.00000000000E+00  0.00000000000E+00  0.99995297507E+03  0.99995297507E+03  0.51100000000E-03 0.  1.
          2   -1    0    0  501    0 -0.00000000000E+00 -0.00000000000E+00 -0.61197401196E+03  0.61197401196E+03  0.25500000000E-02 0.  1.
         11    1    1    2    0    0 -0.31851469321E+02  0.76724627094E+02  0.44771374375E+02  0.94369806953E+02  0.51100000000E-03 0.  1.
         22    1    1    2    0    0 -0.35254995338E+02 -0.17687317095E+03  0.91530091171E+03  0.93290020489E+03  0.00000000000E+00 0.  1.
          2    1    1    2  501    0  0.67106464660E+02  0.10014854385E+03 -0.57209332298E+03  0.58465697519E+03  0.25500000000E-02 0.  1.
<mgrwt>
<rscale>  0 0.12086450E+03</rscale>
<asrwt>0</asrwt>
<pdfrwt beam="1">  1       11 0.10000000E+01 0.83073368E+02</pdfrwt>
<pdfrwt beam="2">  1        2 0.94145418E-01 0.12086450E+03</pdfrwt>
<totfact> 0.62685566E+01</totfact>
</mgrwt>
</event>
<event>
 5    1  0.2968854E-003  0.1355133E+03  0.7818608E-02  0.1219497E+00
         11   -1    0    0    0    0  0.00000000000E+00  0.00000000000E+00  0.10009025044E+04  0.10009025044E+04  0.51100000000E-03 0. -1.
          2   -1    0    0  501    0 -0.00000000000E+00 -0.00000000000E+00 -0.26788002888E+04  0.26788002888E+04  0.25500000000E-02 0. -1.
         11    1    1    2    0    0 -0.15549142947E+03  0.45759888957E+02  0.78179986293E+03  0.79842506083E+03  0.51100000000E-03 0. -1.
         22    1    1    2    0    0  0.34080579255E+02  0.14315200528E+02  0.20743726999E+03  0.21070508259E+03  0.00000000000E+00 0. -1.
          2    1    1    2  501    0  0.12141085021E+03 -0.60075089485E+02 -0.26671349173E+04  0.26705726499E+04  0.25500000000E-02 0. -1.
<mgrwt>
<rscale>  0 0.13551328E+03</rscale>
<asrwt>0</asrwt>
<pdfrwt beam="1">  1       11 0.10000000E+01 0.36964995E+02</pdfrwt>
<pdfrwt beam="2">  1        2 0.41249505E+00 0.13551328E+03</pdfrwt>
<totfact> 0.43777478E+00</totfact>
</mgrwt>
</event>
<event>
 5    1  0.2968854E-003  0.1150620E+03  0.7818608E-02  0.1255393E+00
         11   -1    0    0    0    0  0.00000000000E+00  0.00000000000E+00  0.10002105041E+04  0.10002105041E+04  0.51100000000E-03 0.  1.
          2   -1    0    0  501    0 -0.00000000000E+00 -0.00000000000E+00 -0.13008573122E+02  0.13008573371E+02  0.25500000000E-02 0.  1.
         11    1    1    2    0    0 -0.91041907638E+02 -0.45695899152E+02  0.45392504984E+03  0.46521467627E+03  0.51100000000E-03 0.  1.
         22    1    1    2    0    0 -0.12948371918E+02  0.18822276743E+01  0.67162738529E+02  0.68425408753E+02  0.00000000000E+00 0.  1.
          2    1    1    2  501    0  0.10399027956E+03  0.43813671478E+02  0.46611414265E+03  0.47957899248E+03  0.25500000000E-02 0.  1.
<mgrwt>
<rscale>  0 0.11284333E+03</rscale>
<asrwt>0</asrwt>
<pdfrwt beam="1">  1       11 0.10000000E+01 0.11506197E+03</pdfrwt>
<pdfrwt beam="2">  1        2 0.20017402E-02 0.11284333E+03</pdfrwt>
<totfact> 0.61053161E+03</totfact>
</mgrwt>
</event>
<event>
 5    1  0.2968854E-003  0.2888771E+03  0.7818608E-02  0.1090937E+00
         11   -1    0    0    0    0  0.00000000000E+00  0.00000000000E+00  0.10001344663E+04  0.10001344663E+04  0.51100000000E-03 0. -1.
          2   -1    0    0  501    0 -0.00000000000E+00 -0.00000000000E+00 -0.72457559630E+03  0.72457559630E+03  0.25500000000E-02 0. -1.
         11    1    1    2    0    0  0.18755577225E+03 -0.20015148484E+03  0.93046789451E+03  0.97005581659E+03  0.51100000000E-03 0. -1.
         22    1    1    2    0    0  0.89531046007E+01 -0.12213489624E+02  0.17197920748E+02  0.22914970845E+02  0.00000000000E+00 0.  1.
          2    1    1    2  501    0 -0.19650887685E+03  0.21236497446E+03 -0.67210694522E+03  0.73173927520E+03  0.25500000000E-02 0. -1.
<mgrwt>
<rscale>  0 0.28887709E+03</rscale>
<asrwt>0</asrwt>
<pdfrwt beam="1">  1       11 0.10000000E+01 0.15143560E+02</pdfrwt>
<pdfrwt beam="2">  1        2 0.11148815E+00 0.28887709E+03</pdfrwt>
<totfact> 0.50079749E+01</totfact>
</mgrwt>
</event>
<event>
 5    1  0.2968854E-003  0.1652458E+03  0.7818608E-02  0.1189293E+00
         11   -1    0    0    0    0  0.00000000000E+00  0.00000000000E+00  0.99998871880E+03  0.99998871880E+03  0.51100000000E-03 0. -1.
         -2   -1    0    0    0  501 -0.00000000000E+00 -0.00000000000E+00 -0.29924080072E+02  0.29924080181E+02  0.25500000000E-02 0. -1.
         11    1    1    2    0    0 -0.14289575705E+03  0.24508415909E+01  0.29811638943E+03  0.33060336607E+03  0.51100000000E-03 0. -1.
         22    1    1    2    0    0 -0.16458161754E+02 -0.86049651387E+01  0.16838702242E+02  0.25069072710E+02  0.00000000000E+00 0.  1.
         -2    1    1    2    0  501  0.15935391881E+03  0.61541235477E+01  0.65510954706E+03  0.67424036021E+03  0.25500000000E-02 0. -1.
<mgrwt>
<rscale>  0 0.15947271E+03</rscale>
<asrwt>0</asrwt>
<pdfrwt beam="1">  1       11 0.10000000E+01 0.16524580E+03</pdfrwt>
<pdfrwt beam="2">  1       -2 0.46036526E-02 0.15947271E+03</pdfrwt>
<totfact> 0.16959739E+03</totfact>
</mgrwt>
</event>
<event>
 5    1  0.2968854E-003  0.1069971E+03  0.7818608E-02  0.1270105E+00
         11   -1    0    0    0    0  0.00000000000E+00  0.00000000000E+00  0.10002674811E+04  0.10002674811E+04  0.51100000000E-03 0.  1.
          2   -1    0    0  501    0 -0.00000000000E+00 -0.00000000000E+00 -0.11577725228E+02  0.11577725509E+02  0.25500000000E-02 0.  1.
         11    1    1    2    0    0 -0.31438633643E+02  0.65412197217E+02  0.39306693475E+03  0.39971084351E+03  0.51100000000E-03 0.  1.
         22    1    1    2    0    0 -0.26087120932E+02  0.22436033159E+02  0.19301742354E+03  0.19606029494E+03  0.00000000000E+00 0. -1.
          2    1    1    2  501    0  0.57525754575E+02 -0.87848230376E+02  0.40260539759E+03  0.41607406816E+03  0.25500000000E-02 0.  1.
<mgrwt>
<rscale>  0 0.10500726E+03</rscale>
<asrwt>0</asrwt>
<pdfrwt beam="1">  1       11 0.10000000E+01 0.10699708E+03</pdfrwt>
<pdfrwt beam="2">  1        2 0.17816649E-02 0.10500726E+03</pdfrwt>
<totfact> 0.70868187E+03</totfact>
</mgrwt>
</event>
<event>
 5    1  0.2968854E-003  0.1863674E+03  0.7818608E-02  0.1167911E+00
         11   -1    0    0    0    0  0.00000000000E+00  0.00000000000E+00  0.10002531242E+04  0.10002531242E+04  0.51100000000E-03 0.  1.
         -2   -1    0    0    0  501 -0.00000000000E+00 -0.00000000000E+00 -0.35759470836E+02  0.35759470927E+02  0.25500000000E-02 0. -1.
         11    1    1    2    0    0  0.80912975633E+02 -0.10377692735E+03  0.45320085333E+03  0.47191903303E+03  0.51100000000E-03 0.  1.
         22    1    1    2    0    0  0.49566574628E+01 -0.54293518177E+02  0.16644421032E+03  0.17514573851E+03  0.00000000000E+00 0.  1.
         -2    1    1    2    0  501 -0.85869633096E+02  0.15807044552E+03  0.34484858967E+03  0.38894782354E+03  0.25500000000E-02 0. -1.
<mgrwt>
<rscale>  0 0.17988846E+03</rscale>
<asrwt>0</asrwt>
<pdfrwt beam="1">  1       11 0.10000000E+01 0.18636742E+03</pdfrwt>
<pdfrwt beam="2">  1       -2 0.55028495E-02 0.17988846E+03</pdfrwt>
<totfact> 0.13082125E+03</totfact>
</mgrwt>
</event>
<event>
 5    1  0.2968854E-003  0.6655405E+02  0.7818608E-02  0.1372219E+00
         11   -1    0    0    0    0  0.00000000000E+00  0.00000000000E+00  0.10000308493E+04  0.10000308493E+04  0.51100000000E-03 0.  1.
          2   -1    0    0  501    0 -0.00000000000E+00 -0.00000000000E+00 -0.10254208641E+02  0.10254208958E+02  0.25500000000E-02 0.  1.
         11    1    1    2    0    0 -0.12730393007E+02  0.36460671646E+01  0.28718718385E+02  0.31624697592E+02  0.51100000000E-03 0.  1.
         22    1    1    2    0    0  0.87472077497E+01 -0.66769429947E+02  0.14193720295E+03  0.15710136855E+03  0.00000000000E+00 0.  1.
          2    1    1    2  501    0  0.39831852578E+01  0.63123362782E+02  0.81912071930E+03  0.82155899209E+03  0.25500000000E-02 0.  1.
<mgrwt>
<rscale>  0 0.66554050E+02</rscale>
<asrwt>0</asrwt>
<pdfrwt beam="1">  1       11 0.10000000E+01 0.13242239E+02</pdfrwt>
<pdfrwt beam="2">  1        2 0.15776192E-02 0.66554050E+02</pdfrwt>
<totfact> 0.78371166E+03</totfact>
</mgrwt>
</event>
<event>
 5    1  0.2968854E-003  0.1577928E+03  0.7818608E-02  0.1191211E+00
         11   -1    0    0    0    0  0.00000000000E+00  0.00000000000E+00  0.10001047330E+04  0.10001047330E+04  0.51100000000E-03 0.  1.
          2   -1    0    0  501    0 -0.00000000000E+00 -0.00000000000E+00 -0.67824883806E+03  0.67824883807E+03  0.25500000000E-02 0.  1.
         11    1    1    2    0    0 -0.66910894952E+01  0.18009785637E+02  0.77265006449E+02  0.79617864071E+02  0.51100000000E-03 0.  1.
         22    1    1    2    0    0  0.12922622173E+03  0.81505337739E+02  0.90597877584E+03  0.91877096098E+03  0.00000000000E+00 0.  1.
          2    1    1    2  501    0 -0.12253513223E+03 -0.99515123376E+02 -0.66138788731E+03  0.67996474607E+03  0.25500000000E-02 0.  1.
<mgrwt>
<rscale>  0 0.15779281E+03</rscale>
<asrwt>0</asrwt>
<pdfrwt beam="1">  1       11 0.10000000E+01 0.19212576E+02</pdfrwt>
<pdfrwt beam="2">  1        2 0.10435690E+00 0.15779281E+03</pdfrwt>
<totfact> 0.55242517E+01</totfact>
</mgrwt>
</event>
<event>
 5    1  0.2968854E-003  0.2202595E+03  0.7818608E-02  0.1138106E+00
         11   -1    0    0    0    0  0.00000000000E+00  0.00000000000E+00  0.10001182771E+04  0.10001182771E+04  0.51100000000E-03 0. -1.
          2   -1    0    0  501    0 -0.00000000000E+00 -0.00000000000E+00 -0.10740603938E+03  0.10740603941E+03  0.25500000000E-02 0.  1.
         11    1    1    2    0    0 -0.23498909775E+02  0.17408498520E+03  0.67073534732E+03  0.69335682515E+03  0.51100000000E-03 0. -1.
         22    1    1    2    0    0 -0.28480304691E+02  0.33948305336E+02  0.19272376392E+03  0.19775253315E+03  0.00000000000E+00 0.  1.
          2    1    1    2  501    0  0.51979214466E+02 -0.20803329054E+03  0.29253126440E+02  0.21641495817E+03  0.25500000000E-02 0.  1.
<mgrwt>
<rscale>  0 0.21442875E+03</rscale>
<asrwt>0</asrwt>
<pdfrwt beam="1">  1       11 0.10000000E+01 0.22025951E+03</pdfrwt>
<pdfrwt beam="2">  1        2 0.16525960E-01 0.21442875E+03</pdfrwt>
<totfact> 0.42497047E+02</totfact>
</mgrwt>
</event>
<event>
 5    1  0.2968854E-003  0.3687691E+02  0.7818608E-02  0.1544990E+00
         11   -1    0    0    0    0  0.00000000000E+00  0.00000000000E+00  0.99996037563E+03  0.99996037563E+03  0.51100000000E-03 0. -1.
          2   -1    0    0  501    0 -0.00000000000E+00 -0.00000000000E+00 -0.11057217385E+02  0.11057217679E+02  0.25500000000E-02 0. -1.
         11    1    1    2    0    0  0.39334494392E+02  0.12608351547E+02  0.46723513361E+02  0.62363929309E+02  0.51100000000E-03 0. -1.
         22    1    1    2    0    0 -0.25719061482E+02  0.22240187692E+02  0.99600552238E+02  0.10524431613E+03  0.00000000000E+00 0. -1.
          2    1    1    2  501    0 -0.13615432910E+02 -0.34848539239E+02  0.84257909265E+03  0.84340934787E+03  0.25500000000E-02 0. -1.
<mgrwt>
<rscale>  0 0.35409978E+02</rscale>
<asrwt>0</asrwt>
<pdfrwt beam="1">  1       11 0.10000000E+01 0.36876913E+02</pdfrwt>
<pdfrwt beam="2">  1        2 0.17010429E-02 0.35409978E+02</pdfrwt>
<totfact> 0.64048813E+03</totfact>
</mgrwt>
</event>
<event>
 5    1  0.2968854E-003  0.1623002E+03  0.7818608E-02  0.1187464E+00
         11   -1    0    0    0    0  0.00000000000E+00  0.00000000000E+00  0.99995087646E+03  0.99995087646E+03  0.51100000000E-03 0.  1.
          2   -1    0    0  501    0 -0.00000000000E+00 -0.00000000000E+00 -0.40334679627E+02  0.40334679707E+02  0.25500000000E-02 0. -1.
         11    1    1    2    0    0  0.14497212145E+03 -0.33568192715E+02  0.71247372102E+03  0.72784788431E+03  0.51100000000E-03 0.  1.
         22    1    1    2    0    0  0.10710418881E+02 -0.78458647145E+01  0.76971402336E+02  0.78108049799E+02  0.00000000000E+00 0. -1.
          2    1    1    2  501    0 -0.15568254033E+03  0.41414057430E+02  0.17017107348E+03  0.23432962205E+03  0.25500000000E-02 0. -1.
<mgrwt>
<rscale>  0 0.16109680E+03</rscale>
<asrwt>0</asrwt>
<pdfrwt beam="1">  1       11 0.10000000E+01 0.16230023E+03</pdfrwt>
<pdfrwt beam="2">  1        2 0.62050303E-02 0.16109680E+03</pdfrwt>
<totfact> 0.14029175E+03</totfact>
</mgrwt>
</event>
<event>
 5    1  0.2968854E-003  0.2251056E+03  0.7818608E-02  0.1130133E+00
         11   -1    0    0    0    0  0.00000000000E+00  0.00000000000E+00  0.10002306318E+04  0.10002306318E+04  0.51100000000E-03 0. -1.
         -2   -1    0    0    0  501 -0.00000000000E+00 -0.00000000000E+00 -0.68266201134E+03  0.68266201135E+03  0.25500000000E-02 0.  1.
         11    1    1    2    0    0 -0.24575312742E+02 -0.82231590369E+02  0.51814654409E+02  0.10025337332E+03  0.51100000000E-03 0. -1.
         22    1    1    2    0    0 -0.19995631363E+03  0.58268149853E+02  0.89248826832E+03  0.91646768286E+03  0.00000000000E+00 0. -1.
         -2    1    1    2    0  501  0.22453162637E+03  0.23963440516E+02 -0.62673430223E+03  0.66617158700E+03  0.25500000000E-02 0.  1.
<mgrwt>
<rscale>  0 0.22510559E+03</rscale>
<asrwt>0</asrwt>
<pdfrwt beam="1">  1       11 0.10000000E+01 0.85825290E+02</pdfrwt>
<pdfrwt beam="2">  1       -2 0.10504914E+00 0.22510559E+03</pdfrwt>
<totfact> 0.62467506E+00</totfact>
</mgrwt>
</event>
<event>
 5    1  0.2968854E-003  0.2194028E+03  0.7818608E-02  0.1134329E+00
         11   -1    0    0    0    0  0.00000000000E+00  0.00000000000E+00  0.99993291226E+03  0.99993291226E+03  0.51100000000E-03 0. -1.
          2   -1    0    0  501    0 -0.00000000000E+00 -0.00000000000E+00 -0.10738651054E+04  0.10738651054E+04  0.25500000000E-02 0. -1.
         11    1    1    2    0    0  0.51657983487E+02 -0.20597320028E+03  0.90941599121E+03  0.93387951662E+03  0.51100000000E-03 0. -1.
         22    1    1    2    0    0 -0.16026450937E+02 -0.10613953609E+02  0.65544463670E+02  0.68305050023E+02  0.00000000000E+00 0. -1.
          2    1    1    2  501    0 -0.35631532550E+02  0.21658715389E+03 -0.10488926480E+04  0.10716134510E+04  0.25500000000E-02 0. -1.
<mgrwt>
<rscale>  0 0.21940278E+03</rscale>
<asrwt>0</asrwt>
<pdfrwt beam="1">  1       11 0.10000000E+01 0.19222464E+02</pdfrwt>
<pdfrwt beam="2">  1        2 0.16519893E+00 0.21940278E+03</pdfrwt>
<totfact> 0.29966263E+01</totfact>
</mgrwt>
</event>
<event>
 5    1  0.2968854E-003  0.1198134E+03  0.7818608E-02  0.1586570E+00
         11   -1    0    0    0    0  0.00000000000E+00  0.00000000000E+00  0.10001840021E+04  0.10001840021E+04  0.51100000000E-03 0.  1.
          2   -1    0    0  501    0 -0.00000000000E+00 -0.00000000000E+00 -0.83520519741E+02  0.83520519780E+02  0.25500000000E-02 0. -1.
         11    1    1    2    0    0 -0.12978210583E+03 -0.53780463932E+02  0.28770306643E+03  0.32016993570E+03  0.51100000000E-03 0.  1.
         22    1    1    2    0    0  0.98871715321E+02  0.56910757735E+02  0.68769283444E+03  0.69709101628E+03  0.00000000000E+00 0.  1.
          2    1    1    2  501    0  0.30910390507E+02 -0.31302938027E+01 -0.58732418550E+02  0.66443569860E+02  0.25500000000E-02 0. -1.
<mgrwt>
<rscale>  0 0.31068489E+02</rscale>
<asrwt>0</asrwt>
<pdfrwt beam="1">  1       11 0.10000000E+01 0.11981340E+03</pdfrwt>
<pdfrwt beam="2">  1        2 0.12851675E-01 0.31068489E+02</pdfrwt>
<totfact> 0.51396232E+02</totfact>
</mgrwt>
</event>
<event>
 5    1  0.2968854E-003  0.1467516E+03  0.7818608E-02  0.1204522E+00
         11   -1    0    0    0    0  0.00000000000E+00  0.00000000000E+00  0.10003601540E+04  0.10003601540E+04  0.51100000000E-03 0. -1.
         -2   -1    0    0    0  501 -0.00000000000E+00 -0.00000000000E+00 -0.41736729683E+02  0.41736729761E+02  0.25500000000E-02 0.  1.
         11    1    1    2    0    0 -0.20590896456E+01 -0.12252694655E+03  0.49119795064E+03  0.50625341401E+03  0.51100000000E-03 0. -1.
         22    1    1    2    0    0  0.74007854957E+02 -0.23363372121E+02  0.26515145088E+03  0.27627577102E+03  0.00000000000E+00 0. -1.
         -2    1    1    2    0  501 -0.71948765311E+02  0.14589031867E+03  0.20227402275E+03  0.25956769868E+03  0.25500000000E-02 0.  1.
<mgrwt>
<rscale>  0 0.14675157E+03</rscale>
<asrwt>0</asrwt>
<pdfrwt beam="1">  1       11 0.10000000E+01 0.77608052E+02</pdfrwt>
<pdfrwt beam="2">  1       -2 0.64233477E-02 0.14675157E+03</pdfrwt>
<totfact> 0.10176836E+03</totfact>
</mgrwt>
</event>
<event>
 5    1  0.2968854E-003  0.9314866E+02  0.7818608E-02  0.1306283E+00
         11   -1    0    0    0    0  0.00000000000E+00  0.00000000000E+00  0.10000593562E+04  0.10000593562E+04  0.51100000000E-03 0. -1.
          2   -1    0    0  501    0 -0.00000000000E+00 -0.00000000000E+00 -0.83035675753E+01  0.83035679668E+01  0.25500000000E-02 0. -1.
         11    1    1    2    0    0  0.16982934401E+02 -0.51712506730E+02  0.24258622895E+03  0.24861754139E+03  0.51100000000E-03 0. -1.
         22    1    1    2    0    0  0.29162191266E+02 -0.23919663516E+02  0.22808362936E+03  0.23118115339E+03  0.00000000000E+00 0. -1.
          2    1    1    2  501    0 -0.46145125667E+02  0.75632170246E+02  0.52108593028E+03  0.52856422934E+03  0.25500000000E-02 0. -1.
<mgrwt>
<rscale>  0 0.88597956E+02</rscale>
<asrwt>0</asrwt>
<pdfrwt beam="1">  1       11 0.10000000E+01 0.93148655E+02</pdfrwt>
<pdfrwt beam="2">  1        2 0.12775478E-02 0.88597956E+02</pdfrwt>
<totfact> 0.10883590E+04</totfact>
</mgrwt>
</event>
<event>
 5    1  0.2968854E-003  0.4610627E+02  0.7818608E-02  0.1473904E+00
         11   -1    0    0    0    0  0.00000000000E+00  0.00000000000E+00  0.99984959891E+03  0.99984959891E+03  0.51100000000E-03 0. -1.
          2   -1    0    0  501    0 -0.00000000000E+00 -0.00000000000E+00 -0.35474483191E+01  0.35474492356E+01  0.25500000000E-02 0. -1.
         11    1    1    2    0    0 -0.32867397834E+02 -0.62109589340E+01  0.11363151032E+03  0.11845236168E+03  0.51100000000E-03 0. -1.
         22    1    1    2    0    0 -0.11291283793E+02 -0.28070909976E+01  0.65018828370E+02  0.66051653213E+02  0.00000000000E+00 0. -1.
          2    1    1    2  501    0  0.44158681627E+02  0.90180499316E+01  0.81765181191E+03  0.81889303325E+03  0.25500000000E-02 0. -1.
<mgrwt>
<rscale>  0 0.45070105E+02</rscale>
<asrwt>0</asrwt>
<pdfrwt beam="1">  1       11 0.10000000E+01 0.46106269E+02</pdfrwt>
<pdfrwt beam="2">  1        2 0.54567925E-03 0.45070105E+02</pdfrwt>
<totfact> 0.30503033E+04</totfact>
</mgrwt>
</event>
<event>
 5    1  0.2968854E-003  0.6569232E+02  0.7818608E-02  0.1556034E+00
         11   -1    0    0    0    0  0.00000000000E+00  0.00000000000E+00  0.10002336446E+04  0.10002336446E+04  0.51100000000E-03 0.  1.
          2   -1    0    0  501    0 -0.00000000000E+00 -0.00000000000E+00 -0.63463612220E+01  0.63463617343E+01  0.25500000000E-02 0.  1.
         11    1    1    2    0    0  0.60827176603E+02 -0.17208867953E+02  0.31484857616E+03  0.32113193000E+03  0.51100000000E-03 0.  1.
         22    1    1    2    0    0 -0.24447771929E+01 -0.17611918278E+02  0.57074412360E+02  0.59779972794E+02  0.00000000000E+00 0.  1.
          2    1    1    2  501    0 -0.58382399410E+02  0.34820786231E+02  0.62196429484E+03  0.62566810354E+03  0.25500000000E-02 0.  1.
<mgrwt>
<rscale>  0 0.34176907E+02</rscale>
<asrwt>0</asrwt>
<pdfrwt beam="1">  1       11 0.10000000E+01 0.65692319E+02</pdfrwt>
<pdfrwt beam="2">  1        2 0.97659140E-03 0.34176907E+02</pdfrwt>
<totfact> 0.13221942E+04</totfact>
</mgrwt>
</event>
<event>
 5    1  0.2968854E-003  0.1525161E+03  0.7818608E-02  0.1211344E+00
         11   -1    0    0    0    0  0.00000000000E+00  0.00000000000E+00  0.10003247493E+04  0.10003247493E+04  0.51100000000E-03 0. -1.
          2   -1    0    0  501    0 -0.00000000000E+00 -0.00000000000E+00 -0.25215294900E+02  0.25215295029E+02  0.25500000000E-02 0. -1.
         11    1    1    2    0    0  0.10822071105E+03  0.51135903604E+02  0.22038820020E+03  0.25079386301E+03  0.51100000000E-03 0. -1.
         22    1    1    2    0    0  0.79131970860E+01  0.29678876942E+02  0.88853220804E+02  0.94012495297E+02  0.00000000000E+00 0. -1.
          2    1    1    2  501    0 -0.11613390814E+03 -0.80814780546E+02  0.66586803343E+03  0.68073368606E+03  0.25500000000E-02 0. -1.
<mgrwt>
<rscale>  0 0.14148538E+03</rscale>
<asrwt>0</asrwt>
<pdfrwt beam="1">  1       11 0.10000000E+01 0.15251612E+03</pdfrwt>
<pdfrwt beam="2">  1        2 0.38805358E-02 0.14148538E+03</pdfrwt>
<totfact> 0.25680697E+03</totfact>
</mgrwt>
</event>
<event>
 5    1  0.2968854E-003  0.1741494E+03  0.7818608E-02  0.1177504E+00
         11   -1    0    0    0    0  0.00000000000E+00  0.00000000000E+00  0.10002470179E+04  0.10002470179E+04  0.51100000000E-03 0. -1.
          2   -1    0    0  501    0 -0.00000000000E+00 -0.00000000000E+00 -0.30488687857E+02  0.30488687963E+02  0.25500000000E-02 0. -1.
         11    1    1    2    0    0  0.79651256119E+01  0.90561074987E+02  0.24502481792E+03  0.26134634669E+03  0.51100000000E-03 0. -1.
         22    1    1    2    0    0  0.14687096166E+02  0.78256239841E+02  0.33008334252E+03  0.33955082517E+03  0.00000000000E+00 0. -1.
          2    1    1    2  501    0 -0.22652221778E+02 -0.16881731483E+03  0.39465016957E+03  0.42983853397E+03  0.25500000000E-02 0. -1.
<mgrwt>
<rscale>  0 0.17033029E+03</rscale>
<asrwt>0</asrwt>
<pdfrwt beam="1">  1       11 0.10000000E+01 0.17414940E+03</pdfrwt>
<pdfrwt beam="2">  1        2 0.46917259E-02 0.17033029E+03</pdfrwt>
<totfact> 0.20292499E+03</totfact>
</mgrwt>
</event>
<event>
 5    1  0.2968854E-003  0.8874065E+02  0.7818608E-02  0.1305930E+00
         11   -1    0    0    0    0  0.00000000000E+00  0.00000000000E+00  0.10000175998E+04  0.10000175998E+04  0.51100000000E-03 0. -1.
          2   -1    0    0  501    0 -0.00000000000E+00 -0.00000000000E+00 -0.12077921342E+02  0.12077921611E+02  0.25500000000E-02 0. -1.
         11    1    1    2    0    0 -0.32663474972E+02  0.83010282665E+01  0.91598034093E+02  0.97601278257E+02  0.51100000000E-03 0. -1.
         22    1    1    2    0    0 -0.35681764079E+02 -0.76689884664E+02  0.40934977681E+03  0.41799732830E+03  0.00000000000E+00 0. -1.
          2    1    1    2  501    0  0.68345239050E+02  0.68388856397E+02  0.48699186752E+03  0.49649691481E+03  0.25500000000E-02 0. -1.
<mgrwt>
<rscale>  0 0.88740654E+02</rscale>
<asrwt>0</asrwt>
<pdfrwt beam="1">  1       11 0.10000000E+01 0.33701792E+02</pdfrwt>
<pdfrwt beam="2">  1        2 0.18581744E-02 0.88740654E+02</pdfrwt>
<totfact> 0.65480587E+03</totfact>
</mgrwt>
</event>
<event>
 5    1  0.2968854E-003  0.5071395E+03  0.7818608E-02  0.1011932E+00
         11   -1    0    0    0    0  0.00000000000E+00  0.00000000000E+00  0.10001174460E+04  0.10001174460E+04  0.51100000000E-03 0. -1.
          2   -1    0    0  501    0 -0.00000000000E+00 -0.00000000000E+00 -0.28381390358E+03  0.28381390359E+03  0.25500000000E-02 0.  1.
         11    1    1    2    0    0 -0.96943239931E+02 -0.48930424263E+03  0.38811396946E+03  0.63201984693E+03  0.51100000000E-03 0. -1.
         22    1    1    2    0    0  0.69163780747E+01 -0.16629376537E+02  0.78577041854E+02  0.80614663407E+02  0.00000000000E+00 0. -1.
          2    1    1    2  501    0  0.90026861857E+02  0.50593361917E+03  0.24961253113E+03  0.57129683928E+03  0.25500000000E-02 0.  1.
<mgrwt>
<rscale>  0 0.50713953E+03</rscale>
<asrwt>0</asrwt>
<pdfrwt beam="1">  1       11 0.10000000E+01 0.18010343E+02</pdfrwt>
<pdfrwt beam="2">  1        2 0.43668804E-01 0.50713953E+03</pdfrwt>
<totfact> 0.14425830E+02</totfact>
</mgrwt>
</event>
<event>
 5    1  0.2968854E-003  0.3224503E+03  0.7818608E-02  0.1077946E+00
         11   -1    0    0    0    0  0.00000000000E+00  0.00000000000E+00  0.10000313228E+04  0.10000313228E+04  0.51100000000E-03 0. -1.
         -2   -1    0    0    0  501 -0.00000000000E+00 -0.00000000000E+00 -0.15925765727E+03  0.15925765729E+03  0.25500000000E-02 0.  1.
         11    1    1    2    0    0  0.18228129088E+03 -0.16990684673E+03  0.52973434862E+03  0.58541718943E+03  0.51100000000E-03 0. -1.
         22    1    1    2    0    0  0.41498114133E+02 -0.51869732126E+02  0.24251388044E+03  0.25144690254E+03  0.00000000000E+00 0.  1.
         -2    1    1    2    0  501 -0.22377940501E+03  0.22177657886E+03  0.68525436473E+02  0.32242488813E+03  0.25500000000E-02 0.  1.
<mgrwt>
<rscale>  0 0.31505884E+03</rscale>
<asrwt>0</asrwt>
<pdfrwt beam="1">  1       11 0.10000000E+01 0.32245028E+03</pdfrwt>
<pdfrwt beam="2">  1       -2 0.24501945E-01 0.31505884E+03</pdfrwt>
<totfact> 0.11886849E+02</totfact>
</mgrwt>
</event>
<event>
 5    1  0.2968854E-003  0.3956365E+02  0.7818608E-02  0.1678291E+00
         11   -1    0    0    0    0  0.00000000000E+00  0.00000000000E+00  0.10002995849E+04  0.10002995849E+04  0.51100000000E-03 0.  1.
          2   -1    0    0  501    0 -0.00000000000E+00 -0.00000000000E+00 -0.31772397957E+01  0.31772408190E+01  0.25500000000E-02 0.  1.
         11    1    1    2    0    0  0.36889952292E+02  0.26091164952E+02  0.26138141262E+03  0.26525810135E+03  0.51100000000E-03 0.  1.
         22    1    1    2    0    0 -0.13647459005E+02  0.44729091879E+01  0.74978622536E+02  0.76341691698E+02  0.00000000000E+00 0.  1.
          2    1    1    2  501    0 -0.23242493287E+02 -0.30564074140E+02  0.66076230998E+03  0.66187703270E+03  0.25500000000E-02 0.  1.
<mgrwt>
<rscale>  0 0.23837013E+02</rscale>
<asrwt>0</asrwt>
<pdfrwt beam="1">  1       11 0.10000000E+01 0.39563649E+02</pdfrwt>
<pdfrwt beam="2">  1        2 0.48895263E-03 0.23837013E+02</pdfrwt>
<totfact> 0.30313575E+04</totfact>
</mgrwt>
</event>
<event>
 5    1  0.2968854E-003  0.5087592E+02  0.7818608E-02  0.1463317E+00
         11   -1    0    0    0    0  0.00000000000E+00  0.00000000000E+00  0.99978726702E+03  0.99978726702E+03  0.51100000000E-03 0. -1.
          2   -1    0    0  501    0 -0.00000000000E+00 -0.00000000000E+00 -0.53915188032E+01  0.53915194063E+01  0.25500000000E-02 0. -1.
         11    1    1    2    0    0  0.25648488990E+02  0.17696742785E+02  0.86101946427E+02  0.91567269651E+02  0.51100000000E-03 0. -1.
         22    1    1    2    0    0  0.30203957815E+01  0.19313698177E+02  0.45164710045E+02  0.49213745655E+02  0.00000000000E+00 0. -1.
          2    1    1    2  501    0 -0.28668884771E+02 -0.37010440962E+02  0.86312909175E+03  0.86439777112E+03  0.25500000000E-02 0. -1.
<mgrwt>
<rscale>  0 0.46815358E+02</rscale>
<asrwt>0</asrwt>
<pdfrwt beam="1">  1       11 0.10000000E+01 0.50875919E+02</pdfrwt>
<pdfrwt beam="2">  1        2 0.82928800E-03 0.46815358E+02</pdfrwt>
<totfact> 0.17509479E+04</totfact>
</mgrwt>
</event>
<event>
 5    1  0.2968854E-003  0.7883697E+02  0.7818608E-02  0.1385701E+00
         11   -1    0    0    0    0  0.00000000000E+00  0.00000000000E+00  0.10002984717E+04  0.10002984717E+04  0.51100000000E-03 0. -1.
          2   -1    0    0  501    0 -0.00000000000E+00 -0.00000000000E+00 -0.28726830299E+02  0.28726830412E+02  0.25500000000E-02 0.  1.
         11    1    1    2    0    0  0.24781034128E+02 -0.66199807699E+02  0.41812630349E+03  0.42405909950E+03  0.51100000000E-03 0. -1.
         22    1    1    2    0    0 -0.87070710384E+02  0.56841195442E+02  0.52613493870E+03  0.53631166669E+03  0.00000000000E+00 0. -1.
          2    1    1    2  501    0  0.62289676256E+02  0.93586122571E+01  0.27310399201E+02  0.68654535920E+02  0.25500000000E-02 0.  1.
<mgrwt>
<rscale>  0 0.62988788E+02</rscale>
<asrwt>0</asrwt>
<pdfrwt beam="1">  1       11 0.10000000E+01 0.78836970E+02</pdfrwt>
<pdfrwt beam="2">  1        2 0.44208313E-02 0.62988788E+02</pdfrwt>
<totfact> 0.20007962E+03</totfact>
</mgrwt>
</event>
<event>
 5    1  0.2968854E-003  0.1513561E+03  0.7818608E-02  0.1198816E+00
         11   -1    0    0    0    0  0.00000000000E+00  0.00000000000E+00  0.10003328784E+04  0.10003328784E+04  0.51100000000E-03 0.  1.
          2   -1    0    0  501    0 -0.00000000000E+00 -0.00000000000E+00 -0.48163994309E+02  0.48163994376E+02  0.25500000000E-02 0.  1.
         11    1    1    2    0    0  0.13371561560E+02  0.42570747761E+02  0.51659201263E+02  0.68262290460E+02  0.51100000000E-03 0.  1.
         22    1    1    2    0    0  0.13676887493E+02 -0.18377971290E+03  0.74910527761E+03  0.77144070224E+03  0.00000000000E+00 0.  1.
          2    1    1    2  501    0 -0.27048449053E+02  0.14120896514E+03  0.15140440522E+03  0.20879388008E+03  0.25500000000E-02 0.  1.
<mgrwt>
<rscale>  0 0.15135614E+03</rscale>
<asrwt>0</asrwt>
<pdfrwt beam="1">  1       11 0.10000000E+01 0.44621399E+02</pdfrwt>
<pdfrwt beam="2">  1        2 0.74123116E-02 0.15135614E+03</pdfrwt>
<totfact> 0.11126929E+03</totfact>
</mgrwt>
</event>
<event>
 5    1  0.2968854E-003  0.5947444E+02  0.7818608E-02  0.1423189E+00
         11   -1    0    0    0    0  0.00000000000E+00  0.00000000000E+00  0.10004057911E+04  0.10004057911E+04  0.51100000000E-03 0.  1.
          2   -1    0    0  501    0 -0.00000000000E+00 -0.00000000000E+00 -0.72599903206E+01  0.72599907685E+01  0.25500000000E-02 0.  1.
         11    1    1    2    0    0  0.15435329477E+02  0.22886554096E+01  0.47941434503E+02  0.50416946378E+02  0.51100000000E-03 0.  1.
         22    1    1    2    0    0  0.32444010146E+02 -0.28012210001E+02  0.83751064258E+02  0.94082615120E+02  0.00000000000E+00 0.  1.
          2    1    1    2  501    0 -0.47879339623E+02  0.25723554591E+02  0.86145330201E+03  0.86316622036E+03  0.25500000000E-02 0.  1.
<mgrwt>
<rscale>  0 0.54351931E+02</rscale>
<asrwt>0</asrwt>
<pdfrwt beam="1">  1       11 0.10000000E+01 0.59474440E+02</pdfrwt>
<pdfrwt beam="2">  1        2 0.11173748E-02 0.54351931E+02</pdfrwt>
<totfact> 0.12057437E+04</totfact>
</mgrwt>
</event>
<event>
 5    1  0.2968854E-003  0.3683105E+03  0.7818608E-02  0.1068213E+00
         11   -1    0    0    0    0  0.00000000000E+00  0.00000000000E+00  0.10000871716E+04  0.10000871716E+04  0.51100000000E-03 0. -1.
          2   -1    0    0  501    0 -0.00000000000E+00 -0.00000000000E+00 -0.36011699650E+03  0.36011699651E+03  0.25500000000E-02 0. -1.
         11    1    1    2    0    0 -0.15229313419E+03  0.13707678483E+02  0.49652378478E+03  0.51953533857E+03  0.51100000000E-03 0. -1.
         22    1    1    2    0    0 -0.16934279267E+03 -0.11327199339E+03  0.37863436066E+03  0.42996686499E+03  0.00000000000E+00 0. -1.
          2    1    1    2  501    0  0.32163592686E+03  0.99564314907E+02 -0.23518797037E+03  0.41070196452E+03  0.25500000000E-02 0. -1.
<mgrwt>
<rscale>  0 0.33669381E+03</rscale>
<asrwt>0</asrwt>
<pdfrwt beam="1">  1       11 0.10000000E+01 0.36831054E+03</pdfrwt>
<pdfrwt beam="2">  1        2 0.55407443E-01 0.33669381E+03</pdfrwt>
<totfact> 0.11120139E+02</totfact>
</mgrwt>
</event>
<event>
 5    1  0.2968854E-003  0.4701131E+02  0.7818608E-02  0.1610719E+00
         11   -1    0    0    0    0  0.00000000000E+00  0.00000000000E+00  0.10003496736E+04  0.10003496736E+04  0.51100000000E-03 0.  1.
          2   -1    0    0  501    0 -0.00000000000E+00 -0.00000000000E+00 -0.47726125354E+01  0.47726132166E+01  0.25500000000E-02 0.  1.
         11    1    1    2    0    0 -0.34778010260E+02  0.25272743047E+02  0.14443203593E+03  0.15069450734E+03  0.51100000000E-03 0.  1.
         22    1    1    2    0    0 -0.12217023997E+02 -0.12878107972E+02  0.90073788771E+02  0.91806256670E+02  0.00000000000E+00 0.  1.
          2    1    1    2  501    0  0.46995034257E+02 -0.12394635075E+02  0.76107123641E+03  0.76262152285E+03  0.25500000000E-02 0.  1.
<mgrwt>
<rscale>  0 0.28887743E+02</rscale>
<asrwt>0</asrwt>
<pdfrwt beam="1">  1       11 0.10000000E+01 0.47011306E+02</pdfrwt>
<pdfrwt beam="2">  1        2 0.73450486E-03 0.28887743E+02</pdfrwt>
<totfact> 0.18585767E+04</totfact>
</mgrwt>
</event>
<event>
 5    1  0.2968854E-003  0.9623388E+02  0.7818608E-02  0.1288421E+00
         11   -1    0    0    0    0  0.00000000000E+00  0.00000000000E+00  0.10001588131E+04  0.10001588131E+04  0.51100000000E-03 0. -1.
          2   -1    0    0  501    0 -0.00000000000E+00 -0.00000000000E+00 -0.20490871698E+02  0.20490871857E+02  0.25500000000E-02 0. -1.
         11    1    1    2    0    0 -0.33550653446E+02  0.89112369721E+02  0.12739590919E+03  0.15904835259E+03  0.51100000000E-03 0. -1.
         22    1    1    2    0    0 -0.20478139584E+02 -0.11337539085E+01  0.86357310544E+02  0.88759363918E+02  0.00000000000E+00 0. -1.
          2    1    1    2  501    0  0.54028793031E+02 -0.87978615812E+02  0.76591472162E+03  0.77284196840E+03  0.25500000000E-02 0. -1.
<mgrwt>
<rscale>  0 0.96233883E+02</rscale>
<asrwt>0</asrwt>
<pdfrwt beam="1">  1       11 0.10000000E+01 0.20509500E+02</pdfrwt>
<pdfrwt beam="2">  1        2 0.31529424E-02 0.96233883E+02</pdfrwt>
<totfact> 0.32560394E+03</totfact>
</mgrwt>
</event>
<event>
 5    1  0.2968854E-003  0.2492835E+03  0.7818608E-02  0.1115502E+00
         11   -1    0    0    0    0  0.00000000000E+00  0.00000000000E+00  0.10004870420E+04  0.10004870420E+04  0.51100000000E-03 0. -1.
          2   -1    0    0  501    0 -0.00000000000E+00 -0.00000000000E+00 -0.24878659095E+03  0.24878659096E+03  0.25500000000E-02 0. -1.
         11    1    1    2    0    0 -0.19348157059E+03  0.13017064776E+03  0.86509374079E+03  0.89597248621E+03  0.51100000000E-03 0. -1.
         22    1    1    2    0    0 -0.58863701836E+01  0.14887319276E+02  0.53320840617E+02  0.55672198387E+02  0.00000000000E+00 0. -1.
          2    1    1    2  501    0  0.19936794077E+03 -0.14505796704E+03 -0.16671413038E+03  0.29762894833E+03  0.25500000000E-02 0. -1.
<mgrwt>
<rscale>  0 0.24655504E+03</rscale>
<asrwt>0</asrwt>
<pdfrwt beam="1">  1       11 0.10000000E+01 0.24928350E+03</pdfrwt>
<pdfrwt beam="2">  1        2 0.38293501E-01 0.24655504E+03</pdfrwt>
<totfact> 0.16603343E+02</totfact>
</mgrwt>
</event>
<event>
 5    1  0.2968854E-003  0.2623898E+03  0.7818608E-02  0.1106505E+00
         11   -1    0    0    0    0  0.00000000000E+00  0.00000000000E+00  0.10000023600E+04  0.10000023600E+04  0.51100000000E-03 0.  1.
          2   -1    0    0  501    0 -0.00000000000E+00 -0.00000000000E+00 -0.14646456129E+03  0.14646456131E+03  0.25500000000E-02 0.  1.
         11    1    1    2    0    0 -0.80226928471E+02 -0.23781177972E+03  0.79769352662E+03  0.83624503887E+03  0.51100000000E-03 0.  1.
         22    1    1    2    0    0 -0.72130290070E+01 -0.81751510342E+01  0.47804970423E+02  0.49032398259E+02  0.00000000000E+00 0. -1.
          2    1    1    2  501    0  0.87439957478E+02  0.24598693075E+03  0.80393016600E+01  0.26118948417E+03  0.25500000000E-02 0.  1.
<mgrwt>
<rscale>  0 0.26106573E+03</rscale>
<asrwt>0</asrwt>
<pdfrwt beam="1">  1       11 0.10000000E+01 0.26238985E+03</pdfrwt>
<pdfrwt beam="2">  1        2 0.22533062E-01 0.26106573E+03</pdfrwt>
<totfact> 0.29887743E+02</totfact>
</mgrwt>
</event>
<event>
 5    1  0.2968854E-003  0.1905523E+03  0.7818608E-02  0.1162151E+00
         11   -1    0    0    0    0  0.00000000000E+00  0.00000000000E+00  0.10001046221E+04  0.10001046221E+04  0.51100000000E-03 0. -1.
         -2   -1    0    0    0  501 -0.00000000000E+00 -0.00000000000E+00 -0.56807217881E+02  0.56807217938E+02  0.25500000000E-02 0.  1.
         11    1    1    2    0    0 -0.60012923559E+02  0.39844268124E+02  0.30265817554E+03  0.31111266114E+03  0.51100000000E-03 0. -1.
         22    1    1    2    0    0 -0.11747785086E+03  0.15657121772E+02  0.49667745003E+03  0.51062185643E+03  0.00000000000E+00 0. -1.
         -2    1    1    2    0  501  0.17749077442E+03 -0.55501389896E+02  0.14396177865E+03  0.23517732247E+03  0.25500000000E-02 0.  1.
<mgrwt>
<rscale>  0 0.18596607E+03</rscale>
<asrwt>0</asrwt>
<pdfrwt beam="1">  1       11 0.10000000E+01 0.19055229E+03</pdfrwt>
<pdfrwt beam="2">  1       -2 0.87404861E-02 0.18596607E+03</pdfrwt>
<totfact> 0.64261273E+02</totfact>
</mgrwt>
</event>
<event>
 5    1  0.2968854E-003  0.3919903E+03  0.7818608E-02  0.1046589E+00
         11   -1    0    0    0    0  0.00000000000E+00  0.00000000000E+00  0.10000433444E+04  0.10000433444E+04  0.51100000000E-03 0. -1.
          2   -1    0    0  501    0 -0.00000000000E+00 -0.00000000000E+00 -0.24895406060E+03  0.24895406062E+03  0.25500000000E-02 0. -1.
         11    1    1    2    0    0  0.28996745366E+03  0.24672033395E+03  0.45067556069E+03  0.58996653157E+03  0.51100000000E-03 0. -1.
         22    1    1    2    0    0  0.50551719716E+02 -0.39958813208E+02  0.24917615943E+03  0.25737315623E+03  0.00000000000E+00 0. -1.
          2    1    1    2  501    0 -0.34051917337E+03 -0.20676152074E+03  0.51237563721E+02  0.40165771726E+03  0.25500000000E-02 0. -1.
<mgrwt>
<rscale>  0 0.39199025E+03</rscale>
<asrwt>0</asrwt>
<pdfrwt beam="1">  1       11 0.10000000E+01 0.64437436E+02</pdfrwt>
<pdfrwt beam="2">  1        2 0.38302284E-01 0.39199025E+03</pdfrwt>
<totfact> 0.16649407E+02</totfact>
</mgrwt>
</event>
<event>
 5    1  0.2968854E-003  0.1513702E+03  0.7818608E-02  0.1198799E+00
         11   -1    0    0    0    0  0.00000000000E+00  0.00000000000E+00  0.10003381141E+04  0.10003381141E+04  0.51100000000E-03 0. -1.
          2   -1    0    0  501    0 -0.00000000000E+00 -0.00000000000E+00 -0.32757273707E+02  0.32757273806E+02  0.25500000000E-02 0. -1.
         11    1    1    2    0    0  0.84149900877E+01 -0.15815345250E+02  0.56298142278E+01  0.18778498663E+02  0.51100000000E-03 0. -1.
         22    1    1    2    0    0 -0.14502936543E+03 -0.46543958844E+02  0.31136708725E+03  0.34662561931E+03  0.00000000000E+00 0. -1.
          2    1    1    2  501    0  0.13661437534E+03  0.62359304093E+02  0.65058393887E+03  0.66769126989E+03  0.25500000000E-02 0. -1.
<mgrwt>
<rscale>  0 0.15137019E+03</rscale>
<asrwt>0</asrwt>
<pdfrwt beam="1">  1       11 0.10000000E+01 0.17914729E+02</pdfrwt>
<pdfrwt beam="2">  1        2 0.50412844E-02 0.15137019E+03</pdfrwt>
<totfact> 0.18290485E+03</totfact>
</mgrwt>
</event>
<event>
 5    1  0.2968854E-003  0.1961858E+03  0.7818608E-02  0.1658411E+00
         11   -1    0    0    0    0  0.00000000000E+00  0.00000000000E+00  0.10003633287E+04  0.10003633287E+04  0.51100000000E-03 0. -1.
          2   -1    0    0  501    0 -0.00000000000E+00 -0.00000000000E+00 -0.21317192613E+03  0.21317192614E+03  0.25500000000E-02 0. -1.
         11    1    1    2    0    0 -0.19577186509E+03  0.45136343746E+02  0.48736085921E+03  0.52714753133E+03  0.51100000000E-03 0. -1.
         22    1    1    2    0    0  0.19133847264E+03 -0.20348345876E+02  0.47339496060E+03  0.51100612033E+03  0.00000000000E+00 0. -1.
          2    1    1    2  501    0  0.44333924481E+01 -0.24787997869E+02 -0.17356441723E+03  0.17538160320E+03  0.25500000000E-02 0. -1.
<mgrwt>
<rscale>  0 0.25181339E+02</rscale>
<asrwt>0</asrwt>
<pdfrwt beam="1">  1       11 0.10000000E+01 0.19618577E+03</pdfrwt>
<pdfrwt beam="2">  1        2 0.32807596E-01 0.25181339E+02</pdfrwt>
<totfact> 0.18691563E+02</totfact>
</mgrwt>
</event>
<event>
 5    1  0.2968854E-003  0.6733422E+03  0.7818608E-02  0.9792163E-01
         11   -1    0    0    0    0  0.00000000000E+00  0.00000000000E+00  0.10001149325E+04  0.10001149325E+04  0.51100000000E-03 0. -1.
          2   -1    0    0  501    0 -0.00000000000E+00 -0.00000000000E+00 -0.31265422655E+04  0.31265422655E+04  0.25500000000E-02 0. -1.
         11    1    1    2    0    0  0.32602366455E+03 -0.45859851755E+03  0.63389276228E+03  0.84759899966E+03  0.51100000000E-03 0. -1.
         22    1    1    2    0    0  0.74805000346E+02 -0.63034031630E+02  0.21270518471E+03  0.23412085090E+03  0.00000000000E+00 0. -1.
          2    1    1    2  501    0 -0.40082866490E+03  0.52163254918E+03 -0.29730252799E+04  0.30449373475E+04  0.25500000000E-02 0. -1.
<mgrwt>
<rscale>  0 0.65784811E+03</rscale>
<asrwt>0</asrwt>
<pdfrwt beam="1">  1       11 0.10000000E+01 0.67334222E+03</pdfrwt>
<pdfrwt beam="2">  1        2 0.48106177E+00 0.65784811E+03</pdfrwt>
<totfact> 0.19324494E+00</totfact>
</mgrwt>
</event>
<event>
 5    1  0.2968854E-003  0.8515363E+02  0.7818608E-02  0.1318269E+00
         11   -1    0    0    0    0  0.00000000000E+00  0.00000000000E+00  0.10002761937E+04  0.10002761937E+04  0.51100000000E-03 0. -1.
         -2   -1    0    0    0  501 -0.00000000000E+00 -0.00000000000E+00 -0.72095813900E+01  0.72095818410E+01  0.25500000000E-02 0.  1.
         11    1    1    2    0    0 -0.10109978761E+02 -0.72601177805E+02  0.40130374093E+03  0.40794342153E+03  0.51100000000E-03 0. -1.
         22    1    1    2    0    0 -0.64327422363E+01 -0.96767942235E+01  0.51087690093E+02  0.52392486085E+02  0.00000000000E+00 0. -1.
         -2    1    1    2    0  501  0.16542720997E+02  0.82277972028E+02  0.54067518125E+03  0.54714986788E+03  0.25500000000E-02 0.  1.
<mgrwt>
<rscale>  0 0.83924527E+02</rscale>
<asrwt>0</asrwt>
<pdfrwt beam="1">  1       11 0.10000000E+01 0.85153632E+02</pdfrwt>
<pdfrwt beam="2">  1       -2 0.11094727E-02 0.83924527E+02</pdfrwt>
<totfact> 0.12394987E+04</totfact>
</mgrwt>
</event>
<event>
 5    1  0.2968854E-003  0.2289406E+03  0.7818608E-02  0.1127388E+00
         11   -1    0    0    0    0  0.00000000000E+00  0.00000000000E+00  0.10008399014E+04  0.10008399014E+04  0.51100000000E-03 0.  1.
          2   -1    0    0  501    0 -0.00000000000E+00 -0.00000000000E+00 -0.15603294676E+04  0.15603294676E+04  0.25500000000E-02 0. -1.
         11    1    1    2    0    0  0.62954581560E+02  0.22814523073E+03  0.76579252149E+03  0.80153085506E+03  0.51100000000E-03 0.  1.
         22    1    1    2    0    0  0.29402474829E+02 -0.18722266003E+02  0.20722362645E+03  0.21013486176E+03  0.00000000000E+00 0. -1.
          2    1    1    2  501    0 -0.92357056389E+02 -0.20942296473E+03 -0.15325057142E+04  0.15495036521E+04  0.25500000000E-02 0. -1.
<mgrwt>
<rscale>  0 0.22894062E+03</rscale>
<asrwt>0</asrwt>
<pdfrwt beam="1">  1       11 0.10000000E+01 0.34857263E+02</pdfrwt>
<pdfrwt beam="2">  1        2 0.24025230E+00 0.22894062E+03</pdfrwt>
<totfact> 0.16066323E+01</totfact>
</mgrwt>
</event>
<event>
 5    1  0.2968854E-003  0.1620694E+03  0.7818608E-02  0.1186380E+00
         11   -1    0    0    0    0  0.00000000000E+00  0.00000000000E+00  0.10000056493E+04  0.10000056493E+04  0.51100000000E-03 0. -1.
          2   -1    0    0  501    0 -0.00000000000E+00 -0.00000000000E+00 -0.25476037828E+02  0.25476037956E+02  0.25500000000E-02 0. -1.
         11    1    1    2    0    0  0.14659431602E+03 -0.45406287927E+02  0.55199530658E+03  0.57293144700E+03  0.51100000000E-03 0. -1.
         22    1    1    2    0    0 -0.72131406939E+02  0.44302128250E+02  0.26717356731E+03  0.28026297206E+03  0.00000000000E+00 0. -1.
          2    1    1    2  501    0 -0.74462909081E+02  0.11041596765E+01  0.15536073759E+03  0.17228726821E+03  0.25500000000E-02 0. -1.
<mgrwt>
<rscale>  0 0.16206937E+03</rscale>
<asrwt>0</asrwt>
<pdfrwt beam="1">  1       11 0.10000000E+01 0.15346539E+03</pdfrwt>
<pdfrwt beam="2">  1        2 0.39194125E-02 0.16206937E+03</pdfrwt>
<totfact> 0.25652772E+03</totfact>
</mgrwt>
</event>
<event>
 5    1  0.2968854E-003  0.1172364E+03  0.7818608E-02  0.1247727E+00
         11   -1    0    0    0    0  0.00000000000E+00  0.00000000000E+00  0.10001575097E+04  0.10001575097E+04  0.51100000000E-03 0. -1.
          2   -1    0    0  501    0 -0.00000000000E+00 -0.00000000000E+00 -0.21492068318E+02  0.21492068470E+02  0.25500000000E-02 0. -1.
         11    1    1    2    0    0  0.32033843069E+02 -0.12482397021E+02  0.11114946198E+03  0.11634509115E+03  0.51100000000E-03 0. -1.
         22    1    1    2    0    0 -0.90631554243E+02 -0.86644299155E+02  0.61671285538E+03  0.62932984928E+03  0.00000000000E+00 0. -1.
          2    1    1    2  501    0  0.58597711174E+02  0.99126696176E+02  0.25080312404E+03  0.27597463776E+03  0.25500000000E-02 0. -1.
<mgrwt>
<rscale>  0 0.11723636E+03</rscale>
<asrwt>0</asrwt>
<pdfrwt beam="1">  1       11 0.10000000E+01 0.34379914E+02</pdfrwt>
<pdfrwt beam="2">  1        2 0.33069928E-02 0.11723636E+03</pdfrwt>
<totfact> 0.31199628E+03</totfact>
</mgrwt>
</event>
<event>
 5    1  0.2968854E-003  0.1056934E+03  0.7818608E-02  0.1268759E+00
         11   -1    0    0    0    0  0.00000000000E+00  0.00000000000E+00  0.10000058334E+04  0.10000058334E+04  0.51100000000E-03 0. -1.
          2   -1    0    0  501    0 -0.00000000000E+00 -0.00000000000E+00 -0.55469832380E+02  0.55469832439E+02  0.25500000000E-02 0.  1.
         11    1    1    2    0    0  0.10623722800E+03  0.51203809255E+02  0.65076677751E+03  0.66136644714E+03  0.51100000000E-03 0. -1.
         22    1    1    2    0    0 -0.16326621330E+02 -0.10676620735E+03  0.26255545762E+03  0.28390306431E+03  0.00000000000E+00 0.  1.
          2    1    1    2  501    0 -0.89910606670E+02  0.55562398100E+02  0.31213765867E+02  0.11020615437E+03  0.25500000000E-02 0.  1.
<mgrwt>
<rscale>  0 0.10569341E+03</rscale>
<asrwt>0</asrwt>
<pdfrwt beam="1">  1       11 0.10000000E+01 0.10338011E+03</pdfrwt>
<pdfrwt beam="2">  1        2 0.85338699E-02 0.10569341E+03</pdfrwt>
<totfact> 0.91071064E+02</totfact>
</mgrwt>
</event>
<event>
 5    1  0.2968854E-003  0.7822083E+02  0.7818608E-02  0.1350876E+00
         11   -1    0    0    0    0  0.00000000000E+00  0.00000000000E+00  0.99998436570E+03  0.99998436570E+03  0.51100000000E-03 0. -1.
          2   -1    0    0  501    0 -0.00000000000E+00 -0.00000000000E+00 -0.62092280668E+01  0.62092285904E+01  0.25500000000E-02 0. -1.
         11    1    1    2    0    0 -0.34478659629E+01  0.23862000934E+02  0.10388278682E+03  0.10664387590E+03  0.51100000000E-03 0. -1.
         22    1    1    2    0    0  0.33166874496E+02  0.42577251349E+02  0.26553374139E+03  0.27096315563E+03  0.00000000000E+00 0. -1.
          2    1    1    2  501    0 -0.29719008534E+02 -0.66439252283E+02  0.62435860942E+03  0.62858656276E+03  0.25500000000E-02 0. -1.
<mgrwt>
<rscale>  0 0.72783197E+02</rscale>
<asrwt>0</asrwt>
<pdfrwt beam="1">  1       11 0.10000000E+01 0.78220834E+02</pdfrwt>
<pdfrwt beam="2">  1        2 0.95525093E-03 0.72783197E+02</pdfrwt>
<totfact> 0.15671761E+04</totfact>
</mgrwt>
</event>
<event>
 5    1  0.2968854E-003  0.1667075E+03  0.7818608E-02  0.1181326E+00
         11   -1    0    0    0    0  0.00000000000E+00  0.00000000000E+00  0.10002704541E+04  0.10002704541E+04  0.51100000000E-03 0. -1.
          2   -1    0    0  501    0 -0.00000000000E+00 -0.00000000000E+00 -0.49188763861E+02  0.49188763928E+02  0.25500000000E-02 0.  1.
         11    1    1    2    0    0  0.81201643509E+02  0.15129055979E+03  0.67773658796E+03  0.69914907069E+03  0.51100000000E-03 0. -1.
         22    1    1    2    0    0  0.14926119315E+02 -0.16365667215E+02  0.12806346896E+03  0.12996490366E+03  0.00000000000E+00 0. -1.
          2    1    1    2  501    0 -0.96127762824E+02 -0.13492489257E+03  0.14528163330E+03  0.22034524366E+03  0.25500000000E-02 0.  1.
<mgrwt>
<rscale>  0 0.16670754E+03</rscale>
<asrwt>0</asrwt>
<pdfrwt beam="1">  1       11 0.10000000E+01 0.22150036E+02</pdfrwt>
<pdfrwt beam="2">  1        2 0.75695486E-02 0.16670754E+03</pdfrwt>
<totfact> 0.10902249E+03</totfact>
</mgrwt>
</event>
<event>
 5    1  0.2968854E-003  0.2462105E+03  0.7818608E-02  0.1120672E+00
         11   -1    0    0    0    0  0.00000000000E+00  0.00000000000E+00  0.10000650440E+04  0.10000650440E+04  0.51100000000E-03 0. -1.
         -2   -1    0    0    0  501 -0.00000000000E+00 -0.00000000000E+00 -0.71692092057E+03  0.71692092058E+03  0.25500000000E-02 0. -1.
         11    1    1    2    0    0 -0.29520153665E+02  0.20068923393E+03  0.79897266919E+03  0.82432089273E+03  0.51100000000E-03 0. -1.
         22    1    1    2    0    0  0.21125684456E+02  0.37847688501E+02  0.16532000770E+03  0.17090771491E+03  0.00000000000E+00 0.  1.
         -2    1    1    2    0  501  0.83944692085E+01 -0.23853692243E+03 -0.68114855344E+03  0.72175735696E+03  0.25500000000E-02 0. -1.
<mgrwt>
<rscale>  0 0.23868458E+03</rscale>
<asrwt>0</asrwt>
<pdfrwt beam="1">  1       11 0.10000000E+01 0.24621051E+03</pdfrwt>
<pdfrwt beam="2">  1       -2 0.11030270E+00 0.23868458E+03</pdfrwt>
<totfact> 0.55549542E+00</totfact>
</mgrwt>
</event>
<event>
 5    1  0.2968854E-003  0.1913516E+03  0.7818608E-02  0.1157248E+00
         11   -1    0    0    0    0  0.00000000000E+00  0.00000000000E+00  0.10001834180E+04  0.10001834180E+04  0.51100000000E-03 0. -1.
          2   -1    0    0  501    0 -0.00000000000E+00 -0.00000000000E+00 -0.10976902208E+03  0.10976902211E+03  0.25500000000E-02 0.  1.
         11    1    1    2    0    0 -0.14469823316E+03 -0.46832999027E+02  0.81749677789E+03  0.83152383630E+03  0.51100000000E-03 0. -1.
         22    1    1    2    0    0 -0.39587553736E+02 -0.20266045874E+02  0.69216111034E+02  0.82272456222E+02  0.00000000000E+00 0.  1.
          2    1    1    2  501    0  0.18428578689E+03  0.67099044902E+02  0.37015069999E+01  0.19615614759E+03  0.25500000000E-02 0.  1.
<mgrwt>
<rscale>  0 0.19135160E+03</rscale>
<asrwt>0</asrwt>
<pdfrwt beam="1">  1       11 0.10000000E+01 0.44473442E+02</pdfrwt>
<pdfrwt beam="2">  1        2 0.16890639E-01 0.19135160E+03</pdfrwt>
<totfact> 0.41265960E+02</totfact>
</mgrwt>
</event>
<event>
 5    1  0.2968854E-003  0.3444243E+03  0.7818608E-02  0.1069387E+00
         11   -1    0    0    0    0  0.00000000000E+00  0.00000000000E+00  0.99981801100E+03  0.99981801100E+03  0.51100000000E-03 0. -1.
          2   -1    0    0  501    0 -0.00000000000E+00 -0.00000000000E+00 -0.27711454376E+03  0.27711454377E+03  0.25500000000E-02 0. -1.
         11    1    1    2    0    0 -0.16343342112E+03 -0.18558498366E+03  0.52027033595E+03  0.57604990389E+03  0.51100000000E-03 0. -1.
         22    1    1    2    0    0 -0.51221246185E+02 -0.70284192777E+02  0.33158189872E+03  0.34279737364E+03  0.00000000000E+00 0. -1.
          2    1    1    2  501    0  0.21465466731E+03  0.25586917644E+03 -0.12914876743E+03  0.35808527725E+03  0.25500000000E-02 0. -1.
<mgrwt>
<rscale>  0 0.33398452E+03</rscale>
<asrwt>0</asrwt>
<pdfrwt beam="1">  1       11 0.10000000E+01 0.34442429E+03</pdfrwt>
<pdfrwt beam="2">  1        2 0.42625247E-01 0.33398452E+03</pdfrwt>
<totfact> 0.14801997E+02</totfact>
</mgrwt>
</event>
<event>
 5    1  0.2968854E-003  0.7854969E+02  0.7818608E-02  0.1338228E+00
         11   -1    0    0    0    0  0.00000000000E+00  0.00000000000E+00  0.10002909117E+04  0.10002909117E+04  0.51100000000E-03 0. -1.
          2   -1    0    0  501    0 -0.00000000000E+00 -0.00000000000E+00 -0.89514675343E+01  0.89514678975E+01  0.25500000000E-02 0. -1.
         11    1    1    2    0    0 -0.58473576983E+02 -0.10502038430E+02  0.15643864545E+03  0.16733948072E+03  0.51100000000E-03 0. -1.
         22    1    1    2    0    0 -0.18227572522E+02  0.56769651954E+01  0.54891816010E+02  0.58116983738E+02  0.00000000000E+00 0. -1.
          2    1    1    2  501    0  0.76701149506E+02  0.48250732351E+01  0.78000898266E+03  0.78378591510E+03  0.25500000000E-02 0. -1.
<mgrwt>
<rscale>  0 0.76852766E+02</rscale>
<asrwt>0</asrwt>
<pdfrwt beam="1">  1       11 0.10000000E+01 0.78549688E+02</pdfrwt>
<pdfrwt beam="2">  1        2 0.13775495E-02 0.76852766E+02</pdfrwt>
<totfact> 0.96172035E+03</totfact>
</mgrwt>
</event>
<event>
 5    1  0.2968854E-003  0.1348369E+03  0.7818608E-02  0.1235969E+00
         11   -1    0    0    0    0  0.00000000000E+00  0.00000000000E+00  0.99997699630E+03  0.99997699630E+03  0.51100000000E-03 0. -1.
          2   -1    0    0  501    0 -0.00000000000E+00 -0.00000000000E+00 -0.26988795718E+02  0.26988795839E+02  0.25500000000E-02 0. -1.
         11    1    1    2    0    0  0.99039915399E+02 -0.19486608167E+02  0.12733586703E+03  0.16249017131E+03  0.51100000000E-03 0. -1.
         22    1    1    2    0    0  0.25371782505E+02  0.21369777329E+02  0.56056030026E+02  0.65135806074E+02  0.00000000000E+00 0.  1.
          2    1    1    2  501    0 -0.12441169790E+03 -0.18831691615E+01  0.78959630354E+03  0.79933981476E+03  0.25500000000E-02 0. -1.
<mgrwt>
<rscale>  0 0.12442595E+03</rscale>
<asrwt>0</asrwt>
<pdfrwt beam="1">  1       11 0.10000000E+01 0.13483693E+03</pdfrwt>
<pdfrwt beam="2">  1        2 0.41520268E-02 0.12442595E+03</pdfrwt>
<totfact> 0.23209580E+03</totfact>
</mgrwt>
</event>
<event>
 5    1  0.2968854E-003  0.3302787E+02  0.7818608E-02  0.1594907E+00
         11   -1    0    0    0    0  0.00000000000E+00  0.00000000000E+00  0.10001543440E+04  0.10001543440E+04  0.51100000000E-03 0. -1.
          2   -1    0    0  501    0 -0.00000000000E+00 -0.00000000000E+00 -0.32516708313E+01  0.32516718312E+01  0.25500000000E-02 0. -1.
         11    1    1    2    0    0  0.15187740456E+02  0.11138062474E+02  0.36211943605E+02  0.40817015517E+02  0.51100000000E-03 0. -1.
         22    1    1    2    0    0  0.11800513151E+02  0.26136133550E+01  0.51710045650E+02  0.53103784296E+02  0.00000000000E+00 0.  1.
          2    1    1    2  501    0 -0.26988253607E+02 -0.13751675829E+02  0.90898068391E+03  0.90948521601E+03  0.25500000000E-02 0. -1.
<mgrwt>
<rscale>  0 0.30289840E+02</rscale>
<asrwt>0</asrwt>
<pdfrwt beam="1">  1       11 0.10000000E+01 0.33027874E+02</pdfrwt>
<pdfrwt beam="2">  1        2 0.50033433E-03 0.30289840E+02</pdfrwt>
<totfact> 0.31250733E+04</totfact>
</mgrwt>
</event>
<event>
 5    1  0.2968854E-003  0.8768669E+02  0.7818608E-02  0.1308552E+00
         11   -1    0    0    0    0  0.00000000000E+00  0.00000000000E+00  0.10000352677E+04  0.10000352677E+04  0.51100000000E-03 0.  1.
          2   -1    0    0  501    0 -0.00000000000E+00 -0.00000000000E+00 -0.18040368454E+02  0.18040368634E+02  0.25500000000E-02 0.  1.
         11    1    1    2    0    0 -0.74694441855E+02  0.58686259821E+00  0.25397644682E+03  0.26473314789E+03  0.51100000000E-03 0.  1.
         22    1    1    2    0    0  0.69659735487E+02  0.78055352776E+02  0.29004768959E+03  0.30833874081E+03  0.00000000000E+00 0.  1.
          2    1    1    2  501    0  0.50347063684E+01 -0.78642215375E+02  0.43797076280E+03  0.44500374761E+03  0.25500000000E-02 0.  1.
<mgrwt>
<rscale>  0 0.87686689E+02</rscale>
<asrwt>0</asrwt>
<pdfrwt beam="1">  1       11 0.10000000E+01 0.74696785E+02</pdfrwt>
<pdfrwt beam="2">  1        2 0.27755391E-02 0.87686689E+02</pdfrwt>
<totfact> 0.38171424E+03</totfact>
</mgrwt>
</event>
<event>
 5    1  0.2968854E-003  0.7842032E+02  0.7818608E-02  0.1348891E+00
         11   -1    0    0    0    0  0.00000000000E+00  0.00000000000E+00  0.10001966588E+04  0.10001966588E+04  0.51100000000E-03 0. -1.
          2   -1    0    0  501    0 -0.00000000000E+00 -0.00000000000E+00 -0.84191119372E+01  0.84191123234E+01  0.25500000000E-02 0. -1.
         11    1    1    2    0    0  0.12494393489E+02  0.56852140377E+02  0.17644298775E+03  0.18579667290E+03  0.51100000000E-03 0. -1.
         22    1    1    2    0    0  0.16893532006E+02  0.10410377224E+02  0.47421790274E+02  0.51406162767E+02  0.00000000000E+00 0.  1.
          2    1    1    2  501    0 -0.29387925495E+02 -0.67262517601E+02  0.76791276880E+03  0.77141293542E+03  0.25500000000E-02 0. -1.
<mgrwt>
<rscale>  0 0.73402292E+02</rscale>
<asrwt>0</asrwt>
<pdfrwt beam="1">  1       11 0.10000000E+01 0.78420319E+02</pdfrwt>
<pdfrwt beam="2">  1        2 0.12955027E-02 0.73402292E+02</pdfrwt>
<totfact> 0.10377639E+04</totfact>
</mgrwt>
</event>
<event>
 5    1  0.2968854E-003  0.4083483E+02  0.7818608E-02  0.1502156E+00
         11   -1    0    0    0    0  0.00000000000E+00  0.00000000000E+00  0.99995750919E+03  0.99995750919E+03  0.51100000000E-03 0.  1.
          2   -1    0    0  501    0 -0.00000000000E+00 -0.00000000000E+00 -0.30588688820E+01  0.30588699449E+01  0.25500000000E-02 0.  1.
         11    1    1    2    0    0  0.93413089835E+01  0.11281099355E+02  0.71457441969E+02  0.72943054975E+02  0.51100000000E-03 0.  1.
         22    1    1    2    0    0 -0.41610894563E+02  0.88473053294E+01  0.25252693268E+03  0.25608512860E+03  0.00000000000E+00 0.  1.
          2    1    1    2  501    0  0.32269585579E+02 -0.20128404684E+02  0.67291426566E+03  0.67398819556E+03  0.25500000000E-02 0.  1.
<mgrwt>
<rscale>  0 0.40834835E+02</rscale>
<asrwt>0</asrwt>
<pdfrwt beam="1">  1       11 0.10000000E+01 0.14646620E+02</pdfrwt>
<pdfrwt beam="2">  1        2 0.47057529E-03 0.40834835E+02</pdfrwt>
<totfact> 0.36410774E+04</totfact>
</mgrwt>
</event>
<event>
 5    1  0.2968854E-003  0.1995131E+03  0.7818608E-02  0.1150150E+00
         11   -1    0    0    0    0  0.00000000000E+00  0.00000000000E+00  0.10003989848E+04  0.10003989848E+04  0.51100000000E-03 0. -1.
          2   -1    0    0  501    0 -0.00000000000E+00 -0.00000000000E+00 -0.82522985275E+02  0.82522985314E+02  0.25500000000E-02 0.  1.
         11    1    1    2    0    0  0.93619234642E+02  0.26736028330E+02  0.11583049662E+03  0.15131450774E+03  0.51100000000E-03 0. -1.
         22    1    1    2    0    0  0.21460965577E+02  0.15678214263E+03  0.64480294145E+03  0.66393677906E+03  0.00000000000E+00 0. -1.
          2    1    1    2  501    0 -0.11508020022E+03 -0.18351817096E+03  0.15724256141E+03  0.26767068326E+03  0.25500000000E-02 0.  1.
<mgrwt>
<rscale>  0 0.19951308E+03</rscale>
<asrwt>0</asrwt>
<pdfrwt beam="1">  1       11 0.10000000E+01 0.97362137E+02</pdfrwt>
<pdfrwt beam="2">  1        2 0.12700909E-01 0.19951308E+03</pdfrwt>
<totfact> 0.57961225E+02</totfact>
</mgrwt>
</event>
<event>
 5    1  0.2968854E-003  0.5694410E+02  0.7818608E-02  0.1411123E+00
         11   -1    0    0    0    0  0.00000000000E+00  0.00000000000E+00  0.99995057047E+03  0.99995057047E+03  0.51100000000E-03 0.  1.
          2   -1    0    0  501    0 -0.00000000000E+00 -0.00000000000E+00 -0.99051130301E+01  0.99051133584E+01  0.25500000000E-02 0.  1.
         11    1    1    2    0    0 -0.47646249946E+02 -0.22285092360E+02  0.12317730992E+03  0.13393819528E+03  0.51100000000E-03 0.  1.
         22    1    1    2    0    0 -0.82901363756E+01 -0.39880568060E+02  0.22952869464E+03  0.23311500966E+03  0.00000000000E+00 0.  1.
          2    1    1    2  501    0  0.55936386321E+02  0.62165660420E+02  0.63733945289E+03  0.64280247889E+03  0.25500000000E-02 0.  1.
<mgrwt>
<rscale>  0 0.56944100E+02</rscale>
<asrwt>0</asrwt>
<pdfrwt beam="1">  1       11 0.10000000E+01 0.40733108E+02</pdfrwt>
<pdfrwt beam="2">  1        2 0.15237882E-02 0.56944100E+02</pdfrwt>
<totfact> 0.80153387E+03</totfact>
</mgrwt>
</event>
<event>
 5    1  0.2968854E-003  0.1284808E+03  0.7818608E-02  0.1231054E+00
         11   -1    0    0    0    0  0.00000000000E+00  0.00000000000E+00  0.10002737599E+04  0.10002737599E+04  0.51100000000E-03 0. -1.
         -2   -1    0    0    0  501 -0.00000000000E+00 -0.00000000000E+00 -0.19551457224E+02  0.19551457390E+02  0.25500000000E-02 0.  1.
         11    1    1    2    0    0 -0.11380429278E+03 -0.24472393837E+02  0.65542193297E+03  0.66567877037E+03  0.51100000000E-03 0. -1.
         22    1    1    2    0    0 -0.10896871162E+02 -0.25920374086E+01  0.41377262441E+02  0.42866517309E+02  0.00000000000E+00 0.  1.
         -2    1    1    2    0  501  0.12470116394E+03  0.27064431246E+02  0.28392310723E+03  0.31127992957E+03  0.25500000000E-02 0.  1.
<mgrwt>
<rscale>  0 0.12760432E+03</rscale>
<asrwt>0</asrwt>
<pdfrwt beam="1">  1       11 0.10000000E+01 0.12848076E+03</pdfrwt>
<pdfrwt beam="2">  1       -2 0.30087399E-02 0.12760432E+03</pdfrwt>
<totfact> 0.31193583E+03</totfact>
</mgrwt>
</event>
<event>
 5    1  0.2968854E-003  0.1293623E+03  0.7818608E-02  0.1375833E+00
         11   -1    0    0    0    0  0.00000000000E+00  0.00000000000E+00  0.99977050837E+03  0.99977050837E+03  0.51100000000E-03 0.  1.
          2   -1    0    0  501    0 -0.00000000000E+00 -0.00000000000E+00 -0.35458807073E+02  0.35458807165E+02  0.25500000000E-02 0.  1.
         11    1    1    2    0    0  0.11385647706E+03 -0.11788580887E+01  0.48002062118E+03  0.49334012997E+03  0.51100000000E-03 0.  1.
         22    1    1    2    0    0 -0.17550673595E+03 -0.21157914267E+02  0.37169117291E+03  0.41158790036E+03  0.00000000000E+00 0.  1.
          2    1    1    2  501    0  0.61650258881E+02  0.22336772355E+02  0.11259990720E+03  0.13030128521E+03  0.25500000000E-02 0.  1.
<mgrwt>
<rscale>  0 0.65571990E+02</rscale>
<asrwt>0</asrwt>
<pdfrwt beam="1">  1       11 0.10000000E+01 0.12936226E+03</pdfrwt>
<pdfrwt beam="2">  1        2 0.54539490E-02 0.65571990E+02</pdfrwt>
<totfact> 0.15365063E+03</totfact>
</mgrwt>
</event>
<event>
 5    1  0.2968854E-003  0.6464254E+03  0.7818608E-02  0.9934070E-01
         11   -1    0    0    0    0  0.00000000000E+00  0.00000000000E+00  0.10001971326E+04  0.10001971326E+04  0.51100000000E-03 0. -1.
          2   -1    0    0  501    0 -0.00000000000E+00 -0.00000000000E+00 -0.40019174212E+03  0.40019174213E+03  0.25500000000E-02 0. -1.
         11    1    1    2    0    0  0.23720817458E+03 -0.34062199993E+03  0.20111239594E+03  0.46123449646E+03  0.51100000000E-03 0. -1.
         22    1    1    2    0    0  0.19724453511E+03 -0.53197628898E+02  0.27033542458E+03  0.33884603603E+03  0.00000000000E+00 0.  1.
          2    1    1    2  501    0 -0.43445270969E+03  0.39381962883E+03  0.12855757000E+03  0.60030834229E+03  0.25500000000E-02 0. -1.
<mgrwt>
<rscale>  0 0.58638132E+03</rscale>
<asrwt>0</asrwt>
<pdfrwt beam="1">  1       11 0.10000000E+01 0.64642541E+03</pdfrwt>
<pdfrwt beam="2">  1        2 0.61580096E-01 0.58638132E+03</pdfrwt>
<totfact> 0.98522492E+01</totfact>
</mgrwt>
</event>
<event>
 5    1  0.2968854E-003  0.3292061E+03  0.7818608E-02  0.1085867E+00
         11   -1    0    0    0    0  0.00000000000E+00  0.00000000000E+00  0.10006969301E+04  0.10006969301E+04  0.51100000000E-03 0.  1.
          2   -1    0    0  501    0 -0.00000000000E+00 -0.00000000000E+00 -0.16832532177E+04  0.16832532177E+04  0.25500000000E-02 0.  1.
         11    1    1    2    0    0  0.12145981282E+03  0.32669451789E+02  0.22134677091E+03  0.25458627654E+03  0.51100000000E-03 0.  1.
         22    1    1    2    0    0  0.13741114015E+03  0.11645281437E+03  0.73842975569E+03  0.76007998493E+03  0.00000000000E+00 0.  1.
          2    1    1    2  501    0 -0.25887095297E+03 -0.14912226616E+03 -0.16423328142E+04  0.16692838863E+04  0.25500000000E-02 0.  1.
<mgrwt>
<rscale>  0 0.29875010E+03</rscale>
<asrwt>0</asrwt>
<pdfrwt beam="1">  1       11 0.10000000E+01 0.32920608E+03</pdfrwt>
<pdfrwt beam="2">  1        2 0.25914250E+00 0.29875010E+03</pdfrwt>
<totfact> 0.13541756E+01</totfact>
</mgrwt>
</event>
<event>
 5    1  0.2968854E-003  0.1464108E+03  0.7818608E-02  0.1204954E+00
         11   -1    0    0    0    0  0.00000000000E+00  0.00000000000E+00  0.99944610035E+03  0.99944610035E+03  0.51100000000E-03 0. -1.
          2   -1    0    0  501    0 -0.00000000000E+00 -0.00000000000E+00 -0.20629592584E+04  0.20629592584E+04  0.25500000000E-02 0. -1.
         11    1    1    2    0    0 -0.26340686400E+02 -0.56939126930E+02  0.28097428189E+03  0.28789311040E+03  0.51100000000E-03 0. -1.
         22    1    1    2    0    0  0.34469317455E+02  0.20291058374E+03  0.69753345082E+03  0.72726456936E+03  0.00000000000E+00 0. -1.
          2    1    1    2  501    0 -0.81286310547E+01 -0.14597145681E+03 -0.20420208908E+04  0.20472476790E+04  0.25500000000E-02 0. -1.
<mgrwt>
<rscale>  0 0.14641082E+03</rscale>
<asrwt>0</asrwt>
<pdfrwt beam="1">  1       11 0.10000000E+01 0.62736719E+02</pdfrwt>
<pdfrwt beam="2">  1        2 0.31720254E+00 0.14641082E+03</pdfrwt>
<totfact> 0.92119688E+00</totfact>
</mgrwt>
</event>
<event>
 5    1  0.2968854E-003  0.2365130E+03  0.7818608E-02  0.1122138E+00
         11   -1    0    0    0    0  0.00000000000E+00  0.00000000000E+00  0.10001307718E+04  0.10001307718E+04  0.51100000000E-03 0. -1.
          2   -1    0    0  501    0 -0.00000000000E+00 -0.00000000000E+00 -0.72787094521E+02  0.72787094565E+02  0.25500000000E-02 0.  1.
         11    1    1    2    0    0 -0.21574600337E+03 -0.76574209536E+02  0.64015391658E+03  0.67985806198E+03  0.51100000000E-03 0. -1.
         22    1    1    2    0    0 -0.36660126491E+01 -0.20555704326E+02  0.56370406840E+02  0.60113221477E+02  0.00000000000E+00 0.  1.
          2    1    1    2  501    0  0.21941201602E+03  0.97129913861E+02  0.23081935384E+03  0.33294658288E+03  0.25500000000E-02 0.  1.
<mgrwt>
<rscale>  0 0.23651301E+03</rscale>
<asrwt>0</asrwt>
<pdfrwt beam="1">  1       11 0.10000000E+01 0.20880053E+02</pdfrwt>
<pdfrwt beam="2">  1        2 0.11199479E-01 0.23651301E+03</pdfrwt>
<totfact> 0.68077223E+02</totfact>
</mgrwt>
</event>
<event>
 5    1  0.2968854E-003  0.2884780E+03  0.7818608E-02  0.1091146E+00
         11   -1    0    0    0    0  0.00000000000E+00  0.00000000000E+00  0.99986543409E+03  0.99986543409E+03  0.51100000000E-03 0. -1.
          2   -1    0    0  501    0 -0.00000000000E+00 -0.00000000000E+00 -0.90543220806E+02  0.90543220842E+02  0.25500000000E-02 0. -1.
         11    1    1    2    0    0  0.18678584230E+03  0.21280034813E+03  0.35487561890E+03  0.45399299988E+03  0.51100000000E-03 0. -1.
         22    1    1    2    0    0  0.10528651706E+02  0.73765792870E+01  0.50814973278E+02  0.52415913023E+02  0.00000000000E+00 0.  1.
          2    1    1    2  501    0 -0.19731449401E+03 -0.22017692741E+03  0.50363162110E+03  0.58399974203E+03  0.25500000000E-02 0. -1.
<mgrwt>
<rscale>  0 0.28847798E+03</rscale>
<asrwt>0</asrwt>
<pdfrwt beam="1">  1       11 0.10000000E+01 0.12855599E+02</pdfrwt>
<pdfrwt beam="2">  1        2 0.13927851E-01 0.28847798E+03</pdfrwt>
<totfact> 0.52626438E+02</totfact>
</mgrwt>
</event>
<event>
 5    1  0.2968854E-003  0.5882764E+03  0.7818608E-02  0.9998260E-01
         11   -1    0    0    0    0  0.00000000000E+00  0.00000000000E+00  0.10010423852E+04  0.10010423853E+04  0.51100000000E-03 0.  1.
          2   -1    0    0  501    0 -0.00000000000E+00 -0.00000000000E+00 -0.25712488695E+04  0.25712488695E+04  0.25500000000E-02 0.  1.
         11    1    1    2    0    0 -0.29696494350E+03 -0.35951347513E+03  0.60443255969E+03  0.76339821567E+03  0.51100000000E-03 0.  1.
         22    1    1    2    0    0 -0.11023241167E+02 -0.10490957486E+03  0.27611561627E+03  0.29557970887E+03  0.00000000000E+00 0.  1.
          2    1    1    2  501    0  0.30798818467E+03  0.46442304999E+03 -0.24507546603E+04  0.25133133303E+04  0.25500000000E-02 0.  1.
<mgrwt>
<rscale>  0 0.55726609E+03</rscale>
<asrwt>0</asrwt>
<pdfrwt beam="1">  1       11 0.10000000E+01 0.58827643E+03</pdfrwt>
<pdfrwt beam="2">  1        2 0.39598908E+00 0.55726609E+03</pdfrwt>
<totfact> 0.42006179E+00</totfact>
</mgrwt>
</event>
<event>
 5    1  0.2968854E-003  0.4167705E+02  0.7818608E-02  0.1525465E+00
         11   -1    0    0    0    0  0.00000000000E+00  0.00000000000E+00  0.10003098896E+04  0.10003098896E+04  0.51100000000E-03 0. -1.
         -2   -1    0    0    0  501 -0.00000000000E+00 -0.00000000000E+00 -0.26914965609E+01  0.26914977688E+01  0.25500000000E-02 0. -1.
         11    1    1    2    0    0 -0.18175102412E+02 -0.20530484333E+02  0.10993026858E+03  0.11329827486E+03  0.51100000000E-03 0. -1.
         22    1    1    2    0    0 -0.13574599025E+02  0.11208182060E+00  0.80795956060E+02  0.81928437168E+02  0.00000000000E+00 0. -1.
         -2    1    1    2    0  501  0.31749701437E+02  0.20418402512E+02  0.80689216837E+03  0.80777467531E+03  0.25500000000E-02 0. -1.
<mgrwt>
<rscale>  0 0.37748572E+02</rscale>
<asrwt>0</asrwt>
<pdfrwt beam="1">  1       11 0.10000000E+01 0.41677048E+02</pdfrwt>
<pdfrwt beam="2">  1       -2 0.41420479E-03 0.37748572E+02</pdfrwt>
<totfact> 0.41455925E+04</totfact>
</mgrwt>
</event>
<event>
 5    1  0.2968854E-003  0.5377124E+03  0.7818608E-02  0.1004379E+00
         11   -1    0    0    0    0  0.00000000000E+00  0.00000000000E+00  0.10000358129E+04  0.10000358129E+04  0.51100000000E-03 0. -1.
          2   -1    0    0  501    0 -0.00000000000E+00 -0.00000000000E+00 -0.97102378488E+03  0.97102378489E+03  0.25500000000E-02 0. -1.
         11    1    1    2    0    0  0.44083390046E+03 -0.29920626424E+03  0.64915109292E+03  0.83979524755E+03  0.51100000000E-03 0. -1.
         22    1    1    2    0    0  0.36425043908E+02  0.49546829171E+02  0.16672956512E+03  0.17770880673E+03  0.00000000000E+00 0.  1.
          2    1    1    2  501    0 -0.47725894437E+03  0.24965943507E+03 -0.78686863006E+03  0.95355554347E+03  0.25500000000E-02 0. -1.
<mgrwt>
<rscale>  0 0.53771237E+03</rscale>
<asrwt>0</asrwt>
<pdfrwt beam="1">  1       11 0.10000000E+01 0.61495301E+02</pdfrwt>
<pdfrwt beam="2">  1        2 0.14939362E+00 0.53771237E+03</pdfrwt>
<totfact> 0.33181649E+01</totfact>
</mgrwt>
</event>
<event>
 5    1  0.2968854E-003  0.1699810E+03  0.7818608E-02  0.1310966E+00
         11   -1    0    0    0    0  0.00000000000E+00  0.00000000000E+00  0.99996148359E+03  0.99996148359E+03  0.51100000000E-03 0. -1.
          2   -1    0    0  501    0 -0.00000000000E+00 -0.00000000000E+00 -0.48799116935E+03  0.48799116935E+03  0.25500000000E-02 0.  1.
         11    1    1    2    0    0  0.81652190202E+02  0.11298655702E+03  0.37479744902E+03  0.39988269533E+03  0.51100000000E-03 0. -1.
         22    1    1    2    0    0 -0.15861224462E+03 -0.15298020643E+03  0.58854150968E+03  0.62844402800E+03  0.00000000000E+00 0. -1.
          2    1    1    2  501    0  0.76960054420E+02  0.39993649407E+02 -0.45136864446E+03  0.45962592962E+03  0.25500000000E-02 0.  1.
<mgrwt>
<rscale>  0 0.86731436E+02</rscale>
<asrwt>0</asrwt>
<pdfrwt beam="1">  1       11 0.10000000E+01 0.16998101E+03</pdfrwt>
<pdfrwt beam="2">  1        2 0.75072671E-01 0.86731436E+02</pdfrwt>
<totfact> 0.80964988E+01</totfact>
</mgrwt>
</event>
<event>
 5    1  0.2968854E-003  0.2990435E+03  0.7818608E-02  0.1085720E+00
         11   -1    0    0    0    0  0.00000000000E+00  0.00000000000E+00  0.10000456600E+04  0.10000456600E+04  0.51100000000E-03 0.  1.
          2   -1    0    0  501    0 -0.00000000000E+00 -0.00000000000E+00 -0.12100650625E+04  0.12100650625E+04  0.25500000000E-02 0.  1.
         11    1    1    2    0    0  0.11820568746E+03 -0.13595123723E+03  0.73814582976E+03  0.75981220670E+03  0.51100000000E-03 0.  1.
         22    1    1    2    0    0  0.28261378974E+02 -0.12839829562E+03  0.21307802185E+03  0.25037386297E+03  0.00000000000E+00 0.  1.
          2    1    1    2  501    0 -0.14646706644E+03  0.26434953286E+03 -0.11612432542E+04  0.11999246528E+04  0.25500000000E-02 0.  1.
<mgrwt>
<rscale>  0 0.29904348E+03</rscale>
<asrwt>0</asrwt>
<pdfrwt beam="1">  1       11 0.10000000E+01 0.13147178E+03</pdfrwt>
<pdfrwt beam="2">  1        2 0.18617235E+00 0.29904348E+03</pdfrwt>
<totfact> 0.24553639E+01</totfact>
</mgrwt>
</event>
<event>
 5    1  0.2968854E-003  0.1809060E+03  0.7818608E-02  0.1166929E+00
         11   -1    0    0    0    0  0.00000000000E+00  0.00000000000E+00  0.10001273109E+04  0.10001273109E+04  0.51100000000E-03 0. -1.
          2   -1    0    0  501    0 -0.00000000000E+00 -0.00000000000E+00 -0.23327220112E+04  0.23327220112E+04  0.25500000000E-02 0.  1.
         11    1    1    2    0    0 -0.16256895864E+02  0.17107130777E+02  0.62456473584E+02  0.66766396333E+02  0.51100000000E-03 0. -1.
         22    1    1    2    0    0  0.48551352383E+01  0.16350742130E+03  0.92481404992E+03  0.93916946080E+03  0.00000000000E+00 0. -1.
          2    1    1    2  501    0  0.11401760626E+02 -0.18061455208E+03 -0.23198652238E+04  0.23269134649E+04  0.25500000000E-02 0.  1.
<mgrwt>
<rscale>  0 0.18090596E+03</rscale>
<asrwt>0</asrwt>
<pdfrwt beam="1">  1       11 0.10000000E+01 0.23599589E+02</pdfrwt>
<pdfrwt beam="2">  1        2 0.35892599E+00 0.18090596E+03</pdfrwt>
<totfact> 0.64934545E+00</totfact>
</mgrwt>
</event>
<event>
 5    1  0.2968854E-003  0.7080662E+02  0.7818608E-02  0.1357371E+00
         11   -1    0    0    0    0  0.00000000000E+00  0.00000000000E+00  0.10002914224E+04  0.10002914224E+04  0.51100000000E-03 0.  1.
          2   -1    0    0  501    0 -0.00000000000E+00 -0.00000000000E+00 -0.93354282274E+01  0.93354285756E+01  0.25500000000E-02 0.  1.
         11    1    1    2    0    0  0.73520857158E+01 -0.42763485005E+02  0.25658534976E+03  0.26022838148E+03  0.51100000000E-03 0.  1.
         22    1    1    2    0    0  0.56242380100E+02  0.61163998958E+02  0.41614535104E+03  0.42435974512E+03  0.00000000000E+00 0.  1.
          2    1    1    2  501    0 -0.63594465815E+02 -0.18400513954E+02  0.31822529337E+03  0.32503872437E+03  0.25500000000E-02 0.  1.
<mgrwt>
<rscale>  0 0.70806618E+02</rscale>
<asrwt>0</asrwt>
<pdfrwt beam="1">  1       11 0.10000000E+01 0.43390884E+02</pdfrwt>
<pdfrwt beam="2">  1        2 0.14366383E-02 0.70806618E+02</pdfrwt>
<totfact> 0.89738101E+03</totfact>
</mgrwt>
</event>
<event>
 5    1  0.2968854E-003  0.1799746E+03  0.7818608E-02  0.1378853E+00
         11   -1    0    0    0    0  0.00000000000E+00  0.00000000000E+00  0.10002703821E+04  0.10002703821E+04  0.51100000000E-03 0. -1.
          2   -1    0    0  501    0 -0.00000000000E+00 -0.00000000000E+00 -0.54618004475E+02  0.54618004534E+02  0.25500000000E-02 0. -1.
         11    1    1    2    0    0 -0.15472727826E+03 -0.28060013897E+02  0.23566839829E+03  0.28331517603E+03  0.51100000000E-03 0. -1.
         22    1    1    2    0    0  0.17460125796E+03  0.89701558145E+02  0.66329852965E+03  0.69173470945E+03  0.00000000000E+00 0. -1.
          2    1    1    2  501    0 -0.19873979699E+02 -0.61641544248E+02  0.46685449669E+02  0.79838501136E+02  0.25500000000E-02 0. -1.
<mgrwt>
<rscale>  0 0.64766157E+02</rscale>
<asrwt>0</asrwt>
<pdfrwt beam="1">  1       11 0.10000000E+01 0.17997460E+03</pdfrwt>
<pdfrwt beam="2">  1        2 0.84050416E-02 0.64766157E+02</pdfrwt>
<totfact> 0.89591742E+02</totfact>
</mgrwt>
</event>
<event>
 5    1  0.2968854E-003  0.3049773E+03  0.7818608E-02  0.1087119E+00
         11   -1    0    0    0    0  0.00000000000E+00  0.00000000000E+00  0.10005146834E+04  0.10005146834E+04  0.51100000000E-03 0. -1.
          2   -1    0    0  501    0 -0.00000000000E+00 -0.00000000000E+00 -0.16305884899E+03  0.16305884901E+03  0.25500000000E-02 0. -1.
         11    1    1    2    0    0 -0.89183248531E+02 -0.25403424300E+03  0.67071796739E+03  0.72273760122E+03  0.51100000000E-03 0. -1.
         22    1    1    2    0    0 -0.24354353389E+02 -0.19619232526E+02  0.13989783835E+03  0.14335080742E+03  0.00000000000E+00 0. -1.
          2    1    1    2  501    0  0.11353760192E+03  0.27365347553E+03  0.26840028677E+02  0.29748512377E+03  0.25500000000E-02 0. -1.
<mgrwt>
<rscale>  0 0.29627185E+03</rscale>
<asrwt>0</asrwt>
<pdfrwt beam="1">  1       11 0.10000000E+01 0.30497729E+03</pdfrwt>
<pdfrwt beam="2">  1        2 0.25098887E-01 0.29627185E+03</pdfrwt>
<totfact> 0.26526144E+02</totfact>
</mgrwt>
</event>
<event>
 5    1  0.2968854E-003  0.1132711E+03  0.7818608E-02  0.1254630E+00
         11   -1    0    0    0    0  0.00000000000E+00  0.00000000000E+00  0.10000533180E+04  0.10000533180E+04  0.51100000000E-03 0. -1.
          2   -1    0    0  501    0 -0.00000000000E+00 -0.00000000000E+00 -0.30121738211E+02  0.30121738319E+02  0.25500000000E-02 0. -1.
         11    1    1    2    0    0  0.84963129526E+02  0.10643338325E+03  0.33908929083E+03  0.36541530565E+03  0.51100000000E-03 0. -1.
         22    1    1    2    0    0 -0.77057145148E+02  0.97630599176E+00  0.43011594396E+03  0.43696508103E+03  0.00000000000E+00 0. -1.
          2    1    1    2  501    0 -0.79059843774E+01 -0.10740968924E+03  0.20072634497E+03  0.22779466961E+03  0.25500000000E-02 0. -1.
<mgrwt>
<rscale>  0 0.11327108E+03</rscale>
<asrwt>0</asrwt>
<pdfrwt beam="1">  1       11 0.10000000E+01 0.77063330E+02</pdfrwt>
<pdfrwt beam="2">  1        2 0.46343605E-02 0.11327108E+03</pdfrwt>
<totfact> 0.19924870E+03</totfact>
</mgrwt>
</event>
<event>
 5    1  0.2968854E-003  0.1239762E+03  0.7818608E-02  0.1236678E+00
         11   -1    0    0    0    0  0.00000000000E+00  0.00000000000E+00  0.10005943742E+04  0.10005943742E+04  0.51100000000E-03 0. -1.
          2   -1    0    0  501    0 -0.00000000000E+00 -0.00000000000E+00 -0.26020780192E+02  0.26020780317E+02  0.25500000000E-02 0. -1.
         11    1    1    2    0    0  0.30639138209E+02  0.18038873601E+02  0.45577475383E+02  0.57805397789E+02  0.51100000000E-03 0. -1.
         22    1    1    2    0    0 -0.43532194750E+02 -0.13480066685E+03  0.66402196506E+03  0.67896350553E+03  0.00000000000E+00 0. -1.
          2    1    1    2  501    0  0.12893056541E+02  0.11676179325E+03  0.26497415361E+03  0.28984625124E+03  0.25500000000E-02 0. -1.
<mgrwt>
<rscale>  0 0.12397617E+03</rscale>
<asrwt>0</asrwt>
<pdfrwt beam="1">  1       11 0.10000000E+01 0.35555014E+02</pdfrwt>
<pdfrwt beam="2">  1        2 0.40055762E-02 0.12397617E+03</pdfrwt>
<totfact> 0.24327393E+03</totfact>
</mgrwt>
</event>
<event>
 5    1  0.2968854E-003  0.1292608E+03  0.7818608E-02  0.1652239E+00
         11   -1    0    0    0    0  0.00000000000E+00  0.00000000000E+00  0.10001316568E+04  0.10001316568E+04  0.51100000000E-03 0.  1.
         -2   -1    0    0    0  501 -0.00000000000E+00 -0.00000000000E+00 -0.27370548731E+02  0.27370548850E+02  0.25500000000E-02 0.  1.
         11    1    1    2    0    0 -0.11891247201E+03  0.52596668668E+01  0.23109384940E+03  0.25994654705E+03  0.51100000000E-03 0.  1.
         22    1    1    2    0    0  0.13122542432E+03 -0.27728003320E+02  0.72427552076E+03  0.73658942710E+03  0.00000000000E+00 0.  1.
         -2    1    1    2    0  501 -0.12312952306E+02  0.22468336453E+02  0.17391737871E+02  0.30966231449E+02  0.25500000000E-02 0.  1.
<mgrwt>
<rscale>  0 0.25620986E+02</rscale>
<asrwt>0</asrwt>
<pdfrwt beam="1">  1       11 0.10000000E+01 0.12926077E+03</pdfrwt>
<pdfrwt beam="2">  1       -2 0.42114079E-02 0.25620986E+02</pdfrwt>
<totfact> 0.15680043E+03</totfact>
</mgrwt>
</event>
<event>
 5    1  0.2968854E-003  0.5367979E+02  0.7818608E-02  0.1432081E+00
         11   -1    0    0    0    0  0.00000000000E+00  0.00000000000E+00  0.10003770198E+04  0.10003770198E+04  0.51100000000E-03 0.  1.
         -2   -1    0    0    0  501 -0.00000000000E+00 -0.00000000000E+00 -0.44548532721E+01  0.44548540019E+01  0.25500000000E-02 0.  1.
         11    1    1    2    0    0  0.11962825778E+02  0.30643107519E+00  0.50191362842E+02  0.51598217070E+02  0.51100000000E-03 0.  1.
         22    1    1    2    0    0  0.37593481129E+02 -0.17773875236E+02  0.14677559540E+03  0.15255246923E+03  0.00000000000E+00 0.  1.
         -2    1    1    2    0  501 -0.49556306907E+02  0.17467444160E+02  0.79895520825E+03  0.80068118746E+03  0.25500000000E-02 0.  1.
<mgrwt>
<rscale>  0 0.52544640E+02</rscale>
<asrwt>0</asrwt>
<pdfrwt beam="1">  1       11 0.10000000E+01 0.53679792E+02</pdfrwt>
<pdfrwt beam="2">  1       -2 0.68562047E-03 0.52544640E+02</pdfrwt>
<totfact> 0.22339745E+04</totfact>
</mgrwt>
</event>
<event>
 5    1  0.2968854E-003  0.5716676E+03  0.7818608E-02  0.9979522E-01
         11   -1    0    0    0    0  0.00000000000E+00  0.00000000000E+00  0.10001418281E+04  0.10001418281E+04  0.51100000000E-03 0. -1.
          2   -1    0    0  501    0 -0.00000000000E+00 -0.00000000000E+00 -0.35480336759E+03  0.35480336760E+03  0.25500000000E-02 0. -1.
         11    1    1    2    0    0  0.33788972044E+03 -0.40428564526E+03  0.45594003970E+03  0.69677662557E+03  0.51100000000E-03 0. -1.
         22    1    1    2    0    0  0.24442389981E+02 -0.29982268129E+02  0.70227454055E+02  0.80176443755E+02  0.00000000000E+00 0. -1.
          2    1    1    2  501    0 -0.36233211042E+03  0.43426791339E+03  0.11917096677E+03  0.57799212639E+03  0.25500000000E-02 0. -1.
<mgrwt>
<rscale>  0 0.56557332E+03</rscale>
<asrwt>0</asrwt>
<pdfrwt beam="1">  1       11 0.10000000E+01 0.57166760E+03</pdfrwt>
<pdfrwt beam="2">  1        2 0.54592874E-01 0.56557332E+03</pdfrwt>
<totfact> 0.11270056E+02</totfact>
</mgrwt>
</event>
<event>
 5    1  0.2968854E-003  0.1274893E+03  0.7818608E-02  0.1231229E+00
         11   -1    0    0    0    0  0.00000000000E+00  0.00000000000E+00  0.99987561649E+03  0.99987561649E+03  0.51100000000E-03 0.  1.
          2   -1    0    0  501    0 -0.00000000000E+00 -0.00000000000E+00 -0.21572748462E+02  0.21572748612E+02  0.25500000000E-02 0. -1.
         11    1    1    2    0    0 -0.48578800971E+02  0.12149308436E+03  0.68140220497E+03  0.69385116155E+03  0.51100000000E-03 0.  1.
         22    1    1    2    0    0  0.10499631553E+02 -0.11092785943E+01  0.39640750695E+02  0.41022699539E+02  0.00000000000E+00 0.  1.
          2    1    1    2  501    0  0.38079169418E+02 -0.12038380576E+03  0.25725991237E+03  0.28657450401E+03  0.25500000000E-02 0. -1.
<mgrwt>
<rscale>  0 0.12748930E+03</rscale>
<asrwt>0</asrwt>
<pdfrwt beam="1">  1       11 0.10000000E+01 0.10558066E+02</pdfrwt>
<pdfrwt beam="2">  1        2 0.33184715E-02 0.12748930E+03</pdfrwt>
<totfact> 0.31319095E+03</totfact>
</mgrwt>
</event>
<event>
 5    1  0.2968854E-003  0.1582254E+03  0.7818608E-02  0.1204491E+00
         11   -1    0    0    0    0  0.00000000000E+00  0.00000000000E+00  0.10002855673E+04  0.10002855673E+04  0.51100000000E-03 0. -1.
          2   -1    0    0  501    0 -0.00000000000E+00 -0.00000000000E+00 -0.26905228954E+02  0.26905229075E+02  0.25500000000E-02 0. -1.
         11    1    1    2    0    0  0.57159307522E+02 -0.84461302463E+02  0.15042167420E+03  0.18173491167E+03  0.51100000000E-03 0. -1.
         22    1    1    2    0    0  0.35263264868E+02 -0.29562099504E+02  0.16286363831E+03  0.16923941698E+03  0.00000000000E+00 0.  1.
          2    1    1    2  501    0 -0.92422572391E+02  0.11402340197E+03  0.66009502582E+03  0.67621646771E+03  0.25500000000E-02 0. -1.
<mgrwt>
<rscale>  0 0.14677625E+03</rscale>
<asrwt>0</asrwt>
<pdfrwt beam="1">  1       11 0.10000000E+01 0.15822545E+03</pdfrwt>
<pdfrwt beam="2">  1        2 0.41404479E-02 0.14677625E+03</pdfrwt>
<totfact> 0.23642119E+03</totfact>
</mgrwt>
</event>
<event>
 5    1  0.2968854E-003  0.5539717E+02  0.7818608E-02  0.1663316E+00
         11   -1    0    0    0    0  0.00000000000E+00  0.00000000000E+00  0.10002343367E+04  0.10002343367E+04  0.51100000000E-03 0. -1.
          2   -1    0    0  501    0 -0.00000000000E+00 -0.00000000000E+00 -0.15663874601E+02  0.15663874809E+02  0.25500000000E-02 0. -1.
         11    1    1    2    0    0 -0.27494162089E+02 -0.56544860738E+02  0.17848497739E+03  0.18923566625E+03  0.51100000000E-03 0. -1.
         22    1    1    2    0    0  0.74241252332E+01  0.41909197285E+02  0.34801203237E+02  0.54978379380E+02  0.00000000000E+00 0. -1.
          2    1    1    2  501    0  0.20070036856E+02  0.14635663453E+02  0.77128428146E+03  0.77168416587E+03  0.25500000000E-02 0. -1.
<mgrwt>
<rscale>  0 0.24839666E+02</rscale>
<asrwt>0</asrwt>
<pdfrwt beam="1">  1       11 0.10000000E+01 0.55397169E+02</pdfrwt>
<pdfrwt beam="2">  1        2 0.24103915E-02 0.24839666E+02</pdfrwt>
<totfact> 0.38378319E+03</totfact>
</mgrwt>
</event>
<event>
 5    1  0.2968854E-003  0.4371051E+02  0.7818608E-02  0.1495046E+00
         11   -1    0    0    0    0  0.00000000000E+00  0.00000000000E+00  0.10000106487E+04  0.10000106487E+04  0.51100000000E-03 0. -1.
          2   -1    0    0  501    0 -0.00000000000E+00 -0.00000000000E+00 -0.28682414790E+01  0.28682426125E+01  0.25500000000E-02 0. -1.
         11    1    1    2    0    0 -0.18659400661E+02  0.45598247016E+01  0.66203728570E+02  0.68934018534E+02  0.51100000000E-03 0. -1.
         22    1    1    2    0    0 -0.20250603267E+02  0.10839876575E+02  0.13765166072E+03  0.13955489800E+03  0.00000000000E+00 0. -1.
          2    1    1    2  501    0  0.38910003928E+02 -0.15399701276E+02  0.79328701793E+03  0.79438997478E+03  0.25500000000E-02 0. -1.
<mgrwt>
<rscale>  0 0.41846615E+02</rscale>
<asrwt>0</asrwt>
<pdfrwt beam="1">  1       11 0.10000000E+01 0.43710509E+02</pdfrwt>
<pdfrwt beam="2">  1        2 0.44127269E-03 0.41846615E+02</pdfrwt>
<totfact> 0.39920725E+04</totfact>
</mgrwt>
</event>
<event>
 5    1  0.2968854E-003  0.7982831E+02  0.7818608E-02  0.1329539E+00
         11   -1    0    0    0    0  0.00000000000E+00  0.00000000000E+00  0.10000173049E+04  0.10000173049E+04  0.51100000000E-03 0.  1.
          2   -1    0    0  501    0 -0.00000000000E+00 -0.00000000000E+00 -0.61063661663E+02  0.61063661716E+02  0.25500000000E-02 0.  1.
         11    1    1    2    0    0  0.35541783289E+02  0.11167658836E+03  0.68259588730E+03  0.69258358636E+03  0.51100000000E-03 0.  1.
         22    1    1    2    0    0  0.80039864937E+01 -0.46408637688E+02  0.28203637464E+03  0.28594115141E+03  0.00000000000E+00 0.  1.
          2    1    1    2  501    0 -0.43545769783E+02 -0.65267950673E+02 -0.25678618719E+02  0.82556228819E+02  0.25500000000E-02 0.  1.
<mgrwt>
<rscale>  0 0.79828314E+02</rscale>
<asrwt>0</asrwt>
<pdfrwt beam="1">  1       11 0.10000000E+01 0.47093794E+02</pdfrwt>
<pdfrwt beam="2">  1        2 0.93945718E-02 0.79828314E+02</pdfrwt>
<totfact> 0.79430367E+02</totfact>
</mgrwt>
</event>
<event>
 5    1  0.2968854E-003  0.4031764E+02  0.7818608E-02  0.1693984E+00
         11   -1    0    0    0    0  0.00000000000E+00  0.00000000000E+00  0.10001516538E+04  0.10001516538E+04  0.51100000000E-03 0.  1.
          2   -1    0    0  501    0 -0.00000000000E+00 -0.00000000000E+00 -0.37801186604E+01  0.37801195205E+01  0.25500000000E-02 0.  1.
         11    1    1    2    0    0 -0.46796033649E+02 -0.17467648165E+02  0.25507521867E+03  0.25991990050E+03  0.51100000000E-03 0.  1.
         22    1    1    2    0    0  0.12941733815E+02 -0.40513997541E+00  0.49769423058E+02  0.51426142030E+02  0.00000000000E+00 0.  1.
          2    1    1    2  501    0  0.33854299834E+02  0.17872788141E+02  0.69152689346E+03  0.69258573084E+03  0.25500000000E-02 0.  1.
<mgrwt>
<rscale>  0 0.22848097E+02</rscale>
<asrwt>0</asrwt>
<pdfrwt beam="1">  1       11 0.10000000E+01 0.40317640E+02</pdfrwt>
<pdfrwt beam="2">  1        2 0.58164496E-03 0.22848097E+02</pdfrwt>
<totfact> 0.23871093E+04</totfact>
</mgrwt>
</event>
<event>
 5    1  0.2968854E-003  0.7969868E+02  0.7818608E-02  0.1332668E+00
         11   -1    0    0    0    0  0.00000000000E+00  0.00000000000E+00  0.10000912027E+04  0.10000912027E+04  0.51100000000E-03 0.  1.
         -2   -1    0    0    0  501 -0.00000000000E+00 -0.00000000000E+00 -0.64864906230E+01  0.64864911242E+01  0.25500000000E-02 0. -1.
         11    1    1    2    0    0 -0.49490008024E+02  0.47280396694E+02  0.34663927789E+03  0.35333197674E+03  0.51100000000E-03 0.  1.
         22    1    1    2    0    0 -0.10634843276E+02  0.35612450750E+01  0.62212818229E+02  0.63215639758E+02  0.00000000000E+00 0. -1.
         -2    1    1    2    0  501  0.60124851300E+02 -0.50841641769E+02  0.58475261593E+03  0.59003007731E+03  0.25500000000E-02 0. -1.
<mgrwt>
<rscale>  0 0.78739255E+02</rscale>
<asrwt>0</asrwt>
<pdfrwt beam="1">  1       11 0.10000000E+01 0.79698684E+02</pdfrwt>
<pdfrwt beam="2">  1       -2 0.99801266E-03 0.78739255E+02</pdfrwt>
<totfact> 0.14244423E+04</totfact>
</mgrwt>
</event>
<event>
 5    1  0.2968854E-003  0.2537582E+03  0.7818608E-02  0.1114023E+00
         11   -1    0    0    0    0  0.00000000000E+00  0.00000000000E+00  0.10002377226E+04  0.10002377226E+04  0.51100000000E-03 0. -1.
         -2   -1    0    0    0  501 -0.00000000000E+00 -0.00000000000E+00 -0.89824903043E+02  0.89824903079E+02  0.25500000000E-02 0.  1.
         11    1    1    2    0    0  0.14983449824E+03 -0.18429018109E+03  0.71338722615E+03  0.75188734671E+03  0.51100000000E-03 0. -1.
         22    1    1    2    0    0  0.16062384005E+02 -0.12164483434E+01  0.41975697018E+02  0.44960416664E+02  0.00000000000E+00 0.  1.
         -2    1    1    2    0  501 -0.16589688224E+03  0.18550662944E+03  0.15504989640E+03  0.29321486232E+03  0.25500000000E-02 0.  1.
<mgrwt>
<rscale>  0 0.24886640E+03</rscale>
<asrwt>0</asrwt>
<pdfrwt beam="1">  1       11 0.10000000E+01 0.25375818E+03</pdfrwt>
<pdfrwt beam="2">  1       -2 0.13822501E-01 0.24886640E+03</pdfrwt>
<totfact> 0.31288139E+02</totfact>
</mgrwt>
</event>
<event>
 5    1  0.2968854E-003  0.1962354E+03  0.7818608E-02  0.1152955E+00
         11   -1    0    0    0    0  0.00000000000E+00  0.00000000000E+00  0.99997349431E+03  0.99997349431E+03  0.51100000000E-03 0. -1.
          2   -1    0    0  501    0 -0.00000000000E+00 -0.00000000000E+00 -0.35687021176E+02  0.35687021267E+02  0.25500000000E-02 0. -1.
         11    1    1    2    0    0 -0.10169118055E+02  0.18062455007E+03  0.49340299827E+03  0.52552369857E+03  0.51100000000E-03 0. -1.
         22    1    1    2    0    0  0.36339526436E+02 -0.71526681698E+02  0.14846127857E+03  0.16875241809E+03  0.00000000000E+00 0.  1.
          2    1    1    2  501    0 -0.26170408381E+02 -0.10909786838E+03  0.32242219629E+03  0.34138439892E+03  0.25500000000E-02 0. -1.
<mgrwt>
<rscale>  0 0.19623538E+03</rscale>
<asrwt>0</asrwt>
<pdfrwt beam="1">  1       11 0.10000000E+01 0.18091058E+03</pdfrwt>
<pdfrwt beam="2">  1        2 0.54901653E-02 0.19623538E+03</pdfrwt>
<totfact> 0.16682819E+03</totfact>
</mgrwt>
</event>
<event>
 5    1  0.2968854E-003  0.2156012E+03  0.7818608E-02  0.1140973E+00
         11   -1    0    0    0    0  0.00000000000E+00  0.00000000000E+00  0.10003252348E+04  0.10003252348E+04  0.51100000000E-03 0. -1.
          2   -1    0    0  501    0 -0.00000000000E+00 -0.00000000000E+00 -0.81351559422E+02  0.81351559462E+02  0.25500000000E-02 0. -1.
         11    1    1    2    0    0  0.57685884577E+02 -0.91717202557E+02  0.45011997710E+03  0.46297699760E+03  0.51100000000E-03 0. -1.
         22    1    1    2    0    0  0.86756367549E+02 -0.61751013953E+02  0.37166305277E+03  0.38661774381E+03  0.00000000000E+00 0. -1.
          2    1    1    2  501    0 -0.14444225213E+03  0.15346821651E+03  0.97190645524E+02  0.23208205287E+03  0.25500000000E-02 0. -1.
<mgrwt>
<rscale>  0 0.21075117E+03</rscale>
<asrwt>0</asrwt>
<pdfrwt beam="1">  1       11 0.10000000E+01 0.21560120E+03</pdfrwt>
<pdfrwt beam="2">  1        2 0.12519695E-01 0.21075117E+03</pdfrwt>
<totfact> 0.59115806E+02</totfact>
</mgrwt>
</event>
<event>
 5    1  0.2968854E-003  0.9389018E+02  0.7818608E-02  0.1297571E+00
         11   -1    0    0    0    0  0.00000000000E+00  0.00000000000E+00  0.10003669379E+04  0.10003669379E+04  0.51100000000E-03 0.  1.
          2   -1    0    0  501    0 -0.00000000000E+00 -0.00000000000E+00 -0.86708504201E+01  0.86708507951E+01  0.25500000000E-02 0.  1.
         11    1    1    2    0    0  0.66672489475E+02 -0.18396777379E+01  0.33801793650E+03  0.34453552889E+03  0.51100000000E-03 0.  1.
         22    1    1    2    0    0  0.24546704513E+02 -0.11686373089E+02  0.14123050163E+03  0.14382338686E+03  0.00000000000E+00 0.  1.
          2    1    1    2  501    0 -0.91219193989E+02  0.13526050827E+02  0.51244764933E+03  0.52067887293E+03  0.25500000000E-02 0.  1.
<mgrwt>
<rscale>  0 0.92216568E+02</rscale>
<asrwt>0</asrwt>
<pdfrwt beam="1">  1       11 0.10000000E+01 0.93890176E+02</pdfrwt>
<pdfrwt beam="2">  1        2 0.13344665E-02 0.92216568E+02</pdfrwt>
<totfact> 0.10316874E+04</totfact>
</mgrwt>
</event>
<event>
 5    1  0.2968854E-003  0.1068339E+03  0.7818608E-02  0.1266548E+00
         11   -1    0    0    0    0  0.00000000000E+00  0.00000000000E+00  0.10004343597E+04  0.10004343597E+04  0.51100000000E-03 0. -1.
          2   -1    0    0  501    0 -0.00000000000E+00 -0.00000000000E+00 -0.39545402300E+02  0.39545402382E+02  0.25500000000E-02 0. -1.
         11    1    1    2    0    0  0.10318832970E+03 -0.49664491174E+02  0.63041098393E+03  0.64072802478E+03  0.51100000000E-03 0. -1.
         22    1    1    2    0    0 -0.59821989170E+02 -0.50986460753E+02  0.25328092936E+03  0.26519713185E+03  0.00000000000E+00 0. -1.
          2    1    1    2  501    0 -0.43366340529E+02  0.10065095193E+03  0.77197044093E+02  0.13405460543E+03  0.25500000000E-02 0. -1.
<mgrwt>
<rscale>  0 0.10683388E+03</rscale>
<asrwt>0</asrwt>
<pdfrwt beam="1">  1       11 0.10000000E+01 0.78602096E+02</pdfrwt>
<pdfrwt beam="2">  1        2 0.60865505E-02 0.10683388E+03</pdfrwt>
<totfact> 0.13943484E+03</totfact>
</mgrwt>
</event>
<event>
 5    1  0.2968854E-003  0.9292961E+02  0.7818608E-02  0.1381832E+00
         11   -1    0    0    0    0  0.00000000000E+00  0.00000000000E+00  0.10003873860E+04  0.10003873860E+04  0.51100000000E-03 0.  1.
          2   -1    0    0  501    0 -0.00000000000E+00 -0.00000000000E+00 -0.41632457506E+03  0.41632457507E+03  0.25500000000E-02 0.  1.
         11    1    1    2    0    0 -0.87352109440E+00  0.13074970970E+03  0.70086396024E+03  0.71295619809E+03  0.51100000000E-03 0.  1.
         22    1    1    2    0    0 -0.95126885710E+01 -0.67613641787E+02  0.28695222564E+03  0.29496385474E+03  0.00000000000E+00 0.  1.
          2    1    1    2  501    0  0.10386209665E+02 -0.63136067916E+02 -0.40375337497E+03  0.40879190822E+03  0.25500000000E-02 0.  1.
<mgrwt>
<rscale>  0 0.63984658E+02</rscale>
<asrwt>0</asrwt>
<pdfrwt beam="1">  1       11 0.10000000E+01 0.92929609E+02</pdfrwt>
<pdfrwt beam="2">  1        2 0.64074745E-01 0.63984658E+02</pdfrwt>
<totfact> 0.95972427E+01</totfact>
</mgrwt>
</event>
<event>
 5    1  0.2968854E-003  0.3901237E+03  0.7818608E-02  0.1049283E+00
         11   -1    0    0    0    0  0.00000000000E+00  0.00000000000E+00  0.10002059992E+04  0.10002059992E+04  0.51100000000E-03 0. -1.
          2   -1    0    0  501    0 -0.00000000000E+00 -0.00000000000E+00 -0.18481858984E+03  0.18481858986E+03  0.25500000000E-02 0. -1.
         11    1    1    2    0    0  0.77512605052E+02 -0.20211970877E+02  0.19786369283E+03  0.21346374083E+03  0.51100000000E-03 0. -1.
         22    1    1    2    0    0  0.29707778755E+03 -0.66520461462E+02  0.46947713934E+03  0.55954353540E+03  0.00000000000E+00 0. -1.
          2    1    1    2  501    0 -0.37459039260E+03  0.86732432339E+02  0.14804657719E+03  0.41201731283E+03  0.25500000000E-02 0. -1.
<mgrwt>
<rscale>  0 0.38450030E+03</rscale>
<asrwt>0</asrwt>
<pdfrwt beam="1">  1       11 0.10000000E+01 0.39012365E+03</pdfrwt>
<pdfrwt beam="2">  1        2 0.28439486E-01 0.38450030E+03</pdfrwt>
<totfact> 0.23151457E+02</totfact>
</mgrwt>
</event>
<event>
 5    1  0.2968854E-003  0.1203109E+03  0.7818608E-02  0.1261935E+00
         11   -1    0    0    0    0  0.00000000000E+00  0.00000000000E+00  0.10003575247E+04  0.10003575247E+04  0.51100000000E-03 0.  1.
          2   -1    0    0  501    0 -0.00000000000E+00 -0.00000000000E+00 -0.13360442805E+02  0.13360443049E+02  0.25500000000E-02 0.  1.
         11    1    1    2    0    0  0.53819488154E+02 -0.70781445411E+02  0.30475681275E+03  0.31746380146E+03  0.51100000000E-03 0.  1.
         22    1    1    2    0    0  0.29690079110E+02  0.31727799871E+00  0.15196971161E+03  0.15484312936E+03  0.00000000000E+00 0.  1.
          2    1    1    2  501    0 -0.83509567264E+02  0.70464167413E+02  0.53027055751E+03  0.54141103690E+03  0.25500000000E-02 0.  1.
<mgrwt>
<rscale>  0 0.10926594E+03</rscale>
<asrwt>0</asrwt>
<pdfrwt beam="1">  1       11 0.10000000E+01 0.12031093E+03</pdfrwt>
<pdfrwt beam="2">  1        2 0.20561876E-02 0.10926594E+03</pdfrwt>
<totfact> 0.58640209E+03</totfact>
</mgrwt>
</event>
<event>
 5    1  0.2968854E-003  0.1036739E+03  0.7818608E-02  0.1294233E+00
         11   -1    0    0    0    0  0.00000000000E+00  0.00000000000E+00  0.10002734148E+04  0.10002734148E+04  0.51100000000E-03 0. -1.
          2   -1    0    0  501    0 -0.00000000000E+00 -0.00000000000E+00 -0.42994208179E+03  0.42994208180E+03  0.25500000000E-02 0. -1.
         11    1    1    2    0    0  0.32163449697E+02  0.11467035687E+03  0.34961161386E+03  0.36934003139E+03  0.51100000000E-03 0. -1.
         22    1    1    2    0    0 -0.98096188575E+02 -0.48155539722E+02  0.63082081716E+03  0.64021615224E+03  0.00000000000E+00 0. -1.
          2    1    1    2  501    0  0.65932738878E+02 -0.66514817150E+02 -0.41010109803E+03  0.42065931295E+03  0.25500000000E-02 0. -1.
<mgrwt>
<rscale>  0 0.93655469E+02</rscale>
<asrwt>0</asrwt>
<pdfrwt beam="1">  1       11 0.10000000E+01 0.10367390E+03</pdfrwt>
<pdfrwt beam="2">  1        2 0.66163019E-01 0.93655469E+02</pdfrwt>
<totfact> 0.92582810E+01</totfact>
</mgrwt>
</event>
<event>
 5    1  0.2968854E-003  0.2800600E+03  0.7818608E-02  0.1095656E+00
         11   -1    0    0    0    0  0.00000000000E+00  0.00000000000E+00  0.10001702117E+04  0.10001702117E+04  0.51100000000E-03 0. -1.
          2   -1    0    0  501    0 -0.00000000000E+00 -0.00000000000E+00 -0.20508285712E+03  0.20508285714E+03  0.25500000000E-02 0. -1.
         11    1    1    2    0    0  0.21078445107E+02 -0.19456296398E+03  0.30844584729E+03  0.36529151169E+03  0.51100000000E-03 0. -1.
         22    1    1    2    0    0 -0.13657291406E+03 -0.11560184195E+03  0.47633290770E+03  0.50883099913E+03  0.00000000000E+00 0. -1.
          2    1    1    2  501    0  0.11549446896E+03  0.31016480593E+03  0.10308599548E+02  0.33113055798E+03  0.25500000000E-02 0. -1.
<mgrwt>
<rscale>  0 0.28005995E+03</rscale>
<asrwt>0</asrwt>
<pdfrwt beam="1">  1       11 0.10000000E+01 0.17893001E+03</pdfrwt>
<pdfrwt beam="2">  1        2 0.31556578E-01 0.28005995E+03</pdfrwt>
<totfact> 0.20540048E+02</totfact>
</mgrwt>
</event>
<event>
 5    1  0.2968854E-003  0.1211722E+03  0.7818608E-02  0.1264624E+00
         11   -1    0    0    0    0  0.00000000000E+00  0.00000000000E+00  0.99985763757E+03  0.99985763757E+03  0.51100000000E-03 0.  1.
          2   -1    0    0  501    0 -0.00000000000E+00 -0.00000000000E+00 -0.13873239529E+02  0.13873239764E+02  0.25500000000E-02 0.  1.
         11    1    1    2    0    0 -0.84082388914E+01 -0.64352604335E+02  0.36383500134E+03  0.36957795439E+03  0.51100000000E-03 0.  1.
         22    1    1    2    0    0 -0.49170012077E+02 -0.26828877287E+02  0.27471603483E+03  0.28036829090E+03  0.00000000000E+00 0. -1.
          2    1    1    2  501    0  0.57578250969E+02  0.91181481622E+02  0.34743336186E+03  0.36378463205E+03  0.25500000000E-02 0.  1.
<mgrwt>
<rscale>  0 0.10783931E+03</rscale>
<asrwt>0</asrwt>
<pdfrwt beam="1">  1       11 0.10000000E+01 0.12117217E+03</pdfrwt>
<pdfrwt beam="2">  1        2 0.21340406E-02 0.10783931E+03</pdfrwt>
<totfact> 0.55672484E+03</totfact>
</mgrwt>
</event>
<event>
 5    1  0.2968854E-003  0.1795489E+03  0.7818608E-02  0.1172111E+00
         11   -1    0    0    0    0  0.00000000000E+00  0.00000000000E+00  0.99994573009E+03  0.99994573009E+03  0.51100000000E-03 0. -1.
          2   -1    0    0  501    0 -0.00000000000E+00 -0.00000000000E+00 -0.31142588409E+03  0.31142588410E+03  0.25500000000E-02 0.  1.
         11    1    1    2    0    0 -0.11872180226E+03  0.19228507880E+02  0.67076447174E+03  0.68146135503E+03  0.51100000000E-03 0. -1.
         22    1    1    2    0    0 -0.48933064391E+02  0.33060588699E+02  0.29547663149E+03  0.30132024006E+03  0.00000000000E+00 0. -1.
          2    1    1    2  501    0  0.16765486665E+03 -0.52289096579E+02 -0.27772125723E+03  0.32859001911E+03  0.25500000000E-02 0.  1.
<mgrwt>
<rscale>  0 0.17561977E+03</rscale>
<asrwt>0</asrwt>
<pdfrwt beam="1">  1       11 0.10000000E+01 0.17954886E+03</pdfrwt>
<pdfrwt beam="2">  1        2 0.47909073E-01 0.17561977E+03</pdfrwt>
<totfact> 0.13027202E+02</totfact>
</mgrwt>
</event>
<event>
 5    1  0.2968854E-003  0.1927072E+03  0.7818608E-02  0.1159951E+00
         11   -1    0    0    0    0  0.00000000000E+00  0.00000000000E+00  0.99984267664E+03  0.99984267664E+03  0.51100000000E-03 0. -1.
          2   -1    0    0  501    0 -0.00000000000E+00 -0.00000000000E+00 -0.69810177944E+03  0.69810177944E+03  0.25500000000E-02 0. -1.
         11    1    1    2    0    0  0.37338659170E+02 -0.68587651949E+01  0.16984334965E+03  0.17403442634E+03  0.51100000000E-03 0. -1.
         22    1    1    2    0    0  0.11842553466E+03 -0.99047112250E+02  0.80771378282E+03  0.82233599742E+03  0.00000000000E+00 0. -1.
          2    1    1    2  501    0 -0.15576419383E+03  0.10590587744E+03 -0.67581623527E+03  0.70157403232E+03  0.25500000000E-02 0. -1.
<mgrwt>
<rscale>  0 0.18835748E+03</rscale>
<asrwt>0</asrwt>
<pdfrwt beam="1">  1       11 0.10000000E+01 0.19270722E+03</pdfrwt>
<pdfrwt beam="2">  1        2 0.10738337E+00 0.18835748E+03</pdfrwt>
<totfact> 0.53115775E+01</totfact>
</mgrwt>
</event>
<event>
 5    1  0.2968854E-003  0.1589860E+03  0.7818608E-02  0.1329800E+00
         11   -1    0    0    0    0  0.00000000000E+00  0.00000000000E+00  0.10001564081E+04  0.10001564081E+04  0.51100000000E-03 0. -1.
          2   -1    0    0  501    0 -0.00000000000E+00 -0.00000000000E+00 -0.49913287661E+03  0.49913287662E+03  0.25500000000E-02 0. -1.
         11    1    1    2    0    0 -0.18122302637E+03 -0.64078276712E+02  0.78477536433E+03  0.80797288525E+03  0.51100000000E-03 0. -1.
         22    1    1    2    0    0  0.10355197347E+03  0.46045823886E+02  0.18439014699E+03  0.21643233449E+03  0.00000000000E+00 0. -1.
          2    1    1    2  501    0  0.77671052905E+02  0.18032452826E+02 -0.46814197987E+03  0.47488406494E+03  0.25500000000E-02 0. -1.
<mgrwt>
<rscale>  0 0.79736829E+02</rscale>
<asrwt>0</asrwt>
<pdfrwt beam="1">  1       11 0.10000000E+01 0.15898600E+03</pdfrwt>
<pdfrwt beam="2">  1        2 0.76801682E-01 0.79736829E+02</pdfrwt>
<totfact> 0.79093838E+01</totfact>
</mgrwt>
</event>
<event>
 5    1  0.2968854E-003  0.1817864E+03  0.7818608E-02  0.1166085E+00
         11   -1    0    0    0    0  0.00000000000E+00  0.00000000000E+00  0.10014274400E+04  0.10014274400E+04  0.51100000000E-03 0.  1.
          2   -1    0    0  501    0 -0.00000000000E+00 -0.00000000000E+00 -0.20747522347E+04  0.20747522347E+04  0.25500000000E-02 0. -1.
         11    1    1    2    0    0 -0.65423964501E+02  0.64579218636E+02  0.43805372033E+03  0.44759561269E+03  0.51100000000E-03 0.  1.
         22    1    1    2    0    0  0.57689172505E+02  0.11752763518E+03  0.54684830817E+03  0.56230228330E+03  0.00000000000E+00 0.  1.
          2    1    1    2  501    0  0.77347919962E+01 -0.18210685381E+03 -0.20582268232E+04  0.20662817786E+04  0.25500000000E-02 0. -1.
<mgrwt>
<rscale>  0 0.18178644E+03</rscale>
<asrwt>0</asrwt>
<pdfrwt beam="1">  1       11 0.10000000E+01 0.91928073E+02</pdfrwt>
<pdfrwt beam="2">  1        2 0.31964827E+00 0.18178644E+03</pdfrwt>
<totfact> 0.88335675E+00</totfact>
</mgrwt>
</event>
<event>
 5    1  0.3496918E-003  0.4639216E+03  0.7818608E-02  0.1024029E+00
         11   -1    0    0    0    0  0.00000000000E+00  0.00000000000E+00  0.10010873000E+04  0.10010873000E+04  0.51100000000E-03 0. -1.
          2   -1    0    0  501    0 -0.00000000000E+00 -0.00000000000E+00 -0.13045705304E+04  0.13045705304E+04  0.25500000000E-02 0. -1.
         11    1    1    2    0    0  0.44329804992E+03  0.71746930895E+02  0.86480257694E+03  0.97444562713E+03  0.51100000000E-03 0. -1.
         22    1    1    2    0    0  0.12574881115E+02  0.68704419283E+01  0.37279290370E+02  0.39938403796E+02  0.00000000000E+00 0.  1.
          2    1    1    2  501    0 -0.45587293104E+03 -0.78617372823E+02 -0.12055650976E+04  0.12912737995E+04  0.25500000000E-02 0. -1.
<mgrwt>
<rscale>  0 0.46260223E+03</rscale>
<asrwt>0</asrwt>
<pdfrwt beam="1">  1       11 0.10000000E+01 0.46392162E+03</pdfrwt>
<pdfrwt beam="2">  1        2 0.20092138E+00 0.46260223E+03</pdfrwt>
<totfact> 0.21097316E+01</totfact>
</mgrwt>
</event>
<event>
 5    1  0.2968854E-003  0.8578377E+03  0.7818608E-02  0.9482475E-01
         11   -1    0    0    0    0  0.00000000000E+00  0.00000000000E+00  0.10003054872E+04  0.10003054872E+04  0.51100000000E-03 0.  1.
          2   -1    0    0  501    0 -0.00000000000E+00 -0.00000000000E+00 -0.81003871314E+03  0.81003871315E+03  0.25500000000E-02 0.  1.
         11    1    1    2    0    0  0.69968298766E+03 -0.46689639736E+03 -0.17928467957E+03  0.86005321080E+03  0.51100000000E-03 0.  1.
         22    1    1    2    0    0  0.78470635972E+01 -0.14701060906E+02 -0.28399993641E+01  0.16904531797E+02  0.00000000000E+00 0. -1.
          2    1    1    2  501    0 -0.70753005125E+03  0.48159745826E+03  0.37239145299E+03  0.93338645774E+03  0.25500000000E-02 0.  1.
<mgrwt>
<rscale>  0 0.85588252E+03</rscale>
<asrwt>0</asrwt>
<pdfrwt beam="1">  1       11 0.10000000E+01 0.85783768E+03</pdfrwt>
<pdfrwt beam="2">  1        2 0.12465941E+00 0.85588252E+03</pdfrwt>
<totfact> 0.41828267E+01</totfact>
</mgrwt>
</event>
<event>
 5    1  0.4637197E-003  0.1808989E+03  0.7818608E-02  0.1168451E+00
         11   -1    0    0    0    0  0.00000000000E+00  0.00000000000E+00  0.10003774389E+04  0.10003774389E+04  0.51100000000E-03 0.  1.
          2   -1    0    0  501    0 -0.00000000000E+00 -0.00000000000E+00 -0.40560448119E+03  0.40560448120E+03  0.25500000000E-02 0.  1.
         11    1    1    2    0    0 -0.47108524220E+02  0.15564837827E+03  0.86554994286E+03  0.88069423428E+03  0.51100000000E-03 0.  1.
         22    1    1    2    0    0  0.24782379291E+01  0.18041523534E+02  0.10624182970E+03  0.10779130119E+03  0.00000000000E+00 0.  1.
          2    1    1    2  501    0  0.44630286290E+02 -0.17368990181E+03 -0.37701881484E+03  0.41749638464E+03  0.25500000000E-02 0.  1.
<mgrwt>
<rscale>  0 0.17933222E+03</rscale>
<asrwt>0</asrwt>
<pdfrwt beam="1">  1       11 0.10000000E+01 0.18089888E+03</pdfrwt>
<pdfrwt beam="2">  1        2 0.62424240E-01 0.17933222E+03</pdfrwt>
<totfact> 0.98062432E+01</totfact>
</mgrwt>
</event>
<event>
 5    1  0.2968854E-003  0.1853229E+03  0.7818608E-02  0.1162749E+00
         11   -1    0    0    0    0  0.00000000000E+00  0.00000000000E+00  0.10001490291E+04  0.10001490291E+04  0.51100000000E-03 0.  1.
          2   -1    0    0  501    0 -0.00000000000E+00 -0.00000000000E+00 -0.25391336842E+03  0.25391336843E+03  0.25500000000E-02 0.  1.
         11    1    1    2    0    0 -0.89331851050E+02 -0.14739506438E+03  0.79627937846E+03  0.81471856072E+03  0.51100000000E-03 0.  1.
         22    1    1    2    0    0 -0.52793068542E+02  0.26956439248E+02  0.15282337411E+03  0.16391687338E+03  0.00000000000E+00 0. -1.
          2    1    1    2  501    0  0.14212491959E+03  0.12043862513E+03 -0.20286709191E+03  0.27542696342E+03  0.25500000000E-02 0.  1.
<mgrwt>
<rscale>  0 0.18532288E+03</rscale>
<asrwt>0</asrwt>
<pdfrwt beam="1">  1       11 0.10000000E+01 0.59276958E+02</pdfrwt>
<pdfrwt beam="2">  1        2 0.39069416E-01 0.18532288E+03</pdfrwt>
<totfact> 0.16209806E+02</totfact>
</mgrwt>
</event>
<event>
 5    1  0.2968854E-003  0.4402578E+03  0.7818608E-02  0.1272314E+00
         11   -1    0    0    0    0  0.00000000000E+00  0.00000000000E+00  0.10004235158E+04  0.10004235158E+04  0.51100000000E-03 0.  1.
         -2   -1    0    0    0  501 -0.00000000000E+00 -0.00000000000E+00 -0.27373379613E+03  0.27373379614E+03  0.25500000000E-02 0. -1.
         11    1    1    2    0    0  0.36353941570E+03  0.24947121966E+03  0.40375325270E+02  0.44274932309E+03  0.51100000000E-03 0.  1.
         22    1    1    2    0    0  0.12719677258E+02 -0.20959688615E+02  0.15359216048E+02  0.28931025803E+02  0.00000000000E+00 0. -1.
         -2    1    1    2    0  501 -0.37625909296E+03 -0.22851153105E+03  0.67095517835E+03  0.80247696305E+03  0.25500000000E-02 0. -1.
<mgrwt>
<rscale>  0 0.10389385E+03</rscale>
<asrwt>0</asrwt>
<pdfrwt beam="1">  1       11 0.10000000E+01 0.44025775E+03</pdfrwt>
<pdfrwt beam="2">  1       -2 0.42130726E-01 0.10389385E+03</pdfrwt>
<totfact> 0.43417253E+01</totfact>
</mgrwt>
</event>
<event>
 5    1  0.2968854E-003  0.1457204E+03  0.7818608E-02  0.1205833E+00
         11   -1    0    0    0    0  0.00000000000E+00  0.00000000000E+00  0.10000991095E+04  0.10000991095E+04  0.51100000000E-03 0.  1.
          2   -1    0    0  501    0 -0.00000000000E+00 -0.00000000000E+00 -0.53346858043E+02  0.53346858104E+02  0.25500000000E-02 0.  1.
         11    1    1    2    0    0 -0.11797581870E+03 -0.50838736789E+02  0.31519807555E+03  0.34037141153E+03  0.51100000000E-03 0.  1.
         22    1    1    2    0    0  0.14684616536E+03 -0.94646052288E+02  0.41824656378E+03  0.45326797771E+03  0.00000000000E+00 0.  1.
          2    1    1    2  501    0 -0.28870346662E+02  0.14548478908E+03  0.21330761214E+03  0.25980657839E+03  0.25500000000E-02 0.  1.
<mgrwt>
<rscale>  0 0.14572039E+03</rscale>
<asrwt>0</asrwt>
<pdfrwt beam="1">  1       11 0.10000000E+01 0.12846350E+03</pdfrwt>
<pdfrwt beam="2">  1        2 0.82080221E-02 0.14572039E+03</pdfrwt>
<totfact> 0.97599765E+02</totfact>
</mgrwt>
</event>
<event>
 5    1  0.2968854E-003  0.2215364E+03  0.7818608E-02  0.1140551E+00
         11   -1    0    0    0    0  0.00000000000E+00  0.00000000000E+00  0.10002934933E+04  0.10002934933E+04  0.51100000000E-03 0. -1.
          2   -1    0    0  501    0 -0.00000000000E+00 -0.00000000000E+00 -0.54612399287E+03  0.54612399287E+03  0.25500000000E-02 0. -1.
         11    1    1    2    0    0 -0.92553974690E+01  0.78884932592E+02  0.24288868506E+03  0.25554531555E+03  0.51100000000E-03 0. -1.
         22    1    1    2    0    0 -0.58058177119E+02  0.12139258882E+03  0.72396113100E+03  0.73636039528E+03  0.00000000000E+00 0. -1.
          2    1    1    2  501    0  0.67313574588E+02 -0.20027752141E+03 -0.51268031564E+03  0.55451177531E+03  0.25500000000E-02 0. -1.
<mgrwt>
<rscale>  0 0.21128702E+03</rscale>
<asrwt>0</asrwt>
<pdfrwt beam="1">  1       11 0.10000000E+01 0.22153639E+03</pdfrwt>
<pdfrwt beam="2">  1        2 0.84043732E-01 0.21128702E+03</pdfrwt>
<totfact> 0.70465513E+01</totfact>
</mgrwt>
</event>
<event>
 5    1  0.2968854E-003  0.7586338E+02  0.7818608E-02  0.1348245E+00
         11   -1    0    0    0    0  0.00000000000E+00  0.00000000000E+00  0.10002904923E+04  0.10002904923E+04  0.51100000000E-03 0. -1.
          2   -1    0    0  501    0 -0.00000000000E+00 -0.00000000000E+00 -0.61011642345E+01  0.61011647674E+01  0.25500000000E-02 0. -1.
         11    1    1    2    0    0 -0.26376526783E+01 -0.13486587185E+02  0.38238664833E+02  0.40633000554E+02  0.51100000000E-03 0. -1.
         22    1    1    2    0    0 -0.14558656534E+02 -0.58081766772E+02  0.31918494130E+03  0.32475294127E+03  0.00000000000E+00 0. -1.
          2    1    1    2  501    0  0.17196309212E+02  0.71568353957E+02  0.63676572192E+03  0.64100571523E+03  0.25500000000E-02 0. -1.
<mgrwt>
<rscale>  0 0.73605315E+02</rscale>
<asrwt>0</asrwt>
<pdfrwt beam="1">  1       11 0.10000000E+01 0.75863379E+02</pdfrwt>
<pdfrwt beam="2">  1        2 0.93891333E-03 0.73605315E+02</pdfrwt>
<totfact> 0.16074686E+04</totfact>
</mgrwt>
</event>
<event>
 5    1  0.2968854E-003  0.1932924E+03  0.7818608E-02  0.1160128E+00
         11   -1    0    0    0    0  0.00000000000E+00  0.00000000000E+00  0.10001632906E+04  0.10001632906E+04  0.51100000000E-03 0. -1.
         -2   -1    0    0    0  501 -0.00000000000E+00 -0.00000000000E+00 -0.53673346335E+02  0.53673346395E+02  0.25500000000E-02 0.  1.
         11    1    1    2    0    0 -0.31385627313E+02  0.44436954040E+02  0.18407054732E+03  0.19194183201E+03  0.51100000000E-03 0. -1.
         22    1    1    2    0    0 -0.12117103894E+03  0.65708219845E+02  0.59263512619E+03  0.60845409328E+03  0.00000000000E+00 0. -1.
         -2    1    1    2    0  501  0.15255666625E+03 -0.11014517389E+03  0.16978427076E+03  0.25344071171E+03  0.25500000000E-02 0.  1.
<mgrwt>
<rscale>  0 0.18816348E+03</rscale>
<asrwt>0</asrwt>
<pdfrwt beam="1">  1       11 0.10000000E+01 0.19329235E+03</pdfrwt>
<pdfrwt beam="2">  1       -2 0.82587860E-02 0.18816348E+03</pdfrwt>
<totfact> 0.70265906E+02</totfact>
</mgrwt>
</event>
<event>
 5    1  0.2968854E-003  0.2228852E+03  0.7818608E-02  0.1134803E+00
         11   -1    0    0    0    0  0.00000000000E+00  0.00000000000E+00  0.10001646932E+04  0.10001646932E+04  0.51100000000E-03 0. -1.
         -2   -1    0    0    0  501 -0.00000000000E+00 -0.00000000000E+00 -0.53051097692E+02  0.53051097753E+02  0.25500000000E-02 0. -1.
         11    1    1    2    0    0  0.12006278728E+03 -0.91524682125E+02  0.19820776472E+03  0.24915488822E+03  0.51100000000E-03 0. -1.
         22    1    1    2    0    0  0.40757073925E+02 -0.56789977718E+02  0.12958416472E+03  0.14723551335E+03  0.00000000000E+00 0.  1.
         -2    1    1    2    0  501 -0.16081986120E+03  0.14831465984E+03  0.61932166610E+03  0.65682538943E+03  0.25500000000E-02 0. -1.
<mgrwt>
<rscale>  0 0.21876989E+03</rscale>
<asrwt>0</asrwt>
<pdfrwt beam="1">  1       11 0.10000000E+01 0.22288518E+03</pdfrwt>
<pdfrwt beam="2">  1       -2 0.81630513E-02 0.21876989E+03</pdfrwt>
<totfact> 0.72219527E+02</totfact>
</mgrwt>
</event>
<event>
 5    1  0.2968854E-003  0.4156571E+02  0.7818608E-02  0.1647640E+00
         11   -1    0    0    0    0  0.00000000000E+00  0.00000000000E+00  0.10001196133E+04  0.10001196133E+04  0.51100000000E-03 0.  1.
         -2   -1    0    0    0  501 -0.00000000000E+00 -0.00000000000E+00 -0.53477969810E+01  0.53477975889E+01  0.25500000000E-02 0.  1.
         11    1    1    2    0    0 -0.26832871119E+02  0.48093529780E+02  0.19845353675E+03  0.20595338509E+03  0.51100000000E-03 0.  1.
         22    1    1    2    0    0  0.38599713155E+01 -0.15741942242E+02  0.60709684160E+02  0.62836087362E+02  0.00000000000E+00 0.  1.
         -2    1    1    2    0  501  0.22972899803E+02 -0.32351587538E+02  0.73560859540E+03  0.73667793844E+03  0.25500000000E-02 0.  1.
<mgrwt>
<rscale>  0 0.25955885E+02</rscale>
<asrwt>0</asrwt>
<pdfrwt beam="1">  1       11 0.10000000E+01 0.41565706E+02</pdfrwt>
<pdfrwt beam="2">  1       -2 0.82283643E-03 0.25955885E+02</pdfrwt>
<totfact> 0.14927391E+04</totfact>
</mgrwt>
</event>
<event>
 5    1  0.2968854E-003  0.8668906E+02  0.7818608E-02  0.1497325E+00
         11   -1    0    0    0    0  0.00000000000E+00  0.00000000000E+00  0.10002885094E+04  0.10002885094E+04  0.51100000000E-03 0. -1.
          2   -1    0    0  501    0 -0.00000000000E+00 -0.00000000000E+00 -0.11327468993E+02  0.11327469280E+02  0.25500000000E-02 0. -1.
         11    1    1    2    0    0 -0.18345619031E+01  0.88749816240E+02  0.49079616831E+03  0.49875923483E+03  0.51100000000E-03 0. -1.
         22    1    1    2    0    0 -0.19088088940E+02 -0.55722865525E+01  0.24815046374E+02  0.31799245956E+02  0.00000000000E+00 0. -1.
          2    1    1    2  501    0  0.20922650843E+02 -0.83177529687E+02  0.47334982572E+03  0.48105749789E+03  0.25500000000E-02 0. -1.
<mgrwt>
<rscale>  0 0.41518601E+02</rscale>
<asrwt>0</asrwt>
<pdfrwt beam="1">  1       11 0.10000000E+01 0.86689057E+02</pdfrwt>
<pdfrwt beam="2">  1        2 0.17431903E-02 0.41518601E+02</pdfrwt>
<totfact> 0.63709756E+03</totfact>
</mgrwt>
</event>
<event>
 5    1  0.2968854E-003  0.4892339E+03  0.7818608E-02  0.1021008E+00
         11   -1    0    0    0    0  0.00000000000E+00  0.00000000000E+00  0.10002849357E+04  0.10002849357E+04  0.51100000000E-03 0. -1.
          2   -1    0    0  501    0 -0.00000000000E+00 -0.00000000000E+00 -0.23161103982E+03  0.23161103983E+03  0.25500000000E-02 0. -1.
         11    1    1    2    0    0 -0.13096953451E+03  0.42282925043E+03  0.35143883651E+03  0.56519629315E+03  0.51100000000E-03 0. -1.
         22    1    1    2    0    0  0.24431211057E+02  0.38268662496E+02  0.51088995983E+02  0.68348080539E+02  0.00000000000E+00 0.  1.
          2    1    1    2  501    0  0.10653832346E+03 -0.46109791293E+03  0.36614606336E+03  0.59835160181E+03  0.25500000000E-02 0. -1.
<mgrwt>
<rscale>  0 0.47324592E+03</rscale>
<asrwt>0</asrwt>
<pdfrwt beam="1">  1       11 0.10000000E+01 0.48923391E+03</pdfrwt>
<pdfrwt beam="2">  1        2 0.35642620E-01 0.47324592E+03</pdfrwt>
<totfact> 0.18045874E+02</totfact>
</mgrwt>
</event>
<event>
 5    1  0.2968854E-003  0.3902817E+02  0.7818608E-02  0.1515487E+00
         11   -1    0    0    0    0  0.00000000000E+00  0.00000000000E+00  0.10001821168E+04  0.10001821168E+04  0.51100000000E-03 0. -1.
          2   -1    0    0  501    0 -0.00000000000E+00 -0.00000000000E+00 -0.52272287380E+01  0.52272293600E+01  0.25500000000E-02 0. -1.
         11    1    1    2    0    0  0.18815780834E+02  0.67456267558E+01  0.86198244324E+02  0.88485447468E+02  0.51100000000E-03 0. -1.
         22    1    1    2    0    0 -0.37792985892E+02 -0.16907956323E+02  0.10484137407E+03  0.11272046170E+03  0.00000000000E+00 0. -1.
          2    1    1    2  501    0  0.18977205058E+02  0.10162329567E+02  0.80391526966E+03  0.80420343698E+03  0.25500000000E-02 0. -1.
<mgrwt>
<rscale>  0 0.39028172E+02</rscale>
<asrwt>0</asrwt>
<pdfrwt beam="1">  1       11 0.10000000E+01 0.19988434E+02</pdfrwt>
<pdfrwt beam="2">  1        2 0.80433552E-03 0.39028172E+02</pdfrwt>
<totfact> 0.17585975E+04</totfact>
</mgrwt>
</event>
<event>
 5    1  0.2968854E-003  0.1280193E+03  0.7818608E-02  0.1230425E+00
         11   -1    0    0    0    0  0.00000000000E+00  0.00000000000E+00  0.10001418894E+04  0.10001418894E+04  0.51100000000E-03 0. -1.
          2   -1    0    0  501    0 -0.00000000000E+00 -0.00000000000E+00 -0.21133410343E+02  0.21133410497E+02  0.25500000000E-02 0. -1.
         11    1    1    2    0    0 -0.26097750897E+02 -0.86451699622E+01  0.14403373037E+03  0.14663405828E+03  0.51100000000E-03 0. -1.
         22    1    1    2    0    0 -0.25693779580E+02 -0.11894384586E+03  0.35323352904E+03  0.37360639022E+03  0.00000000000E+00 0. -1.
          2    1    1    2  501    0  0.51791530477E+02  0.12758901583E+03  0.48174121964E+03  0.50103485138E+03  0.25500000000E-02 0. -1.
<mgrwt>
<rscale>  0 0.12801931E+03</rscale>
<asrwt>0</asrwt>
<pdfrwt beam="1">  1       11 0.10000000E+01 0.27492391E+02</pdfrwt>
<pdfrwt beam="2">  1        2 0.32517551E-02 0.12801931E+03</pdfrwt>
<totfact> 0.32193968E+03</totfact>
</mgrwt>
</event>
<event>
 5    1  0.2968854E-003  0.2658534E+02  0.7818608E-02  0.1646731E+00
         11   -1    0    0    0    0  0.00000000000E+00  0.00000000000E+00  0.10006032212E+04  0.10006032212E+04  0.51100000000E-03 0. -1.
         -2   -1    0    0    0  501 -0.00000000000E+00 -0.00000000000E+00 -0.18399018391E+01  0.18399036062E+01  0.25500000000E-02 0. -1.
         11    1    1    2    0    0  0.12774529445E+02  0.87575041914E+01  0.55724730597E+02  0.57837082244E+02  0.51100000000E-03 0. -1.
         22    1    1    2    0    0  0.10597254622E+02  0.26856694346E+01  0.49684471989E+02  0.50872992665E+02  0.00000000000E+00 0. -1.
         -2    1    1    2    0  501 -0.23371784067E+02 -0.11443173626E+02  0.89335411674E+03  0.89373304986E+03  0.25500000000E-02 0. -1.
<mgrwt>
<rscale>  0 0.26022808E+02</rscale>
<asrwt>0</asrwt>
<pdfrwt beam="1">  1       11 0.10000000E+01 0.26585342E+02</pdfrwt>
<pdfrwt beam="2">  1       -2 0.28323270E-03 0.26022808E+02</pdfrwt>
<totfact> 0.62719239E+04</totfact>
</mgrwt>
</event>
<event>
 5    1  0.2968854E-003  0.2887449E+03  0.7818608E-02  0.1421353E+00
         11   -1    0    0    0    0  0.00000000000E+00  0.00000000000E+00  0.10007432056E+04  0.10007432056E+04  0.51100000000E-03 0. -1.
         -2   -1    0    0    0  501 -0.00000000000E+00 -0.00000000000E+00 -0.14729553675E+04  0.14729553675E+04  0.25500000000E-02 0.  1.
         11    1    1    2    0    0  0.19387030457E+03 -0.19736692289E+03  0.56945358388E+03  0.63310092516E+03  0.51100000000E-03 0. -1.
         22    1    1    2    0    0 -0.18773008226E+03  0.25175711910E+03  0.33711636380E+03  0.46072950149E+03  0.00000000000E+00 0. -1.
         -2    1    1    2    0  501 -0.61402223135E+01 -0.54390196218E+02 -0.13787821096E+04  0.13798681464E+04  0.25500000000E-02 0.  1.
<mgrwt>
<rscale>  0 0.54735690E+02</rscale>
<asrwt>0</asrwt>
<pdfrwt beam="1">  1       11 0.10000000E+01 0.28874492E+03</pdfrwt>
<pdfrwt beam="2">  1       -2 0.22677693E+00 0.54735690E+02</pdfrwt>
<totfact> 0.90966091E-01</totfact>
</mgrwt>
</event>
<event>
 5    1  0.2968854E-003  0.2647782E+03  0.7818608E-02  0.1104306E+00
         11   -1    0    0    0    0  0.00000000000E+00  0.00000000000E+00  0.99973963863E+03  0.99973963863E+03  0.51100000000E-03 0. -1.
          2   -1    0    0  501    0 -0.00000000000E+00 -0.00000000000E+00 -0.13454053108E+04  0.13454053108E+04  0.25500000000E-02 0. -1.
         11    1    1    2    0    0  0.95032396741E+01  0.19509177891E+03  0.45091330484E+03  0.49139996159E+03  0.51100000000E-03 0. -1.
         22    1    1    2    0    0  0.83503061686E+02  0.55212435980E+02  0.51021794232E+03  0.51994569242E+03  0.00000000000E+00 0. -1.
          2    1    1    2  501    0 -0.93006301360E+02 -0.25030421489E+03 -0.13067969193E+04  0.13337992954E+04  0.25500000000E-02 0. -1.
<mgrwt>
<rscale>  0 0.26477819E+03</rscale>
<asrwt>0</asrwt>
<pdfrwt beam="1">  1       11 0.10000000E+01 0.10010582E+03</pdfrwt>
<pdfrwt beam="2">  1        2 0.20693154E+00 0.26477819E+03</pdfrwt>
<totfact> 0.20794025E+01</totfact>
</mgrwt>
</event>
<event>
 5    1  0.2968854E-003  0.1599205E+03  0.7818608E-02  0.1194467E+00
         11   -1    0    0    0    0  0.00000000000E+00  0.00000000000E+00  0.10002853364E+04  0.10002853364E+04  0.51100000000E-03 0. -1.
          2   -1    0    0  501    0 -0.00000000000E+00 -0.00000000000E+00 -0.25318962903E+02  0.25318963031E+02  0.25500000000E-02 0. -1.
         11    1    1    2    0    0  0.27240023706E+01  0.11059125548E+02  0.10801302446E+02  0.15696897196E+02  0.51100000000E-03 0. -1.
         22    1    1    2    0    0  0.57060276969E+02  0.13194112845E+03  0.40973864887E+03  0.43422355643E+03  0.00000000000E+00 0. -1.
          2    1    1    2  501    0 -0.59784279340E+02 -0.14300025400E+03  0.55442642222E+03  0.57568384584E+03  0.25500000000E-02 0. -1.
<mgrwt>
<rscale>  0 0.15499430E+03</rscale>
<asrwt>0</asrwt>
<pdfrwt beam="1">  1       11 0.10000000E+01 0.15992049E+03</pdfrwt>
<pdfrwt beam="2">  1        2 0.38963364E-02 0.15499430E+03</pdfrwt>
<totfact> 0.25753157E+03</totfact>
</mgrwt>
</event>
<event>
 5    1  0.2968854E-003  0.3660130E+02  0.7818608E-02  0.1544516E+00
         11   -1    0    0    0    0  0.00000000000E+00  0.00000000000E+00  0.10000847768E+04  0.10000847768E+04  0.51100000000E-03 0. -1.
          2   -1    0    0  501    0 -0.00000000000E+00 -0.00000000000E+00 -0.25555414706E+01  0.25555427429E+01  0.25500000000E-02 0. -1.
         11    1    1    2    0    0 -0.18118509168E+02 -0.15887770876E+02  0.83311762853E+02  0.86726878577E+02  0.51100000000E-03 0. -1.
         22    1    1    2    0    0 -0.93495854223E+01 -0.65447872505E+01  0.67838409488E+02  0.68791705820E+02  0.00000000000E+00 0.  1.
          2    1    1    2  501    0  0.27468094590E+02  0.22432558127E+02  0.84637906295E+03  0.84712173511E+03  0.25500000000E-02 0. -1.
<mgrwt>
<rscale>  0 0.35464290E+02</rscale>
<asrwt>0</asrwt>
<pdfrwt beam="1">  1       11 0.10000000E+01 0.36601305E+02</pdfrwt>
<pdfrwt beam="2">  1        2 0.39319364E-03 0.35464290E+02</pdfrwt>
<totfact> 0.44787773E+04</totfact>
</mgrwt>
</event>
<event>
 5    1  0.2968854E-003  0.2352058E+03  0.7818608E-02  0.1123028E+00
         11   -1    0    0    0    0  0.00000000000E+00  0.00000000000E+00  0.10006830404E+04  0.10006830404E+04  0.51100000000E-03 0. -1.
          2   -1    0    0  501    0 -0.00000000000E+00 -0.00000000000E+00 -0.82271192573E+03  0.82271192574E+03  0.25500000000E-02 0. -1.
         11    1    1    2    0    0 -0.75791882918E+02  0.16380093890E+03  0.85972049897E+03  0.87846143538E+03  0.51100000000E-03 0. -1.
         22    1    1    2    0    0 -0.77163039015E+02  0.16495136768E+02  0.10047611549E+03  0.12775630674E+03  0.00000000000E+00 0. -1.
          2    1    1    2  501    0  0.15295492193E+03 -0.18029607566E+03 -0.78222549976E+03  0.81717722406E+03  0.25500000000E-02 0. -1.
<mgrwt>
<rscale>  0 0.23520578E+03</rscale>
<asrwt>0</asrwt>
<pdfrwt beam="1">  1       11 0.10000000E+01 0.78906426E+02</pdfrwt>
<pdfrwt beam="2">  1        2 0.12665752E+00 0.23520578E+03</pdfrwt>
<totfact> 0.42944771E+01</totfact>
</mgrwt>
</event>
<event>
 5    1  0.2968854E-003  0.2062369E+03  0.7818608E-02  0.1152189E+00
         11   -1    0    0    0    0  0.00000000000E+00  0.00000000000E+00  0.10004610169E+04  0.10004610169E+04  0.51100000000E-03 0.  1.
         -2   -1    0    0    0  501 -0.00000000000E+00 -0.00000000000E+00 -0.40755186325E+02  0.40755186405E+02  0.25500000000E-02 0.  1.
         11    1    1    2    0    0 -0.15082379169E+03 -0.68375237779E+02  0.42841316427E+03  0.45930472303E+03  0.51100000000E-03 0.  1.
         22    1    1    2    0    0 -0.33053564354E+02 -0.26640118031E+01  0.36586290239E+02  0.49378048856E+02  0.00000000000E+00 0. -1.
         -2    1    1    2    0  501  0.18387735604E+03  0.71039249582E+02  0.49470637602E+03  0.53253343137E+03  0.25500000000E-02 0.  1.
<mgrwt>
<rscale>  0 0.19712295E+03</rscale>
<asrwt>0</asrwt>
<pdfrwt beam="1">  1       11 0.10000000E+01 0.20623693E+03</pdfrwt>
<pdfrwt beam="2">  1       -2 0.62729191E-02 0.19712295E+03</pdfrwt>
<totfact> 0.10785174E+03</totfact>
</mgrwt>
</event>
<event>
 5    1  0.2968854E-003  0.7645130E+02  0.7818608E-02  0.1345109E+00
         11   -1    0    0    0    0  0.00000000000E+00  0.00000000000E+00  0.10001300306E+04  0.10001300306E+04  0.51100000000E-03 0.  1.
          2   -1    0    0  501    0 -0.00000000000E+00 -0.00000000000E+00 -0.17956031230E+02  0.17956031412E+02  0.25500000000E-02 0.  1.
         11    1    1    2    0    0  0.14392410822E+02 -0.61981003942E+02  0.55049878586E+02  0.84138430409E+02  0.51100000000E-03 0.  1.
         22    1    1    2    0    0  0.77563905863E+01 -0.92568712376E+01  0.17460975509E+02  0.21230565837E+02  0.00000000000E+00 0.  1.
          2    1    1    2  501    0 -0.22148801408E+02  0.71237875180E+02  0.90966314532E+03  0.91271706581E+03  0.25500000000E-02 0.  1.
<mgrwt>
<rscale>  0 0.74601637E+02</rscale>
<asrwt>0</asrwt>
<pdfrwt beam="1">  1       11 0.10000000E+01 0.76451301E+02</pdfrwt>
<pdfrwt beam="2">  1        2 0.27628255E-02 0.74601637E+02</pdfrwt>
<totfact> 0.37673724E+03</totfact>
</mgrwt>
</event>
<event>
 5    1  0.2968854E-003  0.1929547E+03  0.7818608E-02  0.1155823E+00
         11   -1    0    0    0    0  0.00000000000E+00  0.00000000000E+00  0.99983447453E+03  0.99983447453E+03  0.51100000000E-03 0. -1.
          2   -1    0    0  501    0 -0.00000000000E+00 -0.00000000000E+00 -0.10690112140E+04  0.10690112140E+04  0.25500000000E-02 0. -1.
         11    1    1    2    0    0  0.23275319614E+02 -0.19292155154E+03  0.93601222158E+03  0.95597036800E+03  0.51100000000E-03 0. -1.
         22    1    1    2    0    0 -0.35078558134E+02  0.31138955833E+00  0.38158120567E+02  0.51832850292E+02  0.00000000000E+00 0. -1.
          2    1    1    2  501    0  0.11803238520E+02  0.19261016198E+03 -0.10433470816E+04  0.10610424702E+04  0.25500000000E-02 0. -1.
<mgrwt>
<rscale>  0 0.19295475E+03</rscale>
<asrwt>0</asrwt>
<pdfrwt beam="1">  1       11 0.10000000E+01 0.35079940E+02</pdfrwt>
<pdfrwt beam="2">  1        2 0.16443604E+00 0.19295475E+03</pdfrwt>
<totfact> 0.30372361E+01</totfact>
</mgrwt>
</event>
<event>
 5    1  0.2968854E-003  0.9853716E+02  0.7818608E-02  0.1283403E+00
         11   -1    0    0    0    0  0.00000000000E+00  0.00000000000E+00  0.10002354530E+04  0.10002354530E+04  0.51100000000E-03 0.  1.
          2   -1    0    0  501    0 -0.00000000000E+00 -0.00000000000E+00 -0.59242857340E+02  0.59242857395E+02  0.25500000000E-02 0.  1.
         11    1    1    2    0    0 -0.49892215088E+02 -0.14685729813E+03  0.59244975437E+03  0.61241571714E+03  0.51100000000E-03 0.  1.
         22    1    1    2    0    0 -0.19140398838E+02  0.81477231633E+02  0.34162959357E+03  0.35173238882E+03  0.00000000000E+00 0. -1.
          2    1    1    2  501    0  0.69032613926E+02  0.65380066500E+02  0.69132477368E+01  0.95330204457E+02  0.25500000000E-02 0.  1.
<mgrwt>
<rscale>  0 0.98537155E+02</rscale>
<asrwt>0</asrwt>
<pdfrwt beam="1">  1       11 0.10000000E+01 0.83695246E+02</pdfrwt>
<pdfrwt beam="2">  1        2 0.91164315E-02 0.98537155E+02</pdfrwt>
<totfact> 0.83563612E+02</totfact>
</mgrwt>
</event>
<event>
 5    1  0.2968854E-003  0.9281228E+02  0.7818608E-02  0.1296181E+00
         11   -1    0    0    0    0  0.00000000000E+00  0.00000000000E+00  0.10004504897E+04  0.10004504897E+04  0.51100000000E-03 0.  1.
          2   -1    0    0  501    0 -0.00000000000E+00 -0.00000000000E+00 -0.13299723545E+02  0.13299723789E+02  0.25500000000E-02 0.  1.
         11    1    1    2    0    0  0.25002568399E+02 -0.24566377929E+02  0.85516731800E+02  0.92421570908E+02  0.51100000000E-03 0.  1.
         22    1    1    2    0    0  0.65546582979E+02  0.63042467190E+02  0.41472474509E+03  0.42457899312E+03  0.00000000000E+00 0.  1.
          2    1    1    2  501    0 -0.90549151378E+02 -0.38476089261E+02  0.48690928931E+03  0.49674964951E+03  0.25500000000E-02 0.  1.
<mgrwt>
<rscale>  0 0.92812276E+02</rscale>
<asrwt>0</asrwt>
<pdfrwt beam="1">  1       11 0.10000000E+01 0.35051913E+02</pdfrwt>
<pdfrwt beam="2">  1        2 0.20470330E-02 0.92812276E+02</pdfrwt>
<totfact> 0.57800906E+03</totfact>
</mgrwt>
</event>
<event>
 5    1  0.2968854E-003  0.2182409E+03  0.7818608E-02  0.1143608E+00
         11   -1    0    0    0    0  0.00000000000E+00  0.00000000000E+00  0.10002068409E+04  0.10002068409E+04  0.51100000000E-03 0. -1.
          2   -1    0    0  501    0 -0.00000000000E+00 -0.00000000000E+00 -0.13211808351E+03  0.13211808353E+03  0.25500000000E-02 0. -1.
         11    1    1    2    0    0 -0.21605026791E+02  0.15113101874E+03  0.55140037430E+03  0.57214485472E+03  0.51100000000E-03 0. -1.
         22    1    1    2    0    0  0.24735297803E+02  0.56287420585E+02  0.34533854446E+03  0.35076889680E+03  0.00000000000E+00 0. -1.
          2    1    1    2  501    0 -0.31302710118E+01 -0.20741843932E+03 -0.28650161401E+02  0.20941117287E+03  0.25500000000E-02 0. -1.
<mgrwt>
<rscale>  0 0.20744206E+03</rscale>
<asrwt>0</asrwt>
<pdfrwt beam="1">  1       11 0.10000000E+01 0.21824093E+03</pdfrwt>
<pdfrwt beam="2">  1        2 0.20330063E-01 0.20744206E+03</pdfrwt>
<totfact> 0.33405977E+02</totfact>
</mgrwt>
</event>
<event>
 5    1  0.2968854E-003  0.1348707E+03  0.7818608E-02  0.1713445E+00
         11   -1    0    0    0    0  0.00000000000E+00  0.00000000000E+00  0.10001403692E+04  0.10001403692E+04  0.51100000000E-03 0. -1.
          2   -1    0    0  501    0 -0.00000000000E+00 -0.00000000000E+00 -0.22016552718E+02  0.22016552866E+02  0.25500000000E-02 0. -1.
         11    1    1    2    0    0  0.51948326433E+02  0.12302949418E+03  0.40318169365E+03  0.42472386694E+03  0.51100000000E-03 0. -1.
         22    1    1    2    0    0 -0.32548620660E+02 -0.13275877979E+03  0.53249848673E+03  0.54976262576E+03  0.00000000000E+00 0. -1.
          2    1    1    2  501    0 -0.19399705772E+02  0.97292856134E+01  0.42443636072E+02  0.47670429326E+02  0.25500000000E-02 0. -1.
<mgrwt>
<rscale>  0 0.21702709E+02</rscale>
<asrwt>0</asrwt>
<pdfrwt beam="1">  1       11 0.10000000E+01 0.13487066E+03</pdfrwt>
<pdfrwt beam="2">  1        2 0.33876373E-02 0.21702709E+02</pdfrwt>
<totfact> 0.24414633E+03</totfact>
</mgrwt>
</event>
<event>
 5    1  0.2968854E-003  0.3471306E+03  0.7818608E-02  0.1063799E+00
         11   -1    0    0    0    0  0.00000000000E+00  0.00000000000E+00  0.10003053514E+04  0.10003053514E+04  0.51100000000E-03 0.  1.
          2   -1    0    0  501    0 -0.00000000000E+00 -0.00000000000E+00 -0.96353263824E+03  0.96353263824E+03  0.25500000000E-02 0.  1.
         11    1    1    2    0    0 -0.17174077516E+03  0.17041843215E+03  0.75167325573E+03  0.78965183420E+03  0.51100000000E-03 0.  1.
         22    1    1    2    0    0  0.13469647095E+03  0.18211243236E+03  0.12772180759E+03  0.26004026119E+03  0.00000000000E+00 0. -1.
          2    1    1    2  501    0  0.37044304206E+02 -0.35253086451E+03 -0.84262235019E+03  0.91414589423E+03  0.25500000000E-02 0.  1.
<mgrwt>
<rscale>  0 0.34713064E+03</rscale>
<asrwt>0</asrwt>
<pdfrwt beam="1">  1       11 0.10000000E+01 0.22651286E+03</pdfrwt>
<pdfrwt beam="2">  1        2 0.14828105E+00 0.34713064E+03</pdfrwt>
<totfact> 0.34199892E+01</totfact>
</mgrwt>
</event>
<event>
 5    1  0.2968854E-003  0.1894212E+03  0.7818608E-02  0.1162420E+00
         11   -1    0    0    0    0  0.00000000000E+00  0.00000000000E+00  0.10000055224E+04  0.10000055224E+04  0.51100000000E-03 0.  1.
         -2   -1    0    0    0  501 -0.00000000000E+00 -0.00000000000E+00 -0.42059297789E+02  0.42059297867E+02  0.25500000000E-02 0. -1.
         11    1    1    2    0    0 -0.34263763853E+02 -0.60392383282E+02  0.33096850346E+03  0.33817361777E+03  0.51100000000E-03 0.  1.
         22    1    1    2    0    0 -0.63139771418E+02 -0.97684626136E+02  0.36280065576E+03  0.38098980661E+03  0.00000000000E+00 0. -1.
         -2    1    1    2    0  501  0.97403535271E+02  0.15807700942E+03  0.26417706544E+03  0.32290139594E+03  0.25500000000E-02 0. -1.
<mgrwt>
<rscale>  0 0.18567657E+03</rscale>
<asrwt>0</asrwt>
<pdfrwt beam="1">  1       11 0.10000000E+01 0.18942118E+03</pdfrwt>
<pdfrwt beam="2">  1       -2 0.64706968E-02 0.18567657E+03</pdfrwt>
<totfact> 0.10239490E+03</totfact>
</mgrwt>
</event>
<event>
 5    1  0.2968854E-003  0.1202122E+03  0.7818608E-02  0.1242747E+00
         11   -1    0    0    0    0  0.00000000000E+00  0.00000000000E+00  0.99997127400E+03  0.99997127400E+03  0.51100000000E-03 0. -1.
          2   -1    0    0  501    0 -0.00000000000E+00 -0.00000000000E+00 -0.23211708538E+02  0.23211708678E+02  0.25500000000E-02 0. -1.
         11    1    1    2    0    0 -0.69056882666E+02  0.91350030560E+02  0.56808410078E+03  0.57951119634E+03  0.51100000000E-03 0. -1.
         22    1    1    2    0    0 -0.34582321698E+02 -0.21804636630E+02  0.16378201741E+03  0.16880737063E+03  0.00000000000E+00 0. -1.
          2    1    1    2  501    0  0.10363920436E+03 -0.69545393929E+02  0.24489344728E+03  0.27486441571E+03  0.25500000000E-02 0. -1.
<mgrwt>
<rscale>  0 0.12021216E+03</rscale>
<asrwt>0</asrwt>
<pdfrwt beam="1">  1       11 0.10000000E+01 0.40882504E+02</pdfrwt>
<pdfrwt beam="2">  1        2 0.35709294E-02 0.12021216E+03</pdfrwt>
<totfact> 0.28240858E+03</totfact>
</mgrwt>
</event>
<event>
 5    1  0.4391427E-003  0.2820823E+03  0.7818608E-02  0.1095434E+00
         11   -1    0    0    0    0  0.00000000000E+00  0.00000000000E+00  0.10001580478E+04  0.10001580478E+04  0.51100000000E-03 0. -1.
          2   -1    0    0  501    0 -0.00000000000E+00 -0.00000000000E+00 -0.39995039812E+03  0.39995039813E+03  0.25500000000E-02 0.  1.
         11    1    1    2    0    0 -0.10090026433E+03 -0.24711751068E+03  0.85710464598E+03  0.89770613320E+03  0.51100000000E-03 0. -1.
         22    1    1    2    0    0 -0.23520319408E+01 -0.13652637780E+02  0.70183840011E+02  0.71538087557E+02  0.00000000000E+00 0.  1.
          2    1    1    2  501    0  0.10325229627E+03  0.26077014846E+03 -0.32708083633E+03  0.43086422515E+03  0.25500000000E-02 0.  1.
<mgrwt>
<rscale>  0 0.28046766E+03</rscale>
<asrwt>0</asrwt>
<pdfrwt beam="1">  1       11 0.10000000E+01 0.28208230E+03</pdfrwt>
<pdfrwt beam="2">  1        2 0.61540554E-01 0.28046766E+03</pdfrwt>
<totfact> 0.99252086E+01</totfact>
</mgrwt>
</event>
<event>
 5    1  0.2968854E-003  0.1735019E+03  0.7818608E-02  0.1192211E+00
         11   -1    0    0    0    0  0.00000000000E+00  0.00000000000E+00  0.99999525907E+03  0.99999525907E+03  0.51100000000E-03 0. -1.
          2   -1    0    0  501    0 -0.00000000000E+00 -0.00000000000E+00 -0.72876828452E+02  0.72876828497E+02  0.25500000000E-02 0. -1.
         11    1    1    2    0    0 -0.31249655789E+02 -0.87562085354E+02 -0.98904127854E+01  0.93495882496E+02  0.51100000000E-03 0. -1.
         22    1    1    2    0    0 -0.28023735630E+02 -0.57740056408E+02  0.58115955729E+02  0.86583532978E+02  0.00000000000E+00 0.  1.
          2    1    1    2  501    0  0.59273391419E+02  0.14530214176E+03  0.87889288767E+03  0.89279267209E+03  0.25500000000E-02 0. -1.
<mgrwt>
<rscale>  0 0.15692689E+03</rscale>
<asrwt>0</asrwt>
<pdfrwt beam="1">  1       11 0.10000000E+01 0.17350185E+03</pdfrwt>
<pdfrwt beam="2">  1        2 0.11211766E-01 0.15692689E+03</pdfrwt>
<totfact> 0.66664421E+02</totfact>
</mgrwt>
</event>
<event>
 5    1  0.2968854E-003  0.1693717E+03  0.7818608E-02  0.1467023E+00
         11   -1    0    0    0    0  0.00000000000E+00  0.00000000000E+00  0.10003039592E+04  0.10003039592E+04  0.51100000000E-03 0. -1.
          2   -1    0    0  501    0 -0.00000000000E+00 -0.00000000000E+00 -0.46459250623E+02  0.46459250693E+02  0.25500000000E-02 0. -1.
         11    1    1    2    0    0 -0.17690095872E+03  0.11984623721E+02  0.28946039914E+03  0.33944793868E+03  0.51100000000E-03 0. -1.
         22    1    1    2    0    0  0.11578705442E+02  0.49661802945E+01 -0.78492133162E+01  0.14843837647E+02  0.00000000000E+00 0. -1.
          2    1    1    2  501    0  0.16532225328E+03 -0.16950804015E+02  0.67223352272E+03  0.69247143353E+03  0.25500000000E-02 0. -1.
<mgrwt>
<rscale>  0 0.46193898E+02</rscale>
<asrwt>0</asrwt>
<pdfrwt beam="1">  1       11 0.10000000E+01 0.16937168E+03</pdfrwt>
<pdfrwt beam="2">  1        2 0.71497494E-02 0.46193898E+02</pdfrwt>
<totfact> 0.10610324E+03</totfact>
</mgrwt>
</event>
<event>
 5    1  0.2968854E-003  0.1482590E+03  0.7818608E-02  0.1208435E+00
         11   -1    0    0    0    0  0.00000000000E+00  0.00000000000E+00  0.99982278936E+03  0.99982278936E+03  0.51100000000E-03 0.  1.
          2   -1    0    0  501    0 -0.00000000000E+00 -0.00000000000E+00 -0.24126730449E+02  0.24126730584E+02  0.25500000000E-02 0.  1.
         11    1    1    2    0    0  0.30742293382E+02 -0.80535141201E+02  0.16613496181E+03  0.18716790085E+03  0.51100000000E-03 0.  1.
         22    1    1    2    0    0 -0.48044525073E+01 -0.60804471540E+02  0.15364583953E+03  0.16530974117E+03  0.00000000000E+00 0.  1.
          2    1    1    2  501    0 -0.25937840874E+02  0.14133961274E+03  0.65591525758E+03  0.67147187793E+03  0.25500000000E-02 0.  1.
<mgrwt>
<rscale>  0 0.14369989E+03</rscale>
<asrwt>0</asrwt>
<pdfrwt beam="1">  1       11 0.10000000E+01 0.14825899E+03</pdfrwt>
<pdfrwt beam="2">  1        2 0.37111468E-02 0.14369989E+03</pdfrwt>
<totfact> 0.27290097E+03</totfact>
</mgrwt>
</event>
<event>
 5    1  0.2968854E-003  0.1498593E+03  0.7818608E-02  0.1205293E+00
         11   -1    0    0    0    0  0.00000000000E+00  0.00000000000E+00  0.99991227867E+03  0.99991227867E+03  0.51100000000E-03 0. -1.
          2   -1    0    0  501    0 -0.00000000000E+00 -0.00000000000E+00 -0.23139446577E+02  0.23139446717E+02  0.25500000000E-02 0. -1.
         11    1    1    2    0    0 -0.10286984167E+03 -0.78698042972E+00  0.37738849926E+03  0.39115841169E+03  0.51100000000E-03 0. -1.
         22    1    1    2    0    0 -0.42573252234E+02  0.15084527616E+02  0.23487177339E+03  0.23917519670E+03  0.00000000000E+00 0.  1.
          2    1    1    2  501    0  0.14544309391E+03 -0.14297547186E+02  0.36451255944E+03  0.39271811699E+03  0.25500000000E-02 0. -1.
<mgrwt>
<rscale>  0 0.14614415E+03</rscale>
<asrwt>0</asrwt>
<pdfrwt beam="1">  1       11 0.10000000E+01 0.14985932E+03</pdfrwt>
<pdfrwt beam="2">  1        2 0.35596025E-02 0.14614415E+03</pdfrwt>
<totfact> 0.28895996E+03</totfact>
</mgrwt>
</event>
<event>
 5    1  0.2968854E-003  0.9566057E+02  0.7818608E-02  0.1301792E+00
         11   -1    0    0    0    0  0.00000000000E+00  0.00000000000E+00  0.10001119632E+04  0.10001119632E+04  0.51100000000E-03 0. -1.
          2   -1    0    0  501    0 -0.00000000000E+00 -0.00000000000E+00 -0.93626675017E+01  0.93626678490E+01  0.25500000000E-02 0. -1.
         11    1    1    2    0    0  0.44762498403E+02 -0.19535195098E+02  0.13850703535E+03  0.14686559826E+03  0.51100000000E-03 0. -1.
         22    1    1    2    0    0  0.41464995451E+02 -0.77417073412E+01  0.23122988524E+03  0.23504582470E+03  0.00000000000E+00 0.  1.
          2    1    1    2  501    0 -0.86227493854E+02  0.27276902439E+02  0.62101237509E+03  0.62756320807E+03  0.25500000000E-02 0. -1.
<mgrwt>
<rscale>  0 0.90438986E+02</rscale>
<asrwt>0</asrwt>
<pdfrwt beam="1">  1       11 0.10000000E+01 0.95660569E+02</pdfrwt>
<pdfrwt beam="2">  1        2 0.14405716E-02 0.90438986E+02</pdfrwt>
<totfact> 0.92702971E+03</totfact>
</mgrwt>
</event>
<event>
 5    1  0.2968854E-003  0.9224272E+02  0.7818608E-02  0.1484457E+00
         11   -1    0    0    0    0  0.00000000000E+00  0.00000000000E+00  0.10003302426E+04  0.10003302426E+04  0.51100000000E-03 0. -1.
          2   -1    0    0  501    0 -0.00000000000E+00 -0.00000000000E+00 -0.43110098369E+02  0.43110098444E+02  0.25500000000E-02 0. -1.
         11    1    1    2    0    0  0.11556751882E+03 -0.18633264361E+02  0.54977773846E+03  0.56210195841E+03  0.51100000000E-03 0. -1.
         22    1    1    2    0    0 -0.78494543060E+02 -0.39684664360E+01  0.42667268955E+03  0.43385104128E+03  0.00000000000E+00 0. -1.
          2    1    1    2  501    0 -0.37072975758E+02  0.22601730797E+02 -0.19230283785E+02  0.47487341340E+02  0.25500000000E-02 0. -1.
<mgrwt>
<rscale>  0 0.43419394E+02</rscale>
<asrwt>0</asrwt>
<pdfrwt beam="1">  1       11 0.10000000E+01 0.92242724E+02</pdfrwt>
<pdfrwt beam="2">  1        2 0.66345129E-02 0.43419394E+02</pdfrwt>
<totfact> 0.11562237E+03</totfact>
</mgrwt>
</event>
<event>
 5    1  0.2968854E-003  0.1880989E+03  0.7818608E-02  0.1167429E+00
         11   -1    0    0    0    0  0.00000000000E+00  0.00000000000E+00  0.10001539085E+04  0.10001539085E+04  0.51100000000E-03 0. -1.
          2   -1    0    0  501    0 -0.00000000000E+00 -0.00000000000E+00 -0.18766770102E+03  0.18766770104E+03  0.25500000000E-02 0. -1.
         11    1    1    2    0    0 -0.26592327258E+02 -0.40378241265E+02  0.21703335209E+03  0.22235339025E+03  0.51100000000E-03 0. -1.
         22    1    1    2    0    0 -0.13112951721E+03 -0.47161139721E+02  0.72825565733E+03  0.74146842537E+03  0.00000000000E+00 0. -1.
          2    1    1    2  501    0  0.15772184447E+03  0.87539380987E+02 -0.13280280197E+03  0.22399979389E+03  0.25500000000E-02 0. -1.
<mgrwt>
<rscale>  0 0.18038659E+03</rscale>
<asrwt>0</asrwt>
<pdfrwt beam="1">  1       11 0.10000000E+01 0.18809886E+03</pdfrwt>
<pdfrwt beam="2">  1        2 0.28876397E-01 0.18038659E+03</pdfrwt>
<totfact> 0.22489293E+02</totfact>
</mgrwt>
</event>
<event>
 5    1  0.2968854E-003  0.1490336E+03  0.7818608E-02  0.1201666E+00
         11   -1    0    0    0    0  0.00000000000E+00  0.00000000000E+00  0.10003093788E+04  0.10003093788E+04  0.51100000000E-03 0. -1.
          2   -1    0    0  501    0 -0.00000000000E+00 -0.00000000000E+00 -0.37706707215E+03  0.37706707215E+03  0.25500000000E-02 0. -1.
         11    1    1    2    0    0  0.97718862211E+00 -0.14715665439E+03  0.84365662549E+03  0.85639508264E+03  0.51100000000E-03 0. -1.
         22    1    1    2    0    0 -0.32337427766E+02  0.13635183223E+01  0.13326963388E+03  0.13714358801E+03  0.00000000000E+00 0. -1.
          2    1    1    2  501    0  0.31360239144E+02  0.14579313607E+03 -0.35368395275E+03  0.38383778027E+03  0.25500000000E-02 0. -1.
<mgrwt>
<rscale>  0 0.14903356E+03</rscale>
<asrwt>0</asrwt>
<pdfrwt beam="1">  1       11 0.10000000E+01 0.32366162E+02</pdfrwt>
<pdfrwt beam="2">  1        2 0.58028264E-01 0.14903356E+03</pdfrwt>
<totfact> 0.10617407E+02</totfact>
</mgrwt>
</event>
<event>
 5    1  0.2968854E-003  0.5851145E+02  0.7818608E-02  0.1425236E+00
         11   -1    0    0    0    0  0.00000000000E+00  0.00000000000E+00  0.10005754438E+04  0.10005754438E+04  0.51100000000E-03 0. -1.
          2   -1    0    0  501    0 -0.00000000000E+00 -0.00000000000E+00 -0.44500443741E+01  0.44500451047E+01  0.25500000000E-02 0. -1.
         11    1    1    2    0    0 -0.35006995129E+02 -0.14880741996E+02  0.14647038902E+03  0.15132911501E+03  0.51100000000E-03 0. -1.
         22    1    1    2    0    0 -0.18498640426E+02  0.81422590197E+01  0.95480779510E+02  0.97596492434E+02  0.00000000000E+00 0. -1.
          2    1    1    2  501    0  0.53505635555E+02  0.67384829765E+01  0.75417423085E+03  0.75609988141E+03  0.25500000000E-02 0. -1.
<mgrwt>
<rscale>  0 0.53928288E+02</rscale>
<asrwt>0</asrwt>
<pdfrwt beam="1">  1       11 0.10000000E+01 0.58511453E+02</pdfrwt>
<pdfrwt beam="2">  1        2 0.68501621E-03 0.53928288E+02</pdfrwt>
<totfact> 0.23292596E+04</totfact>
</mgrwt>
</event>
<event>
 5    1  0.2968854E-003  0.1230041E+03  0.7818608E-02  0.1243135E+00
         11   -1    0    0    0    0  0.00000000000E+00  0.00000000000E+00  0.10002542489E+04  0.10002542489E+04  0.51100000000E-03 0. -1.
         -2   -1    0    0    0  501 -0.00000000000E+00 -0.00000000000E+00 -0.14757327649E+02  0.14757327869E+02  0.25500000000E-02 0.  1.
         11    1    1    2    0    0 -0.22624895265E+02  0.32683508639E+02  0.16908446148E+03  0.17369413559E+03  0.51100000000E-03 0. -1.
         22    1    1    2    0    0 -0.73128377509E+02  0.39606254195E+02  0.32538500421E+03  0.33584492841E+03  0.00000000000E+00 0. -1.
         -2    1    1    2    0  501  0.95753272774E+02 -0.72289762834E+02  0.49102745560E+03  0.50547251282E+03  0.25500000000E-02 0.  1.
<mgrwt>
<rscale>  0 0.11997708E+03</rscale>
<asrwt>0</asrwt>
<pdfrwt beam="1">  1       11 0.10000000E+01 0.12300409E+03</pdfrwt>
<pdfrwt beam="2">  1       -2 0.22709353E-02 0.11997708E+03</pdfrwt>
<totfact> 0.46701556E+03</totfact>
</mgrwt>
</event>
<event>
 5    1  0.2968854E-003  0.1824235E+03  0.7818608E-02  0.1166458E+00
         11   -1    0    0    0    0  0.00000000000E+00  0.00000000000E+00  0.99988925516E+03  0.99988925516E+03  0.51100000000E-03 0. -1.
         -2   -1    0    0    0  501 -0.00000000000E+00 -0.00000000000E+00 -0.38908762692E+02  0.38908762775E+02  0.25500000000E-02 0. -1.
         11    1    1    2    0    0 -0.16730273164E+03 -0.27592288921E+02  0.64461324581E+03  0.66654165294E+03  0.51100000000E-03 0. -1.
         22    1    1    2    0    0 -0.10914060241E+02 -0.62266666225E+01  0.37801811591E+02  0.39835474740E+02  0.00000000000E+00 0.  1.
         -2    1    1    2    0  501  0.17821679188E+03  0.33818955543E+02  0.27856543506E+03  0.33242089025E+03  0.25500000000E-02 0. -1.
<mgrwt>
<rscale>  0 0.18139721E+03</rscale>
<asrwt>0</asrwt>
<pdfrwt beam="1">  1       11 0.10000000E+01 0.18242351E+03</pdfrwt>
<pdfrwt beam="2">  1       -2 0.59853004E-02 0.18139721E+03</pdfrwt>
<totfact> 0.11517853E+03</totfact>
</mgrwt>
</event>
<event>
 5    1  0.2968854E-003  0.2386550E+03  0.7818608E-02  0.1125168E+00
         11   -1    0    0    0    0  0.00000000000E+00  0.00000000000E+00  0.10002752935E+04  0.10002752935E+04  0.51100000000E-03 0. -1.
          2   -1    0    0  501    0 -0.00000000000E+00 -0.00000000000E+00 -0.13700140158E+03  0.13700140160E+03  0.25500000000E-02 0. -1.
         11    1    1    2    0    0 -0.17159135725E+02  0.43633416410E+02  0.18861018292E+03  0.19435048770E+03  0.51100000000E-03 0. -1.
         22    1    1    2    0    0 -0.15662862228E+03  0.11021757079E+03  0.68432586740E+03  0.71062108822E+03  0.00000000000E+00 0. -1.
          2    1    1    2  501    0  0.17378775801E+03 -0.15385098720E+03 -0.96621583814E+01  0.23230511920E+03  0.25500000000E-02 0. -1.
<mgrwt>
<rscale>  0 0.23210410E+03</rscale>
<asrwt>0</asrwt>
<pdfrwt beam="1">  1       11 0.10000000E+01 0.23865499E+03</pdfrwt>
<pdfrwt beam="2">  1        2 0.21082941E-01 0.23210410E+03</pdfrwt>
<totfact> 0.32146510E+02</totfact>
</mgrwt>
</event>
<event>
 5    1  0.2968854E-003  0.5366163E+02  0.7818608E-02  0.1451502E+00
         11   -1    0    0    0    0  0.00000000000E+00  0.00000000000E+00  0.99989789011E+03  0.99989789011E+03  0.51100000000E-03 0. -1.
          2   -1    0    0  501    0 -0.00000000000E+00 -0.00000000000E+00 -0.76722999734E+01  0.76723003972E+01  0.25500000000E-02 0. -1.
         11    1    1    2    0    0  0.34544923167E+02  0.10722367551E+02  0.53445962012E+02  0.64535197668E+02  0.51100000000E-03 0. -1.
         22    1    1    2    0    0  0.75601957923E+01  0.14096754283E+02  0.42291877433E+02  0.45215903602E+02  0.00000000000E+00 0.  1.
          2    1    1    2  501    0 -0.42105118959E+02 -0.24819121834E+02  0.89648775069E+03  0.89781908923E+03  0.25500000000E-02 0. -1.
<mgrwt>
<rscale>  0 0.48875657E+02</rscale>
<asrwt>0</asrwt>
<pdfrwt beam="1">  1       11 0.10000000E+01 0.53661628E+02</pdfrwt>
<pdfrwt beam="2">  1        2 0.11802333E-02 0.48875657E+02</pdfrwt>
<totfact> 0.10997170E+04</totfact>
</mgrwt>
</event>
<event>
 5    1  0.2968854E-003  0.9396493E+02  0.7818608E-02  0.1293524E+00
         11   -1    0    0    0    0  0.00000000000E+00  0.00000000000E+00  0.99985940318E+03  0.99985940319E+03  0.51100000000E-03 0. -1.
          2   -1    0    0  501    0 -0.00000000000E+00 -0.00000000000E+00 -0.10396265231E+02  0.10396265543E+02  0.25500000000E-02 0. -1.
         11    1    1    2    0    0 -0.10226731551E+02 -0.67004589209E+01  0.38902346979E+02  0.40778361771E+02  0.51100000000E-03 0. -1.
         22    1    1    2    0    0  0.97167915447E+02 -0.11661078108E+02  0.40038941399E+03  0.41217625765E+03  0.00000000000E+00 0. -1.
          2    1    1    2  501    0 -0.86941183895E+02  0.18361537029E+02  0.55017137699E+03  0.55730104931E+03  0.25500000000E-02 0. -1.
<mgrwt>
<rscale>  0 0.93964932E+02</rscale>
<asrwt>0</asrwt>
<pdfrwt beam="1">  1       11 0.10000000E+01 0.12226297E+02</pdfrwt>
<pdfrwt beam="2">  1        2 0.15992005E-02 0.93964932E+02</pdfrwt>
<totfact> 0.80864181E+03</totfact>
</mgrwt>
</event>
<event>
 5    1  0.2968854E-003  0.9595777E+02  0.7818608E-02  0.1292173E+00
         11   -1    0    0    0    0  0.00000000000E+00  0.00000000000E+00  0.10000408291E+04  0.10000408291E+04  0.51100000000E-03 0.  1.
          2   -1    0    0  501    0 -0.00000000000E+00 -0.00000000000E+00 -0.11450166190E+02  0.11450166474E+02  0.25500000000E-02 0.  1.
         11    1    1    2    0    0  0.81532511441E+02  0.67533168081E+01  0.21369994343E+03  0.22882487524E+03  0.51100000000E-03 0.  1.
         22    1    1    2    0    0  0.12929160784E+02 -0.24745111066E+01  0.53074302527E+02  0.54682428553E+02  0.00000000000E+00 0. -1.
          2    1    1    2  501    0 -0.94461672225E+02 -0.42788057016E+01  0.72181641698E+03  0.72798369180E+03  0.25500000000E-02 0.  1.
<mgrwt>
<rscale>  0 0.94558531E+02</rscale>
<asrwt>0</asrwt>
<pdfrwt beam="1">  1       11 0.10000000E+01 0.95957767E+02</pdfrwt>
<pdfrwt beam="2">  1        2 0.17616359E-02 0.94558531E+02</pdfrwt>
<totfact> 0.70978654E+03</totfact>
</mgrwt>
</event>
<event>
 5    1  0.2968854E-003  0.1049689E+04  0.7818608E-02  0.9322753E-01
         11   -1    0    0    0    0  0.00000000000E+00  0.00000000000E+00  0.99991407531E+03  0.99991407531E+03  0.51100000000E-03 0.  1.
          2   -1    0    0  501    0 -0.00000000000E+00 -0.00000000000E+00 -0.12940064504E+04  0.12940064504E+04  0.25500000000E-02 0.  1.
         11    1    1    2    0    0  0.13417210914E+02 -0.40723861164E+03 -0.41984417505E+03  0.58505763791E+03  0.51100000000E-03 0.  1.
         22    1    1    2    0    0 -0.27199398997E+03 -0.54544248156E+03 -0.24151788926E+03  0.65560591982E+03  0.00000000000E+00 0. -1.
          2    1    1    2  501    0  0.25857677905E+03  0.95268109320E+03  0.36726968921E+03  0.10532569680E+04  0.25500000000E-02 0.  1.
<mgrwt>
<rscale>  0 0.98714903E+03</rscale>
<asrwt>0</asrwt>
<pdfrwt beam="1">  1       11 0.10000000E+01 0.10496887E+04</pdfrwt>
<pdfrwt beam="2">  1        2 0.19906080E+00 0.98714903E+03</pdfrwt>
<totfact> 0.20485822E+01</totfact>
</mgrwt>
</event>
<event>
 5    1  0.2968854E-003  0.1177877E+03  0.7818608E-02  0.1251043E+00
         11   -1    0    0    0    0  0.00000000000E+00  0.00000000000E+00  0.10004280136E+04  0.10004280136E+04  0.51100000000E-03 0. -1.
          2   -1    0    0  501    0 -0.00000000000E+00 -0.00000000000E+00 -0.13583058521E+02  0.13583058760E+02  0.25500000000E-02 0. -1.
         11    1    1    2    0    0  0.84077303352E+02  0.39594126216E+02  0.36450126454E+03  0.37616201247E+03  0.51100000000E-03 0. -1.
         22    1    1    2    0    0  0.15464644433E+02  0.18608047908E+02  0.12407208806E+03  0.12640924693E+03  0.00000000000E+00 0. -1.
          2    1    1    2  501    0 -0.99541947786E+02 -0.58202174124E+02  0.49827160252E+03  0.51143981301E+03  0.25500000000E-02 0. -1.
<mgrwt>
<rscale>  0 0.11530868E+03</rscale>
<asrwt>0</asrwt>
<pdfrwt beam="1">  1       11 0.10000000E+01 0.11778773E+03</pdfrwt>
<pdfrwt beam="2">  1        2 0.20905957E-02 0.11530868E+03</pdfrwt>
<totfact> 0.57709617E+03</totfact>
</mgrwt>
</event>
<event>
 5    1  0.2968854E-003  0.2991469E+03  0.7818608E-02  0.1088036E+00
         11   -1    0    0    0    0  0.00000000000E+00  0.00000000000E+00  0.10003062741E+04  0.10003062741E+04  0.51100000000E-03 0. -1.
          2   -1    0    0  501    0 -0.00000000000E+00 -0.00000000000E+00 -0.14435314117E+03  0.14435314119E+03  0.25500000000E-02 0. -1.
         11    1    1    2    0    0  0.27271610757E+03  0.84731714869E+02  0.74259971054E+03  0.79561791641E+03  0.51100000000E-03 0. -1.
         22    1    1    2    0    0  0.11261300779E+02 -0.68081056584E+01  0.44799940937E+02  0.46692632244E+02  0.00000000000E+00 0.  1.
          2    1    1    2  501    0 -0.28397740834E+03 -0.77923609211E+02  0.68553481445E+02  0.30234886662E+03  0.25500000000E-02 0. -1.
<mgrwt>
<rscale>  0 0.29447454E+03</rscale>
<asrwt>0</asrwt>
<pdfrwt beam="1">  1       11 0.10000000E+01 0.29914687E+03</pdfrwt>
<pdfrwt beam="2">  1        2 0.22214977E-01 0.29447454E+03</pdfrwt>
<totfact> 0.30459252E+02</totfact>
</mgrwt>
</event>
<event>
 5    1  0.2968854E-003  0.1203618E+03  0.7818608E-02  0.1256687E+00
         11   -1    0    0    0    0  0.00000000000E+00  0.00000000000E+00  0.10000385948E+04  0.10000385948E+04  0.51100000000E-03 0. -1.
          2   -1    0    0  501    0 -0.00000000000E+00 -0.00000000000E+00 -0.14978479420E+02  0.14978479637E+02  0.25500000000E-02 0.  1.
         11    1    1    2    0    0 -0.63916449284E+02 -0.62215950803E+02  0.52991520170E+03  0.53736975912E+03  0.51100000000E-03 0. -1.
         22    1    1    2    0    0  0.62631087761E+00 -0.30337390516E+02  0.13707387007E+03  0.14039229105E+03  0.00000000000E+00 0. -1.
          2    1    1    2  501    0  0.63290138407E+02  0.92553341319E+02  0.31807104364E+03  0.33725502431E+03  0.25500000000E-02 0.  1.
<mgrwt>
<rscale>  0 0.11212387E+03</rscale>
<asrwt>0</asrwt>
<pdfrwt beam="1">  1       11 0.10000000E+01 0.12036185E+03</pdfrwt>
<pdfrwt beam="2">  1        2 0.23044703E-02 0.11212387E+03</pdfrwt>
<totfact> 0.50414185E+03</totfact>
</mgrwt>
</event>
<event>
 5    1  0.2968854E-003  0.6013731E+02  0.7818608E-02  0.1441801E+00
         11   -1    0    0    0    0  0.00000000000E+00  0.00000000000E+00  0.10001614327E+04  0.10001614327E+04  0.51100000000E-03 0. -1.
          2   -1    0    0  501    0 -0.00000000000E+00 -0.00000000000E+00 -0.10496874780E+02  0.10496875089E+02  0.25500000000E-02 0. -1.
         11    1    1    2    0    0 -0.49613629317E+02 -0.72826068334E+01  0.88876923031E+02  0.10204732247E+03  0.51100000000E-03 0. -1.
         22    1    1    2    0    0 -0.47543426472E+01  0.42414871948E+02  0.18303404232E+03  0.18794436885E+03  0.00000000000E+00 0. -1.
          2    1    1    2  501    0  0.54367971965E+02 -0.35132265114E+02  0.71775359254E+03  0.72066661644E+03  0.25500000000E-02 0. -1.
<mgrwt>
<rscale>  0 0.50662504E+02</rscale>
<asrwt>0</asrwt>
<pdfrwt beam="1">  1       11 0.10000000E+01 0.60137313E+02</pdfrwt>
<pdfrwt beam="2">  1        2 0.16151645E-02 0.50662504E+02</pdfrwt>
<totfact> 0.72798155E+03</totfact>
</mgrwt>
</event>
<event>
 5    1  0.2968854E-003  0.8604598E+02  0.7818608E-02  0.1316238E+00
         11   -1    0    0    0    0  0.00000000000E+00  0.00000000000E+00  0.10001400220E+04  0.10001400220E+04  0.51100000000E-03 0. -1.
         -2   -1    0    0    0  501 -0.00000000000E+00 -0.00000000000E+00 -0.72920924576E+01  0.72920929035E+01  0.25500000000E-02 0.  1.
         11    1    1    2    0    0  0.75779790679E+02  0.10228935514E+01  0.44135974134E+03  0.44781920935E+03  0.51100000000E-03 0. -1.
         22    1    1    2    0    0  0.88333710055E+01 -0.46897227024E+01  0.45546411371E+02  0.46631507923E+02  0.00000000000E+00 0.  1.
         -2    1    1    2    0  501 -0.84613161685E+02  0.36668291510E+01  0.50594177684E+03  0.51298139764E+03  0.25500000000E-02 0.  1.
<mgrwt>
<rscale>  0 0.84692578E+02</rscale>
<asrwt>0</asrwt>
<pdfrwt beam="1">  1       11 0.10000000E+01 0.86045978E+02</pdfrwt>
<pdfrwt beam="2">  1       -2 0.11220175E-02 0.84692578E+02</pdfrwt>
<totfact> 0.12217180E+04</totfact>
</mgrwt>
</event>
<event>
 5    1  0.2968854E-003  0.4140691E+02  0.7818608E-02  0.1517858E+00
         11   -1    0    0    0    0  0.00000000000E+00  0.00000000000E+00  0.10004506076E+04  0.10004506076E+04  0.51100000000E-03 0.  1.
          2   -1    0    0  501    0 -0.00000000000E+00 -0.00000000000E+00 -0.82220502864E+01  0.82220506819E+01  0.25500000000E-02 0.  1.
         11    1    1    2    0    0 -0.23292942776E+02  0.46179431114E+02  0.30333798191E+03  0.30771583045E+03  0.51100000000E-03 0.  1.
         22    1    1    2    0    0  0.35617584525E+02 -0.64955626235E+01  0.55878677074E+02  0.66582514317E+02  0.00000000000E+00 0.  1.
          2    1    1    2  501    0 -0.12324641749E+02 -0.39683868490E+02  0.63301189835E+03  0.63437431353E+03  0.25500000000E-02 0.  1.
<mgrwt>
<rscale>  0 0.38718704E+02</rscale>
<asrwt>0</asrwt>
<pdfrwt beam="1">  1       11 0.10000000E+01 0.41406914E+02</pdfrwt>
<pdfrwt beam="2">  1        2 0.12655008E-02 0.38718704E+02</pdfrwt>
<totfact> 0.96095013E+03</totfact>
</mgrwt>
</event>
<event>
 5    1  0.2968854E-003  0.1166487E+03  0.7818608E-02  0.1316120E+00
         11   -1    0    0    0    0  0.00000000000E+00  0.00000000000E+00  0.10002745156E+04  0.10002745156E+04  0.51100000000E-03 0.  1.
          2   -1    0    0  501    0 -0.00000000000E+00 -0.00000000000E+00 -0.61162509639E+02  0.61162509692E+02  0.25500000000E-02 0. -1.
         11    1    1    2    0    0  0.22159697679E+01  0.13602530996E+03  0.62752760095E+03  0.64210488663E+03  0.51100000000E-03 0.  1.
         22    1    1    2    0    0 -0.68370170176E+02 -0.83071500977E+02  0.31666429996E+03  0.33444227202E+03  0.00000000000E+00 0. -1.
          2    1    1    2  501    0  0.66154200408E+02 -0.52953808978E+02 -0.50798949697E+01  0.84889866629E+02  0.25500000000E-02 0. -1.
<mgrwt>
<rscale>  0 0.84737737E+02</rscale>
<asrwt>0</asrwt>
<pdfrwt beam="1">  1       11 0.10000000E+01 0.11664872E+03</pdfrwt>
<pdfrwt beam="2">  1        2 0.94121997E-02 0.84737737E+02</pdfrwt>
<totfact> 0.79568794E+02</totfact>
</mgrwt>
</event>
<event>
 5    1  0.2968854E-003  0.9208552E+02  0.7818608E-02  0.1304192E+00
         11   -1    0    0    0    0  0.00000000000E+00  0.00000000000E+00  0.99999534106E+03  0.99999534106E+03  0.51100000000E-03 0. -1.
          2   -1    0    0  501    0 -0.00000000000E+00 -0.00000000000E+00 -0.20961996213E+02  0.20961996368E+02  0.25500000000E-02 0. -1.
         11    1    1    2    0    0  0.37214595752E+01 -0.12993756436E+02  0.47383067791E+01  0.14322657543E+02  0.51100000000E-03 0. -1.
         22    1    1    2    0    0  0.29046732351E+02 -0.70237018037E+02  0.89884588847E+02  0.11771232168E+03  0.00000000000E+00 0. -1.
          2    1    1    2  501    0 -0.32768191926E+02  0.83230774473E+02  0.88441044923E+03  0.88892235821E+03  0.25500000000E-02 0. -1.
<mgrwt>
<rscale>  0 0.89448959E+02</rscale>
<asrwt>0</asrwt>
<pdfrwt beam="1">  1       11 0.10000000E+01 0.92085522E+02</pdfrwt>
<pdfrwt beam="2">  1        2 0.32249074E-02 0.89448959E+02</pdfrwt>
<totfact> 0.31350949E+03</totfact>
</mgrwt>
</event>
<event>
 5    1  0.2968854E-003  0.4776471E+03  0.7818608E-02  0.1022636E+00
         11   -1    0    0    0    0  0.00000000000E+00  0.00000000000E+00  0.10001536863E+04  0.10001536863E+04  0.51100000000E-03 0.  1.
          2   -1    0    0  501    0 -0.00000000000E+00 -0.00000000000E+00 -0.35371288904E+03  0.35371288905E+03  0.25500000000E-02 0.  1.
         11    1    1    2    0    0  0.20116334568E+03 -0.36121182677E+03  0.59537644338E+03  0.72485431969E+03  0.51100000000E-03 0.  1.
         22    1    1    2    0    0  0.48060413691E+02 -0.34284735265E+02  0.14109668766E+03  0.15294940897E+03  0.00000000000E+00 0.  1.
          2    1    1    2  501    0 -0.24922375937E+03  0.39549656203E+03 -0.90032333824E+02  0.47606284664E+03  0.25500000000E-02 0.  1.
<mgrwt>
<rscale>  0 0.46747194E+03</rscale>
<asrwt>0</asrwt>
<pdfrwt beam="1">  1       11 0.10000000E+01 0.47764706E+03</pdfrwt>
<pdfrwt beam="2">  1        2 0.54425729E-01 0.46747194E+03</pdfrwt>
<totfact> 0.11320906E+02</totfact>
</mgrwt>
</event>
<event>
 5    1  0.2968854E-003  0.6911436E+02  0.7818608E-02  0.1363131E+00
         11   -1    0    0    0    0  0.00000000000E+00  0.00000000000E+00  0.10001629446E+04  0.10001629446E+04  0.51100000000E-03 0. -1.
          2   -1    0    0  501    0 -0.00000000000E+00 -0.00000000000E+00 -0.71505188300E+01  0.71505192847E+01  0.25500000000E-02 0. -1.
         11    1    1    2    0    0 -0.10333726248E+02 -0.69671599860E+01  0.33111681373E+02  0.35379523174E+02  0.51100000000E-03 0. -1.
         22    1    1    2    0    0  0.69815130594E+02  0.19793603909E+02  0.27769652083E+03  0.28702142236E+03  0.00000000000E+00 0. -1.
          2    1    1    2  501    0 -0.59481404346E+02 -0.12826443923E+02  0.68220422352E+03  0.68491251830E+03  0.25500000000E-02 0. -1.
<mgrwt>
<rscale>  0 0.69114362E+02</rscale>
<asrwt>0</asrwt>
<pdfrwt beam="1">  1       11 0.10000000E+01 0.12463040E+02</pdfrwt>
<pdfrwt beam="2">  1        2 0.11002591E-02 0.69114362E+02</pdfrwt>
<totfact> 0.12823437E+04</totfact>
</mgrwt>
</event>
<event>
 5    1  0.2968854E-003  0.2357045E+03  0.7818608E-02  0.1133293E+00
         11   -1    0    0    0    0  0.00000000000E+00  0.00000000000E+00  0.10002602867E+04  0.10002602867E+04  0.51100000000E-03 0.  1.
         -2   -1    0    0    0  501 -0.00000000000E+00 -0.00000000000E+00 -0.52349880307E+02  0.52349880370E+02  0.25500000000E-02 0.  1.
         11    1    1    2    0    0  0.72061008783E+02 -0.11803700820E+03  0.22434494544E+03  0.26354540185E+03  0.51100000000E-03 0.  1.
         22    1    1    2    0    0  0.35549685129E+02 -0.74757168965E+02  0.30250250005E+03  0.31362426080E+03  0.00000000000E+00 0. -1.
         -2    1    1    2    0  501 -0.10761069391E+03  0.19279417716E+03  0.42106296087E+03  0.47544050439E+03  0.25500000000E-02 0.  1.
<mgrwt>
<rscale>  0 0.22079324E+03</rscale>
<asrwt>0</asrwt>
<pdfrwt beam="1">  1       11 0.10000000E+01 0.23570445E+03</pdfrwt>
<pdfrwt beam="2">  1       -2 0.80559238E-02 0.22079324E+03</pdfrwt>
<totfact> 0.73767957E+02</totfact>
</mgrwt>
</event>
<event>
 5    1  0.2968854E-003  0.8456753E+02  0.7818608E-02  0.1319098E+00
         11   -1    0    0    0    0  0.00000000000E+00  0.00000000000E+00  0.10002585481E+04  0.10002585481E+04  0.51100000000E-03 0. -1.
          2   -1    0    0  501    0 -0.00000000000E+00 -0.00000000000E+00 -0.77490724858E+01  0.77490729053E+01  0.25500000000E-02 0. -1.
         11    1    1    2    0    0  0.69938807018E+02  0.38747402977E+01  0.27014498700E+03  0.27907841969E+03  0.51100000000E-03 0. -1.
         22    1    1    2    0    0  0.13548328615E+02  0.72398458814E+00  0.79414653776E+02  0.80565306406E+02  0.00000000000E+00 0. -1.
          2    1    1    2  501    0 -0.83487135633E+02 -0.45987248858E+01  0.64294983482E+03  0.64836389489E+03  0.25500000000E-02 0. -1.
<mgrwt>
<rscale>  0 0.83613696E+02</rscale>
<asrwt>0</asrwt>
<pdfrwt beam="1">  1       11 0.10000000E+01 0.84567531E+02</pdfrwt>
<pdfrwt beam="2">  1        2 0.11924732E-02 0.83613696E+02</pdfrwt>
<totfact> 0.11849768E+04</totfact>
</mgrwt>
</event>
<event>
 5    1  0.2968854E-003  0.2788256E+03  0.7818608E-02  0.1102554E+00
         11   -1    0    0    0    0  0.00000000000E+00  0.00000000000E+00  0.99993941605E+03  0.99993941605E+03  0.51100000000E-03 0.  1.
          2   -1    0    0  501    0 -0.00000000000E+00 -0.00000000000E+00 -0.83974240349E+02  0.83974240387E+02  0.25500000000E-02 0.  1.
         11    1    1    2    0    0  0.74279982493E+02 -0.38064916690E+02  0.12068090350E+03  0.14673218513E+03  0.51100000000E-03 0.  1.
         22    1    1    2    0    0  0.15266872589E+03 -0.10407352613E+03  0.52560043758E+03  0.55713091701E+03  0.00000000000E+00 0.  1.
          2    1    1    2  501    0 -0.22694870838E+03  0.14213844282E+03  0.26968383462E+03  0.38005055430E+03  0.25500000000E-02 0.  1.
<mgrwt>
<rscale>  0 0.26778546E+03</rscale>
<asrwt>0</asrwt>
<pdfrwt beam="1">  1       11 0.10000000E+01 0.27882556E+03</pdfrwt>
<pdfrwt beam="2">  1        2 0.12918331E-01 0.26778546E+03</pdfrwt>
<totfact> 0.57476925E+02</totfact>
</mgrwt>
</event>
<event>
 5    1  0.2968854E-003  0.2326171E+03  0.7818608E-02  0.1139223E+00
         11   -1    0    0    0    0  0.00000000000E+00  0.00000000000E+00  0.10005684022E+04  0.10005684022E+04  0.51100000000E-03 0. -1.
          2   -1    0    0  501    0 -0.00000000000E+00 -0.00000000000E+00 -0.17184840925E+03  0.17184840927E+03  0.25500000000E-02 0. -1.
         11    1    1    2    0    0 -0.59626779373E+01  0.11968324330E+03  0.69216185763E+03  0.70245830440E+03  0.51100000000E-03 0. -1.
         22    1    1    2    0    0  0.31062394248E+01  0.93283386530E+02  0.22173045254E+03  0.24057396474E+03  0.00000000000E+00 0.  1.
          2    1    1    2  501    0  0.28564385125E+01 -0.21296662983E+03 -0.85172317178E+02  0.22938454238E+03  0.25500000000E-02 0. -1.
<mgrwt>
<rscale>  0 0.21298579E+03</rscale>
<asrwt>0</asrwt>
<pdfrwt beam="1">  1       11 0.10000000E+01 0.23261708E+03</pdfrwt>
<pdfrwt beam="2">  1        2 0.26453244E-01 0.21298579E+03</pdfrwt>
<totfact> 0.24851107E+02</totfact>
</mgrwt>
</event>
<event>
 5    1  0.2968854E-003  0.3932021E+02  0.7818608E-02  0.1574497E+00
         11   -1    0    0    0    0  0.00000000000E+00  0.00000000000E+00  0.10000761371E+04  0.10000761371E+04  0.51100000000E-03 0.  1.
          2   -1    0    0  501    0 -0.00000000000E+00 -0.00000000000E+00 -0.64861600036E+01  0.64861605048E+01  0.25500000000E-02 0.  1.
         11    1    1    2    0    0 -0.13520953633E+02 -0.57027613597E+02  0.19379963667E+03  0.20246793345E+03  0.51100000000E-03 0.  1.
         22    1    1    2    0    0  0.17501188040E+02  0.19828000776E+02  0.10437805209E+03  0.10767645497E+03  0.00000000000E+00 0. -1.
          2    1    1    2  501    0 -0.39802344066E+01  0.37199612821E+02  0.69541228835E+03  0.69641790920E+03  0.25500000000E-02 0.  1.
<mgrwt>
<rscale>  0 0.32247469E+02</rscale>
<asrwt>0</asrwt>
<pdfrwt beam="1">  1       11 0.10000000E+01 0.39320214E+02</pdfrwt>
<pdfrwt beam="2">  1        2 0.99794676E-03 0.32247469E+02</pdfrwt>
<totfact> 0.12696785E+04</totfact>
</mgrwt>
</event>
<event>
 5    1  0.2968854E-003  0.2988097E+03  0.7818608E-02  0.1088040E+00
         11   -1    0    0    0    0  0.00000000000E+00  0.00000000000E+00  0.10003419059E+04  0.10003419059E+04  0.51100000000E-03 0.  1.
         -2   -1    0    0    0  501 -0.00000000000E+00 -0.00000000000E+00 -0.20925050983E+03  0.20925050984E+03  0.25500000000E-02 0. -1.
         11    1    1    2    0    0  0.35821406051E+02  0.23980500309E+03  0.71377201442E+03  0.75383028674E+03  0.51100000000E-03 0.  1.
         22    1    1    2    0    0  0.30068430094E+02  0.47194393245E+02  0.14343572215E+03  0.15396502080E+03  0.00000000000E+00 0. -1.
         -2    1    1    2    0  501 -0.65889836145E+02 -0.28699939633E+03 -0.66116340539E+02  0.30179710816E+03  0.25500000000E-02 0. -1.
<mgrwt>
<rscale>  0 0.29446583E+03</rscale>
<asrwt>0</asrwt>
<pdfrwt beam="1">  1       11 0.10000000E+01 0.29880967E+03</pdfrwt>
<pdfrwt beam="2">  1       -2 0.32203392E-01 0.29446583E+03</pdfrwt>
<totfact> 0.72444979E+01</totfact>
</mgrwt>
</event>
<event>
 5    1  0.2968854E-003  0.3213091E+03  0.7818608E-02  0.1082367E+00
         11   -1    0    0    0    0  0.00000000000E+00  0.00000000000E+00  0.10005501901E+04  0.10005501901E+04  0.51100000000E-03 0.  1.
         -2   -1    0    0    0  501 -0.00000000000E+00 -0.00000000000E+00 -0.27243279553E+03  0.27243279554E+03  0.25500000000E-02 0. -1.
         11    1    1    2    0    0 -0.15518430488E+02  0.49105653739E+02  0.19902662185E+03  0.20558157291E+03  0.51100000000E-03 0.  1.
         22    1    1    2    0    0  0.11624259384E+03  0.23965145978E+03  0.67713079599E+03  0.72763402730E+03  0.00000000000E+00 0.  1.
         -2    1    1    2    0  501 -0.10072416335E+03 -0.28875711352E+03 -0.14804002329E+03  0.33976738542E+03  0.25500000000E-02 0. -1.
<mgrwt>
<rscale>  0 0.30582025E+03</rscale>
<asrwt>0</asrwt>
<pdfrwt beam="1">  1       11 0.10000000E+01 0.32130910E+03</pdfrwt>
<pdfrwt beam="2">  1       -2 0.41935797E-01 0.30582025E+03</pdfrwt>
<totfact> 0.43963914E+01</totfact>
</mgrwt>
</event>
<event>
 5    1  0.2968854E-003  0.1203499E+03  0.7818608E-02  0.1242521E+00
         11   -1    0    0    0    0  0.00000000000E+00  0.00000000000E+00  0.10002588092E+04  0.10002588092E+04  0.51100000000E-03 0. -1.
          2   -1    0    0  501    0 -0.00000000000E+00 -0.00000000000E+00 -0.31668578794E+02  0.31668578896E+02  0.25500000000E-02 0. -1.
         11    1    1    2    0    0  0.82387092941E+02  0.29006209618E+02  0.37044028387E+03  0.38059820965E+03  0.51100000000E-03 0. -1.
         22    1    1    2    0    0 -0.61332390818E+02 -0.13041436034E+03  0.25519979026E+03  0.29308104765E+03  0.00000000000E+00 0. -1.
          2    1    1    2  501    0 -0.21054702123E+02  0.10140815072E+03  0.34295015630E+03  0.35824813080E+03  0.25500000000E-02 0. -1.
<mgrwt>
<rscale>  0 0.12034988E+03</rscale>
<asrwt>0</asrwt>
<pdfrwt beam="1">  1       11 0.10000000E+01 0.87344108E+02</pdfrwt>
<pdfrwt beam="2">  1        2 0.48733499E-02 0.12034988E+03</pdfrwt>
<totfact> 0.18758678E+03</totfact>
</mgrwt>
</event>
<event>
 5    1  0.2968854E-003  0.2625358E+03  0.7818608E-02  0.1110436E+00
         11   -1    0    0    0    0  0.00000000000E+00  0.00000000000E+00  0.10001311873E+04  0.10001311873E+04  0.51100000000E-03 0.  1.
          2   -1    0    0  501    0 -0.00000000000E+00 -0.00000000000E+00 -0.60063165292E+03  0.60063165292E+03  0.25500000000E-02 0.  1.
         11    1    1    2    0    0  0.14912969928E+03 -0.69509659088E+01  0.44962799288E+03  0.47376504210E+03  0.51100000000E-03 0.  1.
         22    1    1    2    0    0  0.10235619962E+03 -0.32707870467E+02  0.50498231084E+03  0.51628841809E+03  0.00000000000E+00 0. -1.
          2    1    1    2  501    0 -0.25148589890E+03  0.39658836375E+02 -0.55511076932E+03  0.61070938005E+03  0.25500000000E-02 0.  1.
<mgrwt>
<rscale>  0 0.25459376E+03</rscale>
<asrwt>0</asrwt>
<pdfrwt beam="1">  1       11 0.10000000E+01 0.26253575E+03</pdfrwt>
<pdfrwt beam="2">  1        2 0.92416989E-01 0.25459376E+03</pdfrwt>
<totfact> 0.62930510E+01</totfact>
</mgrwt>
</event>
<event>
 5    1  0.2968854E-003  0.1524936E+03  0.7818608E-02  0.1261365E+00
         11   -1    0    0    0    0  0.00000000000E+00  0.00000000000E+00  0.10001629927E+04  0.10001629927E+04  0.51100000000E-03 0. -1.
          2   -1    0    0  501    0 -0.00000000000E+00 -0.00000000000E+00 -0.51122354774E+02  0.51122354838E+02  0.25500000000E-02 0. -1.
         11    1    1    2    0    0 -0.13549371782E+03  0.75857369873E+02  0.36450619245E+03  0.39620405408E+03  0.51100000000E-03 0. -1.
         22    1    1    2    0    0  0.61374213296E+02 -0.15655597873E+03  0.45692250136E+03  0.48688267661E+03  0.00000000000E+00 0. -1.
          2    1    1    2  501    0  0.74119504527E+02  0.80698608857E+02  0.12761194412E+03  0.16819861685E+03  0.25500000000E-02 0. -1.
<mgrwt>
<rscale>  0 0.10957174E+03</rscale>
<asrwt>0</asrwt>
<pdfrwt beam="1">  1       11 0.10000000E+01 0.15249358E+03</pdfrwt>
<pdfrwt beam="2">  1        2 0.78662594E-02 0.10957174E+03</pdfrwt>
<totfact> 0.10103127E+03</totfact>
</mgrwt>
</event>
<event>
 5    1  0.2968854E-003  0.1512336E+03  0.7818608E-02  0.1198965E+00
         11   -1    0    0    0    0  0.00000000000E+00  0.00000000000E+00  0.10000587124E+04  0.10000587124E+04  0.51100000000E-03 0. -1.
         -2   -1    0    0    0  501 -0.00000000000E+00 -0.00000000000E+00 -0.73541602446E+03  0.73541602447E+03  0.25500000000E-02 0.  1.
         11    1    1    2    0    0  0.45059136631E+02 -0.66197927621E+02  0.12729621501E+03  0.15038888845E+03  0.51100000000E-03 0. -1.
         22    1    1    2    0    0  0.39106890350E+01  0.20881174273E+03  0.84044226612E+03  0.86600279449E+03  0.00000000000E+00 0. -1.
         -2    1    1    2    0  501 -0.48969825666E+02 -0.14261381511E+03 -0.70309579317E+03  0.71908305394E+03  0.25500000000E-02 0.  1.
<mgrwt>
<rscale>  0 0.15123360E+03</rscale>
<asrwt>0</asrwt>
<pdfrwt beam="1">  1       11 0.10000000E+01 0.80078033E+02</pdfrwt>
<pdfrwt beam="2">  1       -2 0.11314757E+00 0.15123360E+03</pdfrwt>
<totfact> 0.53108327E+00</totfact>
</mgrwt>
</event>
<event>
 5    1  0.2968854E-003  0.1497193E+03  0.7818608E-02  0.1204849E+00
         11   -1    0    0    0    0  0.00000000000E+00  0.00000000000E+00  0.10001649351E+04  0.10001649351E+04  0.51100000000E-03 0.  1.
          2   -1    0    0  501    0 -0.00000000000E+00 -0.00000000000E+00 -0.25345794567E+02  0.25345794695E+02  0.25500000000E-02 0.  1.
         11    1    1    2    0    0  0.42759638977E+02 -0.10599817925E+03  0.20433520835E+03  0.23413004528E+03  0.51100000000E-03 0.  1.
         22    1    1    2    0    0  0.13695961866E+02 -0.29179729833E+02  0.99492220671E+02  0.10458364107E+03  0.00000000000E+00 0. -1.
          2    1    1    2  501    0 -0.56455600843E+02  0.13517790908E+03  0.67099171154E+03  0.68679704348E+03  0.25500000000E-02 0.  1.
<mgrwt>
<rscale>  0 0.14649335E+03</rscale>
<asrwt>0</asrwt>
<pdfrwt beam="1">  1       11 0.10000000E+01 0.14971925E+03</pdfrwt>
<pdfrwt beam="2">  1        2 0.38999960E-02 0.14649335E+03</pdfrwt>
<totfact> 0.25590896E+03</totfact>
</mgrwt>
</event>
<event>
 5    1  0.2968854E-003  0.1200686E+03  0.7818608E-02  0.1387092E+00
         11   -1    0    0    0    0  0.00000000000E+00  0.00000000000E+00  0.10003289440E+04  0.10003289440E+04  0.51100000000E-03 0.  1.
          2   -1    0    0  501    0 -0.00000000000E+00 -0.00000000000E+00 -0.13608686242E+03  0.13608686244E+03  0.25500000000E-02 0. -1.
         11    1    1    2    0    0  0.78789230068E+02 -0.29803548082E+02  0.18523022345E+03  0.20348520815E+03  0.51100000000E-03 0.  1.
         22    1    1    2    0    0 -0.13978135342E+03  0.44058307106E+02  0.79108246467E+03  0.80454423564E+03  0.00000000000E+00 0.  1.
          2    1    1    2  501    0  0.60992123353E+02 -0.14254759024E+02 -0.11207060653E+03  0.12838636267E+03  0.25500000000E-02 0. -1.
<mgrwt>
<rscale>  0 0.62635751E+02</rscale>
<asrwt>0</asrwt>
<pdfrwt beam="1">  1       11 0.10000000E+01 0.12006857E+03</pdfrwt>
<pdfrwt beam="2">  1        2 0.20943327E-01 0.62635751E+02</pdfrwt>
<totfact> 0.31029472E+02</totfact>
</mgrwt>
</event>
<event>
 5    1  0.2968854E-003  0.4386936E+03  0.7818608E-02  0.1031148E+00
         11   -1    0    0    0    0  0.00000000000E+00  0.00000000000E+00  0.10000776688E+04  0.10000776688E+04  0.51100000000E-03 0. -1.
          2   -1    0    0  501    0 -0.00000000000E+00 -0.00000000000E+00 -0.13035635601E+04  0.13035635601E+04  0.25500000000E-02 0. -1.
         11    1    1    2    0    0 -0.12830619668E+03 -0.63342179105E+03  0.25503300665E+03  0.69478592384E+03  0.51100000000E-03 0. -1.
         22    1    1    2    0    0 -0.77295932913E+02  0.26439326112E+03  0.44313060191E+03  0.52176928629E+03  0.00000000000E+00 0. -1.
          2    1    1    2  501    0  0.20560212959E+03  0.36902852993E+03 -0.10016494999E+04  0.10870860188E+04  0.25500000000E-02 0. -1.
<mgrwt>
<rscale>  0 0.43869363E+03</rscale>
<asrwt>0</asrwt>
<pdfrwt beam="1">  1       11 0.10000000E+01 0.27546045E+03</pdfrwt>
<pdfrwt beam="2">  1        2 0.20056381E+00 0.43869363E+03</pdfrwt>
<totfact> 0.21230827E+01</totfact>
</mgrwt>
</event>
<event>
 5    1  0.2968854E-003  0.1678902E+03  0.7818608E-02  0.1183557E+00
         11   -1    0    0    0    0  0.00000000000E+00  0.00000000000E+00  0.10000226070E+04  0.10000226070E+04  0.51100000000E-03 0. -1.
          2   -1    0    0  501    0 -0.00000000000E+00 -0.00000000000E+00 -0.45132673978E+02  0.45132674050E+02  0.25500000000E-02 0. -1.
         11    1    1    2    0    0 -0.28930546893E+02 -0.20987556712E+02  0.12228283662E+03  0.12739916096E+03  0.51100000000E-03 0. -1.
         22    1    1    2    0    0 -0.84520844586E+02 -0.98321833785E+02  0.68331846018E+03  0.69551065714E+03  0.00000000000E+00 0. -1.
          2    1    1    2  501    0  0.11345139148E+03  0.11930939050E+03  0.14928863619E+03  0.22224546293E+03  0.25500000000E-02 0. -1.
<mgrwt>
<rscale>  0 0.16463884E+03</rscale>
<asrwt>0</asrwt>
<pdfrwt beam="1">  1       11 0.10000000E+01 0.16789020E+03</pdfrwt>
<pdfrwt beam="2">  1        2 0.69436451E-02 0.16463884E+03</pdfrwt>
<totfact> 0.12159722E+03</totfact>
</mgrwt>
</event>
<event>
 5    1  0.2968854E-003  0.3469702E+03  0.7818608E-02  0.1063865E+00
         11   -1    0    0    0    0  0.00000000000E+00  0.00000000000E+00  0.10002412393E+04  0.10002412393E+04  0.51100000000E-03 0. -1.
          2   -1    0    0  501    0 -0.00000000000E+00 -0.00000000000E+00 -0.20132906897E+03  0.20132906899E+03  0.25500000000E-02 0. -1.
         11    1    1    2    0    0  0.11527724134E+03 -0.30132146151E+03  0.19837895689E+03  0.37873166764E+03  0.51100000000E-03 0. -1.
         22    1    1    2    0    0 -0.94479205436E+02 -0.87506336581E+02  0.31403136493E+03  0.33941033773E+03  0.00000000000E+00 0.  1.
          2    1    1    2  501    0 -0.20798035899E+02  0.38882779809E+03  0.28650184854E+03  0.48342830294E+03  0.25500000000E-02 0. -1.
<mgrwt>
<rscale>  0 0.34697022E+03</rscale>
<asrwt>0</asrwt>
<pdfrwt beam="1">  1       11 0.10000000E+01 0.12877763E+03</pdfrwt>
<pdfrwt beam="2">  1        2 0.30981174E-01 0.34697022E+03</pdfrwt>
<totfact> 0.21017610E+02</totfact>
</mgrwt>
</event>
<event>
 5    1  0.2968854E-003  0.5554085E+03  0.7818608E-02  0.1000250E+00
         11   -1    0    0    0    0  0.00000000000E+00  0.00000000000E+00  0.10000917883E+04  0.10000917883E+04  0.51100000000E-03 0. -1.
          2   -1    0    0  501    0 -0.00000000000E+00 -0.00000000000E+00 -0.70621174254E+03  0.70621174254E+03  0.25500000000E-02 0. -1.
         11    1    1    2    0    0  0.26977895161E+02  0.46250622171E+03 -0.11008184468E+03  0.47619095379E+03  0.51100000000E-03 0. -1.
         22    1    1    2    0    0 -0.51265064480E+02  0.29757215770E+03  0.35788595289E+03  0.46825169637E+03  0.00000000000E+00 0.  1.
          2    1    1    2  501    0  0.24287169319E+02 -0.76007837940E+03  0.46075937513E+02  0.76186088064E+03  0.25500000000E-02 0. -1.
<mgrwt>
<rscale>  0 0.55540854E+03</rscale>
<asrwt>0</asrwt>
<pdfrwt beam="1">  1       11 0.10000000E+01 0.30195578E+03</pdfrwt>
<pdfrwt beam="2">  1        2 0.10865793E+00 0.55540854E+03</pdfrwt>
<totfact> 0.50680801E+01</totfact>
</mgrwt>
</event>
<event>
 5    1  0.2968854E-003  0.1388609E+03  0.7818608E-02  0.1214870E+00
         11   -1    0    0    0    0  0.00000000000E+00  0.00000000000E+00  0.10000664829E+04  0.10000664829E+04  0.51100000000E-03 0.  1.
          2   -1    0    0  501    0 -0.00000000000E+00 -0.00000000000E+00 -0.29467747988E+02  0.29467748098E+02  0.25500000000E-02 0.  1.
         11    1    1    2    0    0  0.10135004869E+02  0.39514169246E+02  0.16383726144E+03  0.16883937968E+03  0.51100000000E-03 0.  1.
         22    1    1    2    0    0  0.12408792814E+03  0.19408843725E+02  0.55796487996E+03  0.57192597807E+03  0.00000000000E+00 0.  1.
          2    1    1    2  501    0 -0.13422293301E+03 -0.58923012971E+02  0.24879659348E+03  0.28876887322E+03  0.25500000000E-02 0.  1.
<mgrwt>
<rscale>  0 0.13886087E+03</rscale>
<asrwt>0</asrwt>
<pdfrwt beam="1">  1       11 0.10000000E+01 0.40793233E+02</pdfrwt>
<pdfrwt beam="2">  1        2 0.45338010E-02 0.13886087E+03</pdfrwt>
<totfact> 0.20873126E+03</totfact>
</mgrwt>
</event>
<event>
 5    1  0.2968854E-003  0.1756097E+03  0.7818608E-02  0.1172121E+00
         11   -1    0    0    0    0  0.00000000000E+00  0.00000000000E+00  0.10001128363E+04  0.10001128363E+04  0.51100000000E-03 0. -1.
          2   -1    0    0  501    0 -0.00000000000E+00 -0.00000000000E+00 -0.60117394481E+03  0.60117394482E+03  0.25500000000E-02 0. -1.
         11    1    1    2    0    0 -0.62596487277E+02  0.17420387245E+03  0.94652466040E+03  0.96445541221E+03  0.51100000000E-03 0. -1.
         22    1    1    2    0    0 -0.23343853362E+02 -0.21170312750E+02  0.23546540100E+02  0.39339003322E+02  0.00000000000E+00 0. -1.
          2    1    1    2  501    0  0.85940340639E+02 -0.15303355970E+03 -0.57113230900E+03  0.59749236559E+03  0.25500000000E-02 0. -1.
<mgrwt>
<rscale>  0 0.17560970E+03</rscale>
<asrwt>0</asrwt>
<pdfrwt beam="1">  1       11 0.10000000E+01 0.31513769E+02</pdfrwt>
<pdfrwt beam="2">  1        2 0.92498733E-01 0.17560970E+03</pdfrwt>
<totfact> 0.63409474E+01</totfact>
</mgrwt>
</event>
<event>
 5    1  0.2968854E-003  0.2896909E+03  0.7818608E-02  0.1093270E+00
         11   -1    0    0    0    0  0.00000000000E+00  0.00000000000E+00  0.10003446562E+04  0.10003446562E+04  0.51100000000E-03 0. -1.
         -2   -1    0    0    0  501 -0.00000000000E+00 -0.00000000000E+00 -0.28605133383E+03  0.28605133384E+03  0.25500000000E-02 0.  1.
         11    1    1    2    0    0  0.94986560740E+01 -0.22271002043E+03  0.64884244699E+03  0.68606595797E+03  0.51100000000E-03 0. -1.
         22    1    1    2    0    0 -0.20406883811E+02 -0.61555677938E+02  0.25195609289E+03  0.26016805172E+03  0.00000000000E+00 0.  1.
         -2    1    1    2    0  501  0.10908227737E+02  0.28426569837E+03 -0.18650521752E+03  0.34016198034E+03  0.25500000000E-02 0.  1.
<mgrwt>
<rscale>  0 0.28447491E+03</rscale>
<asrwt>0</asrwt>
<pdfrwt beam="1">  1       11 0.10000000E+01 0.28969086E+03</pdfrwt>
<pdfrwt beam="2">  1       -2 0.44023064E-01 0.28447491E+03</pdfrwt>
<totfact> 0.40001134E+01</totfact>
</mgrwt>
</event>
<event>
 5    1  0.2968854E-003  0.6878407E+02  0.7818608E-02  0.1597744E+00
         11   -1    0    0    0    0  0.00000000000E+00  0.00000000000E+00  0.10000668259E+04  0.10000668259E+04  0.51100000000E-03 0.  1.
          2   -1    0    0  501    0 -0.00000000000E+00 -0.00000000000E+00 -0.12549848285E+02  0.12549848544E+02  0.25500000000E-02 0.  1.
         11    1    1    2    0    0 -0.10171658723E+02 -0.59276989739E+02  0.12113365179E+03  0.13524269204E+03  0.51100000000E-03 0.  1.
         22    1    1    2    0    0 -0.10072347931E+02 -0.83943077139E+01  0.65726674367E+01  0.14666852153E+02  0.00000000000E+00 0.  1.
          2    1    1    2  501    0  0.20244006654E+02  0.67671297452E+02  0.85981065834E+03  0.86270713020E+03  0.25500000000E-02 0.  1.
<mgrwt>
<rscale>  0 0.30031241E+02</rscale>
<asrwt>0</asrwt>
<pdfrwt beam="1">  1       11 0.10000000E+01 0.68784069E+02</pdfrwt>
<pdfrwt beam="2">  1        2 0.19308749E-02 0.30031241E+02</pdfrwt>
<totfact> 0.52760100E+03</totfact>
</mgrwt>
</event>
<event>
 5    1  0.2968854E-003  0.1453604E+03  0.7818608E-02  0.1206293E+00
         11   -1    0    0    0    0  0.00000000000E+00  0.00000000000E+00  0.10001498420E+04  0.10001498420E+04  0.51100000000E-03 0. -1.
          2   -1    0    0  501    0 -0.00000000000E+00 -0.00000000000E+00 -0.59170515546E+02  0.59170515601E+02  0.25500000000E-02 0. -1.
         11    1    1    2    0    0  0.89637752561E+02  0.26700124776E+02  0.54436326996E+03  0.55233974421E+03  0.51100000000E-03 0. -1.
         22    1    1    2    0    0 -0.18679001174E+03  0.48069701624E+02  0.25358000573E+03  0.31859696170E+03  0.00000000000E+00 0. -1.
          2    1    1    2  501    0  0.97152259181E+02 -0.74769826399E+02  0.14303605080E+03  0.18838365173E+03  0.25500000000E-02 0. -1.
<mgrwt>
<rscale>  0 0.14536042E+03</rscale>
<asrwt>0</asrwt>
<pdfrwt beam="1">  1       11 0.10000000E+01 0.93529799E+02</pdfrwt>
<pdfrwt beam="2">  1        2 0.91045200E-02 0.14536042E+03</pdfrwt>
<totfact> 0.85742144E+02</totfact>
</mgrwt>
</event>
<event>
 5    1  0.2968854E-003  0.1297212E+03  0.7818608E-02  0.1542252E+00
         11   -1    0    0    0    0  0.00000000000E+00  0.00000000000E+00  0.10002733543E+04  0.10002733543E+04  0.51100000000E-03 0. -1.
          2   -1    0    0  501    0 -0.00000000000E+00 -0.00000000000E+00 -0.10557032068E+03  0.10557032071E+03  0.25500000000E-02 0.  1.
         11    1    1    2    0    0  0.50181845308E+02  0.14358413490E+03  0.30947663389E+03  0.34483388510E+03  0.51100000000E-03 0. -1.
         22    1    1    2    0    0 -0.57609573151E+02 -0.10863952741E+03  0.66358970343E+03  0.67488717897E+03  0.00000000000E+00 0. -1.
          2    1    1    2  501    0  0.74277278424E+01 -0.34944607491E+02 -0.78363303724E+02  0.86122610914E+02  0.25500000000E-02 0.  1.
<mgrwt>
<rscale>  0 0.35725296E+02</rscale>
<asrwt>0</asrwt>
<pdfrwt beam="1">  1       11 0.10000000E+01 0.12972123E+03</pdfrwt>
<pdfrwt beam="2">  1        2 0.16246027E-01 0.35725296E+02</pdfrwt>
<totfact> 0.39909565E+02</totfact>
</mgrwt>
</event>
<event>
 5    1  0.2968854E-003  0.2529591E+03  0.7818608E-02  0.1114498E+00
         11   -1    0    0    0    0  0.00000000000E+00  0.00000000000E+00  0.10001104152E+04  0.10001104152E+04  0.51100000000E-03 0. -1.
          2   -1    0    0  501    0 -0.00000000000E+00 -0.00000000000E+00 -0.18828484589E+04  0.18828484589E+04  0.25500000000E-02 0. -1.
         11    1    1    2    0    0 -0.15601989778E+03 -0.52088370195E+02  0.69018795458E+03  0.70951731442E+03  0.51100000000E-03 0. -1.
         22    1    1    2    0    0 -0.86877596648E+02  0.14455393458E+01  0.28554926254E+03  0.29847644417E+03  0.00000000000E+00 0. -1.
          2    1    1    2  501    0  0.24289749443E+03  0.50642830849E+02 -0.18584752608E+04  0.18749651155E+04  0.25500000000E-02 0. -1.
<mgrwt>
<rscale>  0 0.24812071E+03</rscale>
<asrwt>0</asrwt>
<pdfrwt beam="1">  1       11 0.10000000E+01 0.25295909E+03</pdfrwt>
<pdfrwt beam="2">  1        2 0.28970097E+00 0.24812071E+03</pdfrwt>
<totfact> 0.10820035E+01</totfact>
</mgrwt>
</event>
<event>
 5    1  0.2968854E-003  0.9804497E+02  0.7818608E-02  0.1403262E+00
         11   -1    0    0    0    0  0.00000000000E+00  0.00000000000E+00  0.10002021303E+04  0.10002021303E+04  0.51100000000E-03 0.  1.
          2   -1    0    0  501    0 -0.00000000000E+00 -0.00000000000E+00 -0.24150366950E+03  0.24150366951E+03  0.25500000000E-02 0.  1.
         11    1    1    2    0    0 -0.19223215694E+02  0.87971368300E+02  0.32296505391E+03  0.33528334243E+03  0.51100000000E-03 0.  1.
         22    1    1    2    0    0  0.77248297206E+02 -0.78932880335E+02  0.66277252983E+03  0.67191154575E+03  0.00000000000E+00 0.  1.
          2    1    1    2  501    0 -0.58025081512E+02 -0.90384879643E+01 -0.22703912291E+03  0.23451091166E+03  0.25500000000E-02 0.  1.
<mgrwt>
<rscale>  0 0.58724819E+02</rscale>
<asrwt>0</asrwt>
<pdfrwt beam="1">  1       11 0.10000000E+01 0.98044969E+02</pdfrwt>
<pdfrwt beam="2">  1        2 0.37161920E-01 0.58724819E+02</pdfrwt>
<totfact> 0.16829630E+02</totfact>
</mgrwt>
</event>
<event>
 5    1  0.2968854E-003  0.3063241E+02  0.7818608E-02  0.1622440E+00
         11   -1    0    0    0    0  0.00000000000E+00  0.00000000000E+00  0.10004750774E+04  0.10004750774E+04  0.51100000000E-03 0. -1.
          2   -1    0    0  501    0 -0.00000000000E+00 -0.00000000000E+00 -0.18011259457E+01  0.18011277509E+01  0.25500000000E-02 0. -1.
         11    1    1    2    0    0  0.11256280050E+02 -0.42060687707E+01  0.45498327600E+02  0.47058396378E+02  0.51100000000E-03 0. -1.
         22    1    1    2    0    0  0.75650306047E+01 -0.16399541341E+02  0.10211873453E+03  0.10370347432E+03  0.00000000000E+00 0. -1.
          2    1    1    2  501    0 -0.18821310655E+02  0.20605610112E+02  0.85105688931E+03  0.85151433444E+03  0.25500000000E-02 0. -1.
<mgrwt>
<rscale>  0 0.27907578E+02</rscale>
<asrwt>0</asrwt>
<pdfrwt beam="1">  1       11 0.10000000E+01 0.30632411E+02</pdfrwt>
<pdfrwt beam="2">  1        2 0.27722807E-03 0.27907578E+02</pdfrwt>
<totfact> 0.66938531E+04</totfact>
</mgrwt>
</event>
<event>
 5    1  0.2968854E-003  0.1793753E+03  0.7818608E-02  0.1171629E+00
         11   -1    0    0    0    0  0.00000000000E+00  0.00000000000E+00  0.10000846467E+04  0.10000846467E+04  0.51100000000E-03 0.  1.
          2   -1    0    0  501    0 -0.00000000000E+00 -0.00000000000E+00 -0.37317716141E+02  0.37317716228E+02  0.25500000000E-02 0.  1.
         11    1    1    2    0    0 -0.80100911799E+02  0.14632107904E+03  0.64082228755E+03  0.66217763361E+03  0.51100000000E-03 0.  1.
         22    1    1    2    0    0 -0.11976953186E+02  0.37916327677E+01  0.47544673987E+02  0.49176416209E+02  0.00000000000E+00 0.  1.
          2    1    1    2  501    0  0.92077864985E+02 -0.15011271181E+03  0.27439996899E+03  0.32604831307E+03  0.25500000000E-02 0.  1.
<mgrwt>
<rscale>  0 0.17610270E+03</rscale>
<asrwt>0</asrwt>
<pdfrwt beam="1">  1       11 0.10000000E+01 0.17937533E+03</pdfrwt>
<pdfrwt beam="2">  1        2 0.57416729E-02 0.17610270E+03</pdfrwt>
<totfact> 0.15612208E+03</totfact>
</mgrwt>
</event>
<event>
 5    1  0.2968854E-003  0.2370938E+03  0.7818608E-02  0.1123801E+00
         11   -1    0    0    0    0  0.00000000000E+00  0.00000000000E+00  0.10005947427E+04  0.10005947427E+04  0.51100000000E-03 0. -1.
          2   -1    0    0  501    0 -0.00000000000E+00 -0.00000000000E+00 -0.79458994273E+03  0.79458994273E+03  0.25500000000E-02 0. -1.
         11    1    1    2    0    0 -0.18404083285E+03  0.62285587408E+02  0.83079565573E+03  0.85321271916E+03  0.51100000000E-03 0. -1.
         22    1    1    2    0    0 -0.32864972101E+02  0.25720889952E+02  0.13794793286E+03  0.14412252687E+03  0.00000000000E+00 0. -1.
          2    1    1    2  501    0  0.21690580496E+03 -0.88006477360E+02 -0.76273878862E+03  0.79784943940E+03  0.25500000000E-02 0. -1.
<mgrwt>
<rscale>  0 0.23407962E+03</rscale>
<asrwt>0</asrwt>
<pdfrwt beam="1">  1       11 0.10000000E+01 0.23709376E+03</pdfrwt>
<pdfrwt beam="2">  1        2 0.12231731E+00 0.23407962E+03</pdfrwt>
<totfact> 0.44908927E+01</totfact>
</mgrwt>
</event>
<event>
 5    1  0.2968854E-003  0.6007904E+03  0.7818608E-02  0.9903768E-01
         11   -1    0    0    0    0  0.00000000000E+00  0.00000000000E+00  0.10007565948E+04  0.10007565948E+04  0.51100000000E-03 0.  1.
          2   -1    0    0  501    0 -0.00000000000E+00 -0.00000000000E+00 -0.24724574694E+04  0.24724574694E+04  0.25500000000E-02 0.  1.
         11    1    1    2    0    0  0.33766601778E+03 -0.12756619065E+03  0.44786870264E+03  0.57521982525E+03  0.51100000000E-03 0.  1.
         22    1    1    2    0    0  0.54773339753E+02 -0.36189711672E+03  0.37213398082E+03  0.52197063281E+03  0.00000000000E+00 0.  1.
          2    1    1    2  501    0 -0.39243935754E+03  0.48946330737E+03 -0.22917035581E+04  0.23760236061E+04  0.25500000000E-02 0.  1.
<mgrwt>
<rscale>  0 0.60079036E+03</rscale>
<asrwt>0</asrwt>
<pdfrwt beam="1">  1       11 0.10000000E+01 0.36095910E+03</pdfrwt>
<pdfrwt beam="2">  1        2 0.38066585E+00 0.60079036E+03</pdfrwt>
<totfact> 0.47397848E+00</totfact>
</mgrwt>
</event>
<event>
 5    1  0.2968854E-003  0.2075061E+03  0.7818608E-02  0.1143556E+00
         11   -1    0    0    0    0  0.00000000000E+00  0.00000000000E+00  0.10002206237E+04  0.10002206237E+04  0.51100000000E-03 0.  1.
          2   -1    0    0  501    0 -0.00000000000E+00 -0.00000000000E+00 -0.24615539074E+03  0.24615539075E+03  0.25500000000E-02 0.  1.
         11    1    1    2    0    0 -0.63555009542E+02 -0.69309318658E+02  0.18041463124E+03  0.20345137025E+03  0.51100000000E-03 0.  1.
         22    1    1    2    0    0 -0.12675935975E+03 -0.26055850675E+02  0.75332675312E+03  0.76436119708E+03  0.00000000000E+00 0.  1.
          2    1    1    2  501    0  0.19031436929E+03  0.95365169333E+02 -0.17967615140E+03  0.27856344712E+03  0.25500000000E-02 0.  1.
<mgrwt>
<rscale>  0 0.20750607E+03</rscale>
<asrwt>0</asrwt>
<pdfrwt beam="1">  1       11 0.10000000E+01 0.94037338E+02</pdfrwt>
<pdfrwt beam="2">  1        2 0.37878414E-01 0.20750607E+03</pdfrwt>
<totfact> 0.16776405E+02</totfact>
</mgrwt>
</event>
<event>
 5    1  0.2968854E-003  0.1956272E+03  0.7818608E-02  0.1153482E+00
         11   -1    0    0    0    0  0.00000000000E+00  0.00000000000E+00  0.10002818429E+04  0.10002818429E+04  0.51100000000E-03 0. -1.
          2   -1    0    0  501    0 -0.00000000000E+00 -0.00000000000E+00 -0.16406356815E+03  0.16406356817E+03  0.25500000000E-02 0. -1.
         11    1    1    2    0    0  0.14187397630E+03  0.49227859807E+02 -0.35885183808E+02  0.15439997976E+03  0.51100000000E-03 0. -1.
         22    1    1    2    0    0 -0.30860778280E+03 -0.46845356796E+02  0.71789563594E+03  0.78282015506E+03  0.00000000000E+00 0. -1.
          2    1    1    2  501    0  0.16673380649E+03 -0.23825030110E+01  0.15420782259E+03  0.22712527623E+03  0.25500000000E-02 0. -1.
<mgrwt>
<rscale>  0 0.19562715E+03</rscale>
<asrwt>0</asrwt>
<pdfrwt beam="1">  1       11 0.10000000E+01 0.15017200E+03</pdfrwt>
<pdfrwt beam="2">  1        2 0.25247662E-01 0.19562715E+03</pdfrwt>
<totfact> 0.26128820E+02</totfact>
</mgrwt>
</event>
<event>
 5    1  0.2968854E-003  0.2246699E+03  0.7818608E-02  0.1144445E+00
         11   -1    0    0    0    0  0.00000000000E+00  0.00000000000E+00  0.10001450815E+04  0.10001450815E+04  0.51100000000E-03 0. -1.
          2   -1    0    0  501    0 -0.00000000000E+00 -0.00000000000E+00 -0.16217112741E+03  0.16217112743E+03  0.25500000000E-02 0. -1.
         11    1    1    2    0    0  0.14429440764E+03 -0.34951130680E+02  0.68111572913E+03  0.69710909769E+03  0.51100000000E-03 0. -1.
         22    1    1    2    0    0  0.37452957874E+02 -0.62878350876E+02  0.23375463229E+03  0.24494415523E+03  0.00000000000E+00 0. -1.
          2    1    1    2  501    0 -0.18174736551E+03  0.97829481556E+02 -0.76896407324E+02  0.22026295603E+03  0.25500000000E-02 0. -1.
<mgrwt>
<rscale>  0 0.20640424E+03</rscale>
<asrwt>0</asrwt>
<pdfrwt beam="1">  1       11 0.10000000E+01 0.22466988E+03</pdfrwt>
<pdfrwt beam="2">  1        2 0.24953023E-01 0.20640424E+03</pdfrwt>
<totfact> 0.26503669E+02</totfact>
</mgrwt>
</event>
<event>
 5    1  0.2968854E-003  0.1470058E+03  0.7818608E-02  0.1207063E+00
         11   -1    0    0    0    0  0.00000000000E+00  0.00000000000E+00  0.10002884399E+04  0.10002884399E+04  0.51100000000E-03 0. -1.
          2   -1    0    0  501    0 -0.00000000000E+00 -0.00000000000E+00 -0.21370828352E+02  0.21370828504E+02  0.25500000000E-02 0. -1.
         11    1    1    2    0    0  0.83845198075E+02 -0.98069524834E+02  0.38658499572E+03  0.40754828899E+03  0.51100000000E-03 0. -1.
         22    1    1    2    0    0  0.15574586956E+02 -0.71508483841E+01  0.72555979567E+02  0.74552481933E+02  0.00000000000E+00 0. -1.
          2    1    1    2  501    0 -0.99419785031E+02  0.10522037322E+03  0.51977663626E+03  0.53955849748E+03  0.25500000000E-02 0. -1.
<mgrwt>
<rscale>  0 0.14476056E+03</rscale>
<asrwt>0</asrwt>
<pdfrwt beam="1">  1       11 0.10000000E+01 0.14700584E+03</pdfrwt>
<pdfrwt beam="2">  1        2 0.32887680E-02 0.14476056E+03</pdfrwt>
<totfact> 0.32095100E+03</totfact>
</mgrwt>
</event>
<event>
 5    1  0.2968854E-003  0.1626653E+03  0.7818608E-02  0.1188616E+00
         11   -1    0    0    0    0  0.00000000000E+00  0.00000000000E+00  0.10002276373E+04  0.10002276373E+04  0.51100000000E-03 0. -1.
         -2   -1    0    0    0  501 -0.00000000000E+00 -0.00000000000E+00 -0.79690886629E+02  0.79690886670E+02  0.25500000000E-02 0.  1.
         11    1    1    2    0    0  0.66360981218E+02 -0.11160368932E+03  0.72575757128E+03  0.73728096108E+03  0.51100000000E-03 0. -1.
         22    1    1    2    0    0  0.29574209473E+01 -0.32680605653E+02  0.17878186263E+03  0.18176832158E+03  0.00000000000E+00 0.  1.
         -2    1    1    2    0  501 -0.69318402165E+02  0.14428429497E+03  0.15997316774E+02  0.16086924132E+03  0.25500000000E-02 0.  1.
<mgrwt>
<rscale>  0 0.16007185E+03</rscale>
<asrwt>0</asrwt>
<pdfrwt beam="1">  1       11 0.10000000E+01 0.16266529E+03</pdfrwt>
<pdfrwt beam="2">  1       -2 0.12262927E-01 0.16007185E+03</pdfrwt>
<totfact> 0.37257932E+02</totfact>
</mgrwt>
</event>
<event>
 5    1  0.2968854E-003  0.4461870E+02  0.7818608E-02  0.1483865E+00
         11   -1    0    0    0    0  0.00000000000E+00  0.00000000000E+00  0.10000793018E+04  0.10000793018E+04  0.51100000000E-03 0. -1.
          2   -1    0    0  501    0 -0.00000000000E+00 -0.00000000000E+00 -0.38932125716E+01  0.38932134068E+01  0.25500000000E-02 0. -1.
         11    1    1    2    0    0  0.11557330641E+02 -0.28909230513E+02  0.87965090081E+02  0.93312231640E+02  0.51100000000E-03 0. -1.
         22    1    1    2    0    0  0.29881626756E+01 -0.12097181743E+02  0.57844639641E+02  0.59171557842E+02  0.00000000000E+00 0. -1.
          2    1    1    2  501    0 -0.14545493317E+02  0.41006412256E+02  0.85037635946E+03  0.85148872568E+03  0.25500000000E-02 0. -1.
<mgrwt>
<rscale>  0 0.43509737E+02</rscale>
<asrwt>0</asrwt>
<pdfrwt beam="1">  1       11 0.10000000E+01 0.44618704E+02</pdfrwt>
<pdfrwt beam="2">  1        2 0.59900333E-03 0.43509737E+02</pdfrwt>
<totfact> 0.26704301E+04</totfact>
</mgrwt>
</event>
<event>
 5    1  0.2968854E-003  0.1045964E+03  0.7818608E-02  0.1270917E+00
         11   -1    0    0    0    0  0.00000000000E+00  0.00000000000E+00  0.10003118159E+04  0.10003118159E+04  0.51100000000E-03 0.  1.
         -2   -1    0    0    0  501 -0.00000000000E+00 -0.00000000000E+00 -0.25640779768E+02  0.25640779895E+02  0.25500000000E-02 0. -1.
         11    1    1    2    0    0  0.15115745423E+02  0.52702208321E+02  0.31840029864E+03  0.32308630224E+03  0.51100000000E-03 0.  1.
         22    1    1    2    0    0 -0.80272270035E+02  0.38665665146E+02  0.51399146969E+03  0.52165688140E+03  0.00000000000E+00 0.  1.
         -2    1    1    2    0  501  0.65156524613E+02 -0.91367873466E+02  0.14227926781E+03  0.18120941217E+03  0.25500000000E-02 0. -1.
<mgrwt>
<rscale>  0 0.10459639E+03</rscale>
<asrwt>0</asrwt>
<pdfrwt beam="1">  1       11 0.10000000E+01 0.54827078E+02</pdfrwt>
<pdfrwt beam="2">  1       -2 0.39459653E-02 0.10459639E+03</pdfrwt>
<totfact> 0.20497519E+03</totfact>
</mgrwt>
</event>
<event>
 5    1  0.2968854E-003  0.1100557E+03  0.7818608E-02  0.1264301E+00
         11   -1    0    0    0    0  0.00000000000E+00  0.00000000000E+00  0.10001241543E+04  0.10001241543E+04  0.51100000000E-03 0. -1.
          2   -1    0    0  501    0 -0.00000000000E+00 -0.00000000000E+00 -0.12179981819E+02  0.12179982086E+02  0.25500000000E-02 0. -1.
         11    1    1    2    0    0  0.72657895033E+02  0.58937333173E+01  0.37683052277E+03  0.38381655604E+03  0.51100000000E-03 0. -1.
         22    1    1    2    0    0  0.35185418864E+02 -0.11884086805E+02  0.20021204047E+03  0.20362737136E+03  0.00000000000E+00 0. -1.
          2    1    1    2  501    0 -0.10784331390E+03  0.59903534877E+01  0.41090160924E+03  0.42486020898E+03  0.25500000000E-02 0. -1.
<mgrwt>
<rscale>  0 0.10800956E+03</rscale>
<asrwt>0</asrwt>
<pdfrwt beam="1">  1       11 0.10000000E+01 0.11005566E+03</pdfrwt>
<pdfrwt beam="2">  1        2 0.18740760E-02 0.10800956E+03</pdfrwt>
<totfact> 0.66404458E+03</totfact>
</mgrwt>
</event>
<event>
 5    1  0.2968854E-003  0.1940577E+03  0.7818608E-02  0.1158035E+00
         11   -1    0    0    0    0  0.00000000000E+00  0.00000000000E+00  0.10002972620E+04  0.10002972620E+04  0.51100000000E-03 0. -1.
         -2   -1    0    0    0  501 -0.00000000000E+00 -0.00000000000E+00 -0.51543967004E+02  0.51543967067E+02  0.25500000000E-02 0.  1.
         11    1    1    2    0    0  0.16153404407E+03  0.13319915166E+02  0.58828769928E+03  0.61020741118E+03  0.51100000000E-03 0. -1.
         22    1    1    2    0    0  0.27406017410E+02  0.10802667779E+02  0.16904635357E+03  0.17159387249E+03  0.00000000000E+00 0. -1.
         -2    1    1    2    0  501 -0.18894006148E+03 -0.24122582945E+02  0.19141924215E+03  0.27003994540E+03  0.25500000000E-02 0.  1.
<mgrwt>
<rscale>  0 0.19047374E+03</rscale>
<asrwt>0</asrwt>
<pdfrwt beam="1">  1       11 0.10000000E+01 0.19405767E+03</pdfrwt>
<pdfrwt beam="2">  1       -2 0.79321981E-02 0.19047374E+03</pdfrwt>
<totfact> 0.74882874E+02</totfact>
</mgrwt>
</event>
<event>
 5    1  0.2968854E-003  0.1604385E+03  0.7818608E-02  0.1204851E+00
         11   -1    0    0    0    0  0.00000000000E+00  0.00000000000E+00  0.10001616298E+04  0.10001616298E+04  0.51100000000E-03 0. -1.
         -2   -1    0    0    0  501 -0.00000000000E+00 -0.00000000000E+00 -0.50115400293E+02  0.50115400358E+02  0.25500000000E-02 0.  1.
         11    1    1    2    0    0  0.29039166327E+02 -0.23931088984E+02  0.16000906976E+03  0.16437418474E+03  0.51100000000E-03 0. -1.
         22    1    1    2    0    0  0.11725091627E+03  0.31614429331E+02  0.70732401514E+03  0.71767298396E+03  0.00000000000E+00 0. -1.
         -2    1    1    2    0  501 -0.14629008260E+03 -0.76833403468E+01  0.82713144570E+02  0.16822986143E+03  0.25500000000E-02 0.  1.
<mgrwt>
<rscale>  0 0.14649171E+03</rscale>
<asrwt>0</asrwt>
<pdfrwt beam="1">  1       11 0.10000000E+01 0.16043855E+03</pdfrwt>
<pdfrwt beam="2">  1       -2 0.77113075E-02 0.14649171E+03</pdfrwt>
<totfact> 0.76877352E+02</totfact>
</mgrwt>
</event>
<event>
 5    1  0.2968854E-003  0.1645141E+03  0.7818608E-02  0.1193822E+00
         11   -1    0    0    0    0  0.00000000000E+00  0.00000000000E+00  0.99971319093E+03  0.99971319093E+03  0.51100000000E-03 0. -1.
         -2   -1    0    0    0  501 -0.00000000000E+00 -0.00000000000E+00 -0.33874680829E+02  0.33874680925E+02  0.25500000000E-02 0. -1.
         11    1    1    2    0    0  0.12072300729E+03 -0.41229494949E+02  0.68723354550E+03  0.69897343426E+03  0.51100000000E-03 0. -1.
         22    1    1    2    0    0  0.27112521696E+02 -0.71266734231E+01  0.61011442983E+02  0.67143685345E+02  0.00000000000E+00 0. -1.
         -2    1    1    2    0  501 -0.14783552899E+03  0.48356168372E+02  0.21759352161E+03  0.26747075225E+03  0.25500000000E-02 0. -1.
<mgrwt>
<rscale>  0 0.15554312E+03</rscale>
<asrwt>0</asrwt>
<pdfrwt beam="1">  1       11 0.10000000E+01 0.16451407E+03</pdfrwt>
<pdfrwt beam="2">  1       -2 0.52099945E-02 0.15554312E+03</pdfrwt>
<totfact> 0.14047097E+03</totfact>
</mgrwt>
</event>
<event>
 5    1  0.2968854E-003  0.2333649E+03  0.7818608E-02  0.1124294E+00
         11   -1    0    0    0    0  0.00000000000E+00  0.00000000000E+00  0.10001390377E+04  0.10001390377E+04  0.51100000000E-03 0. -1.
          2   -1    0    0  501    0 -0.00000000000E+00 -0.00000000000E+00 -0.13999276820E+03  0.13999276823E+03  0.25500000000E-02 0. -1.
         11    1    1    2    0    0  0.10985273302E+02  0.62695132538E+01  0.36596572014E+02  0.38720693555E+02  0.51100000000E-03 0. -1.
         22    1    1    2    0    0  0.12614191132E+03 -0.19528570919E+03  0.83583973128E+03  0.86756921706E+03  0.00000000000E+00 0. -1.
          2    1    1    2  501    0 -0.13712718462E+03  0.18901619593E+03 -0.12290033754E+02  0.23384189535E+03  0.25500000000E-02 0. -1.
<mgrwt>
<rscale>  0 0.23336487E+03</rscale>
<asrwt>0</asrwt>
<pdfrwt beam="1">  1       11 0.10000000E+01 0.12648440E+02</pdfrwt>
<pdfrwt beam="2">  1        2 0.21540343E-01 0.23336487E+03</pdfrwt>
<totfact> 0.31374327E+02</totfact>
</mgrwt>
</event>
<event>
 5    1  0.2968854E-003  0.2767816E+03  0.7818608E-02  0.1101117E+00
         11   -1    0    0    0    0  0.00000000000E+00  0.00000000000E+00  0.10001125141E+04  0.10001125141E+04  0.51100000000E-03 0.  1.
          2   -1    0    0  501    0 -0.00000000000E+00 -0.00000000000E+00 -0.80344770315E+03  0.80344770315E+03  0.25500000000E-02 0.  1.
         11    1    1    2    0    0 -0.13382218470E+03 -0.14329835432E+03  0.59544448502E+03  0.62689467234E+03  0.51100000000E-03 0.  1.
         22    1    1    2    0    0 -0.61514080253E+02 -0.43509369345E+02  0.36176157900E+03  0.36952467757E+03  0.00000000000E+00 0.  1.
          2    1    1    2  501    0  0.19533626495E+03  0.18680772366E+03 -0.76054125310E+03  0.80714086732E+03  0.25500000000E-02 0.  1.
<mgrwt>
<rscale>  0 0.27028389E+03</rscale>
<asrwt>0</asrwt>
<pdfrwt beam="1">  1       11 0.10000000E+01 0.27678163E+03</pdfrwt>
<pdfrwt beam="2">  1        2 0.12362124E+00 0.27028389E+03</pdfrwt>
<totfact> 0.44076115E+01</totfact>
</mgrwt>
</event>
<event>
 5    1  0.2968854E-003  0.1663134E+03  0.7818608E-02  0.1188220E+00
         11   -1    0    0    0    0  0.00000000000E+00  0.00000000000E+00  0.10000102547E+04  0.10000102547E+04  0.51100000000E-03 0.  1.
         -2   -1    0    0    0  501 -0.00000000000E+00 -0.00000000000E+00 -0.53455567723E+03  0.53455567723E+03  0.25500000000E-02 0. -1.
         11    1    1    2    0    0 -0.45680071101E+02 -0.12724361141E+03  0.81673949308E+03  0.82785325094E+03  0.51100000000E-03 0.  1.
         22    1    1    2    0    0 -0.26409224270E+02 -0.16069484501E+02  0.16407477852E+03  0.16696169742E+03  0.00000000000E+00 0.  1.
         -2    1    1    2    0  501  0.72089295371E+02  0.14331309591E+03 -0.51535969411E+03  0.53975098359E+03  0.25500000000E-02 0. -1.
<mgrwt>
<rscale>  0 0.16042291E+03</rscale>
<asrwt>0</asrwt>
<pdfrwt beam="1">  1       11 0.10000000E+01 0.16631340E+03</pdfrwt>
<pdfrwt beam="2">  1       -2 0.82240176E-01 0.16042291E+03</pdfrwt>
<totfact> 0.11005233E+01</totfact>
</mgrwt>
</event>
<event>
 5    1  0.2968854E-003  0.6453863E+03  0.7818608E-02  0.9930706E-01
         11   -1    0    0    0    0  0.00000000000E+00  0.00000000000E+00  0.10013517796E+04  0.10013517796E+04  0.51100000000E-03 0.  1.
          2   -1    0    0  501    0 -0.00000000000E+00 -0.00000000000E+00 -0.13517212428E+04  0.13517212428E+04  0.25500000000E-02 0.  1.
         11    1    1    2    0    0 -0.12753610250E+03  0.21347695738E+03  0.17346886607E+03  0.30319847670E+03  0.51100000000E-03 0.  1.
         22    1    1    2    0    0 -0.31798161065E+03  0.17020267431E+03  0.64641327141E+03  0.74022386648E+03  0.00000000000E+00 0. -1.
          2    1    1    2  501    0  0.44551771316E+03 -0.38367963169E+03 -0.11702516007E+04  0.13096506792E+04  0.25500000000E-02 0.  1.
<mgrwt>
<rscale>  0 0.58795926E+03</rscale>
<asrwt>0</asrwt>
<pdfrwt beam="1">  1       11 0.10000000E+01 0.64538629E+03</pdfrwt>
<pdfrwt beam="2">  1        2 0.20823822E+00 0.58795926E+03</pdfrwt>
<totfact> 0.19535178E+01</totfact>
</mgrwt>
</event>
<event>
 5    1  0.2968854E-003  0.6745685E+02  0.7818608E-02  0.1376144E+00
         11   -1    0    0    0    0  0.00000000000E+00  0.00000000000E+00  0.10003054888E+04  0.10003054888E+04  0.51100000000E-03 0. -1.
          2   -1    0    0  501    0 -0.00000000000E+00 -0.00000000000E+00 -0.65536973544E+01  0.65536978505E+01  0.25500000000E-02 0. -1.
         11    1    1    2    0    0  0.35626231625E+01 -0.25999315888E+02  0.65176520450E+02  0.70261195041E+02  0.51100000000E-03 0. -1.
         22    1    1    2    0    0  0.17474455250E+02 -0.36018115298E+02  0.14924352711E+03  0.15451955087E+03  0.00000000000E+00 0.  1.
          2    1    1    2  501    0 -0.21037078413E+02  0.62017431186E+02  0.77933174387E+03  0.78207844072E+03  0.25500000000E-02 0. -1.
<mgrwt>
<rscale>  0 0.65488323E+02</rscale>
<asrwt>0</asrwt>
<pdfrwt beam="1">  1       11 0.10000000E+01 0.67456852E+02</pdfrwt>
<pdfrwt beam="2">  1        2 0.10085692E-02 0.65488323E+02</pdfrwt>
<totfact> 0.14298414E+04</totfact>
</mgrwt>
</event>
<event>
 5    1  0.2968854E-003  0.1685619E+03  0.7818608E-02  0.1181590E+00
         11   -1    0    0    0    0  0.00000000000E+00  0.00000000000E+00  0.10002425502E+04  0.10002425502E+04  0.51100000000E-03 0. -1.
          2   -1    0    0  501    0 -0.00000000000E+00 -0.00000000000E+00 -0.28608532321E+02  0.28608532435E+02  0.25500000000E-02 0. -1.
         11    1    1    2    0    0 -0.10354963250E+03 -0.10654147130E+03  0.37295224948E+03  0.40145608962E+03  0.51100000000E-03 0. -1.
         22    1    1    2    0    0 -0.18871326560E+02 -0.62512712562E+01  0.44182253819E+02  0.48448703915E+02  0.00000000000E+00 0.  1.
          2    1    1    2  501    0  0.12242095906E+03  0.11279274256E+03  0.55449951462E+03  0.57894628914E+03  0.25500000000E-02 0. -1.
<mgrwt>
<rscale>  0 0.16646049E+03</rscale>
<asrwt>0</asrwt>
<pdfrwt beam="1">  1       11 0.10000000E+01 0.16856195E+03</pdfrwt>
<pdfrwt beam="2">  1        2 0.44023801E-02 0.16646049E+03</pdfrwt>
<totfact> 0.22033011E+03</totfact>
</mgrwt>
</event>
<event>
 5    1  0.2968854E-003  0.1511389E+03  0.7818608E-02  0.1199081E+00
         11   -1    0    0    0    0  0.00000000000E+00  0.00000000000E+00  0.10000788565E+04  0.10000788565E+04  0.51100000000E-03 0. -1.
          2   -1    0    0  501    0 -0.00000000000E+00 -0.00000000000E+00 -0.35911749692E+02  0.35911749782E+02  0.25500000000E-02 0. -1.
         11    1    1    2    0    0 -0.11877517966E+03  0.12579739856E+03  0.60045614400E+03  0.62488407698E+03  0.51100000000E-03 0. -1.
         22    1    1    2    0    0  0.30415418014E+02 -0.13370622192E+02  0.15227098316E+03  0.15585353222E+03  0.00000000000E+00 0. -1.
          2    1    1    2  501    0  0.88359761648E+02 -0.11242677636E+03  0.21143997960E+03  0.25525299705E+03  0.25500000000E-02 0. -1.
<mgrwt>
<rscale>  0 0.15113885E+03</rscale>
<asrwt>0</asrwt>
<pdfrwt beam="1">  1       11 0.10000000E+01 0.33224557E+02</pdfrwt>
<pdfrwt beam="2">  1        2 0.55253201E-02 0.15113885E+03</pdfrwt>
<totfact> 0.16226939E+03</totfact>
</mgrwt>
</event>
<event>
 5    1  0.2968854E-003  0.2974611E+03  0.7818608E-02  0.1088517E+00
         11   -1    0    0    0    0  0.00000000000E+00  0.00000000000E+00  0.10004201434E+04  0.10004201434E+04  0.51100000000E-03 0. -1.
          2   -1    0    0  501    0 -0.00000000000E+00 -0.00000000000E+00 -0.45135791968E+03  0.45135791969E+03  0.25500000000E-02 0. -1.
         11    1    1    2    0    0  0.18753137989E+03  0.16331308754E+03  0.82202487817E+03  0.85881551182E+03  0.51100000000E-03 0. -1.
         22    1    1    2    0    0  0.25448002962E+02  0.38685083669E+02  0.10479240082E+03  0.11456694035E+03  0.00000000000E+00 0. -1.
          2    1    1    2  501    0 -0.21297938286E+03 -0.20199817120E+03 -0.37775505531E+03  0.47839561088E+03  0.25500000000E-02 0. -1.
<mgrwt>
<rscale>  0 0.29353616E+03</rscale>
<asrwt>0</asrwt>
<pdfrwt beam="1">  1       11 0.10000000E+01 0.29746114E+03</pdfrwt>
<pdfrwt beam="2">  1        2 0.69468853E-01 0.29353616E+03</pdfrwt>
<totfact> 0.86796063E+01</totfact>
</mgrwt>
</event>
<event>
 5    1  0.2968854E-003  0.1809941E+03  0.7818608E-02  0.1169779E+00
         11   -1    0    0    0    0  0.00000000000E+00  0.00000000000E+00  0.10001540510E+04  0.10001540510E+04  0.51100000000E-03 0. -1.
         -2   -1    0    0    0  501 -0.00000000000E+00 -0.00000000000E+00 -0.98399884592E+02  0.98399884625E+02  0.25500000000E-02 0.  1.
         11    1    1    2    0    0  0.13496112410E+03  0.14236635057E+02  0.74482309175E+03  0.75708561259E+03  0.51100000000E-03 0. -1.
         22    1    1    2    0    0  0.41036241768E+02  0.12208597674E+02  0.15778780618E+03  0.16349316431E+03  0.00000000000E+00 0. -1.
         -2    1    1    2    0  501 -0.17599736587E+03 -0.26445232731E+02 -0.85673151764E+00  0.17797515873E+03  0.25500000000E-02 0.  1.
<mgrwt>
<rscale>  0 0.17797310E+03</rscale>
<asrwt>0</asrwt>
<pdfrwt beam="1">  1       11 0.10000000E+01 0.18099406E+03</pdfrwt>
<pdfrwt beam="2">  1       -2 0.15140775E-01 0.17797310E+03</pdfrwt>
<totfact> 0.26574047E+02</totfact>
</mgrwt>
</event>
<event>
 5    1  0.2968854E-003  0.1761764E+03  0.7818608E-02  0.1173238E+00
         11   -1    0    0    0    0  0.00000000000E+00  0.00000000000E+00  0.10001356457E+04  0.10001356457E+04  0.51100000000E-03 0.  1.
         -2   -1    0    0    0  501 -0.00000000000E+00 -0.00000000000E+00 -0.25126340317E+03  0.25126340318E+03  0.25500000000E-02 0. -1.
         11    1    1    2    0    0 -0.15659401593E+03 -0.85697171602E+01  0.86736332723E+03  0.88142740331E+03  0.51100000000E-03 0.  1.
         22    1    1    2    0    0 -0.17025279992E+02 -0.89024356893E+01  0.93469927342E+02  0.95424005561E+02  0.00000000000E+00 0.  1.
         -2    1    1    2    0  501  0.17361929592E+03  0.17472152849E+02 -0.21196101201E+03  0.27454764005E+03  0.25500000000E-02 0. -1.
<mgrwt>
<rscale>  0 0.17449624E+03</rscale>
<asrwt>0</asrwt>
<pdfrwt beam="1">  1       11 0.10000000E+01 0.17617642E+03</pdfrwt>
<pdfrwt beam="2">  1       -2 0.38661151E-01 0.17449624E+03</pdfrwt>
<totfact> 0.51281796E+01</totfact>
</mgrwt>
</event>
<event>
 5    1  0.2968854E-003  0.6015419E+02  0.7818608E-02  0.1578110E+00
         11   -1    0    0    0    0  0.00000000000E+00  0.00000000000E+00  0.10002094066E+04  0.10002094066E+04  0.51100000000E-03 0. -1.
          2   -1    0    0  501    0 -0.00000000000E+00 -0.00000000000E+00 -0.16339401957E+02  0.16339402156E+02  0.25500000000E-02 0. -1.
         11    1    1    2    0    0  0.56040794753E+02  0.21403107134E+02  0.49875798365E+02  0.78014479005E+02  0.51100000000E-03 0. -1.
         22    1    1    2    0    0  0.40806745513E+01 -0.16404111413E+02  0.56647440906E+02  0.59115812921E+02  0.00000000000E+00 0. -1.
          2    1    1    2  501    0 -0.60121469305E+02 -0.49989957207E+01  0.87734676541E+03  0.87941851687E+03  0.25500000000E-02 0. -1.
<mgrwt>
<rscale>  0 0.31888065E+02</rscale>
<asrwt>0</asrwt>
<pdfrwt beam="1">  1       11 0.10000000E+01 0.60154191E+02</pdfrwt>
<pdfrwt beam="2">  1        2 0.25142805E-02 0.31888065E+02</pdfrwt>
<totfact> 0.37876505E+03</totfact>
</mgrwt>
</event>
<event>
 5    1  0.2968854E-003  0.2342555E+03  0.7818608E-02  0.1448432E+00
         11   -1    0    0    0    0  0.00000000000E+00  0.00000000000E+00  0.10001805981E+04  0.10001805981E+04  0.51100000000E-03 0. -1.
          2   -1    0    0  501    0 -0.00000000000E+00 -0.00000000000E+00 -0.65292336370E+02  0.65292336419E+02  0.25500000000E-02 0. -1.
         11    1    1    2    0    0  0.13280657732E+03 -0.19244992382E+03  0.28388104344E+03  0.36778119443E+03  0.51100000000E-03 0. -1.
         22    1    1    2    0    0  0.88519544977E+01  0.55177195428E+01  0.77091239738E+01  0.12970463362E+02  0.00000000000E+00 0.  1.
          2    1    1    2  501    0 -0.14165853181E+03  0.18693220428E+03  0.64329809428E+03  0.68472127668E+03  0.25500000000E-02 0. -1.
<mgrwt>
<rscale>  0 0.49431561E+02</rscale>
<asrwt>0</asrwt>
<pdfrwt beam="1">  1       11 0.10000000E+01 0.23425549E+03</pdfrwt>
<pdfrwt beam="2">  1        2 0.10046789E-01 0.49431561E+02</pdfrwt>
<totfact> 0.70809927E+02</totfact>
</mgrwt>
</event>
<event>
 5    1  0.2968854E-003  0.7425067E+02  0.7818608E-02  0.1469288E+00
         11   -1    0    0    0    0  0.00000000000E+00  0.00000000000E+00  0.99992471068E+03  0.99992471068E+03  0.51100000000E-03 0. -1.
          2   -1    0    0  501    0 -0.00000000000E+00 -0.00000000000E+00 -0.11232587443E+02  0.11232587732E+02  0.25500000000E-02 0. -1.
         11    1    1    2    0    0  0.41502899368E+02 -0.83887757879E+02  0.34983848658E+03  0.36214170331E+03  0.51100000000E-03 0. -1.
         22    1    1    2    0    0 -0.21102831391E+02  0.18819071188E+02  0.61973130663E+02  0.68118689486E+02  0.00000000000E+00 0.  1.
          2    1    1    2  501    0 -0.20400067977E+02  0.65068686691E+02  0.57688050599E+03  0.58089690562E+03  0.25500000000E-02 0. -1.
<mgrwt>
<rscale>  0 0.45819772E+02</rscale>
<asrwt>0</asrwt>
<pdfrwt beam="1">  1       11 0.10000000E+01 0.74250671E+02</pdfrwt>
<pdfrwt beam="2">  1        2 0.17279602E-02 0.45819772E+02</pdfrwt>
<totfact> 0.65494264E+03</totfact>
</mgrwt>
</event>
<event>
 5    1  0.2968854E-003  0.1813156E+03  0.7818608E-02  0.1166536E+00
         11   -1    0    0    0    0  0.00000000000E+00  0.00000000000E+00  0.10002705929E+04  0.10002705929E+04  0.51100000000E-03 0. -1.
          2   -1    0    0  501    0 -0.00000000000E+00 -0.00000000000E+00 -0.22417127296E+03  0.22417127297E+03  0.25500000000E-02 0. -1.
         11    1    1    2    0    0  0.23862960862E+00 -0.10542555025E+02  0.39928338354E+02  0.41297392345E+02  0.51100000000E-03 0. -1.
         22    1    1    2    0    0  0.18045967332E+03  0.25185110598E+02  0.91233961361E+03  0.93035668109E+03  0.00000000000E+00 0. -1.
          2    1    1    2  501    0 -0.18069830293E+03 -0.14642555572E+02 -0.17616863199E+03  0.25278779247E+03  0.25500000000E-02 0. -1.
<mgrwt>
<rscale>  0 0.18131563E+03</rscale>
<asrwt>0</asrwt>
<pdfrwt beam="1">  1       11 0.10000000E+01 0.10545255E+02</pdfrwt>
<pdfrwt beam="2">  1        2 0.34497219E-01 0.18131563E+03</pdfrwt>
<totfact> 0.18533480E+02</totfact>
</mgrwt>
</event>
<event>
 5    1  0.3755527E-003  0.2009759E+03  0.7818608E-02  0.1152210E+00
         11   -1    0    0    0    0  0.00000000000E+00  0.00000000000E+00  0.10005222332E+04  0.10005222332E+04  0.51100000000E-03 0. -1.
          2   -1    0    0  501    0 -0.00000000000E+00 -0.00000000000E+00 -0.63019447101E+03  0.63019447101E+03  0.25500000000E-02 0. -1.
         11    1    1    2    0    0 -0.11383105906E+03  0.13584692016E+03  0.84572575371E+03  0.86409718563E+03  0.51100000000E-03 0. -1.
         22    1    1    2    0    0 -0.22435899245E+01  0.23447189603E+02  0.12887740630E+03  0.13101217596E+03  0.00000000000E+00 0.  1.
          2    1    1    2  501    0  0.11607464898E+03 -0.15929410976E+03 -0.60427539783E+03  0.63560734260E+03  0.25500000000E-02 0. -1.
<mgrwt>
<rscale>  0 0.19709880E+03</rscale>
<asrwt>0</asrwt>
<pdfrwt beam="1">  1       11 0.10000000E+01 0.20097592E+03</pdfrwt>
<pdfrwt beam="2">  1        2 0.97003625E-01 0.19709880E+03</pdfrwt>
<totfact> 0.59841018E+01</totfact>
</mgrwt>
</event>
<event>
 5    1  0.2968854E-003  0.1106050E+03  0.7818608E-02  0.1274802E+00
         11   -1    0    0    0    0  0.00000000000E+00  0.00000000000E+00  0.10002768022E+04  0.10002768022E+04  0.51100000000E-03 0. -1.
          2   -1    0    0  501    0 -0.00000000000E+00 -0.00000000000E+00 -0.14555644356E+02  0.14555644580E+02  0.25500000000E-02 0. -1.
         11    1    1    2    0    0  0.63991134137E+02  0.31337318564E+02  0.14418421602E+03  0.16082904257E+03  0.51100000000E-03 0. -1.
         22    1    1    2    0    0  0.35683114680E+02 -0.67641324269E+01  0.12566092811E+03  0.13080407873E+03  0.00000000000E+00 0.  1.
          2    1    1    2  501    0 -0.99674248817E+02 -0.24573186137E+02  0.71587601369E+03  0.72319932546E+03  0.25500000000E-02 0. -1.
<mgrwt>
<rscale>  0 0.10265864E+03</rscale>
<asrwt>0</asrwt>
<pdfrwt beam="1">  1       11 0.10000000E+01 0.11060504E+03</pdfrwt>
<pdfrwt beam="2">  1        2 0.22399497E-02 0.10265864E+03</pdfrwt>
<totfact> 0.51834621E+03</totfact>
</mgrwt>
</event>
<event>
 5    1  0.2968854E-003  0.9999352E+02  0.7818608E-02  0.1280310E+00
         11   -1    0    0    0    0  0.00000000000E+00  0.00000000000E+00  0.10003044585E+04  0.10003044585E+04  0.51100000000E-03 0. -1.
          2   -1    0    0  501    0 -0.00000000000E+00 -0.00000000000E+00 -0.13435623288E+02  0.13435623530E+02  0.25500000000E-02 0. -1.
         11    1    1    2    0    0 -0.23491611043E+02 -0.93593232425E+01  0.63338889746E+02  0.68200202899E+02  0.51100000000E-03 0. -1.
         22    1    1    2    0    0 -0.27517423639E+02 -0.88353186461E+02  0.40999226548E+03  0.42030602174E+03  0.00000000000E+00 0. -1.
          2    1    1    2  501    0  0.51009034682E+02  0.97712509704E+02  0.51353767994E+03  0.52523385734E+03  0.25500000000E-02 0. -1.
<mgrwt>
<rscale>  0 0.99993516E+02</rscale>
<asrwt>0</asrwt>
<pdfrwt beam="1">  1       11 0.10000000E+01 0.25287415E+02</pdfrwt>
<pdfrwt beam="2">  1        2 0.20676482E-02 0.99993516E+02</pdfrwt>
<totfact> 0.57561847E+03</totfact>
</mgrwt>
</event>
<event>
 5    1  0.2968854E-003  0.5654498E+02  0.7818608E-02  0.1412931E+00
         11   -1    0    0    0    0  0.00000000000E+00  0.00000000000E+00  0.10002083176E+04  0.10002083176E+04  0.51100000000E-03 0. -1.
          2   -1    0    0  501    0 -0.00000000000E+00 -0.00000000000E+00 -0.50755864678E+01  0.50755871084E+01  0.25500000000E-02 0. -1.
         11    1    1    2    0    0  0.16664211496E+01  0.11413936804E+02  0.33944649855E+02  0.35850999524E+02  0.51100000000E-03 0. -1.
         22    1    1    2    0    0 -0.49215129753E+02  0.25436891370E+02  0.26958844943E+03  0.27522190412E+03  0.00000000000E+00 0. -1.
          2    1    1    2  501    0  0.47548708604E+02 -0.36850828174E+02  0.69159963181E+03  0.69421100103E+03  0.25500000000E-02 0. -1.
<mgrwt>
<rscale>  0 0.56544979E+02</rscale>
<asrwt>0</asrwt>
<pdfrwt beam="1">  1       11 0.10000000E+01 0.11534949E+02</pdfrwt>
<pdfrwt beam="2">  1        2 0.78102215E-03 0.56544979E+02</pdfrwt>
<totfact> 0.19685304E+04</totfact>
</mgrwt>
</event>
<event>
 5    1  0.2968854E-003  0.1640974E+03  0.7818608E-02  0.1187064E+00
         11   -1    0    0    0    0  0.00000000000E+00  0.00000000000E+00  0.10003572335E+04  0.10003572335E+04  0.51100000000E-03 0. -1.
         -2   -1    0    0    0  501 -0.00000000000E+00 -0.00000000000E+00 -0.46276627787E+02  0.46276627857E+02  0.25500000000E-02 0.  1.
         11    1    1    2    0    0 -0.83329013368E+02  0.11986360293E+03  0.77464040577E+03  0.78827581850E+03  0.51100000000E-03 0. -1.
         22    1    1    2    0    0 -0.60329458462E+01  0.14605726127E+02  0.46831809053E+02  0.49426126800E+02  0.00000000000E+00 0. -1.
         -2    1    1    2    0  501  0.89361959214E+02 -0.13446932906E+03  0.13260839092E+03  0.20893191609E+03  0.25500000000E-02 0.  1.
<mgrwt>
<rscale>  0 0.16145451E+03</rscale>
<asrwt>0</asrwt>
<pdfrwt beam="1">  1       11 0.10000000E+01 0.16409738E+03</pdfrwt>
<pdfrwt beam="2">  1       -2 0.71220243E-02 0.16145451E+03</pdfrwt>
<totfact> 0.87493070E+02</totfact>
</mgrwt>
</event>
<event>
 5    1  0.2968854E-003  0.5535447E+02  0.7818608E-02  0.1425291E+00
         11   -1    0    0    0    0  0.00000000000E+00  0.00000000000E+00  0.99993613319E+03  0.99993613319E+03  0.51100000000E-03 0.  1.
          2   -1    0    0  501    0 -0.00000000000E+00 -0.00000000000E+00 -0.11068192127E+02  0.11068192420E+02  0.25500000000E-02 0.  1.
         11    1    1    2    0    0  0.14123064326E+02  0.24350891068E+02  0.25702256270E+02  0.38118667597E+02  0.51100000000E-03 0.  1.
         22    1    1    2    0    0  0.19216049270E+02  0.18022926209E+02  0.38510465204E+02  0.46659815139E+02  0.00000000000E+00 0.  1.
          2    1    1    2  501    0 -0.33339113595E+02 -0.42373817277E+02  0.92465521959E+03  0.92622584287E+03  0.25500000000E-02 0.  1.
<mgrwt>
<rscale>  0 0.53916944E+02</rscale>
<asrwt>0</asrwt>
<pdfrwt beam="1">  1       11 0.10000000E+01 0.55354472E+02</pdfrwt>
<pdfrwt beam="2">  1        2 0.17026900E-02 0.53916944E+02</pdfrwt>
<totfact> 0.68528666E+03</totfact>
</mgrwt>
</event>
<event>
 5    1  0.2968854E-003  0.3536948E+02  0.7818608E-02  0.1550586E+00
         11   -1    0    0    0    0  0.00000000000E+00  0.00000000000E+00  0.10001470747E+04  0.10001470747E+04  0.51100000000E-03 0.  1.
          2   -1    0    0  501    0 -0.00000000000E+00 -0.00000000000E+00 -0.42459909619E+01  0.42459917276E+01  0.25500000000E-02 0.  1.
         11    1    1    2    0    0  0.41606993785E+02  0.54218134004E+01  0.23608517486E+03  0.23978479472E+03  0.51100000000E-03 0.  1.
         22    1    1    2    0    0 -0.14732546858E+02 -0.30858773393E+02  0.15810575911E+03  0.16176137640E+03  0.00000000000E+00 0.  1.
          2    1    1    2  501    0 -0.26874446926E+02  0.25436959992E+02  0.60171014973E+03  0.60284689526E+03  0.25500000000E-02 0.  1.
<mgrwt>
<rscale>  0 0.34777379E+02</rscale>
<asrwt>0</asrwt>
<pdfrwt beam="1">  1       11 0.10000000E+01 0.35369485E+02</pdfrwt>
<pdfrwt beam="2">  1        2 0.65332549E-03 0.34777379E+02</pdfrwt>
<totfact> 0.22637896E+04</totfact>
</mgrwt>
</event>
<event>
 5    1  0.2968854E-003  0.7371763E+02  0.7818608E-02  0.1374525E+00
         11   -1    0    0    0    0  0.00000000000E+00  0.00000000000E+00  0.10001139389E+04  0.10001139389E+04  0.51100000000E-03 0.  1.
          2   -1    0    0  501    0 -0.00000000000E+00 -0.00000000000E+00 -0.19262416247E+02  0.19262416416E+02  0.25500000000E-02 0.  1.
         11    1    1    2    0    0 -0.16727802364E+01 -0.26614637446E+02  0.87278571854E+01  0.28059091421E+02  0.51100000000E-03 0.  1.
         22    1    1    2    0    0 -0.31388992617E+02 -0.30420936241E+02  0.48294256600E+02  0.65138601765E+02  0.00000000000E+00 0. -1.
          2    1    1    2  501    0  0.33061772853E+02  0.57035573686E+02  0.92382940889E+03  0.92617866216E+03  0.25500000000E-02 0.  1.
<mgrwt>
<rscale>  0 0.65925242E+02</rscale>
<asrwt>0</asrwt>
<pdfrwt beam="1">  1       11 0.10000000E+01 0.73717627E+02</pdfrwt>
<pdfrwt beam="2">  1        2 0.29637862E-02 0.65925242E+02</pdfrwt>
<totfact> 0.33824935E+03</totfact>
</mgrwt>
</event>
<event>
 5    1  0.2968854E-003  0.6481813E+02  0.7818608E-02  0.1650834E+00
         11   -1    0    0    0    0  0.00000000000E+00  0.00000000000E+00  0.10001909510E+04  0.10001909510E+04  0.51100000000E-03 0. -1.
          2   -1    0    0  501    0 -0.00000000000E+00 -0.00000000000E+00 -0.10681270432E+02  0.10681270736E+02  0.25500000000E-02 0. -1.
         11    1    1    2    0    0 -0.59846828654E+02  0.89597969771E+01  0.98794539962E+02  0.11585457258E+03  0.51100000000E-03 0. -1.
         22    1    1    2    0    0 -0.56737545422E+01 -0.84858488697E+01  0.27738396076E+02  0.29557059030E+02  0.00000000000E+00 0.  1.
          2    1    1    2  501    0  0.65520583197E+02 -0.47394810737E+00  0.86297674457E+03  0.86546059017E+03  0.25500000000E-02 0. -1.
<mgrwt>
<rscale>  0 0.25722681E+02</rscale>
<asrwt>0</asrwt>
<pdfrwt beam="1">  1       11 0.10000000E+01 0.64818127E+02</pdfrwt>
<pdfrwt beam="2">  1        2 0.16435861E-02 0.25722681E+02</pdfrwt>
<totfact> 0.63194801E+03</totfact>
</mgrwt>
</event>
<event>
 5    1  0.2968854E-003  0.1622812E+03  0.7818608E-02  0.1186145E+00
         11   -1    0    0    0    0  0.00000000000E+00  0.00000000000E+00  0.10001390531E+04  0.10001390531E+04  0.51100000000E-03 0.  1.
         -2   -1    0    0    0  501 -0.00000000000E+00 -0.00000000000E+00 -0.36086836583E+02  0.36086836673E+02  0.25500000000E-02 0.  1.
         11    1    1    2    0    0 -0.49024308122E+01 -0.25752683955E+02  0.10491341383E+03  0.10813907232E+03  0.51100000000E-03 0.  1.
         22    1    1    2    0    0  0.13578776554E+03 -0.76111237115E+02  0.60432919556E+03  0.62405529746E+03  0.00000000000E+00 0.  1.
         -2    1    1    2    0  501 -0.13088533473E+03  0.10186392107E+03  0.25480960714E+03  0.30403152001E+03  0.25500000000E-02 0.  1.
<mgrwt>
<rscale>  0 0.16228120E+03</rscale>
<asrwt>0</asrwt>
<pdfrwt beam="1">  1       11 0.10000000E+01 0.26215159E+02</pdfrwt>
<pdfrwt beam="2">  1       -2 0.55525929E-02 0.16228120E+03</pdfrwt>
<totfact> 0.12800929E+03</totfact>
</mgrwt>
</event>
<event>
 5    1  0.2968854E-003  0.8900522E+02  0.7818608E-02  0.1579589E+00
         11   -1    0    0    0    0  0.00000000000E+00  0.00000000000E+00  0.10000963621E+04  0.10000963621E+04  0.51100000000E-03 0.  1.
         -2   -1    0    0    0  501 -0.00000000000E+00 -0.00000000000E+00 -0.10449124962E+02  0.10449125273E+02  0.25500000000E-02 0.  1.
         11    1    1    2    0    0  0.83217250751E+02  0.19773713568E+02  0.29364646329E+03  0.30585021820E+03  0.51100000000E-03 0.  1.
         22    1    1    2    0    0  0.23198818479E+01  0.11080286258E+02  0.23609899837E+02  0.26183620178E+02  0.00000000000E+00 0.  1.
         -2    1    1    2    0  501 -0.85537132598E+02 -0.30853999826E+02  0.67239087398E+03  0.67851164896E+03  0.25500000000E-02 0.  1.
<mgrwt>
<rscale>  0 0.31742503E+02</rscale>
<asrwt>0</asrwt>
<pdfrwt beam="1">  1       11 0.10000000E+01 0.89005218E+02</pdfrwt>
<pdfrwt beam="2">  1       -2 0.16077126E-02 0.31742503E+02</pdfrwt>
<totfact> 0.62313495E+03</totfact>
</mgrwt>
</event>
<event>
 5    1  0.2968854E-003  0.1134686E+03  0.7818608E-02  0.1572479E+00
         11   -1    0    0    0    0  0.00000000000E+00  0.00000000000E+00  0.99978603095E+03  0.99978603095E+03  0.51100000000E-03 0. -1.
          2   -1    0    0  501    0 -0.00000000000E+00 -0.00000000000E+00 -0.10384216352E+03  0.10384216355E+03  0.25500000000E-02 0. -1.
         11    1    1    2    0    0 -0.55490523758E+02 -0.88422399964E+02  0.59055549113E+03  0.59971118645E+03  0.51100000000E-03 0. -1.
         22    1    1    2    0    0  0.68224080735E+02  0.11827044102E+03  0.39004583104E+03  0.41325315815E+03  0.00000000000E+00 0. -1.
          2    1    1    2  501    0 -0.12733556977E+02 -0.29848041052E+02 -0.84657454749E+02  0.90663849902E+02  0.25500000000E-02 0. -1.
<mgrwt>
<rscale>  0 0.32450717E+02</rscale>
<asrwt>0</asrwt>
<pdfrwt beam="1">  1       11 0.10000000E+01 0.11346860E+03</pdfrwt>
<pdfrwt beam="2">  1        2 0.15972299E-01 0.32450717E+02</pdfrwt>
<totfact> 0.40420922E+02</totfact>
</mgrwt>
</event>
<event>
 5    1  0.2968854E-003  0.2645231E+03  0.7818608E-02  0.1108555E+00
         11   -1    0    0    0    0  0.00000000000E+00  0.00000000000E+00  0.10002044869E+04  0.10002044869E+04  0.51100000000E-03 0.  1.
          2   -1    0    0  501    0 -0.00000000000E+00 -0.00000000000E+00 -0.24440133886E+03  0.24440133887E+03  0.25500000000E-02 0.  1.
         11    1    1    2    0    0  0.15489878228E+03 -0.12339578449E+03  0.77463910512E+03  0.79955356016E+03  0.51100000000E-03 0.  1.
         22    1    1    2    0    0  0.50375542738E+02 -0.32338246865E+02  0.13309032149E+03  0.14593317371E+03  0.00000000000E+00 0.  1.
          2    1    1    2  501    0 -0.20527432501E+03  0.15573403136E+03 -0.15192627855E+03  0.29911909192E+03  0.25500000000E-02 0.  1.
<mgrwt>
<rscale>  0 0.25766381E+03</rscale>
<asrwt>0</asrwt>
<pdfrwt beam="1">  1       11 0.10000000E+01 0.26452307E+03</pdfrwt>
<pdfrwt beam="2">  1        2 0.37607894E-01 0.25766381E+03</pdfrwt>
<totfact> 0.16938216E+02</totfact>
</mgrwt>
</event>
<event>
 5    1  0.2968854E-003  0.5939505E+02  0.7818608E-02  0.1413933E+00
         11   -1    0    0    0    0  0.00000000000E+00  0.00000000000E+00  0.10000637963E+04  0.10000637963E+04  0.51100000000E-03 0. -1.
          2   -1    0    0  501    0 -0.00000000000E+00 -0.00000000000E+00 -0.58984396551E+01  0.58984402063E+01  0.25500000000E-02 0. -1.
         11    1    1    2    0    0 -0.31301827833E+02  0.27769632278E+02  0.10470712428E+03  0.11275876364E+03  0.51100000000E-03 0. -1.
         22    1    1    2    0    0 -0.53136886321E+01  0.15030503439E+02  0.69155599126E+02  0.70969346982E+02  0.00000000000E+00 0. -1.
          2    1    1    2  501    0  0.36615516465E+02 -0.42800135717E+02  0.82030263323E+03  0.82223412587E+03  0.25500000000E-02 0. -1.
<mgrwt>
<rscale>  0 0.56325373E+02</rscale>
<asrwt>0</asrwt>
<pdfrwt beam="1">  1       11 0.10000000E+01 0.59395051E+02</pdfrwt>
<pdfrwt beam="2">  1        2 0.90751016E-03 0.56325373E+02</pdfrwt>
<totfact> 0.16059494E+04</totfact>
</mgrwt>
</event>
<event>
 5    1  0.2968854E-003  0.1736357E+03  0.7818608E-02  0.1174109E+00
         11   -1    0    0    0    0  0.00000000000E+00  0.00000000000E+00  0.99982951529E+03  0.99982951529E+03  0.51100000000E-03 0. -1.
         -2   -1    0    0    0  501 -0.00000000000E+00 -0.00000000000E+00 -0.41581928352E+02  0.41581928430E+02  0.25500000000E-02 0.  1.
         11    1    1    2    0    0 -0.71056210290E+02 -0.14674411310E+03  0.76256042176E+03  0.77979562488E+03  0.51100000000E-03 0. -1.
         22    1    1    2    0    0  0.50243540627E+02  0.12115087431E+03  0.18532248317E+03  0.22703825777E+03  0.00000000000E+00 0.  1.
         -2    1    1    2    0  501  0.20812669662E+02  0.25593238784E+02  0.10364682004E+02  0.34577561068E+02  0.25500000000E-02 0.  1.
<mgrwt>
<rscale>  0 0.17363574E+03</rscale>
<asrwt>0</asrwt>
<pdfrwt beam="1">  1       11 0.10000000E+01 0.16304239E+03</pdfrwt>
<pdfrwt beam="2">  1       -2 0.63961289E-02 0.17363574E+03</pdfrwt>
<totfact> 0.10372499E+03</totfact>
</mgrwt>
</event>
<event>
 5    1  0.2968854E-003  0.3944581E+02  0.7818608E-02  0.1512330E+00
         11   -1    0    0    0    0  0.00000000000E+00  0.00000000000E+00  0.10002633702E+04  0.10002633702E+04  0.51100000000E-03 0. -1.
         -2   -1    0    0    0  501 -0.00000000000E+00 -0.00000000000E+00 -0.64987184717E+01  0.64987189719E+01  0.25500000000E-02 0. -1.
         11    1    1    2    0    0 -0.13743529637E+02  0.82507479429E+01  0.57633669787E+02  0.59821395353E+02  0.51100000000E-03 0. -1.
         22    1    1    2    0    0 -0.86405971377E+01 -0.38906080515E+02  0.74638061223E+02  0.84611956620E+02  0.00000000000E+00 0. -1.
         -2    1    1    2    0  501  0.22384126775E+02  0.30655332572E+02  0.86149292068E+03  0.86232873716E+03  0.25500000000E-02 0. -1.
<mgrwt>
<rscale>  0 0.39445813E+02</rscale>
<asrwt>0</asrwt>
<pdfrwt beam="1">  1       11 0.10000000E+01 0.16029963E+02</pdfrwt>
<pdfrwt beam="2">  1       -2 0.10000662E-02 0.39445813E+02</pdfrwt>
<totfact> 0.12516000E+04</totfact>
</mgrwt>
</event>
<event>
 5    1  0.2968854E-003  0.1038862E+03  0.7818608E-02  0.1448060E+00
         11   -1    0    0    0    0  0.00000000000E+00  0.00000000000E+00  0.99990926478E+03  0.99990926478E+03  0.51100000000E-03 0. -1.
          2   -1    0    0  501    0 -0.00000000000E+00 -0.00000000000E+00 -0.50105967894E+03  0.50105967894E+03  0.25500000000E-02 0. -1.
         11    1    1    2    0    0 -0.89515963024E+02  0.19662831854E+02  0.47798856616E+03  0.48669580230E+03  0.51100000000E-03 0. -1.
         22    1    1    2    0    0  0.12959936197E+03  0.93806999001E+01  0.50813794978E+03  0.52448848239E+03  0.00000000000E+00 0. -1.
          2    1    1    2  501    0 -0.40083398949E+02 -0.29043531754E+02 -0.48727693010E+03  0.48978465903E+03  0.25500000000E-02 0. -1.
<mgrwt>
<rscale>  0 0.49499552E+02</rscale>
<asrwt>0</asrwt>
<pdfrwt beam="1">  1       11 0.10000000E+01 0.10388624E+03</pdfrwt>
<pdfrwt beam="2">  1        2 0.77079108E-01 0.49499552E+02</pdfrwt>
<totfact> 0.79265499E+01</totfact>
</mgrwt>
</event>
<event>
 5    1  0.2968854E-003  0.9145405E+02  0.7818608E-02  0.1304503E+00
         11   -1    0    0    0    0  0.00000000000E+00  0.00000000000E+00  0.10000952622E+04  0.10000952622E+04  0.51100000000E-03 0. -1.
          2   -1    0    0  501    0 -0.00000000000E+00 -0.00000000000E+00 -0.86224030236E+01  0.86224034007E+01  0.25500000000E-02 0. -1.
         11    1    1    2    0    0 -0.51218389974E+01 -0.70739677539E+02  0.29492124629E+03  0.30332965026E+03  0.51100000000E-03 0. -1.
         22    1    1    2    0    0  0.88203115361E+01 -0.18505284988E+02  0.90730055310E+02  0.93017129630E+02  0.00000000000E+00 0. -1.
          2    1    1    2  501    0 -0.36984725387E+01  0.89244962527E+02  0.60582155756E+03  0.61237088569E+03  0.25500000000E-02 0. -1.
<mgrwt>
<rscale>  0 0.89321565E+02</rscale>
<asrwt>0</asrwt>
<pdfrwt beam="1">  1       11 0.10000000E+01 0.91454051E+02</pdfrwt>
<pdfrwt beam="2">  1        2 0.13266499E-02 0.89321565E+02</pdfrwt>
<totfact> 0.10351200E+04</totfact>
</mgrwt>
</event>
<event>
 5    1  0.2968854E-003  0.1750374E+03  0.7818608E-02  0.1172694E+00
         11   -1    0    0    0    0  0.00000000000E+00  0.00000000000E+00  0.10002445992E+04  0.10002445992E+04  0.51100000000E-03 0.  1.
          2   -1    0    0  501    0 -0.00000000000E+00 -0.00000000000E+00 -0.46305398779E+02  0.46305398850E+02  0.25500000000E-02 0.  1.
         11    1    1    2    0    0  0.14167182983E+03  0.87262501976E+02  0.25662893970E+03  0.30584974140E+03  0.51100000000E-03 0.  1.
         22    1    1    2    0    0 -0.58405148717E+01  0.51816113672E+02  0.20155395154E+03  0.20818985718E+03  0.00000000000E+00 0.  1.
          2    1    1    2  501    0 -0.13583131496E+03 -0.13907861565E+03  0.49575630921E+03  0.53251039950E+03  0.25500000000E-02 0.  1.
<mgrwt>
<rscale>  0 0.17503737E+03</rscale>
<asrwt>0</asrwt>
<pdfrwt beam="1">  1       11 0.10000000E+01 0.52144235E+02</pdfrwt>
<pdfrwt beam="2">  1        2 0.71256498E-02 0.17503737E+03</pdfrwt>
<totfact> 0.11811122E+03</totfact>
</mgrwt>
</event>
<event>
 5    1  0.2968854E-003  0.9204358E+02  0.7818608E-02  0.1328706E+00
         11   -1    0    0    0    0  0.00000000000E+00  0.00000000000E+00  0.99996404728E+03  0.99996404728E+03  0.51100000000E-03 0. -1.
          2   -1    0    0  501    0 -0.00000000000E+00 -0.00000000000E+00 -0.74126139289E+01  0.74126143675E+01  0.25500000000E-02 0. -1.
         11    1    1    2    0    0 -0.45486604426E+02  0.90024204128E+01  0.27009649512E+03  0.27404779042E+03  0.51100000000E-03 0. -1.
         22    1    1    2    0    0 -0.30713256979E+02 -0.33763603556E+02  0.25207434279E+03  0.25617329949E+03  0.00000000000E+00 0. -1.
          2    1    1    2  501    0  0.76199861405E+02  0.24761183143E+02  0.47038059545E+03  0.47715557175E+03  0.25500000000E-02 0. -1.
<mgrwt>
<rscale>  0 0.80122001E+02</rscale>
<asrwt>0</asrwt>
<pdfrwt beam="1">  1       11 0.10000000E+01 0.92043578E+02</pdfrwt>
<pdfrwt beam="2">  1        2 0.11403611E-02 0.80122001E+02</pdfrwt>
<totfact> 0.12509592E+04</totfact>
</mgrwt>
</event>
<event>
 5    1  0.2968854E-003  0.3004100E+03  0.7818608E-02  0.1098203E+00
         11   -1    0    0    0    0  0.00000000000E+00  0.00000000000E+00  0.10001211882E+04  0.10001211882E+04  0.51100000000E-03 0. -1.
          2   -1    0    0  501    0 -0.00000000000E+00 -0.00000000000E+00 -0.48469083353E+03  0.48469083354E+03  0.25500000000E-02 0.  1.
         11    1    1    2    0    0 -0.93112022950E+02  0.15956875990E+03  0.44168579871E+03  0.47876756651E+03  0.51100000000E-03 0. -1.
         22    1    1    2    0    0  0.19439567852E+00  0.99730708323E+02  0.49377954543E+03  0.50375042577E+03  0.00000000000E+00 0. -1.
          2    1    1    2  501    0  0.92917627271E+02 -0.25929946823E+03 -0.42003498946E+03  0.50229402948E+03  0.25500000000E-02 0.  1.
<mgrwt>
<rscale>  0 0.27544491E+03</rscale>
<asrwt>0</asrwt>
<pdfrwt beam="1">  1       11 0.10000000E+01 0.30041004E+03</pdfrwt>
<pdfrwt beam="2">  1        2 0.74576855E-01 0.27544491E+03</pdfrwt>
<totfact> 0.80260240E+01</totfact>
</mgrwt>
</event>
<event>
 5    1  0.2968854E-003  0.2124443E+03  0.7818608E-02  0.1142154E+00
         11   -1    0    0    0    0  0.00000000000E+00  0.00000000000E+00  0.10001020477E+04  0.10001020477E+04  0.51100000000E-03 0. -1.
          2   -1    0    0  501    0 -0.00000000000E+00 -0.00000000000E+00 -0.15645335383E+03  0.15645335386E+03  0.25500000000E-02 0. -1.
         11    1    1    2    0    0 -0.17827591552E+03 -0.65267896746E+02  0.82897001559E+03  0.85043135358E+03  0.51100000000E-03 0. -1.
         22    1    1    2    0    0 -0.13928035504E+02 -0.17479750928E+02  0.83029160511E+02  0.85984727485E+02  0.00000000000E+00 0. -1.
          2    1    1    2  501    0  0.19220395103E+03  0.82747647673E+02 -0.68350482256E+02  0.22013932047E+03  0.25500000000E-02 0. -1.
<mgrwt>
<rscale>  0 0.20925948E+03</rscale>
<asrwt>0</asrwt>
<pdfrwt beam="1">  1       11 0.10000000E+01 0.21244430E+03</pdfrwt>
<pdfrwt beam="2">  1        2 0.24072202E-01 0.20925948E+03</pdfrwt>
<totfact> 0.27599568E+02</totfact>
</mgrwt>
</event>
<event>
 5    1  0.2968854E-003  0.2203493E+03  0.7818608E-02  0.1133623E+00
         11   -1    0    0    0    0  0.00000000000E+00  0.00000000000E+00  0.10001690925E+04  0.10001690925E+04  0.51100000000E-03 0. -1.
          2   -1    0    0  501    0 -0.00000000000E+00 -0.00000000000E+00 -0.14065923189E+03  0.14065923191E+03  0.25500000000E-02 0. -1.
         11    1    1    2    0    0 -0.19717831127E+03  0.64252218324E+02  0.86390026574E+03  0.88844319072E+03  0.51100000000E-03 0. -1.
         22    1    1    2    0    0 -0.16983250001E+02 -0.64252193728E+01  0.22518782180E+02  0.28927664535E+02  0.00000000000E+00 0. -1.
          2    1    1    2  501    0  0.21416156127E+03 -0.57826998951E+02 -0.26909187352E+02  0.22345746911E+03  0.25500000000E-02 0. -1.
<mgrwt>
<rscale>  0 0.22034929E+03</rscale>
<asrwt>0</asrwt>
<pdfrwt beam="1">  1       11 0.10000000E+01 0.18158035E+02</pdfrwt>
<pdfrwt beam="2">  1        2 0.21643540E-01 0.22034929E+03</pdfrwt>
<totfact> 0.31157806E+02</totfact>
</mgrwt>
</event>
<event>
 5    1  0.2968854E-003  0.1638280E+03  0.7818608E-02  0.1184441E+00
         11   -1    0    0    0    0  0.00000000000E+00  0.00000000000E+00  0.10001883820E+04  0.10001883820E+04  0.51100000000E-03 0. -1.
          2   -1    0    0  501    0 -0.00000000000E+00 -0.00000000000E+00 -0.52439936069E+02  0.52439936131E+02  0.25500000000E-02 0. -1.
         11    1    1    2    0    0  0.13857848669E+03 -0.14021280375E+02  0.28005855645E+03  0.31278329290E+03  0.51100000000E-03 0. -1.
         22    1    1    2    0    0  0.34496509129E+02 -0.69104679184E+02  0.41691087484E+03  0.42400488604E+03  0.00000000000E+00 0. -1.
          2    1    1    2  501    0 -0.17307499582E+03  0.83125959559E+02  0.25077901462E+03  0.31584013917E+03  0.25500000000E-02 0. -1.
<mgrwt>
<rscale>  0 0.16382802E+03</rscale>
<asrwt>0</asrwt>
<pdfrwt beam="1">  1       11 0.10000000E+01 0.77236428E+02</pdfrwt>
<pdfrwt beam="2">  1        2 0.80692021E-02 0.16382802E+03</pdfrwt>
<totfact> 0.10044536E+03</totfact>
</mgrwt>
</event>
<event>
 5    1  0.2968854E-003  0.2273615E+03  0.7818608E-02  0.1129603E+00
         11   -1    0    0    0    0  0.00000000000E+00  0.00000000000E+00  0.10003020473E+04  0.10003020473E+04  0.51100000000E-03 0. -1.
          2   -1    0    0  501    0 -0.00000000000E+00 -0.00000000000E+00 -0.63901844064E+02  0.63901844115E+02  0.25500000000E-02 0. -1.
         11    1    1    2    0    0  0.21568954933E+03  0.12915576227E+02  0.22211439961E+03  0.30987675020E+03  0.51100000000E-03 0. -1.
         22    1    1    2    0    0  0.93266317587E+01  0.63522865633E+01  0.11357519017E+02  0.16010335498E+02  0.00000000000E+00 0.  1.
          2    1    1    2  501    0 -0.22501618109E+03 -0.19267862791E+02  0.70292828458E+03  0.73831680568E+03  0.25500000000E-02 0. -1.
<mgrwt>
<rscale>  0 0.22583962E+03</rscale>
<asrwt>0</asrwt>
<pdfrwt beam="1">  1       11 0.10000000E+01 0.22736151E+03</pdfrwt>
<pdfrwt beam="2">  1        2 0.98340221E-02 0.22583962E+03</pdfrwt>
<totfact> 0.79792682E+02</totfact>
</mgrwt>
</event>
<event>
 5    1  0.2968854E-003  0.2135273E+03  0.7818608E-02  0.1468857E+00
         11   -1    0    0    0    0  0.00000000000E+00  0.00000000000E+00  0.99978103164E+03  0.99978103164E+03  0.51100000000E-03 0.  1.
          2   -1    0    0  501    0 -0.00000000000E+00 -0.00000000000E+00 -0.33705719917E+03  0.33705719918E+03  0.25500000000E-02 0.  1.
         11    1    1    2    0    0  0.15832786865E+03 -0.12681815302E+03  0.65610939048E+03  0.68675329646E+03  0.51100000000E-03 0.  1.
         22    1    1    2    0    0 -0.18153401120E+03  0.16640893379E+03  0.27999140936E+03  0.37288298404E+03  0.00000000000E+00 0.  1.
          2    1    1    2  501    0  0.23206142553E+02 -0.39590780772E+02 -0.27337696736E+03  0.27720195033E+03  0.25500000000E-02 0.  1.
<mgrwt>
<rscale>  0 0.45890685E+02</rscale>
<asrwt>0</asrwt>
<pdfrwt beam="1">  1       11 0.10000000E+01 0.21352731E+03</pdfrwt>
<pdfrwt beam="2">  1        2 0.51843598E-01 0.45890685E+02</pdfrwt>
<totfact> 0.11926614E+02</totfact>
</mgrwt>
</event>
<event>
 5    1  0.2968854E-003  0.1247992E+03  0.7818608E-02  0.1235383E+00
         11   -1    0    0    0    0  0.00000000000E+00  0.00000000000E+00  0.10001249656E+04  0.10001249656E+04  0.51100000000E-03 0. -1.
         -2   -1    0    0    0  501 -0.00000000000E+00 -0.00000000000E+00 -0.16391939868E+03  0.16391939870E+03  0.25500000000E-02 0.  1.
         11    1    1    2    0    0  0.95085822498E+02 -0.11246510364E+03  0.72999882358E+03  0.74470665071E+03  0.51100000000E-03 0. -1.
         22    1    1    2    0    0 -0.68926011317E+02 -0.93564549699E+01  0.23204721723E+03  0.24224832159E+03  0.00000000000E+00 0.  1.
         -2    1    1    2    0  501 -0.26159811181E+02  0.12182155861E+03 -0.12584047393E+03  0.17708939197E+03  0.25500000000E-02 0.  1.
<mgrwt>
<rscale>  0 0.12479919E+03</rscale>
<asrwt>0</asrwt>
<pdfrwt beam="1">  1       11 0.10000000E+01 0.69558165E+02</pdfrwt>
<pdfrwt beam="2">  1       -2 0.25221520E-01 0.12479919E+03</pdfrwt>
<totfact> 0.11073220E+02</totfact>
</mgrwt>
</event>
<event>
 5    1  0.2968854E-003  0.1408450E+03  0.7818608E-02  0.1538668E+00
         11   -1    0    0    0    0  0.00000000000E+00  0.00000000000E+00  0.10003692957E+04  0.10003692957E+04  0.51100000000E-03 0. -1.
         -2   -1    0    0    0  501 -0.00000000000E+00 -0.00000000000E+00 -0.38569246367E+02  0.38569246452E+02  0.25500000000E-02 0. -1.
         11    1    1    2    0    0 -0.76540701642E+02  0.14107298393E+03  0.44051207304E+03  0.46884000714E+03  0.51100000000E-03 0. -1.
         22    1    1    2    0    0  0.45983436931E+02 -0.12176848410E+03  0.51765923576E+03  0.53377254010E+03  0.00000000000E+00 0. -1.
         -2    1    1    2    0  501  0.30557264711E+02 -0.19304499832E+02  0.36287405048E+01  0.36325994887E+02  0.25500000000E-02 0. -1.
<mgrwt>
<rscale>  0 0.36144296E+02</rscale>
<asrwt>0</asrwt>
<pdfrwt beam="1">  1       11 0.10000000E+01 0.14084499E+03</pdfrwt>
<pdfrwt beam="2">  1       -2 0.59359213E-02 0.36144296E+02</pdfrwt>
<totfact> 0.10026413E+03</totfact>
</mgrwt>
</event>
<event>
 5    1  0.2968854E-003  0.1930426E+03  0.7818608E-02  0.1160339E+00
         11   -1    0    0    0    0  0.00000000000E+00  0.00000000000E+00  0.10002139525E+04  0.10002139525E+04  0.51100000000E-03 0.  1.
          2   -1    0    0  501    0 -0.00000000000E+00 -0.00000000000E+00 -0.40453456387E+02  0.40453456467E+02  0.25500000000E-02 0.  1.
         11    1    1    2    0    0  0.94278937209E+02  0.80814322997E+02  0.37678046142E+03  0.39671524916E+03  0.51100000000E-03 0.  1.
         22    1    1    2    0    0  0.30734924570E+02  0.59507997211E+02  0.27603034517E+03  0.28403976619E+03  0.00000000000E+00 0. -1.
          2    1    1    2  501    0 -0.12501386178E+03 -0.14032232021E+03  0.30694968956E+03  0.35991239367E+03  0.25500000000E-02 0.  1.
<mgrwt>
<rscale>  0 0.18793302E+03</rscale>
<asrwt>0</asrwt>
<pdfrwt beam="1">  1       11 0.10000000E+01 0.19304259E+03</pdfrwt>
<pdfrwt beam="2">  1        2 0.62249401E-02 0.18793302E+03</pdfrwt>
<totfact> 0.14121491E+03</totfact>
</mgrwt>
</event>
<event>
 5    1  0.2968854E-003  0.6563691E+02  0.7818608E-02  0.1442202E+00
         11   -1    0    0    0    0  0.00000000000E+00  0.00000000000E+00  0.10003334547E+04  0.10003334547E+04  0.51100000000E-03 0.  1.
          2   -1    0    0  501    0 -0.00000000000E+00 -0.00000000000E+00 -0.14787862193E+02  0.14787862413E+02  0.25500000000E-02 0.  1.
         11    1    1    2    0    0  0.60013560484E+02 -0.59504725636E+02  0.21876446720E+03  0.23452149566E+03  0.51100000000E-03 0.  1.
         22    1    1    2    0    0 -0.95170499365E+01  0.56485213103E+02  0.13309825644E+03  0.14490099864E+03  0.00000000000E+00 0.  1.
          2    1    1    2  501    0 -0.50496510548E+02  0.30195125332E+01  0.63368286886E+03  0.63569882282E+03  0.25500000000E-02 0.  1.
<mgrwt>
<rscale>  0 0.50586708E+02</rscale>
<asrwt>0</asrwt>
<pdfrwt beam="1">  1       11 0.10000000E+01 0.65636909E+02</pdfrwt>
<pdfrwt beam="2">  1        2 0.22758143E-02 0.50586708E+02</pdfrwt>
<totfact> 0.46227266E+03</totfact>
</mgrwt>
</event>
<event>
 5    1  0.2968854E-003  0.1034021E+03  0.7818608E-02  0.1724188E+00
         11   -1    0    0    0    0  0.00000000000E+00  0.00000000000E+00  0.10002074647E+04  0.10002074647E+04  0.51100000000E-03 0.  1.
          2   -1    0    0  501    0 -0.00000000000E+00 -0.00000000000E+00 -0.14931316209E+02  0.14931316426E+02  0.25500000000E-02 0.  1.
         11    1    1    2    0    0  0.25226055692E+02 -0.93580524864E+02  0.31389586897E+03  0.32851831772E+03  0.51100000000E-03 0.  1.
         22    1    1    2    0    0 -0.45910427679E+02  0.97778263391E+02  0.63833431797E+03  0.64740949766E+03  0.00000000000E+00 0.  1.
          2    1    1    2  501    0  0.20684371987E+02 -0.41977385275E+01  0.33045961522E+02  0.39210965719E+02  0.25500000000E-02 0.  1.
<mgrwt>
<rscale>  0 0.21106024E+02</rscale>
<asrwt>0</asrwt>
<pdfrwt beam="1">  1       11 0.10000000E+01 0.10340205E+03</pdfrwt>
<pdfrwt beam="2">  1        2 0.22976021E-02 0.21106024E+02</pdfrwt>
<totfact> 0.39635118E+03</totfact>
</mgrwt>
</event>
<event>
 5    1  0.2968854E-003  0.1852182E+03  0.7818608E-02  0.1162846E+00
         11   -1    0    0    0    0  0.00000000000E+00  0.00000000000E+00  0.10001645361E+04  0.10001645361E+04  0.51100000000E-03 0. -1.
          2   -1    0    0  501    0 -0.00000000000E+00 -0.00000000000E+00 -0.95741873386E+03  0.95741873386E+03  0.25500000000E-02 0. -1.
         11    1    1    2    0    0  0.69055295716E+02 -0.10719335582E+03  0.40441081991E+02  0.13377043960E+03  0.51100000000E-03 0. -1.
         22    1    1    2    0    0 -0.22271263626E+03  0.20840523094E+03  0.87775280085E+03  0.92923820306E+03  0.00000000000E+00 0. -1.
          2    1    1    2  501    0  0.15365734055E+03 -0.10121187512E+03 -0.87544808060E+03  0.89457462729E+03  0.25500000000E-02 0. -1.
<mgrwt>
<rscale>  0 0.18521815E+03</rscale>
<asrwt>0</asrwt>
<pdfrwt beam="1">  1       11 0.10000000E+01 0.12751098E+03</pdfrwt>
<pdfrwt beam="2">  1        2 0.14731942E+00 0.18521815E+03</pdfrwt>
<totfact> 0.35514954E+01</totfact>
</mgrwt>
</event>
<event>
 5    1  0.2968854E-003  0.1578164E+03  0.7818608E-02  0.1197481E+00
         11   -1    0    0    0    0  0.00000000000E+00  0.00000000000E+00  0.10001632756E+04  0.10001632756E+04  0.51100000000E-03 0.  1.
          2   -1    0    0  501    0 -0.00000000000E+00 -0.00000000000E+00 -0.27520303100E+02  0.27520303218E+02  0.25500000000E-02 0.  1.
         11    1    1    2    0    0 -0.10471307270E+02 -0.22589828463E+02  0.10548922615E+03  0.10838784738E+03  0.51100000000E-03 0.  1.
         22    1    1    2    0    0  0.38027249465E+02 -0.12736019717E+03  0.57024566435E+03  0.58553121970E+03  0.00000000000E+00 0.  1.
          2    1    1    2  501    0 -0.27555942195E+02  0.14995002564E+03  0.29690808203E+03  0.33376451177E+03  0.25500000000E-02 0.  1.
<mgrwt>
<rscale>  0 0.15246095E+03</rscale>
<asrwt>0</asrwt>
<pdfrwt beam="1">  1       11 0.10000000E+01 0.15781644E+03</pdfrwt>
<pdfrwt beam="2">  1        2 0.42345840E-02 0.15246095E+03</pdfrwt>
<totfact> 0.23024874E+03</totfact>
</mgrwt>
</event>
<event>
 5    1  0.2968854E-003  0.1811323E+03  0.7818608E-02  0.1171102E+00
         11   -1    0    0    0    0  0.00000000000E+00  0.00000000000E+00  0.10002377542E+04  0.10002377542E+04  0.51100000000E-03 0.  1.
          2   -1    0    0  501    0 -0.00000000000E+00 -0.00000000000E+00 -0.45212102582E+02  0.45212102654E+02  0.25500000000E-02 0.  1.
         11    1    1    2    0    0  0.85672348106E+01 -0.16499800651E+03  0.71917252152E+03  0.73790707774E+03  0.51100000000E-03 0.  1.
         22    1    1    2    0    0 -0.95232808552E+01 -0.11632798723E+02  0.45238327732E+02  0.47670967899E+02  0.00000000000E+00 0. -1.
          2    1    1    2  501    0  0.95604604462E+00  0.17663080523E+03  0.19061480238E+03  0.25987181124E+03  0.25500000000E-02 0.  1.
<mgrwt>
<rscale>  0 0.17663339E+03</rscale>
<asrwt>0</asrwt>
<pdfrwt beam="1">  1       11 0.10000000E+01 0.18113233E+03</pdfrwt>
<pdfrwt beam="2">  1        2 0.69573616E-02 0.17663339E+03</pdfrwt>
<totfact> 0.12185101E+03</totfact>
</mgrwt>
</event>
<event>
 5    1  0.2968854E-003  0.2007610E+03  0.7818608E-02  0.1364858E+00
         11   -1    0    0    0    0  0.00000000000E+00  0.00000000000E+00  0.10003734802E+04  0.10003734802E+04  0.51100000000E-03 0.  1.
         -2   -1    0    0    0  501 -0.00000000000E+00 -0.00000000000E+00 -0.63563176351E+03  0.63563176351E+03  0.25500000000E-02 0. -1.
         11    1    1    2    0    0  0.59448971666E+02 -0.18084318985E+03  0.20610536629E+02  0.19147645747E+03  0.51100000000E-03 0.  1.
         22    1    1    2    0    0 -0.12501259597E+03  0.16060037248E+03  0.88053744664E+03  0.90375152765E+03  0.00000000000E+00 0.  1.
         -2    1    1    2    0  501  0.65563624302E+02  0.20242817362E+02 -0.53640626662E+03  0.54077725855E+03  0.25500000000E-02 0. -1.
<mgrwt>
<rscale>  0 0.68617494E+02</rscale>
<asrwt>0</asrwt>
<pdfrwt beam="1">  1       11 0.10000000E+01 0.20076098E+03</pdfrwt>
<pdfrwt beam="2">  1       -2 0.97826022E-01 0.68617494E+02</pdfrwt>
<totfact> 0.76151992E+00</totfact>
</mgrwt>
</event>
<event>
 5    1  0.2968854E-003  0.1745206E+03  0.7818608E-02  0.1173214E+00
         11   -1    0    0    0    0  0.00000000000E+00  0.00000000000E+00  0.10004262385E+04  0.10004262385E+04  0.51100000000E-03 0.  1.
          2   -1    0    0  501    0 -0.00000000000E+00 -0.00000000000E+00 -0.50465100497E+03  0.50465100497E+03  0.25500000000E-02 0. -1.
         11    1    1    2    0    0  0.14503342534E+03  0.17060459384E+02  0.77183900260E+03  0.78553243069E+03  0.51100000000E-03 0.  1.
         22    1    1    2    0    0  0.18340340175E+02  0.46156816912E+02  0.20324571588E+03  0.20922629101E+03  0.00000000000E+00 0.  1.
          2    1    1    2  501    0 -0.16337376551E+03 -0.63217276296E+02 -0.47930948495E+03  0.51031852176E+03  0.25500000000E-02 0. -1.
<mgrwt>
<rscale>  0 0.17452057E+03</rscale>
<asrwt>0</asrwt>
<pdfrwt beam="1">  1       11 0.10000000E+01 0.49667090E+02</pdfrwt>
<pdfrwt beam="2">  1        2 0.77671706E-01 0.17452057E+03</pdfrwt>
<totfact> 0.77238572E+01</totfact>
</mgrwt>
</event>
<event>
 5    1  0.2968854E-003  0.1447469E+03  0.7818608E-02  0.1207081E+00
         11   -1    0    0    0    0  0.00000000000E+00  0.00000000000E+00  0.10004120553E+04  0.10004120553E+04  0.51100000000E-03 0. -1.
          2   -1    0    0  501    0 -0.00000000000E+00 -0.00000000000E+00 -0.23961551835E+02  0.23961551971E+02  0.25500000000E-02 0. -1.
         11    1    1    2    0    0  0.13821827752E+03  0.18992976542E+02  0.68374413083E+03  0.69783311890E+03  0.51100000000E-03 0. -1.
         22    1    1    2    0    0 -0.90788840277E+01 -0.11187964022E+02  0.19456815586E+02  0.24210831190E+02  0.00000000000E+00 0. -1.
          2    1    1    2  501    0 -0.12913939349E+03 -0.78050125194E+01  0.27324955701E+03  0.30232965714E+03  0.25500000000E-02 0. -1.
<mgrwt>
<rscale>  0 0.14474692E+03</rscale>
<asrwt>0</asrwt>
<pdfrwt beam="1">  1       11 0.10000000E+01 0.13951712E+03</pdfrwt>
<pdfrwt beam="2">  1        2 0.36879115E-02 0.14474692E+03</pdfrwt>
<totfact> 0.27537868E+03</totfact>
</mgrwt>
</event>
<event>
 5    1  0.2968854E-003  0.4021788E+03  0.7818608E-02  0.1043028E+00
         11   -1    0    0    0    0  0.00000000000E+00  0.00000000000E+00  0.10002398226E+04  0.10002398226E+04  0.51100000000E-03 0. -1.
          2   -1    0    0  501    0 -0.00000000000E+00 -0.00000000000E+00 -0.20298216211E+03  0.20298216213E+03  0.25500000000E-02 0. -1.
         11    1    1    2    0    0  0.16593746708E+02 -0.18661373343E+00  0.43157965566E+02  0.46238482312E+02  0.51100000000E-03 0. -1.
         22    1    1    2    0    0  0.19593254736E+03  0.34462166802E+03  0.60974521854E+03  0.72728459954E+03  0.00000000000E+00 0. -1.
          2    1    1    2  501    0 -0.21252629407E+03 -0.34443505429E+03  0.14435447641E+03  0.42969890291E+03  0.25500000000E-02 0. -1.
<mgrwt>
<rscale>  0 0.40217884E+03</rscale>
<asrwt>0</asrwt>
<pdfrwt beam="1">  1       11 0.10000000E+01 0.16594796E+02</pdfrwt>
<pdfrwt beam="2">  1        2 0.31235513E-01 0.40217884E+03</pdfrwt>
<totfact> 0.20863117E+02</totfact>
</mgrwt>
</event>
<event>
 5    1  0.2968854E-003  0.1239796E+03  0.7818608E-02  0.1236673E+00
         11   -1    0    0    0    0  0.00000000000E+00  0.00000000000E+00  0.99985684474E+03  0.99985684474E+03  0.51100000000E-03 0. -1.
          2   -1    0    0  501    0 -0.00000000000E+00 -0.00000000000E+00 -0.73446050674E+02  0.73446050719E+02  0.25500000000E-02 0.  1.
         11    1    1    2    0    0  0.38231074113E+02  0.74906924244E+02  0.46770949174E+03  0.47521030186E+03  0.51100000000E-03 0. -1.
         22    1    1    2    0    0  0.81666691182E+02 -0.11157799809E+03  0.45184119774E+03  0.47252467245E+03  0.00000000000E+00 0.  1.
          2    1    1    2  501    0 -0.11989776530E+03  0.36671073841E+02  0.68601045867E+01  0.12556792115E+03  0.25500000000E-02 0.  1.
<mgrwt>
<rscale>  0 0.12397960E+03</rscale>
<asrwt>0</asrwt>
<pdfrwt beam="1">  1       11 0.10000000E+01 0.84099122E+02</pdfrwt>
<pdfrwt beam="2">  1        2 0.11297775E-01 0.12397960E+03</pdfrwt>
<totfact> 0.65243057E+02</totfact>
</mgrwt>
</event>
<event>
 5    1  0.2968854E-003  0.9288694E+02  0.7818608E-02  0.1299768E+00
         11   -1    0    0    0    0  0.00000000000E+00  0.00000000000E+00  0.10003639200E+04  0.10003639200E+04  0.51100000000E-03 0. -1.
          2   -1    0    0  501    0 -0.00000000000E+00 -0.00000000000E+00 -0.84848855511E+01  0.84848859342E+01  0.25500000000E-02 0. -1.
         11    1    1    2    0    0 -0.15239981154E+02  0.77915295664E+02  0.45802652870E+03  0.46485626953E+03  0.51100000000E-03 0. -1.
         22    1    1    2    0    0  0.35396532111E+01  0.12617216118E+02  0.57809247426E+02  0.59275900460E+02  0.00000000000E+00 0. -1.
          2    1    1    2  501    0  0.11700327943E+02 -0.90532511782E+02  0.47604325829E+03  0.48471663592E+03  0.25500000000E-02 0. -1.
<mgrwt>
<rscale>  0 0.91285450E+02</rscale>
<asrwt>0</asrwt>
<pdfrwt beam="1">  1       11 0.10000000E+01 0.92886940E+02</pdfrwt>
<pdfrwt beam="2">  1        2 0.13058420E-02 0.91285450E+02</pdfrwt>
<totfact> 0.10610652E+04</totfact>
</mgrwt>
</event>
<event>
 5    1  0.2968854E-003  0.1000316E+03  0.7818608E-02  0.1280229E+00
         11   -1    0    0    0    0  0.00000000000E+00  0.00000000000E+00  0.10003044683E+04  0.10003044683E+04  0.51100000000E-03 0. -1.
          2   -1    0    0  501    0 -0.00000000000E+00 -0.00000000000E+00 -0.56732259129E+02  0.56732259186E+02  0.25500000000E-02 0. -1.
         11    1    1    2    0    0 -0.54612193525E+02  0.19940173776E+02 -0.19025208828E+02  0.61172385788E+02  0.51100000000E-03 0. -1.
         22    1    1    2    0    0 -0.77387634138E+02  0.42587588527E+02  0.18931261192E+03  0.20890623171E+03  0.00000000000E+00 0. -1.
          2    1    1    2  501    0  0.13199982766E+03 -0.62527762303E+02  0.77328480610E+03  0.78695811001E+03  0.25500000000E-02 0. -1.
<mgrwt>
<rscale>  0 0.10003164E+03</rscale>
<asrwt>0</asrwt>
<pdfrwt beam="1">  1       11 0.10000000E+01 0.58138676E+02</pdfrwt>
<pdfrwt beam="2">  1        2 0.87306970E-02 0.10003164E+03</pdfrwt>
<totfact> 0.88214876E+02</totfact>
</mgrwt>
</event>
<event>
 5    1  0.2968854E-003  0.1859898E+03  0.7818608E-02  0.1162129E+00
         11   -1    0    0    0    0  0.00000000000E+00  0.00000000000E+00  0.10002031736E+04  0.10002031736E+04  0.51100000000E-03 0. -1.
          2   -1    0    0  501    0 -0.00000000000E+00 -0.00000000000E+00 -0.14624848176E+03  0.14624848179E+03  0.25500000000E-02 0. -1.
         11    1    1    2    0    0 -0.11517803136E+03 -0.20387094918E+02  0.13902507272E+03  0.18168539675E+03  0.51100000000E-03 0. -1.
         22    1    1    2    0    0  0.37159696930E+01  0.17488570043E+03  0.75080144969E+03  0.77090961436E+03  0.00000000000E+00 0. -1.
          2    1    1    2  501    0  0.11146206166E+03 -0.15449860551E+03 -0.35871830578E+02  0.19385664428E+03  0.25500000000E-02 0. -1.
<mgrwt>
<rscale>  0 0.18598979E+03</rscale>
<asrwt>0</asrwt>
<pdfrwt beam="1">  1       11 0.10000000E+01 0.11696843E+03</pdfrwt>
<pdfrwt beam="2">  1        2 0.22504337E-01 0.18598979E+03</pdfrwt>
<totfact> 0.29683712E+02</totfact>
</mgrwt>
</event>
<event>
 5    1  0.2968854E-003  0.9703234E+02  0.7818608E-02  0.1293851E+00
         11   -1    0    0    0    0  0.00000000000E+00  0.00000000000E+00  0.10001291536E+04  0.10001291536E+04  0.51100000000E-03 0.  1.
          2   -1    0    0  501    0 -0.00000000000E+00 -0.00000000000E+00 -0.93632323724E+01  0.93632327196E+01  0.25500000000E-02 0.  1.
         11    1    1    2    0    0 -0.43900458454E+02  0.72176530865E+02  0.35777257847E+03  0.36761109853E+03  0.51100000000E-03 0.  1.
         22    1    1    2    0    0 -0.12002330762E+02  0.31726145591E+01  0.61932341367E+02  0.63164359682E+02  0.00000000000E+00 0.  1.
          2    1    1    2  501    0  0.55902789216E+02 -0.75349145424E+02  0.57106100143E+03  0.57871692814E+03  0.25500000000E-02 0.  1.
<mgrwt>
<rscale>  0 0.93822255E+02</rscale>
<asrwt>0</asrwt>
<pdfrwt beam="1">  1       11 0.10000000E+01 0.97032343E+02</pdfrwt>
<pdfrwt beam="2">  1        2 0.14406833E-02 0.93822255E+02</pdfrwt>
<totfact> 0.93178011E+03</totfact>
</mgrwt>
</event>
<event>
 5    1  0.2968854E-003  0.1405478E+03  0.7818608E-02  0.1594406E+00
         11   -1    0    0    0    0  0.00000000000E+00  0.00000000000E+00  0.10000743286E+04  0.10000743286E+04  0.51100000000E-03 0.  1.
          2   -1    0    0  501    0 -0.00000000000E+00 -0.00000000000E+00 -0.63544168430E+03  0.63544168431E+03  0.25500000000E-02 0. -1.
         11    1    1    2    0    0 -0.13495982966E+03 -0.63014013935E+02  0.78886233667E+03  0.80280054048E+03  0.51100000000E-03 0.  1.
         22    1    1    2    0    0  0.11102874149E+03  0.44370848902E+02  0.18633502869E+03  0.22139759842E+03  0.00000000000E+00 0.  1.
          2    1    1    2  501    0  0.23931088161E+02  0.18643165033E+02 -0.61056472101E+03  0.61131787405E+03  0.25500000000E-02 0. -1.
<mgrwt>
<rscale>  0 0.30335863E+02</rscale>
<asrwt>0</asrwt>
<pdfrwt beam="1">  1       11 0.10000000E+01 0.14054780E+03</pdfrwt>
<pdfrwt beam="2">  1        2 0.97767523E-01 0.30335863E+02</pdfrwt>
<totfact> 0.62107276E+01</totfact>
</mgrwt>
</event>
<event>
 5    1  0.2968854E-003  0.2250303E+02  0.7818608E-02  0.1699695E+00
         11   -1    0    0    0    0  0.00000000000E+00  0.00000000000E+00  0.10001800647E+04  0.10001800647E+04  0.51100000000E-03 0.  1.
          2   -1    0    0  501    0 -0.00000000000E+00 -0.00000000000E+00 -0.27456684899E+01  0.27456696740E+01  0.25500000000E-02 0.  1.
         11    1    1    2    0    0  0.17346920486E+02 -0.75712065359E-01  0.59329509571E+02  0.61813526747E+02  0.51100000000E-03 0.  1.
         22    1    1    2    0    0  0.44515690382E+01 -0.21598735364E+02  0.98231855244E+02  0.10067680577E+03  0.00000000000E+00 0.  1.
          2    1    1    2  501    0 -0.21798489524E+02  0.21674447429E+02  0.83987303141E+03  0.84043540187E+03  0.25500000000E-02 0.  1.
<mgrwt>
<rscale>  0 0.22503034E+02</rscale>
<asrwt>0</asrwt>
<pdfrwt beam="1">  1       11 0.10000000E+01 0.17347094E+02</pdfrwt>
<pdfrwt beam="2">  1        2 0.42248668E-03 0.22503034E+02</pdfrwt>
<totfact> 0.36164007E+04</totfact>
</mgrwt>
</event>
<event>
 5    1  0.2968854E-003  0.1275519E+03  0.7818608E-02  0.1233567E+00
         11   -1    0    0    0    0  0.00000000000E+00  0.00000000000E+00  0.10004426835E+04  0.10004426835E+04  0.51100000000E-03 0. -1.
         -2   -1    0    0    0  501 -0.00000000000E+00 -0.00000000000E+00 -0.21642102160E+02  0.21642102310E+02  0.25500000000E-02 0. -1.
         11    1    1    2    0    0 -0.50924820376E+01  0.93934197045E+01  0.56014312129E+02  0.57024318239E+02  0.51100000000E-03 0. -1.
         22    1    1    2    0    0  0.74846315080E+01  0.11655017174E+03  0.69517716121E+03  0.70491932000E+03  0.00000000000E+00 0. -1.
         -2    1    1    2    0  501 -0.23921494704E+01 -0.12594359145E+03  0.22760910796E+03  0.26014114753E+03  0.25500000000E-02 0. -1.
<mgrwt>
<rscale>  0 0.12596631E+03</rscale>
<asrwt>0</asrwt>
<pdfrwt beam="1">  1       11 0.10000000E+01 0.12755186E+03</pdfrwt>
<pdfrwt beam="2">  1       -2 0.33310280E-02 0.12596631E+03</pdfrwt>
<totfact> 0.26822524E+03</totfact>
</mgrwt>
</event>
<event>
 5    1  0.2968854E-003  0.4352666E+02  0.7818608E-02  0.1654358E+00
         11   -1    0    0    0    0  0.00000000000E+00  0.00000000000E+00  0.10002519481E+04  0.10002519481E+04  0.51100000000E-03 0.  1.
          2   -1    0    0  501    0 -0.00000000000E+00 -0.00000000000E+00 -0.77883690437E+01  0.77883694612E+01  0.25500000000E-02 0.  1.
         11    1    1    2    0    0  0.29200427565E+01  0.56728456584E+02  0.19948725954E+03  0.20741699823E+03  0.51100000000E-03 0.  1.
         22    1    1    2    0    0 -0.39010226590E+01 -0.31278563178E+02  0.65383771531E+02  0.72585150492E+02  0.00000000000E+00 0.  1.
          2    1    1    2  501    0  0.98097990248E+00 -0.25449893406E+02  0.72759254797E+03  0.72803816882E+03  0.25500000000E-02 0.  1.
<mgrwt>
<rscale>  0 0.25468793E+02</rscale>
<asrwt>0</asrwt>
<pdfrwt beam="1">  1       11 0.10000000E+01 0.43526659E+02</pdfrwt>
<pdfrwt beam="2">  1        2 0.11985125E-02 0.25468793E+02</pdfrwt>
<totfact> 0.95071222E+03</totfact>
</mgrwt>
</event>
<event>
 5    1  0.2968854E-003  0.1527887E+03  0.7818608E-02  0.1197088E+00
         11   -1    0    0    0    0  0.00000000000E+00  0.00000000000E+00  0.10005355786E+04  0.10005355786E+04  0.51100000000E-03 0.  1.
          2   -1    0    0  501    0 -0.00000000000E+00 -0.00000000000E+00 -0.11775510558E+03  0.11775510560E+03  0.25500000000E-02 0.  1.
         11    1    1    2    0    0 -0.10183497666E+02  0.14603425865E+03  0.88276467298E+03  0.89482019210E+03  0.51100000000E-03 0.  1.
         22    1    1    2    0    0  0.20952877095E+02  0.68427657638E+01  0.56100045166E+02  0.60274883405E+02  0.00000000000E+00 0.  1.
          2    1    1    2  501    0 -0.10769379429E+02 -0.15287702442E+03 -0.56084245155E+02  0.16319560867E+03  0.25500000000E-02 0.  1.
<mgrwt>
<rscale>  0 0.15278868E+03</rscale>
<asrwt>0</asrwt>
<pdfrwt beam="1">  1       11 0.10000000E+01 0.22041926E+02</pdfrwt>
<pdfrwt beam="2">  1        2 0.18125872E-01 0.15278868E+03</pdfrwt>
<totfact> 0.37733484E+02</totfact>
</mgrwt>
</event>
<event>
 5    1  0.2968854E-003  0.1773130E+03  0.7818608E-02  0.1183469E+00
         11   -1    0    0    0    0  0.00000000000E+00  0.00000000000E+00  0.99992317488E+03  0.99992317488E+03  0.51100000000E-03 0.  1.
          2   -1    0    0  501    0 -0.00000000000E+00 -0.00000000000E+00 -0.29302896054E+02  0.29302896165E+02  0.25500000000E-02 0.  1.
         11    1    1    2    0    0  0.30283845903E+02  0.88840748661E+02  0.19267998213E+03  0.21432537288E+03  0.51100000000E-03 0.  1.
         22    1    1    2    0    0  0.26380032406E+02  0.65826357327E+02  0.33253908865E+03  0.34001655975E+03  0.00000000000E+00 0.  1.
          2    1    1    2  501    0 -0.56663878309E+02 -0.15466710599E+03  0.44540120805E+03  0.47488413842E+03  0.25500000000E-02 0.  1.
<mgrwt>
<rscale>  0 0.16472009E+03</rscale>
<asrwt>0</asrwt>
<pdfrwt beam="1">  1       11 0.10000000E+01 0.17731302E+03</pdfrwt>
<pdfrwt beam="2">  1        2 0.45077914E-02 0.16472009E+03</pdfrwt>
<totfact> 0.21335567E+03</totfact>
</mgrwt>
</event>
<event>
 5    1  0.2968854E-003  0.1126437E+03  0.7818608E-02  0.1255751E+00
         11   -1    0    0    0    0  0.00000000000E+00  0.00000000000E+00  0.10002728766E+04  0.10002728766E+04  0.51100000000E-03 0.  1.
          2   -1    0    0  501    0 -0.00000000000E+00 -0.00000000000E+00 -0.42486895572E+03  0.42486895573E+03  0.25500000000E-02 0.  1.
         11    1    1    2    0    0  0.65279591085E+02  0.10595283534E+03  0.52220945046E+03  0.53683343644E+03  0.51100000000E-03 0.  1.
         22    1    1    2    0    0  0.40292852958E+02 -0.66100959164E+02  0.45983255511E+03  0.46630336643E+03  0.00000000000E+00 0.  1.
          2    1    1    2  501    0 -0.10557244404E+03 -0.39851876176E+02 -0.40663808468E+03  0.42200502947E+03  0.25500000000E-02 0.  1.
<mgrwt>
<rscale>  0 0.11264373E+03</rscale>
<asrwt>0</asrwt>
<pdfrwt beam="1">  1       11 0.10000000E+01 0.77413505E+02</pdfrwt>
<pdfrwt beam="2">  1        2 0.65382289E-01 0.11264373E+03</pdfrwt>
<totfact> 0.93630386E+01</totfact>
</mgrwt>
</event>
<event>
 5    1  0.2968854E-003  0.5890077E+02  0.7818608E-02  0.1407733E+00
         11   -1    0    0    0    0  0.00000000000E+00  0.00000000000E+00  0.10000997242E+04  0.10000997242E+04  0.51100000000E-03 0. -1.
         -2   -1    0    0    0  501 -0.00000000000E+00 -0.00000000000E+00 -0.41586650202E+01  0.41586658020E+01  0.25500000000E-02 0. -1.
         11    1    1    2    0    0 -0.36579730361E+02 -0.28759625401E+02  0.24948746455E+03  0.25378965246E+03  0.51100000000E-03 0. -1.
         22    1    1    2    0    0 -0.72116634743E+01 -0.88159947453E+01  0.38029741380E+02  0.39698754172E+02  0.00000000000E+00 0.  1.
         -2    1    1    2    0  501  0.43791393836E+02  0.37575620146E+02  0.70842385323E+03  0.71076998335E+03  0.25500000000E-02 0. -1.
<mgrwt>
<rscale>  0 0.57702802E+02</rscale>
<asrwt>0</asrwt>
<pdfrwt beam="1">  1       11 0.10000000E+01 0.58900774E+02</pdfrwt>
<pdfrwt beam="2">  1       -2 0.63985846E-03 0.57702802E+02</pdfrwt>
<totfact> 0.25050914E+04</totfact>
</mgrwt>
</event>
<event>
 5    1  0.2968854E-003  0.2725470E+02  0.7818608E-02  0.1734373E+00
         11   -1    0    0    0    0  0.00000000000E+00  0.00000000000E+00  0.10001548441E+04  0.10001548441E+04  0.51100000000E-03 0.  1.
          2   -1    0    0  501    0 -0.00000000000E+00 -0.00000000000E+00 -0.57554286574E+01  0.57554292223E+01  0.25500000000E-02 0.  1.
         11    1    1    2    0    0 -0.14362517822E+02 -0.87877077976E+01  0.11218311972E+02  0.20232554221E+02  0.51100000000E-03 0.  1.
         22    1    1    2    0    0  0.75544650386E+00 -0.15494754271E+02  0.56852867214E+02  0.58931372119E+02  0.00000000000E+00 0.  1.
          2    1    1    2  501    0  0.13607071318E+02  0.24282462069E+02  0.92632823621E+03  0.92674634694E+03  0.25500000000E-02 0.  1.
<mgrwt>
<rscale>  0 0.20562256E+02</rscale>
<asrwt>0</asrwt>
<pdfrwt beam="1">  1       11 0.10000000E+01 0.27254705E+02</pdfrwt>
<pdfrwt beam="2">  1        2 0.88558769E-03 0.20562256E+02</pdfrwt>
<totfact> 0.13435578E+04</totfact>
</mgrwt>
</event>
<event>
 5    1  0.2968854E-003  0.1996767E+03  0.7818608E-02  0.1150012E+00
         11   -1    0    0    0    0  0.00000000000E+00  0.00000000000E+00  0.99990185951E+03  0.99990185951E+03  0.51100000000E-03 0. -1.
          2   -1    0    0  501    0 -0.00000000000E+00 -0.00000000000E+00 -0.48780258940E+03  0.48780258941E+03  0.25500000000E-02 0. -1.
         11    1    1    2    0    0 -0.57408177747E+02 -0.15998542303E+03  0.85726256998E+03  0.87395088440E+03  0.51100000000E-03 0. -1.
         22    1    1    2    0    0  0.23661369917E+02 -0.37618385981E+02  0.10878503106E+03  0.11751249454E+03  0.00000000000E+00 0. -1.
          2    1    1    2  501    0  0.33746807830E+02  0.19760380901E+03 -0.45394833093E+03  0.49624106998E+03  0.25500000000E-02 0. -1.
<mgrwt>
<rscale>  0 0.19967670E+03</rscale>
<asrwt>0</asrwt>
<pdfrwt beam="1">  1       11 0.10000000E+01 0.44441010E+02</pdfrwt>
<pdfrwt beam="2">  1        2 0.75039185E-01 0.19967670E+03</pdfrwt>
<totfact> 0.80088388E+01</totfact>
</mgrwt>
</event>
<event>
 5    1  0.2968854E-003  0.5938804E+02  0.7818608E-02  0.1413533E+00
         11   -1    0    0    0    0  0.00000000000E+00  0.00000000000E+00  0.10001376425E+04  0.10001376425E+04  0.51100000000E-03 0. -1.
          2   -1    0    0  501    0 -0.00000000000E+00 -0.00000000000E+00 -0.77955043433E+01  0.77955047603E+01  0.25500000000E-02 0. -1.
         11    1    1    2    0    0 -0.33779432171E+02 -0.21122978953E+02  0.65461219517E+02  0.76631596216E+02  0.51100000000E-03 0. -1.
         22    1    1    2    0    0 -0.10896843989E+02 -0.13321972991E+02  0.55756094359E+02  0.58352019943E+02  0.00000000000E+00 0. -1.
          2    1    1    2  501    0  0.44676276160E+02  0.34444951944E+02  0.87112482427E+03  0.87294953109E+03  0.25500000000E-02 0. -1.
<mgrwt>
<rscale>  0 0.56412981E+02</rscale>
<asrwt>0</asrwt>
<pdfrwt beam="1">  1       11 0.10000000E+01 0.59388041E+02</pdfrwt>
<pdfrwt beam="2">  1        2 0.11994734E-02 0.56412981E+02</pdfrwt>
<totfact> 0.11031651E+04</totfact>
</mgrwt>
</event>
<event>
 5    1  0.2968854E-003  0.4830577E+03  0.7818608E-02  0.1022675E+00
         11   -1    0    0    0    0  0.00000000000E+00  0.00000000000E+00  0.10002525034E+04  0.10002525034E+04  0.51100000000E-03 0. -1.
          2   -1    0    0  501    0 -0.00000000000E+00 -0.00000000000E+00 -0.68691149012E+03  0.68691149012E+03  0.25500000000E-02 0. -1.
         11    1    1    2    0    0  0.84415809040E+02  0.25145648938E+03  0.37244831434E+03  0.45724625939E+03  0.51100000000E-03 0. -1.
         22    1    1    2    0    0  0.67390484296E+01  0.20690277481E+03  0.47623884778E+03  0.51928567584E+03  0.00000000000E+00 0. -1.
          2    1    1    2  501    0 -0.91154857470E+02 -0.45835926419E+03 -0.53534614887E+03  0.71063205826E+03  0.25500000000E-02 0. -1.
<mgrwt>
<rscale>  0 0.46733545E+03</rscale>
<asrwt>0</asrwt>
<pdfrwt beam="1">  1       11 0.10000000E+01 0.48305768E+03</pdfrwt>
<pdfrwt beam="2">  1        2 0.10570537E+00 0.46733545E+03</pdfrwt>
<totfact> 0.52717097E+01</totfact>
</mgrwt>
</event>
<event>
 5    1  0.2968854E-003  0.2039114E+03  0.7818608E-02  0.1164623E+00
         11   -1    0    0    0    0  0.00000000000E+00  0.00000000000E+00  0.10003522603E+04  0.10003522603E+04  0.51100000000E-03 0. -1.
         -2   -1    0    0    0  501 -0.00000000000E+00 -0.00000000000E+00 -0.40921860870E+02  0.40921860949E+02  0.25500000000E-02 0.  1.
         11    1    1    2    0    0  0.85440454805E+02  0.51125954409E+02  0.20215384277E+03  0.22534442677E+03  0.51100000000E-03 0. -1.
         22    1    1    2    0    0  0.62660039926E+02  0.56922316901E+02  0.45182413609E+03  0.45968628511E+03  0.00000000000E+00 0. -1.
         -2    1    1    2    0  501 -0.14810049473E+03 -0.10804827131E+03  0.30545242053E+03  0.35624340933E+03  0.25500000000E-02 0.  1.
<mgrwt>
<rscale>  0 0.18332535E+03</rscale>
<asrwt>0</asrwt>
<pdfrwt beam="1">  1       11 0.10000000E+01 0.20391145E+03</pdfrwt>
<pdfrwt beam="2">  1       -2 0.62978884E-02 0.18332535E+03</pdfrwt>
<totfact> 0.10663557E+03</totfact>
</mgrwt>
</event>
<event>
 5    1  0.2968854E-003  0.3817870E+03  0.7818608E-02  0.1051523E+00
         11   -1    0    0    0    0  0.00000000000E+00  0.00000000000E+00  0.10002374834E+04  0.10002374834E+04  0.51100000000E-03 0. -1.
          2   -1    0    0  501    0 -0.00000000000E+00 -0.00000000000E+00 -0.15313764139E+03  0.15313764141E+03  0.25500000000E-02 0. -1.
         11    1    1    2    0    0 -0.33551667295E+03  0.14845223785E+03  0.55323942674E+03  0.66383986627E+03  0.51100000000E-03 0. -1.
         22    1    1    2    0    0 -0.79121910501E+01  0.10453806284E+02  0.95135043214E+01  0.16198506027E+02  0.00000000000E+00 0. -1.
          2    1    1    2  501    0  0.34342886400E+03 -0.15890604413E+03  0.28434691092E+03  0.47333675248E+03  0.25500000000E-02 0. -1.
<mgrwt>
<rscale>  0 0.37841051E+03</rscale>
<asrwt>0</asrwt>
<pdfrwt beam="1">  1       11 0.10000000E+01 0.38178702E+03</pdfrwt>
<pdfrwt beam="2">  1        2 0.23565231E-01 0.37841051E+03</pdfrwt>
<totfact> 0.28625099E+02</totfact>
</mgrwt>
</event>
<event>
 5    1  0.2968854E-003  0.5269493E+03  0.7818608E-02  0.1007900E+00
         11   -1    0    0    0    0  0.00000000000E+00  0.00000000000E+00  0.10002105882E+04  0.10002105882E+04  0.51100000000E-03 0. -1.
         -2   -1    0    0    0  501 -0.00000000000E+00 -0.00000000000E+00 -0.44101675031E+03  0.44101675032E+03  0.25500000000E-02 0.  1.
         11    1    1    2    0    0 -0.47337078649E+03 -0.13092066806E+03  0.67744538474E+03  0.83675108134E+03  0.51100000000E-03 0. -1.
         22    1    1    2    0    0 -0.26317075610E+02 -0.24092273790E+02  0.44062061397E+02  0.56696484720E+02  0.00000000000E+00 0.  1.
         -2    1    1    2    0  501  0.49968786210E+03  0.15501294185E+03 -0.16231360826E+03  0.54777977245E+03  0.25500000000E-02 0.  1.
<mgrwt>
<rscale>  0 0.52317967E+03</rscale>
<asrwt>0</asrwt>
<pdfrwt beam="1">  1       11 0.10000000E+01 0.52694929E+03</pdfrwt>
<pdfrwt beam="2">  1       -2 0.67863017E-01 0.52317967E+03</pdfrwt>
<totfact> 0.16351211E+01</totfact>
</mgrwt>
</event>
<event>
 5    1  0.2968854E-003  0.1631516E+03  0.7818608E-02  0.1242009E+00
         11   -1    0    0    0    0  0.00000000000E+00  0.00000000000E+00  0.99999472730E+03  0.99999472730E+03  0.51100000000E-03 0.  1.
          2   -1    0    0  501    0 -0.00000000000E+00 -0.00000000000E+00 -0.31207805561E+03  0.31207805562E+03  0.25500000000E-02 0.  1.
         11    1    1    2    0    0  0.12926398374E+03 -0.10966815519E+03  0.14654336418E+03  0.22407864543E+03  0.51100000000E-03 0.  1.
         22    1    1    2    0    0 -0.16987245664E+03 -0.39552088661E+01  0.79189972318E+03  0.80992435868E+03  0.00000000000E+00 0.  1.
          2    1    1    2  501    0  0.40608472905E+02  0.11362336406E+03 -0.25052641568E+03  0.27806977881E+03  0.25500000000E-02 0.  1.
<mgrwt>
<rscale>  0 0.12066199E+03</rscale>
<asrwt>0</asrwt>
<pdfrwt beam="1">  1       11 0.10000000E+01 0.16315157E+03</pdfrwt>
<pdfrwt beam="2">  1        2 0.48011754E-01 0.12066199E+03</pdfrwt>
<totfact> 0.12983119E+02</totfact>
</mgrwt>
</event>
<event>
 5    1  0.2968854E-003  0.2057863E+03  0.7818608E-02  0.1494772E+00
         11   -1    0    0    0    0  0.00000000000E+00  0.00000000000E+00  0.10002866355E+04  0.10002866355E+04  0.51100000000E-03 0.  1.
          2   -1    0    0  501    0 -0.00000000000E+00 -0.00000000000E+00 -0.16799404569E+03  0.16799404571E+03  0.25500000000E-02 0. -1.
         11    1    1    2    0    0 -0.13260277157E+03  0.13353618279E+03  0.28844394525E+03  0.34440574428E+03  0.51100000000E-03 0.  1.
         22    1    1    2    0    0  0.17434982554E+03 -0.13012350532E+03  0.66289130202E+03  0.69767819702E+03  0.00000000000E+00 0.  1.
          2    1    1    2  501    0 -0.41747053971E+02 -0.34126774736E+01 -0.11904265742E+03  0.12619673995E+03  0.25500000000E-02 0. -1.
<mgrwt>
<rscale>  0 0.41886309E+02</rscale>
<asrwt>0</asrwt>
<pdfrwt beam="1">  1       11 0.10000000E+01 0.20578632E+03</pdfrwt>
<pdfrwt beam="2">  1        2 0.25852645E-01 0.41886309E+02</pdfrwt>
<totfact> 0.24348921E+02</totfact>
</mgrwt>
</event>
<event>
 5    1  0.2968854E-003  0.1521288E+03  0.7818608E-02  0.1197881E+00
         11   -1    0    0    0    0  0.00000000000E+00  0.00000000000E+00  0.10003422677E+04  0.10003422677E+04  0.51100000000E-03 0.  1.
          2   -1    0    0  501    0 -0.00000000000E+00 -0.00000000000E+00 -0.34249714384E+03  0.34249714385E+03  0.25500000000E-02 0.  1.
         11    1    1    2    0    0  0.86429624291E+02 -0.13773637100E+02  0.40015353481E+03  0.40961279821E+03  0.51100000000E-03 0.  1.
         22    1    1    2    0    0  0.29346392238E+02  0.11500547554E+03  0.57153409737E+03  0.58372827120E+03  0.00000000000E+00 0.  1.
          2    1    1    2  501    0 -0.11577601653E+03 -0.10123183844E+03 -0.31384250833E+03  0.34949834214E+03  0.25500000000E-02 0.  1.
<mgrwt>
<rscale>  0 0.15212875E+03</rscale>
<asrwt>0</asrwt>
<pdfrwt beam="1">  1       11 0.10000000E+01 0.87520244E+02</pdfrwt>
<pdfrwt beam="2">  1        2 0.52709901E-01 0.15212875E+03</pdfrwt>
<totfact> 0.11764015E+02</totfact>
</mgrwt>
</event>
<event>
 5    1  0.2968854E-003  0.1637496E+03  0.7818608E-02  0.1455675E+00
         11   -1    0    0    0    0  0.00000000000E+00  0.00000000000E+00  0.10004782815E+04  0.10004782815E+04  0.51100000000E-03 0.  1.
         -2   -1    0    0    0  501 -0.00000000000E+00 -0.00000000000E+00 -0.21163174153E+03  0.21163174154E+03  0.25500000000E-02 0. -1.
         11    1    1    2    0    0  0.11615938786E+03  0.11544638396E+03  0.95451275371E+03  0.96846035952E+03  0.51100000000E-03 0.  1.
         22    1    1    2    0    0 -0.10409339587E+02  0.95830095205E+01 -0.76363527068E+01  0.16078006866E+02  0.00000000000E+00 0. -1.
         -2    1    1    2    0  501 -0.10575004827E+03 -0.12502939348E+03 -0.15802986102E+03  0.22757165668E+03  0.25500000000E-02 0. -1.
<mgrwt>
<rscale>  0 0.48133771E+02</rscale>
<asrwt>0</asrwt>
<pdfrwt beam="1">  1       11 0.10000000E+01 0.16374962E+03</pdfrwt>
<pdfrwt beam="2">  1       -2 0.32574301E-01 0.48133771E+02</pdfrwt>
<totfact> 0.68780157E+01</totfact>
</mgrwt>
</event>
<event>
 5    1  0.2968854E-003  0.1733837E+03  0.7818608E-02  0.1184638E+00
         11   -1    0    0    0    0  0.00000000000E+00  0.00000000000E+00  0.10000226252E+04  0.10000226252E+04  0.51100000000E-03 0. -1.
          2   -1    0    0  501    0 -0.00000000000E+00 -0.00000000000E+00 -0.30818393412E+02  0.30818393518E+02  0.25500000000E-02 0. -1.
         11    1    1    2    0    0 -0.10665403222E+03 -0.58645491222E+02  0.37940630946E+03  0.39845140718E+03  0.51100000000E-03 0. -1.
         22    1    1    2    0    0 -0.25326939895E+02 -0.38111557280E+02  0.26250992879E+03  0.26646839849E+03  0.00000000000E+00 0.  1.
          2    1    1    2  501    0  0.13198097211E+03  0.96757048502E+02  0.32728799357E+03  0.36592121307E+03  0.25500000000E-02 0. -1.
<mgrwt>
<rscale>  0 0.16364872E+03</rscale>
<asrwt>0</asrwt>
<pdfrwt beam="1">  1       11 0.10000000E+01 0.17338365E+03</pdfrwt>
<pdfrwt beam="2">  1        2 0.47413984E-02 0.16364872E+03</pdfrwt>
<totfact> 0.19949005E+03</totfact>
</mgrwt>
</event>
<event>
 5    1  0.2968854E-003  0.2216873E+03  0.7818608E-02  0.1260590E+00
         11   -1    0    0    0    0  0.00000000000E+00  0.00000000000E+00  0.10001397907E+04  0.10001397907E+04  0.51100000000E-03 0. -1.
          2   -1    0    0  501    0 -0.00000000000E+00 -0.00000000000E+00 -0.18965656969E+03  0.18965656970E+03  0.25500000000E-02 0. -1.
         11    1    1    2    0    0  0.19345186554E+03 -0.15932214614E+03  0.75078169406E+03  0.79150509958E+03  0.51100000000E-03 0. -1.
         22    1    1    2    0    0 -0.16949992230E+03  0.51972701514E+02  0.16777643091E+03  0.24409079485E+03  0.00000000000E+00 0.  1.
          2    1    1    2  501    0 -0.23951943240E+02  0.10734944463E+03 -0.10807490393E+03  0.15420046600E+03  0.25500000000E-02 0. -1.
<mgrwt>
<rscale>  0 0.10998909E+03</rscale>
<asrwt>0</asrwt>
<pdfrwt beam="1">  1       11 0.10000000E+01 0.22168732E+03</pdfrwt>
<pdfrwt beam="2">  1        2 0.29182012E-01 0.10998909E+03</pdfrwt>
<totfact> 0.22013488E+02</totfact>
</mgrwt>
</event>
<event>
 5    1  0.2968854E-003  0.2408844E+03  0.7818608E-02  0.1129129E+00
         11   -1    0    0    0    0  0.00000000000E+00  0.00000000000E+00  0.10002213530E+04  0.10002213530E+04  0.51100000000E-03 0.  1.
          2   -1    0    0  501    0 -0.00000000000E+00 -0.00000000000E+00 -0.18869176793E+03  0.18869176795E+03  0.25500000000E-02 0.  1.
         11    1    1    2    0    0  0.39152954113E+02  0.21490901831E+03  0.45812206188E+03  0.50753784445E+03  0.51100000000E-03 0.  1.
         22    1    1    2    0    0 -0.17530624838E+03  0.12093356776E+03  0.80347516441E+02  0.22762454158E+03  0.00000000000E+00 0.  1.
          2    1    1    2  501    0  0.13615329427E+03 -0.33584258607E+03  0.27306000679E+03  0.45375073495E+03  0.25500000000E-02 0.  1.
<mgrwt>
<rscale>  0 0.22649882E+03</rscale>
<asrwt>0</asrwt>
<pdfrwt beam="1">  1       11 0.10000000E+01 0.24088442E+03</pdfrwt>
<pdfrwt beam="2">  1        2 0.29035928E-01 0.22649882E+03</pdfrwt>
<totfact> 0.22442897E+02</totfact>
</mgrwt>
</event>
<event>
 5    1  0.2968854E-003  0.2937194E+03  0.7818608E-02  0.1088423E+00
         11   -1    0    0    0    0  0.00000000000E+00  0.00000000000E+00  0.10000196593E+04  0.10000196593E+04  0.51100000000E-03 0.  1.
          2   -1    0    0  501    0 -0.00000000000E+00 -0.00000000000E+00 -0.83906878280E+03  0.83906878281E+03  0.25500000000E-02 0.  1.
         11    1    1    2    0    0  0.16686451665E+03  0.23184170706E+03  0.46801193728E+03  0.54829692457E+03  0.51100000000E-03 0.  1.
         22    1    1    2    0    0  0.89678440395E+02 -0.85214815710E+02  0.45601725965E+03  0.47249923660E+03  0.00000000000E+00 0.  1.
          2    1    1    2  501    0 -0.25654295705E+03 -0.14662689135E+03 -0.76307832039E+03  0.81829228099E+03  0.25500000000E-02 0.  1.
<mgrwt>
<rscale>  0 0.29371938E+03</rscale>
<asrwt>0</asrwt>
<pdfrwt beam="1">  1       11 0.10000000E+01 0.12370848E+03</pdfrwt>
<pdfrwt beam="2">  1        2 0.12909004E+00 0.29371938E+03</pdfrwt>
<totfact> 0.41545313E+01</totfact>
</mgrwt>
</event>
<event>
 5    1  0.2968854E-003  0.1696450E+03  0.7818608E-02  0.1178219E+00
         11   -1    0    0    0    0  0.00000000000E+00  0.00000000000E+00  0.10002545691E+04  0.10002545691E+04  0.51100000000E-03 0. -1.
         -2   -1    0    0    0  501 -0.00000000000E+00 -0.00000000000E+00 -0.16077755366E+03  0.16077755368E+03  0.25500000000E-02 0. -1.
         11    1    1    2    0    0 -0.33172290815E+02  0.26449079387E+02  0.99290747598E+02  0.10797503062E+03  0.51100000000E-03 0. -1.
         22    1    1    2    0    0  0.89022581837E+02  0.13453734701E+03  0.84015143610E+03  0.85549970976E+03  0.00000000000E+00 0. -1.
         -2    1    1    2    0  501 -0.55850291022E+02 -0.16098642639E+03 -0.99965168222E+02  0.19755738243E+03  0.25500000000E-02 0. -1.
<mgrwt>
<rscale>  0 0.16964501E+03</rscale>
<asrwt>0</asrwt>
<pdfrwt beam="1">  1       11 0.10000000E+01 0.42425873E+02</pdfrwt>
<pdfrwt beam="2">  1       -2 0.24741304E-01 0.16964501E+03</pdfrwt>
<totfact> 0.11538485E+02</totfact>
</mgrwt>
</event>
<event>
 5    1  0.2968854E-003  0.3415549E+03  0.7818608E-02  0.1066136E+00
         11   -1    0    0    0    0  0.00000000000E+00  0.00000000000E+00  0.10006144169E+04  0.10006144169E+04  0.51100000000E-03 0. -1.
          2   -1    0    0  501    0 -0.00000000000E+00 -0.00000000000E+00 -0.13086526982E+04  0.13086526982E+04  0.25500000000E-02 0. -1.
         11    1    1    2    0    0  0.32687529783E+03 -0.12454904714E+03  0.82877096398E+03  0.89956724941E+03  0.51100000000E-03 0. -1.
         22    1    1    2    0    0 -0.22308465071E+02 -0.29668742658E+02  0.11047270547E+03  0.11654235521E+03  0.00000000000E+00 0. -1.
          2    1    1    2  501    0 -0.30456683275E+03  0.15421778980E+03 -0.12472819507E+04  0.12931575105E+04  0.25500000000E-02 0. -1.
<mgrwt>
<rscale>  0 0.34155491E+03</rscale>
<asrwt>0</asrwt>
<pdfrwt beam="1">  1       11 0.10000000E+01 0.37120101E+02</pdfrwt>
<pdfrwt beam="2">  1        2 0.20145488E+00 0.34155491E+03</pdfrwt>
<totfact> 0.21404184E+01</totfact>
</mgrwt>
</event>
<event>
 5    1  0.2968854E-003  0.1540736E+03  0.7818608E-02  0.1425174E+00
         11   -1    0    0    0    0  0.00000000000E+00  0.00000000000E+00  0.10002425646E+04  0.10002425646E+04  0.51100000000E-03 0. -1.
          2   -1    0    0  501    0 -0.00000000000E+00 -0.00000000000E+00 -0.26222390138E+03  0.26222390139E+03  0.25500000000E-02 0. -1.
         11    1    1    2    0    0 -0.95272199900E+02  0.90907779979E+02  0.30999560019E+03  0.33680601044E+03  0.51100000000E-03 0. -1.
         22    1    1    2    0    0  0.97447045522E+02 -0.14480500194E+03  0.66247561428E+03  0.68508273572E+03  0.00000000000E+00 0. -1.
          2    1    1    2  501    0 -0.21748456216E+01  0.53897221961E+02 -0.23445255124E+03  0.24057771983E+03  0.25500000000E-02 0. -1.
<mgrwt>
<rscale>  0 0.53941084E+02</rscale>
<asrwt>0</asrwt>
<pdfrwt beam="1">  1       11 0.10000000E+01 0.15407363E+03</pdfrwt>
<pdfrwt beam="2">  1        2 0.40351923E-01 0.53941084E+02</pdfrwt>
<totfact> 0.15434644E+02</totfact>
</mgrwt>
</event>
<event>
 5    1  0.2968854E-003  0.9270448E+02  0.7818608E-02  0.1302872E+00
         11   -1    0    0    0    0  0.00000000000E+00  0.00000000000E+00  0.10003587361E+04  0.10003587361E+04  0.51100000000E-03 0. -1.
          2   -1    0    0  501    0 -0.00000000000E+00 -0.00000000000E+00 -0.15767573694E+02  0.15767573900E+02  0.25500000000E-02 0. -1.
         11    1    1    2    0    0  0.91522369518E+01  0.25391896525E+02  0.34533024260E+02  0.43829688741E+02  0.51100000000E-03 0. -1.
         22    1    1    2    0    0 -0.81230641822E+01  0.64593905441E+02  0.11297931073E+03  0.13039433057E+03  0.00000000000E+00 0. -1.
          2    1    1    2  501    0 -0.10291727696E+01 -0.89985801966E+02  0.83707882736E+03  0.84190229064E+03  0.25500000000E-02 0. -1.
<mgrwt>
<rscale>  0 0.89991687E+02</rscale>
<asrwt>0</asrwt>
<pdfrwt beam="1">  1       11 0.10000000E+01 0.92704476E+02</pdfrwt>
<pdfrwt beam="2">  1        2 0.24266507E-02 0.89991687E+02</pdfrwt>
<totfact> 0.45811958E+03</totfact>
</mgrwt>
</event>
<event>
 5    1  0.2968854E-003  0.3706710E+03  0.7818608E-02  0.1060246E+00
         11   -1    0    0    0    0  0.00000000000E+00  0.00000000000E+00  0.10000593207E+04  0.10000593207E+04  0.51100000000E-03 0. -1.
         -2   -1    0    0    0  501 -0.00000000000E+00 -0.00000000000E+00 -0.19446690290E+03  0.19446690292E+03  0.25500000000E-02 0.  1.
         11    1    1    2    0    0  0.30180897792E+03 -0.12118034952E+03  0.69993294432E+03  0.77180273569E+03  0.51100000000E-03 0. -1.
         22    1    1    2    0    0  0.17054202480E+02 -0.36755373544E+02  0.47054799164E+02  0.62096356020E+02  0.00000000000E+00 0. -1.
         -2    1    1    2    0  501 -0.31886318040E+03  0.15793572307E+03  0.58604674348E+02  0.36062713195E+03  0.25500000000E-02 0.  1.
<mgrwt>
<rscale>  0 0.35583342E+03</rscale>
<asrwt>0</asrwt>
<pdfrwt beam="1">  1       11 0.10000000E+01 0.37067102E+03</pdfrwt>
<pdfrwt beam="2">  1       -2 0.29919759E-01 0.35583342E+03</pdfrwt>
<totfact> 0.83090703E+01</totfact>
</mgrwt>
</event>
<event>
 5    1  0.3536036E-003  0.3621180E+03  0.7818608E-02  0.1059054E+00
         11   -1    0    0    0    0  0.00000000000E+00  0.00000000000E+00  0.10011289438E+04  0.10011289438E+04  0.51100000000E-03 0. -1.
         -2   -1    0    0    0  501 -0.00000000000E+00 -0.00000000000E+00 -0.12286582492E+04  0.12286582492E+04  0.25500000000E-02 0.  1.
         11    1    1    2    0    0  0.26967089909E+03 -0.22391991057E+03  0.91930459685E+03  0.98386150548E+03  0.51100000000E-03 0. -1.
         22    1    1    2    0    0  0.15182320431E+01 -0.11036851381E+02  0.21238995060E+02  0.23983578300E+02  0.00000000000E+00 0. -1.
         -2    1    1    2    0  501 -0.27118913113E+03  0.23495676195E+03 -0.11680728973E+04  0.12219421092E+04  0.25500000000E-02 0.  1.
<mgrwt>
<rscale>  0 0.35881503E+03</rscale>
<asrwt>0</asrwt>
<pdfrwt beam="1">  1       11 0.10000000E+01 0.36211803E+03</pdfrwt>
<pdfrwt beam="2">  1       -2 0.18923774E+00 0.35881503E+03</pdfrwt>
<totfact> 0.13505159E+00</totfact>
</mgrwt>
</event>
<event>
 5    1  0.2968854E-003  0.1199293E+03  0.7818608E-02  0.1371429E+00
         11   -1    0    0    0    0  0.00000000000E+00  0.00000000000E+00  0.10002879428E+04  0.10002879428E+04  0.51100000000E-03 0.  1.
          2   -1    0    0  501    0 -0.00000000000E+00 -0.00000000000E+00 -0.28199806043E+02  0.28199806159E+02  0.25500000000E-02 0.  1.
         11    1    1    2    0    0  0.53504924545E+02  0.89054823990E+02  0.13400372508E+03  0.16955983299E+03  0.51100000000E-03 0.  1.
         22    1    1    2    0    0 -0.19639337234E+02  0.31564658782E+02  0.58305964157E+02  0.69149235045E+02  0.00000000000E+00 0.  1.
          2    1    1    2  501    0 -0.33865587311E+02 -0.12061948277E+03  0.77977844750E+03  0.78977868091E+03  0.25500000000E-02 0.  1.
<mgrwt>
<rscale>  0 0.66771626E+02</rscale>
<asrwt>0</asrwt>
<pdfrwt beam="1">  1       11 0.10000000E+01 0.11992927E+03</pdfrwt>
<pdfrwt beam="2">  1        2 0.43396808E-02 0.66771626E+02</pdfrwt>
<totfact> 0.20615676E+03</totfact>
</mgrwt>
</event>
<event>
 5    1  0.2968854E-003  0.2264628E+03  0.7818608E-02  0.1130825E+00
         11   -1    0    0    0    0  0.00000000000E+00  0.00000000000E+00  0.10004070691E+04  0.10004070691E+04  0.51100000000E-03 0.  1.
          2   -1    0    0  501    0 -0.00000000000E+00 -0.00000000000E+00 -0.32249131398E+03  0.32249131399E+03  0.25500000000E-02 0.  1.
         11    1    1    2    0    0  0.40973114032E+02 -0.20782533535E+03  0.90631435289E+03  0.93073942236E+03  0.51100000000E-03 0.  1.
         22    1    1    2    0    0 -0.37856402855E+01 -0.13220294314E+02  0.40100882231E+02  0.42393254296E+02  0.00000000000E+00 0.  1.
          2    1    1    2  501    0 -0.37187473746E+02  0.22104562966E+03 -0.26849948003E+03  0.34976570641E+03  0.25500000000E-02 0.  1.
<mgrwt>
<rscale>  0 0.22415191E+03</rscale>
<asrwt>0</asrwt>
<pdfrwt beam="1">  1       11 0.10000000E+01 0.22646282E+03</pdfrwt>
<pdfrwt beam="2">  1        2 0.49634243E-01 0.22415191E+03</pdfrwt>
<totfact> 0.12545070E+02</totfact>
</mgrwt>
</event>
<event>
 5    1  0.2968854E-003  0.1282725E+03  0.7818608E-02  0.1491723E+00
         11   -1    0    0    0    0  0.00000000000E+00  0.00000000000E+00  0.10001091026E+04  0.10001091026E+04  0.51100000000E-03 0.  1.
          2   -1    0    0  501    0 -0.00000000000E+00 -0.00000000000E+00 -0.18983580768E+02  0.18983580940E+02  0.25500000000E-02 0.  1.
         11    1    1    2    0    0  0.12902035557E+03 -0.11443918989E+02  0.56564801769E+03  0.58028863107E+03  0.51100000000E-03 0.  1.
         22    1    1    2    0    0 -0.21027019201E+01  0.13810782817E+02  0.33888799115E+02  0.36655283150E+02  0.00000000000E+00 0.  1.
          2    1    1    2  501    0 -0.12691765365E+03 -0.23668638280E+01  0.38158870501E+03  0.40214876930E+03  0.25500000000E-02 0.  1.
<mgrwt>
<rscale>  0 0.42331530E+02</rscale>
<asrwt>0</asrwt>
<pdfrwt beam="1">  1       11 0.10000000E+01 0.12827250E+03</pdfrwt>
<pdfrwt beam="2">  1        2 0.29208695E-02 0.42331530E+02</pdfrwt>
<totfact> 0.32545536E+03</totfact>
</mgrwt>
</event>
<event>
 5    1  0.2968854E-003  0.1766774E+03  0.7818608E-02  0.1171058E+00
         11   -1    0    0    0    0  0.00000000000E+00  0.00000000000E+00  0.10002495702E+04  0.10002495702E+04  0.51100000000E-03 0. -1.
          2   -1    0    0  501    0 -0.00000000000E+00 -0.00000000000E+00 -0.59626178826E+02  0.59626178881E+02  0.25500000000E-02 0.  1.
         11    1    1    2    0    0 -0.17267137835E+03 -0.41672273569E+02  0.77560638100E+03  0.79568664783E+03  0.51100000000E-03 0. -1.
         22    1    1    2    0    0 -0.13970009225E+01  0.12143814550E+02  0.54595697880E+02  0.55947422375E+02  0.00000000000E+00 0.  1.
          2    1    1    2  501    0  0.17406837928E+03  0.29528459019E+02  0.11042131246E+03  0.20824167885E+03  0.25500000000E-02 0.  1.
<mgrwt>
<rscale>  0 0.17667738E+03</rscale>
<asrwt>0</asrwt>
<pdfrwt beam="1">  1       11 0.10000000E+01 0.12223905E+02</pdfrwt>
<pdfrwt beam="2">  1        2 0.91755474E-02 0.17667738E+03</pdfrwt>
<totfact> 0.85871563E+02</totfact>
</mgrwt>
</event>
<event>
 5    1  0.2968854E-003  0.2044291E+03  0.7818608E-02  0.1154876E+00
         11   -1    0    0    0    0  0.00000000000E+00  0.00000000000E+00  0.10000257281E+04  0.10000257281E+04  0.51100000000E-03 0. -1.
         -2   -1    0    0    0  501 -0.00000000000E+00 -0.00000000000E+00 -0.59096001086E+02  0.59096001141E+02  0.25500000000E-02 0.  1.
         11    1    1    2    0    0  0.82122232007E+02  0.73984921400E+01  0.42243072613E+03  0.43040273821E+03  0.51100000000E-03 0. -1.
         22    1    1    2    0    0  0.10919589570E+03 -0.39723374778E+02  0.35966355416E+03  0.37796767366E+03  0.00000000000E+00 0. -1.
         -2    1    1    2    0  501 -0.19131812771E+03  0.32324882638E+02  0.15883544675E+03  0.25075131740E+03  0.25500000000E-02 0.  1.
<mgrwt>
<rscale>  0 0.19402970E+03</rscale>
<asrwt>0</asrwt>
<pdfrwt beam="1">  1       11 0.10000000E+01 0.20442911E+03</pdfrwt>
<pdfrwt beam="2">  1       -2 0.90919261E-02 0.19402970E+03</pdfrwt>
<totfact> 0.60560650E+02</totfact>
</mgrwt>
</event>
<event>
 5    1  0.2968854E-003  0.3068003E+03  0.7818608E-02  0.1090178E+00
         11   -1    0    0    0    0  0.00000000000E+00  0.00000000000E+00  0.10003350705E+04  0.10003350705E+04  0.51100000000E-03 0. -1.
         -2   -1    0    0    0  501 -0.00000000000E+00 -0.00000000000E+00 -0.19014633571E+03  0.19014633573E+03  0.25500000000E-02 0.  1.
         11    1    1    2    0    0 -0.19550520675E+03 -0.68341341388E+02  0.45263642911E+03  0.49776757806E+03  0.51100000000E-03 0. -1.
         22    1    1    2    0    0 -0.74086324512E+02 -0.39410840244E+02  0.39151425702E+03  0.40040655746E+03  0.00000000000E+00 0. -1.
         -2    1    1    2    0  501  0.26959153126E+03  0.10775218163E+03 -0.33961951325E+02  0.29230727072E+03  0.25500000000E-02 0.  1.
<mgrwt>
<rscale>  0 0.29032762E+03</rscale>
<asrwt>0</asrwt>
<pdfrwt beam="1">  1       11 0.10000000E+01 0.30680026E+03</pdfrwt>
<pdfrwt beam="2">  1       -2 0.29263083E-01 0.29032762E+03</pdfrwt>
<totfact> 0.86330478E+01</totfact>
</mgrwt>
</event>
<event>
 5    1  0.2968854E-003  0.8156292E+02  0.7818608E-02  0.1459872E+00
         11   -1    0    0    0    0  0.00000000000E+00  0.00000000000E+00  0.10002938400E+04  0.10002938400E+04  0.51100000000E-03 0. -1.
          2   -1    0    0  501    0 -0.00000000000E+00 -0.00000000000E+00 -0.27418747797E+03  0.27418747798E+03  0.25500000000E-02 0.  1.
         11    1    1    2    0    0  0.32792439003E+02  0.10802205314E+03  0.59713587470E+03  0.60771322256E+03  0.51100000000E-03 0. -1.
         22    1    1    2    0    0 -0.20106133311E+02 -0.62347782153E+02  0.39304793065E+03  0.39846979600E+03  0.00000000000E+00 0. -1.
          2    1    1    2  501    0 -0.12686305692E+02 -0.45674270986E+02 -0.26407744333E+03  0.26829829940E+03  0.25500000000E-02 0.  1.
<mgrwt>
<rscale>  0 0.47403390E+02</rscale>
<asrwt>0</asrwt>
<pdfrwt beam="1">  1       11 0.10000000E+01 0.81562919E+02</pdfrwt>
<pdfrwt beam="2">  1        2 0.42195083E-01 0.47403390E+02</pdfrwt>
<totfact> 0.14713735E+02</totfact>
</mgrwt>
</event>
<event>
 5    1  0.2968854E-003  0.1311959E+03  0.7818608E-02  0.1225692E+00
         11   -1    0    0    0    0  0.00000000000E+00  0.00000000000E+00  0.99999300977E+03  0.99999300977E+03  0.51100000000E-03 0. -1.
         -2   -1    0    0    0  501 -0.00000000000E+00 -0.00000000000E+00 -0.24696807611E+02  0.24696807742E+02  0.25500000000E-02 0.  1.
         11    1    1    2    0    0  0.17114235326E+01  0.13857465496E+03  0.64124068834E+03  0.65604533712E+03  0.51100000000E-03 0. -1.
         22    1    1    2    0    0  0.15252503410E+02 -0.11101813058E+02  0.98329976281E+02  0.10012329074E+03  0.00000000000E+00 0.  1.
         -2    1    1    2    0  501 -0.16963926943E+02 -0.12747284190E+03  0.23572553754E+03  0.26852118966E+03  0.25500000000E-02 0.  1.
<mgrwt>
<rscale>  0 0.13119586E+03</rscale>
<asrwt>0</asrwt>
<pdfrwt beam="1">  1       11 0.10000000E+01 0.18865024E+02</pdfrwt>
<pdfrwt beam="2">  1       -2 0.37994822E-02 0.13119586E+03</pdfrwt>
<totfact> 0.22177400E+03</totfact>
</mgrwt>
</event>
<event>
 5    1  0.5258616E-003  0.2923613E+03  0.7818608E-02  0.1090089E+00
         11   -1    0    0    0    0  0.00000000000E+00  0.00000000000E+00  0.10005662483E+04  0.10005662483E+04  0.51100000000E-03 0. -1.
          2   -1    0    0  501    0 -0.00000000000E+00 -0.00000000000E+00 -0.17664025000E+04  0.17664025000E+04  0.25500000000E-02 0. -1.
         11    1    1    2    0    0 -0.64636902381E+01 -0.27857764494E+03  0.93117769147E+03  0.97197694244E+03  0.51100000000E-03 0. -1.
         22    1    1    2    0    0  0.61405745467E+01 -0.11920716780E+02  0.35678950072E+02  0.38115582411E+02  0.00000000000E+00 0. -1.
          2    1    1    2  501    0  0.32311569135E+00  0.29049836172E+03 -0.17326928932E+04  0.17568762235E+04  0.25500000000E-02 0. -1.
<mgrwt>
<rscale>  0 0.29049854E+03</rscale>
<asrwt>0</asrwt>
<pdfrwt beam="1">  1       11 0.10000000E+01 0.29236132E+03</pdfrwt>
<pdfrwt beam="2">  1        2 0.27190810E+00 0.29049854E+03</pdfrwt>
<totfact> 0.12269688E+01</totfact>
</mgrwt>
</event>
<event>
 5    1  0.2968854E-003  0.2111503E+03  0.7818608E-02  0.1140658E+00
         11   -1    0    0    0    0  0.00000000000E+00  0.00000000000E+00  0.10003045706E+04  0.10003045706E+04  0.51100000000E-03 0. -1.
          2   -1    0    0  501    0 -0.00000000000E+00 -0.00000000000E+00 -0.13758220997E+03  0.13758220999E+03  0.25500000000E-02 0. -1.
         11    1    1    2    0    0 -0.16876503205E+03 -0.12820488630E+03  0.79781656816E+03  0.82548737443E+03  0.51100000000E-03 0. -1.
         22    1    1    2    0    0  0.40426767866E+02 -0.40391552119E+02  0.81862789997E+02  0.99836453406E+02  0.00000000000E+00 0. -1.
          2    1    1    2  501    0  0.12833826418E+03  0.16859643841E+03 -0.16956997556E+02  0.21256295273E+03  0.25500000000E-02 0. -1.
<mgrwt>
<rscale>  0 0.21115035E+03</rscale>
<asrwt>0</asrwt>
<pdfrwt beam="1">  1       11 0.10000000E+01 0.57147188E+02</pdfrwt>
<pdfrwt beam="2">  1        2 0.21172940E-01 0.21115035E+03</pdfrwt>
<totfact> 0.31910196E+02</totfact>
</mgrwt>
</event>
<event>
 5    1  0.2968854E-003  0.4802734E+03  0.7818608E-02  0.1020963E+00
         11   -1    0    0    0    0  0.00000000000E+00  0.00000000000E+00  0.10001646629E+04  0.10001646629E+04  0.51100000000E-03 0.  1.
         -2   -1    0    0    0  501 -0.00000000000E+00 -0.00000000000E+00 -0.52778368506E+03  0.52778368507E+03  0.25500000000E-02 0. -1.
         11    1    1    2    0    0 -0.51952974642E+02  0.41204679073E+03  0.75539409153E+03  0.86203358568E+03  0.51100000000E-03 0.  1.
         22    1    1    2    0    0  0.20000644334E+01  0.58717739063E+02  0.57934054015E+02  0.82511379537E+02  0.00000000000E+00 0.  1.
         -2    1    1    2    0  501  0.49952910208E+02 -0.47076452979E+03 -0.34094716775E+03  0.58340338271E+03  0.25500000000E-02 0. -1.
<mgrwt>
<rscale>  0 0.47340737E+03</rscale>
<asrwt>0</asrwt>
<pdfrwt beam="1">  1       11 0.10000000E+01 0.48027338E+03</pdfrwt>
<pdfrwt beam="2">  1       -2 0.81210858E-01 0.47340737E+03</pdfrwt>
<totfact> 0.11041911E+01</totfact>
</mgrwt>
</event>
<event>
 5    1  0.2968854E-003  0.4480673E+03  0.7818608E-02  0.1032582E+00
         11   -1    0    0    0    0  0.00000000000E+00  0.00000000000E+00  0.99990749293E+03  0.99990749293E+03  0.51100000000E-03 0. -1.
          2   -1    0    0  501    0 -0.00000000000E+00 -0.00000000000E+00 -0.32002083443E+03  0.32002083444E+03  0.25500000000E-02 0. -1.
         11    1    1    2    0    0 -0.53540923591E+02  0.24614171276E+03  0.53865912222E+03  0.59464781443E+03  0.51100000000E-03 0. -1.
         22    1    1    2    0    0 -0.62372580444E+02  0.17216583211E+03  0.21775602410E+03  0.28451555066E+03  0.00000000000E+00 0. -1.
          2    1    1    2  501    0  0.11591350404E+03 -0.41830754487E+03 -0.76528487821E+02  0.44076496227E+03  0.25500000000E-02 0. -1.
<mgrwt>
<rscale>  0 0.43407043E+03</rscale>
<asrwt>0</asrwt>
<pdfrwt beam="1">  1       11 0.10000000E+01 0.44806735E+03</pdfrwt>
<pdfrwt beam="2">  1        2 0.49229419E-01 0.43407043E+03</pdfrwt>
<totfact> 0.12646639E+02</totfact>
</mgrwt>
</event>
<event>
 5    1  0.2968854E-003  0.1156586E+03  0.7818608E-02  0.1255872E+00
         11   -1    0    0    0    0  0.00000000000E+00  0.00000000000E+00  0.10002582062E+04  0.10002582062E+04  0.51100000000E-03 0. -1.
          2   -1    0    0  501    0 -0.00000000000E+00 -0.00000000000E+00 -0.15029400413E+02  0.15029400629E+02  0.25500000000E-02 0.  1.
         11    1    1    2    0    0  0.47759002321E+02 -0.60912731169E+02  0.18381093321E+03  0.19944358172E+03  0.51100000000E-03 0. -1.
         22    1    1    2    0    0  0.30585404425E+02 -0.19930319491E+02  0.12893681077E+03  0.13400517068E+03  0.00000000000E+00 0. -1.
          2    1    1    2  501    0 -0.78344406745E+02  0.80843050660E+02  0.67248106181E+03  0.68183885443E+03  0.25500000000E-02 0.  1.
<mgrwt>
<rscale>  0 0.11257640E+03</rscale>
<asrwt>0</asrwt>
<pdfrwt beam="1">  1       11 0.10000000E+01 0.11565863E+03</pdfrwt>
<pdfrwt beam="2">  1        2 0.23128124E-02 0.11257640E+03</pdfrwt>
<totfact> 0.50192192E+03</totfact>
</mgrwt>
</event>
<event>
 5    1  0.2968854E-003  0.1383739E+03  0.7818608E-02  0.1215534E+00
         11   -1    0    0    0    0  0.00000000000E+00  0.00000000000E+00  0.10002664369E+04  0.10002664369E+04  0.51100000000E-03 0. -1.
          2   -1    0    0  501    0 -0.00000000000E+00 -0.00000000000E+00 -0.13906914039E+03  0.13906914041E+03  0.25500000000E-02 0. -1.
         11    1    1    2    0    0 -0.43431302811E+02  0.53622594681E+02  0.27042720140E+03  0.27909233594E+03  0.51100000000E-03 0. -1.
         22    1    1    2    0    0  0.99500169153E+02  0.74656153833E+02  0.68192984030E+03  0.69318261091E+03  0.00000000000E+00 0. -1.
          2    1    1    2  501    0 -0.56068866342E+02 -0.12827874851E+03 -0.91159745210E+02  0.16706063045E+03  0.25500000000E-02 0. -1.
<mgrwt>
<rscale>  0 0.13837386E+03</rscale>
<asrwt>0</asrwt>
<pdfrwt beam="1">  1       11 0.10000000E+01 0.69004788E+02</pdfrwt>
<pdfrwt beam="2">  1        2 0.21400952E-01 0.13837386E+03</pdfrwt>
<totfact> 0.31149593E+02</totfact>
</mgrwt>
</event>
<event>
 5    1  0.2968854E-003  0.2016855E+03  0.7818608E-02  0.1152487E+00
         11   -1    0    0    0    0  0.00000000000E+00  0.00000000000E+00  0.99997830751E+03  0.99997830751E+03  0.51100000000E-03 0. -1.
          2   -1    0    0  501    0 -0.00000000000E+00 -0.00000000000E+00 -0.43487423281E+02  0.43487423356E+02  0.25500000000E-02 0. -1.
         11    1    1    2    0    0 -0.16779240362E+03  0.43070765313E+02  0.50067618903E+03  0.52979810098E+03  0.51100000000E-03 0. -1.
         22    1    1    2    0    0 -0.22548446312E+02  0.68449072332E+01  0.13702930297E+03  0.13904069569E+03  0.00000000000E+00 0.  1.
          2    1    1    2  501    0  0.19034084993E+03 -0.49915672546E+02  0.31878539223E+03  0.37462693420E+03  0.25500000000E-02 0. -1.
<mgrwt>
<rscale>  0 0.19677707E+03</rscale>
<asrwt>0</asrwt>
<pdfrwt beam="1">  1       11 0.10000000E+01 0.20168550E+03</pdfrwt>
<pdfrwt beam="2">  1        2 0.66902275E-02 0.19677707E+03</pdfrwt>
<totfact> 0.12904815E+03</totfact>
</mgrwt>
</event>
<event>
 5    1  0.2968854E-003  0.4459808E+03  0.7818608E-02  0.1028927E+00
         11   -1    0    0    0    0  0.00000000000E+00  0.00000000000E+00  0.10002416345E+04  0.10002416345E+04  0.51100000000E-03 0. -1.
          2   -1    0    0  501    0 -0.00000000000E+00 -0.00000000000E+00 -0.93888772003E+03  0.93888772003E+03  0.25500000000E-02 0. -1.
         11    1    1    2    0    0 -0.26382113360E+03  0.29741969968E+03  0.43719249509E+03  0.59092922254E+03  0.51100000000E-03 0. -1.
         22    1    1    2    0    0 -0.14041110988E+03 -0.89353094681E+02  0.40879040573E+03  0.44137155677E+03  0.00000000000E+00 0. -1.
          2    1    1    2  501    0  0.40423224348E+03 -0.20806660500E+03 -0.78462898630E+03  0.90682857527E+03  0.25500000000E-02 0. -1.
<mgrwt>
<rscale>  0 0.44598085E+03</rscale>
<asrwt>0</asrwt>
<pdfrwt beam="1">  1       11 0.10000000E+01 0.16643093E+03</pdfrwt>
<pdfrwt beam="2">  1        2 0.14447916E+00 0.44598085E+03</pdfrwt>
<totfact> 0.35075950E+01</totfact>
</mgrwt>
</event>
<event>
 5    1  0.2968854E-003  0.1325919E+03  0.7818608E-02  0.1668463E+00
         11   -1    0    0    0    0  0.00000000000E+00  0.00000000000E+00  0.10000626968E+04  0.10000626968E+04  0.51100000000E-03 0. -1.
         -2   -1    0    0    0  501 -0.00000000000E+00 -0.00000000000E+00 -0.83725579219E+02  0.83725579258E+02  0.25500000000E-02 0.  1.
         11    1    1    2    0    0 -0.13069745775E+03  0.26368734322E+02  0.16738815710E+03  0.21399983820E+03  0.51100000000E-03 0. -1.
         22    1    1    2    0    0  0.12320725503E+03 -0.49683332814E+02  0.80117068714E+03  0.81211017182E+03  0.00000000000E+00 0. -1.
         -2    1    1    2    0  501  0.74902027179E+01  0.23314598492E+02 -0.52221726618E+02  0.57678266072E+02  0.25500000000E-02 0.  1.
<mgrwt>
<rscale>  0 0.24488235E+02</rscale>
<asrwt>0</asrwt>
<pdfrwt beam="1">  1       11 0.10000000E+01 0.13259185E+03</pdfrwt>
<pdfrwt beam="2">  1       -2 0.12881666E-01 0.24488235E+02</pdfrwt>
<totfact> 0.30381439E+02</totfact>
</mgrwt>
</event>
<event>
 5    1  0.2968854E-003  0.2831596E+03  0.7818608E-02  0.1095197E+00
         11   -1    0    0    0    0  0.00000000000E+00  0.00000000000E+00  0.10003306195E+04  0.10003306195E+04  0.51100000000E-03 0. -1.
         -2   -1    0    0    0  501 -0.00000000000E+00 -0.00000000000E+00 -0.22987503548E+03  0.22987503549E+03  0.25500000000E-02 0.  1.
         11    1    1    2    0    0  0.19165494303E+03 -0.18667885466E+03  0.83570108836E+03  0.87748328819E+03  0.51100000000E-03 0. -1.
         22    1    1    2    0    0  0.37067772134E+01 -0.15163241881E+02  0.47529185934E+02  0.50026868953E+02  0.00000000000E+00 0. -1.
         -2    1    1    2    0  501 -0.19536172024E+03  0.20184209654E+03 -0.11277469025E+03  0.30269549788E+03  0.25500000000E-02 0.  1.
<mgrwt>
<rscale>  0 0.28090289E+03</rscale>
<asrwt>0</asrwt>
<pdfrwt beam="1">  1       11 0.10000000E+01 0.28315963E+03</pdfrwt>
<pdfrwt beam="2">  1       -2 0.35377082E-01 0.28090289E+03</pdfrwt>
<totfact> 0.60794012E+01</totfact>
</mgrwt>
</event>
<event>
 5    1  0.2968854E-003  0.1274897E+03  0.7818608E-02  0.1234568E+00
         11   -1    0    0    0    0  0.00000000000E+00  0.00000000000E+00  0.10002005258E+04  0.10002005258E+04  0.51100000000E-03 0. -1.
          2   -1    0    0  501    0 -0.00000000000E+00 -0.00000000000E+00 -0.16582430463E+02  0.16582430659E+02  0.25500000000E-02 0.  1.
         11    1    1    2    0    0  0.12353934898E+02 -0.18910979112E+02  0.10572581242E+03  0.10811194315E+03  0.51100000000E-03 0. -1.
         22    1    1    2    0    0  0.61102679447E+02 -0.82625036526E+02  0.29286032361E+03  0.31036688489E+03  0.00000000000E+00 0. -1.
          2    1    1    2  501    0 -0.73456614345E+02  0.10153601564E+03  0.58503195934E+03  0.59830412845E+03  0.25500000000E-02 0.  1.
<mgrwt>
<rscale>  0 0.12532133E+03</rscale>
<asrwt>0</asrwt>
<pdfrwt beam="1">  1       11 0.10000000E+01 0.12748969E+03</pdfrwt>
<pdfrwt beam="2">  1        2 0.25516547E-02 0.12532133E+03</pdfrwt>
<totfact> 0.44491512E+03</totfact>
</mgrwt>
</event>
<event>
 5    1  0.3514937E-003  0.2980429E+03  0.7818608E-02  0.1086912E+00
         11   -1    0    0    0    0  0.00000000000E+00  0.00000000000E+00  0.10004919673E+04  0.10004919673E+04  0.51100000000E-03 0.  1.
          2   -1    0    0  501    0 -0.00000000000E+00 -0.00000000000E+00 -0.44658431675E+03  0.44658431676E+03  0.25500000000E-02 0.  1.
         11    1    1    2    0    0  0.24266057418E+03  0.14908184378E+03  0.87447312520E+03  0.91968081263E+03  0.51100000000E-03 0.  1.
         22    1    1    2    0    0  0.12773108750E+02  0.18264898802E+01  0.50605384597E+02  0.52224451387E+02  0.00000000000E+00 0. -1.
          2    1    1    2  501    0 -0.25543368293E+03 -0.15090833366E+03 -0.37117085924E+03  0.47517102006E+03  0.25500000000E-02 0.  1.
<mgrwt>
<rscale>  0 0.29668113E+03</rscale>
<asrwt>0</asrwt>
<pdfrwt beam="1">  1       11 0.10000000E+01 0.29804294E+03</pdfrwt>
<pdfrwt beam="2">  1        2 0.68739078E-01 0.29668113E+03</pdfrwt>
<totfact> 0.87808578E+01</totfact>
</mgrwt>
</event>
<event>
 5    1  0.2968854E-003  0.2706520E+03  0.7818608E-02  0.1651514E+00
         11   -1    0    0    0    0  0.00000000000E+00  0.00000000000E+00  0.10004124446E+04  0.10004124446E+04  0.51100000000E-03 0. -1.
          2   -1    0    0  501    0 -0.00000000000E+00 -0.00000000000E+00 -0.91427292466E+03  0.91427292466E+03  0.25500000000E-02 0. -1.
         11    1    1    2    0    0 -0.27563843849E+03 -0.10415678767E+03 -0.75754885066E+03  0.81283789671E+03  0.51100000000E-03 0. -1.
         22    1    1    2    0    0  0.25005000442E+03  0.10207031376E+03  0.95249887913E+03  0.99004922525E+03  0.00000000000E+00 0. -1.
          2    1    1    2  501    0  0.25588434071E+02  0.20864739182E+01 -0.10881050852E+03  0.11179824731E+03  0.25500000000E-02 0. -1.
<mgrwt>
<rscale>  0 0.25673359E+02</rscale>
<asrwt>0</asrwt>
<pdfrwt beam="1">  1       11 0.10000000E+01 0.27065200E+03</pdfrwt>
<pdfrwt beam="2">  1        2 0.14071538E+00 0.25673359E+02</pdfrwt>
<totfact> 0.41376582E+01</totfact>
</mgrwt>
</event>
<event>
 5    1  0.2968854E-003  0.6766811E+02  0.7818608E-02  0.1382671E+00
         11   -1    0    0    0    0  0.00000000000E+00  0.00000000000E+00  0.10000815155E+04  0.10000815155E+04  0.51100000000E-03 0.  1.
          2   -1    0    0  501    0 -0.00000000000E+00 -0.00000000000E+00 -0.70828629308E+01  0.70828633898E+01  0.25500000000E-02 0.  1.
         11    1    1    2    0    0  0.35447732334E+02 -0.32689236238E+02  0.11684158057E+03  0.12640048593E+03  0.51100000000E-03 0.  1.
         22    1    1    2    0    0  0.17412092392E+02 -0.29765007868E+01  0.74120327879E+02  0.76196217251E+02  0.00000000000E+00 0. -1.
          2    1    1    2  501    0 -0.52859824726E+02  0.35665737025E+02  0.80203674409E+03  0.80456767568E+03  0.25500000000E-02 0.  1.
<mgrwt>
<rscale>  0 0.63766809E+02</rscale>
<asrwt>0</asrwt>
<pdfrwt beam="1">  1       11 0.10000000E+01 0.67668114E+02</pdfrwt>
<pdfrwt beam="2">  1        2 0.10897600E-02 0.63766809E+02</pdfrwt>
<totfact> 0.12818026E+04</totfact>
</mgrwt>
</event>
<event>
 5    1  0.2968854E-003  0.3706002E+03  0.7818608E-02  0.1056847E+00
         11   -1    0    0    0    0  0.00000000000E+00  0.00000000000E+00  0.10003143323E+04  0.10003143323E+04  0.51100000000E-03 0.  1.
          2   -1    0    0  501    0 -0.00000000000E+00 -0.00000000000E+00 -0.13523967646E+03  0.13523967649E+03  0.25500000000E-02 0.  1.
         11    1    1    2    0    0  0.66966411989E+02 -0.32342791424E+03  0.34897160556E+03  0.48049068413E+03  0.51100000000E-03 0.  1.
         22    1    1    2    0    0  0.23598260586E+02 -0.29560107380E+02  0.64393689763E+02  0.74680821717E+02  0.00000000000E+00 0.  1.
          2    1    1    2  501    0 -0.90564672575E+02  0.35298802162E+03  0.45170936049E+03  0.58038250292E+03  0.25500000000E-02 0.  1.
<mgrwt>
<rscale>  0 0.36442078E+03</rscale>
<asrwt>0</asrwt>
<pdfrwt beam="1">  1       11 0.10000000E+01 0.37060023E+03</pdfrwt>
<pdfrwt beam="2">  1        2 0.20812644E-01 0.36442078E+03</pdfrwt>
<totfact> 0.32986280E+02</totfact>
</mgrwt>
</event>
<event>
 5    1  0.2968854E-003  0.1798926E+03  0.7818608E-02  0.1167907E+00
         11   -1    0    0    0    0  0.00000000000E+00  0.00000000000E+00  0.10000945346E+04  0.10000945346E+04  0.51100000000E-03 0.  1.
          2   -1    0    0  501    0 -0.00000000000E+00 -0.00000000000E+00 -0.25069333979E+03  0.25069333981E+03  0.25500000000E-02 0.  1.
         11    1    1    2    0    0  0.15246847285E+03  0.13306775423E+03  0.70549348842E+03  0.73394463322E+03  0.51100000000E-03 0.  1.
         22    1    1    2    0    0  0.13544074616E+02 -0.65304946272E+02  0.24119466284E+03  0.25024596570E+03  0.00000000000E+00 0. -1.
          2    1    1    2  501    0 -0.16601254746E+03 -0.67762807953E+02 -0.19728695651E+03  0.26659727544E+03  0.25500000000E-02 0.  1.
<mgrwt>
<rscale>  0 0.17989260E+03</rscale>
<asrwt>0</asrwt>
<pdfrwt beam="1">  1       11 0.10000000E+01 0.66694662E+02</pdfrwt>
<pdfrwt beam="2">  1        2 0.38571851E-01 0.17989260E+03</pdfrwt>
<totfact> 0.16430304E+02</totfact>
</mgrwt>
</event>
<event>
 5    1  0.2968854E-003  0.6938628E+02  0.7818608E-02  0.1587846E+00
         11   -1    0    0    0    0  0.00000000000E+00  0.00000000000E+00  0.10004304311E+04  0.10004304311E+04  0.51100000000E-03 0. -1.
          2   -1    0    0  501    0 -0.00000000000E+00 -0.00000000000E+00 -0.67562580899E+01  0.67562585711E+01  0.25500000000E-02 0. -1.
         11    1    1    2    0    0  0.63332502081E+02 -0.22631115282E+02  0.32946951549E+03  0.33626378758E+03  0.51100000000E-03 0. -1.
         22    1    1    2    0    0 -0.21659730917E+01 -0.13632051327E+02  0.33642767264E+02  0.36364268892E+02  0.00000000000E+00 0. -1.
          2    1    1    2  501    0 -0.61166528989E+02  0.36263166610E+02  0.63056189022E+03  0.63455863317E+03  0.25500000000E-02 0. -1.
<mgrwt>
<rscale>  0 0.30947407E+02</rscale>
<asrwt>0</asrwt>
<pdfrwt beam="1">  1       11 0.10000000E+01 0.69386280E+02</pdfrwt>
<pdfrwt beam="2">  1        2 0.10398717E-02 0.30947407E+02</pdfrwt>
<totfact> 0.11924474E+04</totfact>
</mgrwt>
</event>
<event>
 5    1  0.2968854E-003  0.1156164E+03  0.7818608E-02  0.1250509E+00
         11   -1    0    0    0    0  0.00000000000E+00  0.00000000000E+00  0.10001670239E+04  0.10001670239E+04  0.51100000000E-03 0.  1.
          2   -1    0    0  501    0 -0.00000000000E+00 -0.00000000000E+00 -0.12379287124E+02  0.12379287386E+02  0.25500000000E-02 0.  1.
         11    1    1    2    0    0  0.10270927825E+03 -0.21244153076E+02  0.40192378278E+03  0.41538324117E+03  0.51100000000E-03 0.  1.
         22    1    1    2    0    0 -0.37961439521E+02  0.25959080849E+02  0.16371696045E+03  0.17005348543E+03  0.00000000000E+00 0.  1.
          2    1    1    2  501    0 -0.64747838727E+02 -0.47149277733E+01  0.42214699353E+03  0.42710958467E+03  0.25500000000E-02 0.  1.
<mgrwt>
<rscale>  0 0.11561643E+03</rscale>
<asrwt>0</asrwt>
<pdfrwt beam="1">  1       11 0.10000000E+01 0.10488337E+03</pdfrwt>
<pdfrwt beam="2">  1        2 0.19048238E-02 0.11561643E+03</pdfrwt>
<totfact> 0.65506700E+03</totfact>
</mgrwt>
</event>
<event>
 5    1  0.2968854E-003  0.1500126E+03  0.7818608E-02  0.1493095E+00
         11   -1    0    0    0    0  0.00000000000E+00  0.00000000000E+00  0.99997594616E+03  0.99997594616E+03  0.51100000000E-03 0. -1.
          2   -1    0    0  501    0 -0.00000000000E+00 -0.00000000000E+00 -0.41597471809E+02  0.41597471887E+02  0.25500000000E-02 0.  1.
         11    1    1    2    0    0  0.19094648306E+02 -0.15821890244E+03  0.38197033826E+03  0.41388303420E+03  0.51100000000E-03 0. -1.
         22    1    1    2    0    0  0.20912139246E+02  0.14501178045E+03  0.56549938043E+03  0.58417059435E+03  0.00000000000E+00 0. -1.
          2    1    1    2  501    0 -0.40006787553E+02  0.13207121995E+02  0.10908755660E+02  0.43519789501E+02  0.25500000000E-02 0.  1.
<mgrwt>
<rscale>  0 0.42130406E+02</rscale>
<asrwt>0</asrwt>
<pdfrwt beam="1">  1       11 0.10000000E+01 0.15001263E+03</pdfrwt>
<pdfrwt beam="2">  1        2 0.63994569E-02 0.42130406E+02</pdfrwt>
<totfact> 0.12050856E+03</totfact>
</mgrwt>
</event>
<event>
 5    1  0.2968854E-003  0.1661910E+03  0.7818608E-02  0.1181879E+00
         11   -1    0    0    0    0  0.00000000000E+00  0.00000000000E+00  0.10004644243E+04  0.10004644243E+04  0.51100000000E-03 0.  1.
          2   -1    0    0  501    0 -0.00000000000E+00 -0.00000000000E+00 -0.72629869245E+02  0.72629869290E+02  0.25500000000E-02 0.  1.
         11    1    1    2    0    0  0.37066409831E+01 -0.99290159840E+02  0.23895264582E+03  0.25878686593E+03  0.51100000000E-03 0.  1.
         22    1    1    2    0    0 -0.10682696441E+03 -0.49450489980E+02  0.60225911901E+03  0.61365576483E+03  0.00000000000E+00 0.  1.
          2    1    1    2  501    0  0.10312032342E+03  0.14874064982E+03  0.86622790250E+02  0.20065166286E+03  0.25500000000E-02 0.  1.
<mgrwt>
<rscale>  0 0.16619100E+03</rscale>
<asrwt>0</asrwt>
<pdfrwt beam="1">  1       11 0.10000000E+01 0.99359323E+02</pdfrwt>
<pdfrwt beam="2">  1        2 0.11179015E-01 0.16619100E+03</pdfrwt>
<totfact> 0.67094243E+02</totfact>
</mgrwt>
</event>
<event>
 5    1  0.2968854E-003  0.2525035E+02  0.7818608E-02  0.1657432E+00
         11   -1    0    0    0    0  0.00000000000E+00  0.00000000000E+00  0.10001173526E+04  0.10001173526E+04  0.51100000000E-03 0.  1.
          2   -1    0    0  501    0 -0.00000000000E+00 -0.00000000000E+00 -0.14468219441E+02  0.14468219666E+02  0.25500000000E-02 0.  1.
         11    1    1    2    0    0  0.45211611918E+01 -0.20146667547E+02  0.17988095855E+01  0.20725945767E+02  0.51100000000E-03 0.  1.
         22    1    1    2    0    0  0.24436861932E+02 -0.50463303940E+01  0.29079779099E+02  0.38317870817E+02  0.00000000000E+00 0.  1.
          2    1    1    2  501    0 -0.28958023124E+02  0.25192997941E+02  0.95477054452E+03  0.95554175573E+03  0.25500000000E-02 0.  1.
<mgrwt>
<rscale>  0 0.25250353E+02</rscale>
<asrwt>0</asrwt>
<pdfrwt beam="1">  1       11 0.10000000E+01 0.20647749E+02</pdfrwt>
<pdfrwt beam="2">  1        2 0.22261411E-02 0.25250353E+02</pdfrwt>
<totfact> 0.42606642E+03</totfact>
</mgrwt>
</event>
<event>
 5    1  0.2968854E-003  0.8689179E+02  0.7818608E-02  0.1513433E+00
         11   -1    0    0    0    0  0.00000000000E+00  0.00000000000E+00  0.10001931605E+04  0.10001931605E+04  0.51100000000E-03 0. -1.
          2   -1    0    0  501    0 -0.00000000000E+00 -0.00000000000E+00 -0.27671862342E+02  0.27671862460E+02  0.25500000000E-02 0. -1.
         11    1    1    2    0    0 -0.45519755486E+02  0.52094906642E+02  0.32100701635E+03  0.32837696628E+03  0.51100000000E-03 0. -1.
         22    1    1    2    0    0  0.72723797231E+02 -0.80456176169E+02  0.65121886324E+03  0.66018781782E+03  0.00000000000E+00 0. -1.
          2    1    1    2  501    0 -0.27204041745E+02  0.28361269527E+02  0.29541858382E+00  0.39300238868E+02  0.25500000000E-02 0. -1.
<mgrwt>
<rscale>  0 0.39299129E+02</rscale>
<asrwt>0</asrwt>
<pdfrwt beam="1">  1       11 0.10000000E+01 0.86891793E+02</pdfrwt>
<pdfrwt beam="2">  1        2 0.42580318E-02 0.39299129E+02</pdfrwt>
<totfact> 0.19891132E+03</totfact>
</mgrwt>
</event>
<event>
 5    1  0.2968854E-003  0.1270845E+03  0.7818608E-02  0.1243588E+00
         11   -1    0    0    0    0  0.00000000000E+00  0.00000000000E+00  0.10002530174E+04  0.10002530174E+04  0.51100000000E-03 0.  1.
         -2   -1    0    0    0  501 -0.00000000000E+00 -0.00000000000E+00 -0.15678690906E+02  0.15678691113E+02  0.25500000000E-02 0. -1.
         11    1    1    2    0    0 -0.98668555798E+01 -0.36336289194E+02  0.10522433088E+03  0.11175795524E+03  0.51100000000E-03 0.  1.
         22    1    1    2    0    0 -0.36162041723E+02 -0.74162840607E+02  0.48800516117E+03  0.49493116442E+03  0.00000000000E+00 0.  1.
         -2    1    1    2    0  501  0.46028897302E+02  0.11049912980E+03  0.39134483449E+03  0.40924258889E+03  0.25500000000E-02 0. -1.
<mgrwt>
<rscale>  0 0.11970262E+03</rscale>
<asrwt>0</asrwt>
<pdfrwt beam="1">  1       11 0.10000000E+01 0.12708445E+03</pdfrwt>
<pdfrwt beam="2">  1       -2 0.24127165E-02 0.11970262E+03</pdfrwt>
<totfact> 0.42754712E+03</totfact>
</mgrwt>
</event>
<event>
 5    1  0.2968854E-003  0.2298322E+03  0.7818608E-02  0.1134113E+00
         11   -1    0    0    0    0  0.00000000000E+00  0.00000000000E+00  0.10000410840E+04  0.10000410840E+04  0.51100000000E-03 0.  1.
          2   -1    0    0  501    0 -0.00000000000E+00 -0.00000000000E+00 -0.50128322013E+03  0.50128322014E+03  0.25500000000E-02 0.  1.
         11    1    1    2    0    0 -0.13605519451E+03 -0.61386970241E+02  0.77313112007E+03  0.78740783899E+03  0.51100000000E-03 0.  1.
         22    1    1    2    0    0 -0.67003416339E+02 -0.22466934852E+02  0.18863126639E+03  0.20143479249E+03  0.00000000000E+00 0.  1.
          2    1    1    2  501    0  0.20305861085E+03  0.83853905093E+02 -0.46300452261E+03  0.51248167265E+03  0.25500000000E-02 0.  1.
<mgrwt>
<rscale>  0 0.21969132E+03</rscale>
<asrwt>0</asrwt>
<pdfrwt beam="1">  1       11 0.10000000E+01 0.22983225E+03</pdfrwt>
<pdfrwt beam="2">  1        2 0.77123662E-01 0.21969132E+03</pdfrwt>
<totfact> 0.77568860E+01</totfact>
</mgrwt>
</event>
<event>
 5    1  0.2968854E-003  0.1331431E+03  0.7818608E-02  0.1732675E+00
         11   -1    0    0    0    0  0.00000000000E+00  0.00000000000E+00  0.10002458873E+04  0.10002458873E+04  0.51100000000E-03 0. -1.
          2   -1    0    0  501    0 -0.00000000000E+00 -0.00000000000E+00 -0.57252951916E+02  0.57252951973E+02  0.25500000000E-02 0. -1.
         11    1    1    2    0    0 -0.90848012018E+02  0.90917440201E+02  0.59404574872E+03  0.60779083062E+03  0.51100000000E-03 0. -1.
         22    1    1    2    0    0  0.88489166231E+02 -0.11143372500E+03  0.38372615678E+03  0.40925978425E+03  0.00000000000E+00 0. -1.
          2    1    1    2  501    0  0.23588457865E+01  0.20516284799E+02 -0.34778970067E+02  0.40448224446E+02  0.25500000000E-02 0. -1.
<mgrwt>
<rscale>  0 0.20651443E+02</rscale>
<asrwt>0</asrwt>
<pdfrwt beam="1">  1       11 0.10000000E+01 0.13314305E+03</pdfrwt>
<pdfrwt beam="2">  1        2 0.88103120E-02 0.20651443E+02</pdfrwt>
<totfact> 0.76385822E+02</totfact>
</mgrwt>
</event>
<event>
 5    1  0.2968854E-003  0.1838453E+03  0.7818608E-02  0.1172307E+00
         11   -1    0    0    0    0  0.00000000000E+00  0.00000000000E+00  0.10001148496E+04  0.10001148496E+04  0.51100000000E-03 0.  1.
          2   -1    0    0  501    0 -0.00000000000E+00 -0.00000000000E+00 -0.63591939937E+03  0.63591939937E+03  0.25500000000E-02 0.  1.
         11    1    1    2    0    0 -0.11624418764E+03  0.66399762019E+02  0.78555901488E+03  0.79688431119E+03  0.51100000000E-03 0.  1.
         22    1    1    2    0    0 -0.47549638672E+02 -0.35907052774E+01  0.19373920840E+03  0.19952128251E+03  0.00000000000E+00 0. -1.
          2    1    1    2  501    0  0.16379382631E+03 -0.62809056741E+02 -0.61510277308E+03  0.63962865524E+03  0.25500000000E-02 0.  1.
<mgrwt>
<rscale>  0 0.17542347E+03</rscale>
<asrwt>0</asrwt>
<pdfrwt beam="1">  1       11 0.10000000E+01 0.18384531E+03</pdfrwt>
<pdfrwt beam="2">  1        2 0.97844987E-01 0.17542347E+03</pdfrwt>
<totfact> 0.59415943E+01</totfact>
</mgrwt>
</event>
<event>
 5    1  0.2968854E-003  0.2582127E+02  0.7818608E-02  0.1699565E+00
         11   -1    0    0    0    0  0.00000000000E+00  0.00000000000E+00  0.10000478460E+04  0.10000478460E+04  0.51100000000E-03 0. -1.
          2   -1    0    0  501    0 -0.00000000000E+00 -0.00000000000E+00 -0.24769718876E+01  0.24769732002E+01  0.25500000000E-02 0. -1.
         11    1    1    2    0    0 -0.73380821768E+01  0.86080545942E+01  0.26596711005E+02  0.28902094915E+02  0.51100000000E-03 0. -1.
         22    1    1    2    0    0 -0.14215071666E+02 -0.21121047402E+01  0.42277672379E+02  0.44653452618E+02  0.00000000000E+00 0. -1.
          2    1    1    2  501    0  0.21553153843E+02 -0.64959498540E+01  0.92869649073E+03  0.92896927167E+03  0.25500000000E-02 0. -1.
<mgrwt>
<rscale>  0 0.22510793E+02</rscale>
<asrwt>0</asrwt>
<pdfrwt beam="1">  1       11 0.10000000E+01 0.25821268E+02</pdfrwt>
<pdfrwt beam="2">  1        2 0.38109092E-03 0.22510793E+02</pdfrwt>
<totfact> 0.41411247E+04</totfact>
</mgrwt>
</event>
<event>
 5    1  0.2968854E-003  0.1577724E+03  0.7818608E-02  0.1191235E+00
         11   -1    0    0    0    0  0.00000000000E+00  0.00000000000E+00  0.10002001635E+04  0.10002001635E+04  0.51100000000E-03 0. -1.
          2   -1    0    0  501    0 -0.00000000000E+00 -0.00000000000E+00 -0.65814309113E+02  0.65814309163E+02  0.25500000000E-02 0. -1.
         11    1    1    2    0    0  0.73791584397E+01 -0.23792688179E+02  0.52919214028E+02  0.58489205874E+02  0.51100000000E-03 0. -1.
         22    1    1    2    0    0  0.14315749132E+03 -0.28981193213E+02  0.82573055996E+03  0.83854930358E+03  0.00000000000E+00 0. -1.
          2    1    1    2  501    0 -0.15053664976E+03  0.52773881392E+02  0.55736080391E+02  0.16897596320E+03  0.25500000000E-02 0. -1.
<mgrwt>
<rscale>  0 0.15777242E+03</rscale>
<asrwt>0</asrwt>
<pdfrwt beam="1">  1       11 0.10000000E+01 0.24910720E+02</pdfrwt>
<pdfrwt beam="2">  1        2 0.10127305E-01 0.15777242E+03</pdfrwt>
<totfact> 0.75521573E+02</totfact>
</mgrwt>
</event>
<event>
 5    1  0.2968854E-003  0.3492854E+03  0.7818608E-02  0.1062909E+00
         11   -1    0    0    0    0  0.00000000000E+00  0.00000000000E+00  0.10002093453E+04  0.10002093453E+04  0.51100000000E-03 0. -1.
          2   -1    0    0  501    0 -0.00000000000E+00 -0.00000000000E+00 -0.26737584689E+03  0.26737584691E+03  0.25500000000E-02 0. -1.
         11    1    1    2    0    0 -0.24454702156E+03 -0.24542304508E+03  0.80306037899E+03  0.87460944948E+03  0.51100000000E-03 0. -1.
         22    1    1    2    0    0 -0.96341280483E+01  0.51748358563E+01  0.27692844546E+02  0.29773964943E+02  0.00000000000E+00 0.  1.
          2    1    1    2  501    0  0.25418114961E+03  0.24024820922E+03 -0.97919725087E+02  0.36320177783E+03  0.25500000000E-02 0. -1.
<mgrwt>
<rscale>  0 0.34928539E+03</rscale>
<asrwt>0</asrwt>
<pdfrwt beam="1">  1       11 0.10000000E+01 0.10935966E+02</pdfrwt>
<pdfrwt beam="2">  1        2 0.41143356E-01 0.34928539E+03</pdfrwt>
<totfact> 0.15386538E+02</totfact>
</mgrwt>
</event>
<event>
 5    1  0.2968854E-003  0.4404495E+03  0.7818608E-02  0.1030609E+00
         11   -1    0    0    0    0  0.00000000000E+00  0.00000000000E+00  0.10004936447E+04  0.10004936447E+04  0.51100000000E-03 0.  1.
          2   -1    0    0  501    0 -0.00000000000E+00 -0.00000000000E+00 -0.10076560153E+04  0.10076560153E+04  0.25500000000E-02 0.  1.
         11    1    1    2    0    0 -0.22893333963E+03  0.37025977333E+03  0.77981921965E+03  0.89309618132E+03  0.51100000000E-03 0.  1.
         22    1    1    2    0    0 -0.26832747095E+02 -0.11228822651E+02  0.11097876836E+03  0.11472737163E+03  0.00000000000E+00 0. -1.
          2    1    1    2  501    0  0.25576608672E+03 -0.35903095068E+03 -0.89796035862E+03  0.10003261070E+04  0.25500000000E-02 0.  1.
<mgrwt>
<rscale>  0 0.44044954E+03</rscale>
<asrwt>0</asrwt>
<pdfrwt beam="1">  1       11 0.10000000E+01 0.29087502E+02</pdfrwt>
<pdfrwt beam="2">  1        2 0.15510052E+00 0.44044954E+03</pdfrwt>
<totfact> 0.31726965E+01</totfact>
</mgrwt>
</event>
<event>
 5    1  0.2968854E-003  0.1939444E+03  0.7818608E-02  0.1257984E+00
         11   -1    0    0    0    0  0.00000000000E+00  0.00000000000E+00  0.10004469502E+04  0.10004469502E+04  0.51100000000E-03 0. -1.
          2   -1    0    0  501    0 -0.00000000000E+00 -0.00000000000E+00 -0.58469079873E+02  0.58469079929E+02  0.25500000000E-02 0. -1.
         11    1    1    2    0    0  0.18394304949E+03 -0.13245983613E+02  0.42997675295E+03  0.46785736033E+03  0.51100000000E-03 0. -1.
         22    1    1    2    0    0  0.20658901000E+02  0.60570696859E+02  0.42757883425E+02  0.76966460900E+02  0.00000000000E+00 0. -1.
          2    1    1    2  501    0 -0.20460195049E+03 -0.47324713246E+02  0.46924323392E+03  0.51409220886E+03  0.25500000000E-02 0. -1.
<mgrwt>
<rscale>  0 0.11140841E+03</rscale>
<asrwt>0</asrwt>
<pdfrwt beam="1">  1       11 0.10000000E+01 0.19394437E+03</pdfrwt>
<pdfrwt beam="2">  1        2 0.89992632E-02 0.11140841E+03</pdfrwt>
<totfact> 0.85582483E+02</totfact>
</mgrwt>
</event>
<event>
 5    1  0.2968854E-003  0.7008082E+02  0.7818608E-02  0.1372698E+00
         11   -1    0    0    0    0  0.00000000000E+00  0.00000000000E+00  0.10002719733E+04  0.10002719733E+04  0.51100000000E-03 0. -1.
          2   -1    0    0  501    0 -0.00000000000E+00 -0.00000000000E+00 -0.59880506013E+01  0.59880511442E+01  0.25500000000E-02 0. -1.
         11    1    1    2    0    0 -0.19928684812E+02  0.53175582230E+02  0.21445883592E+03  0.22184992073E+03  0.51100000000E-03 0. -1.
         22    1    1    2    0    0 -0.12283501771E+02  0.49135765786E+01  0.55903057439E+02  0.57447188631E+02  0.00000000000E+00 0. -1.
          2    1    1    2  501    0  0.32212186583E+02 -0.58089158809E+02  0.72392202930E+03  0.72696291505E+03  0.25500000000E-02 0. -1.
<mgrwt>
<rscale>  0 0.66422702E+02</rscale>
<asrwt>0</asrwt>
<pdfrwt beam="1">  1       11 0.10000000E+01 0.70080824E+02</pdfrwt>
<pdfrwt beam="2">  1        2 0.92148912E-03 0.66422702E+02</pdfrwt>
<totfact> 0.16200385E+04</totfact>
</mgrwt>
</event>
<event>
 5    1  0.2968854E-003  0.1883614E+03  0.7818608E-02  0.1180975E+00
         11   -1    0    0    0    0  0.00000000000E+00  0.00000000000E+00  0.10003589371E+04  0.10003589371E+04  0.51100000000E-03 0. -1.
          2   -1    0    0  501    0 -0.00000000000E+00 -0.00000000000E+00 -0.86807735374E+02  0.86807735411E+02  0.25500000000E-02 0. -1.
         11    1    1    2    0    0 -0.62236429503E+02  0.59843049076E+02  0.35155068189E+03  0.36199785305E+03  0.51100000000E-03 0. -1.
         22    1    1    2    0    0  0.11714747171E+02  0.99368551974E+02  0.54854145306E+03  0.55759220775E+03  0.00000000000E+00 0. -1.
          2    1    1    2  501    0  0.50521682332E+02 -0.15921160105E+03  0.13459066745E+02  0.16757661167E+03  0.25500000000E-02 0. -1.
<mgrwt>
<rscale>  0 0.16703525E+03</rscale>
<asrwt>0</asrwt>
<pdfrwt beam="1">  1       11 0.10000000E+01 0.18836143E+03</pdfrwt>
<pdfrwt beam="2">  1        2 0.13359829E-01 0.16703525E+03</pdfrwt>
<totfact> 0.54125918E+02</totfact>
</mgrwt>
</event>
<event>
 5    1  0.2968854E-003  0.1517766E+03  0.7818608E-02  0.1200239E+00
         11   -1    0    0    0    0  0.00000000000E+00  0.00000000000E+00  0.10004255302E+04  0.10004255302E+04  0.51100000000E-03 0.  1.
         -2   -1    0    0    0  501 -0.00000000000E+00 -0.00000000000E+00 -0.23550700158E+02  0.23550700296E+02  0.25500000000E-02 0.  1.
         11    1    1    2    0    0  0.10411624883E+02 -0.42355740224E+01  0.19236770010E+02  0.22279931344E+02  0.51100000000E-03 0.  1.
         22    1    1    2    0    0  0.10261467291E+03 -0.94669906051E+02  0.37944817376E+03  0.40431804162E+03  0.00000000000E+00 0.  1.
         -2    1    1    2    0  501 -0.11302629779E+03  0.98905480073E+02  0.57818988629E+03  0.59737825755E+03  0.25500000000E-02 0.  1.
<mgrwt>
<rscale>  0 0.15019067E+03</rscale>
<asrwt>0</asrwt>
<pdfrwt beam="1">  1       11 0.10000000E+01 0.15177663E+03</pdfrwt>
<pdfrwt beam="2">  1       -2 0.36247263E-02 0.15019067E+03</pdfrwt>
<totfact> 0.24096488E+03</totfact>
</mgrwt>
</event>
<event>
 5    1  0.2968854E-003  0.2002761E+03  0.7818608E-02  0.1151243E+00
         11   -1    0    0    0    0  0.00000000000E+00  0.00000000000E+00  0.10000205328E+04  0.10000205328E+04  0.51100000000E-03 0. -1.
          2   -1    0    0  501    0 -0.00000000000E+00 -0.00000000000E+00 -0.57366042727E+03  0.57366042728E+03  0.25500000000E-02 0.  1.
         11    1    1    2    0    0  0.98475403832E+02  0.14596562079E+03  0.85955462153E+03  0.87740384944E+03  0.51100000000E-03 0. -1.
         22    1    1    2    0    0  0.20760503545E+02  0.12392040130E+02  0.11282601093E+03  0.11538747726E+03  0.00000000000E+00 0. -1.
          2    1    1    2  501    0 -0.11923590738E+03 -0.15835766092E+03 -0.54602052691E+03  0.58088963341E+03  0.25500000000E-02 0.  1.
<mgrwt>
<rscale>  0 0.19822803E+03</rscale>
<asrwt>0</asrwt>
<pdfrwt beam="1">  1       11 0.10000000E+01 0.20027612E+03</pdfrwt>
<pdfrwt beam="2">  1        2 0.88257260E-01 0.19822803E+03</pdfrwt>
<totfact> 0.66735955E+01</totfact>
</mgrwt>
</event>
<event>
 5    1  0.2968854E-003  0.1782010E+03  0.7818608E-02  0.1172039E+00
         11   -1    0    0    0    0  0.00000000000E+00  0.00000000000E+00  0.10000020790E+04  0.10000020790E+04  0.51100000000E-03 0.  1.
         -2   -1    0    0    0  501 -0.00000000000E+00 -0.00000000000E+00 -0.31843652683E+02  0.31843652785E+02  0.25500000000E-02 0.  1.
         11    1    1    2    0    0 -0.12406926907E+03 -0.10318662185E+03  0.48334311596E+03  0.50956965197E+03  0.51100000000E-03 0.  1.
         22    1    1    2    0    0 -0.66245370791E+01 -0.14229519309E+02  0.70906433765E+02  0.72622903140E+02  0.00000000000E+00 0. -1.
         -2    1    1    2    0  501  0.13069380615E+03  0.11741614116E+03  0.41390887656E+03  0.44965317665E+03  0.25500000000E-02 0.  1.
<mgrwt>
<rscale>  0 0.17569127E+03</rscale>
<asrwt>0</asrwt>
<pdfrwt beam="1">  1       11 0.10000000E+01 0.17820103E+03</pdfrwt>
<pdfrwt beam="2">  1       -2 0.48990335E-02 0.17569127E+03</pdfrwt>
<totfact> 0.15570260E+03</totfact>
</mgrwt>
</event>
<event>
 5    1  0.2968854E-003  0.1866000E+03  0.7818608E-02  0.1161564E+00
         11   -1    0    0    0    0  0.00000000000E+00  0.00000000000E+00  0.10001769193E+04  0.10001769193E+04  0.51100000000E-03 0. -1.
         -2   -1    0    0    0  501 -0.00000000000E+00 -0.00000000000E+00 -0.84971873911E+03  0.84971873911E+03  0.25500000000E-02 0.  1.
         11    1    1    2    0    0 -0.59699469558E+01  0.22206872214E+02  0.18675204341E+02  0.29623448442E+02  0.51100000000E-03 0. -1.
         22    1    1    2    0    0 -0.43490307109E+02  0.15797342848E+03  0.95865292001E+03  0.97255459074E+03  0.00000000000E+00 0. -1.
         -2    1    1    2    0  501  0.49460254065E+02 -0.18018030070E+03 -0.82686994413E+03  0.84771761926E+03  0.25500000000E-02 0.  1.
<mgrwt>
<rscale>  0 0.18660001E+03</rscale>
<asrwt>0</asrwt>
<pdfrwt beam="1">  1       11 0.10000000E+01 0.22995335E+02</pdfrwt>
<pdfrwt beam="2">  1       -2 0.13074908E+00 0.18660001E+03</pdfrwt>
<totfact> 0.37128760E+00</totfact>
</mgrwt>
</event>
<event>
 5    1  0.4885237E-003  0.2378746E+03  0.7818608E-02  0.1123912E+00
         11   -1    0    0    0    0  0.00000000000E+00  0.00000000000E+00  0.10001043101E+04  0.10001043101E+04  0.51100000000E-03 0.  1.
          2   -1    0    0  501    0 -0.00000000000E+00 -0.00000000000E+00 -0.88590264245E+03  0.88590264245E+03  0.25500000000E-02 0.  1.
         11    1    1    2    0    0 -0.43168044005E+02 -0.22046782789E+03  0.91209036006E+03  0.93934997103E+03  0.51100000000E-03 0.  1.
         22    1    1    2    0    0 -0.11133003910E+02 -0.70604769535E+01  0.57947979455E+02  0.59428633114E+02  0.00000000000E+00 0. -1.
          2    1    1    2  501    0  0.54301047915E+02  0.22752830484E+03 -0.85583667186E+03  0.88722834841E+03  0.25500000000E-02 0.  1.
<mgrwt>
<rscale>  0 0.23391822E+03</rscale>
<asrwt>0</asrwt>
<pdfrwt beam="1">  1       11 0.10000000E+01 0.23787459E+03</pdfrwt>
<pdfrwt beam="2">  1        2 0.13630693E+00 0.23391822E+03</pdfrwt>
<totfact> 0.39025237E+01</totfact>
</mgrwt>
</event>
<event>
 5    1  0.4002713E-003  0.2169787E+03  0.7818608E-02  0.1143803E+00
         11   -1    0    0    0    0  0.00000000000E+00  0.00000000000E+00  0.10013659035E+04  0.10013659035E+04  0.51100000000E-03 0.  1.
          2   -1    0    0  501    0 -0.00000000000E+00 -0.00000000000E+00 -0.17283528592E+04  0.17283528592E+04  0.25500000000E-02 0.  1.
         11    1    1    2    0    0 -0.15177591403E+03 -0.11838095505E+03  0.88763881589E+03  0.90826903838E+03  0.51100000000E-03 0.  1.
         22    1    1    2    0    0 -0.23124557223E+02  0.72882212284E+01  0.95646633121E+02  0.98671889324E+02  0.00000000000E+00 0.  1.
          2    1    1    2  501    0  0.17490047126E+03  0.11109273382E+03 -0.17102724047E+04  0.17227778350E+04  0.25500000000E-02 0.  1.
<mgrwt>
<rscale>  0 0.20719983E+03</rscale>
<asrwt>0</asrwt>
<pdfrwt beam="1">  1       11 0.10000000E+01 0.21697870E+03</pdfrwt>
<pdfrwt beam="2">  1        2 0.26626363E+00 0.20719983E+03</pdfrwt>
<totfact> 0.13207302E+01</totfact>
</mgrwt>
</event>
<event>
 5    1  0.2968854E-003  0.1766270E+03  0.7818608E-02  0.1176753E+00
         11   -1    0    0    0    0  0.00000000000E+00  0.00000000000E+00  0.10004054312E+04  0.10004054312E+04  0.51100000000E-03 0. -1.
          2   -1    0    0  501    0 -0.00000000000E+00 -0.00000000000E+00 -0.54536316042E+02  0.54536316102E+02  0.25500000000E-02 0. -1.
         11    1    1    2    0    0 -0.36023756207E+02  0.12728885176E+03  0.65053126257E+03  0.66384567964E+03  0.51100000000E-03 0. -1.
         22    1    1    2    0    0 -0.32379729260E+02  0.29492499504E+02  0.17887467116E+03  0.18415863373E+03  0.00000000000E+00 0.  1.
          2    1    1    2  501    0  0.68403485468E+02 -0.15678135126E+03  0.11646318142E+03  0.20693743392E+03  0.25500000000E-02 0. -1.
<mgrwt>
<rscale>  0 0.17105388E+03</rscale>
<asrwt>0</asrwt>
<pdfrwt beam="1">  1       11 0.10000000E+01 0.17662704E+03</pdfrwt>
<pdfrwt beam="2">  1        2 0.83936039E-02 0.17105388E+03</pdfrwt>
<totfact> 0.95828167E+02</totfact>
</mgrwt>
</event>
<event>
 5    1  0.2968854E-003  0.6756280E+03  0.7818608E-02  0.9763170E-01
         11   -1    0    0    0    0  0.00000000000E+00  0.00000000000E+00  0.99985085087E+03  0.99985085087E+03  0.51100000000E-03 0. -1.
          2   -1    0    0  501    0 -0.00000000000E+00 -0.00000000000E+00 -0.66414511460E+03  0.66414511461E+03  0.25500000000E-02 0. -1.
         11    1    1    2    0    0  0.21560449286E+03 -0.61718095562E+03  0.60525646019E+03  0.89091695007E+03  0.51100000000E-03 0. -1.
         22    1    1    2    0    0  0.90791282818E+00 -0.20854589081E+02  0.29323925792E+02  0.35994872070E+02  0.00000000000E+00 0.  1.
          2    1    1    2  501    0 -0.21651240568E+03  0.63803554470E+03 -0.29887464972E+03  0.73708414334E+03  0.25500000000E-02 0. -1.
<mgrwt>
<rscale>  0 0.67377072E+03</rscale>
<asrwt>0</asrwt>
<pdfrwt beam="1">  1       11 0.10000000E+01 0.67562805E+03</pdfrwt>
<pdfrwt beam="2">  1        2 0.10216093E+00 0.67377072E+03</pdfrwt>
<totfact> 0.54424339E+01</totfact>
</mgrwt>
</event>
<event>
 5    1  0.2968854E-003  0.8929953E+02  0.7818608E-02  0.1565518E+00
         11   -1    0    0    0    0  0.00000000000E+00  0.00000000000E+00  0.99981278750E+03  0.99981278750E+03  0.51100000000E-03 0. -1.
          2   -1    0    0  501    0 -0.00000000000E+00 -0.00000000000E+00 -0.14586986020E+03  0.14586986023E+03  0.25500000000E-02 0. -1.
         11    1    1    2    0    0  0.71418758442E+02 -0.45670461204E+02  0.48929849402E+03  0.49658780324E+03  0.51100000000E-03 0. -1.
         22    1    1    2    0    0 -0.95439581125E+02  0.22801693586E+02  0.50010116817E+03  0.50963693869E+03  0.00000000000E+00 0. -1.
          2    1    1    2  501    0  0.24020822682E+02  0.22868767618E+02 -0.13545673489E+03  0.13945790579E+03  0.25500000000E-02 0. -1.
<mgrwt>
<rscale>  0 0.33165953E+02</rscale>
<asrwt>0</asrwt>
<pdfrwt beam="1">  1       11 0.10000000E+01 0.89299530E+02</pdfrwt>
<pdfrwt beam="2">  1        2 0.22437315E-01 0.33165953E+02</pdfrwt>
<totfact> 0.28006274E+02</totfact>
</mgrwt>
</event>
<event>
 5    1  0.2968854E-003  0.2184423E+03  0.7818608E-02  0.1138515E+00
         11   -1    0    0    0    0  0.00000000000E+00  0.00000000000E+00  0.10001196834E+04  0.10001196834E+04  0.51100000000E-03 0. -1.
          2   -1    0    0  501    0 -0.00000000000E+00 -0.00000000000E+00 -0.75452997525E+02  0.75452997568E+02  0.25500000000E-02 0. -1.
         11    1    1    2    0    0  0.45503860140E+02  0.18102828363E+03  0.65053868353E+03  0.67678831220E+03  0.51100000000E-03 0. -1.
         22    1    1    2    0    0 -0.77108339766E+01  0.29505075062E+02  0.14663410069E+03  0.14977171261E+03  0.00000000000E+00 0. -1.
          2    1    1    2  501    0 -0.37793026164E+02 -0.21053335869E+03  0.12749390162E+03  0.24901265612E+03  0.25500000000E-02 0. -1.
<mgrwt>
<rscale>  0 0.21389859E+03</rscale>
<asrwt>0</asrwt>
<pdfrwt beam="1">  1       11 0.10000000E+01 0.21844227E+03</pdfrwt>
<pdfrwt beam="2">  1        2 0.11609542E-01 0.21389859E+03</pdfrwt>
<totfact> 0.64842883E+02</totfact>
</mgrwt>
</event>
<event>
 5    1  0.2968854E-003  0.1464054E+03  0.7818608E-02  0.1211825E+00
         11   -1    0    0    0    0  0.00000000000E+00  0.00000000000E+00  0.10000771807E+04  0.10000771807E+04  0.51100000000E-03 0. -1.
         -2   -1    0    0    0  501 -0.00000000000E+00 -0.00000000000E+00 -0.21193989443E+02  0.21193989596E+02  0.25500000000E-02 0.  1.
         11    1    1    2    0    0  0.87464672598E+01  0.10970943623E+03  0.50595072748E+03  0.51778257959E+03  0.51100000000E-03 0. -1.
         22    1    1    2    0    0  0.55518692205E+01  0.30687967417E+02  0.72792405324E+02  0.79191595949E+02  0.00000000000E+00 0. -1.
         -2    1    1    2    0  501 -0.14298336480E+02 -0.14039740365E+03  0.40014005849E+03  0.42429699480E+03  0.25500000000E-02 0.  1.
<mgrwt>
<rscale>  0 0.14112361E+03</rscale>
<asrwt>0</asrwt>
<pdfrwt beam="1">  1       11 0.10000000E+01 0.14640544E+03</pdfrwt>
<pdfrwt beam="2">  1       -2 0.32608653E-02 0.14112361E+03</pdfrwt>
<totfact> 0.28004960E+03</totfact>
</mgrwt>
</event>
<event>
 5    1  0.2968854E-003  0.1257761E+03  0.7818608E-02  0.1238319E+00
         11   -1    0    0    0    0  0.00000000000E+00  0.00000000000E+00  0.10001303431E+04  0.10001303431E+04  0.51100000000E-03 0. -1.
         -2   -1    0    0    0  501 -0.00000000000E+00 -0.00000000000E+00 -0.18588766188E+02  0.18588766363E+02  0.25500000000E-02 0. -1.
         11    1    1    2    0    0 -0.12898122095E+02  0.10944138644E+03  0.66502502851E+03  0.67409351515E+03  0.51100000000E-03 0. -1.
         22    1    1    2    0    0  0.79135130761E+00  0.12904061369E+02  0.39245903219E+02  0.41320478654E+02  0.00000000000E+00 0. -1.
         -2    1    1    2    0  501  0.12106770788E+02 -0.12234544781E+03  0.27727064516E+03  0.30330511563E+03  0.25500000000E-02 0. -1.
<mgrwt>
<rscale>  0 0.12294301E+03</rscale>
<asrwt>0</asrwt>
<pdfrwt beam="1">  1       11 0.10000000E+01 0.12577614E+03</pdfrwt>
<pdfrwt beam="2">  1       -2 0.28601829E-02 0.12294301E+03</pdfrwt>
<totfact> 0.33459059E+03</totfact>
</mgrwt>
</event>
<event>
 5    1  0.2968854E-003  0.4218607E+02  0.7818608E-02  0.1651063E+00
         11   -1    0    0    0    0  0.00000000000E+00  0.00000000000E+00  0.10003114996E+04  0.10003114996E+04  0.51100000000E-03 0.  1.
          2   -1    0    0  501    0 -0.00000000000E+00 -0.00000000000E+00 -0.12759749910E+02  0.12759750165E+02  0.25500000000E-02 0.  1.
         11    1    1    2    0    0 -0.16210830742E+02  0.27796101939E+02  0.15947709956E+02  0.35913002791E+02  0.51100000000E-03 0.  1.
         22    1    1    2    0    0  0.70982174999E+01  0.13963381292E+02  0.24430818575E+02  0.29021123428E+02  0.00000000000E+00 0.  1.
          2    1    1    2  501    0  0.91126132418E+01 -0.41759483231E+02  0.94717322115E+03  0.94813712353E+03  0.25500000000E-02 0.  1.
<mgrwt>
<rscale>  0 0.25706069E+02</rscale>
<asrwt>0</asrwt>
<pdfrwt beam="1">  1       11 0.10000000E+01 0.42186067E+02</pdfrwt>
<pdfrwt beam="2">  1        2 0.19636499E-02 0.25706069E+02</pdfrwt>
<totfact> 0.50216804E+03</totfact>
</mgrwt>
</event>
<event>
 5    1  0.2968854E-003  0.8641055E+02  0.7818608E-02  0.1401904E+00
         11   -1    0    0    0    0  0.00000000000E+00  0.00000000000E+00  0.10000863819E+04  0.10000863819E+04  0.51100000000E-03 0. -1.
          2   -1    0    0  501    0 -0.00000000000E+00 -0.00000000000E+00 -0.27217238095E+02  0.27217238215E+02  0.25500000000E-02 0.  1.
         11    1    1    2    0    0  0.11159106140E+03 -0.11737983550E+02  0.47874826173E+03  0.49172171333E+03  0.51100000000E-03 0. -1.
         22    1    1    2    0    0 -0.71241760890E+02 -0.31362827560E+02  0.46171986973E+03  0.46823525449E+03  0.00000000000E+00 0. -1.
          2    1    1    2  501    0 -0.40349300514E+02  0.43100811110E+02  0.32401012374E+02  0.67346652327E+02  0.25500000000E-02 0.  1.
<mgrwt>
<rscale>  0 0.59040206E+02</rscale>
<asrwt>0</asrwt>
<pdfrwt beam="1">  1       11 0.10000000E+01 0.86410546E+02</pdfrwt>
<pdfrwt beam="2">  1        2 0.41876290E-02 0.59040206E+02</pdfrwt>
<totfact> 0.21300730E+03</totfact>
</mgrwt>
</event>
<event>
 5    1  0.2968854E-003  0.2753661E+03  0.7818608E-02  0.1100917E+00
         11   -1    0    0    0    0  0.00000000000E+00  0.00000000000E+00  0.10002140061E+04  0.10002140061E+04  0.51100000000E-03 0. -1.
          2   -1    0    0  501    0 -0.00000000000E+00 -0.00000000000E+00 -0.54761057062E+03  0.54761057063E+03  0.25500000000E-02 0. -1.
         11    1    1    2    0    0 -0.87295593559E+02  0.19544151634E+03  0.81316306776E+03  0.84086389013E+03  0.51100000000E-03 0. -1.
         22    1    1    2    0    0 -0.24669090450E+02  0.50947215064E+02  0.13273643057E+03  0.14430226175E+03  0.00000000000E+00 0. -1.
          2    1    1    2  501    0  0.11196468401E+03 -0.24638873140E+03 -0.49329606285E+03  0.56265842485E+03  0.25500000000E-02 0. -1.
<mgrwt>
<rscale>  0 0.27063536E+03</rscale>
<asrwt>0</asrwt>
<pdfrwt beam="1">  1       11 0.10000000E+01 0.27536609E+03</pdfrwt>
<pdfrwt beam="2">  1        2 0.84265807E-01 0.27063536E+03</pdfrwt>
<totfact> 0.69917862E+01</totfact>
</mgrwt>
</event>
<event>
 5    1  0.2968854E-003  0.2413083E+03  0.7818608E-02  0.1123950E+00
         11   -1    0    0    0    0  0.00000000000E+00  0.00000000000E+00  0.99988705054E+03  0.99988705054E+03  0.51100000000E-03 0. -1.
          2   -1    0    0  501    0 -0.00000000000E+00 -0.00000000000E+00 -0.22943354214E+04  0.22943354214E+04  0.25500000000E-02 0.  1.
         11    1    1    2    0    0 -0.43576198002E+02  0.62807194246E+02  0.40683872432E+03  0.41395818181E+03  0.51100000000E-03 0. -1.
         22    1    1    2    0    0 -0.38433883327E+02  0.15620484669E+03  0.57240365691E+03  0.59457805540E+03  0.00000000000E+00 0. -1.
          2    1    1    2  501    0  0.82010081329E+02 -0.21901204094E+03 -0.22736907521E+04  0.22856862347E+04  0.25500000000E-02 0.  1.
<mgrwt>
<rscale>  0 0.23386305E+03</rscale>
<asrwt>0</asrwt>
<pdfrwt beam="1">  1       11 0.10000000E+01 0.24130831E+03</pdfrwt>
<pdfrwt beam="2">  1        2 0.35293480E+00 0.23386305E+03</pdfrwt>
<totfact> 0.66111872E+00</totfact>
</mgrwt>
</event>
<event>
 5    1  0.2968854E-003  0.1585499E+03  0.7818608E-02  0.1194851E+00
         11   -1    0    0    0    0  0.00000000000E+00  0.00000000000E+00  0.10002563812E+04  0.10002563812E+04  0.51100000000E-03 0. -1.
          2   -1    0    0  501    0 -0.00000000000E+00 -0.00000000000E+00 -0.64568313044E+02  0.64568313095E+02  0.25500000000E-02 0. -1.
         11    1    1    2    0    0 -0.96462408749E+02 -0.21312371366E+01  0.52256749771E+03  0.53140034639E+03  0.51100000000E-03 0. -1.
         22    1    1    2    0    0 -0.55254209955E+02 -0.27941177046E+02  0.36677086693E+03  0.37196048973E+03  0.00000000000E+00 0. -1.
          2    1    1    2  501    0  0.15171661870E+03  0.30072414182E+02  0.46349703559E+02  0.16146385822E+03  0.25500000000E-02 0. -1.
<mgrwt>
<rscale>  0 0.15466830E+03</rscale>
<asrwt>0</asrwt>
<pdfrwt beam="1">  1       11 0.10000000E+01 0.15854991E+03</pdfrwt>
<pdfrwt beam="2">  1        2 0.99361331E-02 0.15466830E+03</pdfrwt>
<totfact> 0.77229887E+02</totfact>
</mgrwt>
</event>
<event>
 5    1  0.2968854E-003  0.6000945E+02  0.7818608E-02  0.1397792E+00
         11   -1    0    0    0    0  0.00000000000E+00  0.00000000000E+00  0.10003032566E+04  0.10003032566E+04  0.51100000000E-03 0.  1.
          2   -1    0    0  501    0 -0.00000000000E+00 -0.00000000000E+00 -0.44272833205E+02  0.44272833279E+02  0.25500000000E-02 0.  1.
         11    1    1    2    0    0 -0.95023654354E+02  0.58488603373E+02  0.67294265772E+03  0.68213065625E+03  0.51100000000E-03 0.  1.
         22    1    1    2    0    0  0.54285931724E+02 -0.16693030864E+02  0.29705269891E+03  0.30243334074E+03  0.00000000000E+00 0. -1.
          2    1    1    2  501    0  0.40737722630E+02 -0.41795572509E+02 -0.13964933235E+02  0.60012092891E+02  0.25500000000E-02 0.  1.
<mgrwt>
<rscale>  0 0.60009445E+02</rscale>
<asrwt>0</asrwt>
<pdfrwt beam="1">  1       11 0.10000000E+01 0.56794539E+02</pdfrwt>
<pdfrwt beam="2">  1        2 0.68132705E-02 0.60009445E+02</pdfrwt>
<totfact> 0.11528372E+03</totfact>
</mgrwt>
</event>
<event>
 5    1  0.2968854E-003  0.4717432E+02  0.7818608E-02  0.1471566E+00
         11   -1    0    0    0    0  0.00000000000E+00  0.00000000000E+00  0.99991325663E+03  0.99991325663E+03  0.51100000000E-03 0. -1.
          2   -1    0    0  501    0 -0.00000000000E+00 -0.00000000000E+00 -0.33195919672E+01  0.33195929466E+01  0.25500000000E-02 0. -1.
         11    1    1    2    0    0  0.57452807701E+01 -0.24127545927E+02  0.11270447818E+03  0.11540123970E+03  0.51100000000E-03 0. -1.
         22    1    1    2    0    0 -0.66765100676E+01 -0.21310684158E+02  0.93232508304E+02  0.95869816161E+02  0.00000000000E+00 0. -1.
          2    1    1    2  501    0  0.93122929753E+00  0.45438230086E+02  0.79065667818E+03  0.79196179372E+03  0.25500000000E-02 0. -1.
<mgrwt>
<rscale>  0 0.45447772E+02</rscale>
<asrwt>0</asrwt>
<pdfrwt beam="1">  1       11 0.10000000E+01 0.47174322E+02</pdfrwt>
<pdfrwt beam="2">  1        2 0.51066222E-03 0.45447772E+02</pdfrwt>
<totfact> 0.33413862E+04</totfact>
</mgrwt>
</event>
<event>
 5    1  0.2968854E-003  0.3165192E+03  0.7818608E-02  0.1077262E+00
         11   -1    0    0    0    0  0.00000000000E+00  0.00000000000E+00  0.10011559717E+04  0.10011559717E+04  0.51100000000E-03 0. -1.
          2   -1    0    0  501    0 -0.00000000000E+00 -0.00000000000E+00 -0.14271797894E+04  0.14271797894E+04  0.25500000000E-02 0. -1.
         11    1    1    2    0    0 -0.26037527435E+03 -0.20753067737E+03  0.23772983407E+03  0.40912069069E+03  0.51100000000E-03 0. -1.
         22    1    1    2    0    0 -0.52929515615E+02  0.15398592363E+03  0.64869920765E+03  0.66882274206E+03  0.00000000000E+00 0. -1.
          2    1    1    2  501    0  0.31330478997E+03  0.53544753739E+02 -0.13124528594E+04  0.13503923283E+04  0.25500000000E-02 0. -1.
<mgrwt>
<rscale>  0 0.31651923E+03</rscale>
<asrwt>0</asrwt>
<pdfrwt beam="1">  1       11 0.10000000E+01 0.16282874E+03</pdfrwt>
<pdfrwt beam="2">  1        2 0.21981993E+00 0.31651923E+03</pdfrwt>
<totfact> 0.18485853E+01</totfact>
</mgrwt>
</event>
<event>
 5    1  0.2968854E-003  0.1066948E+03  0.7818608E-02  0.1479385E+00
         11   -1    0    0    0    0  0.00000000000E+00  0.00000000000E+00  0.10001759914E+04  0.10001759914E+04  0.51100000000E-03 0. -1.
          2   -1    0    0  501    0 -0.00000000000E+00 -0.00000000000E+00 -0.23981019630E+02  0.23981019765E+02  0.25500000000E-02 0. -1.
         11    1    1    2    0    0 -0.13437850906E+03 -0.18933379372E+02  0.44831284762E+03  0.46840203447E+03  0.51100000000E-03 0. -1.
         22    1    1    2    0    0  0.90597060763E+02  0.25016695175E+02  0.48551165473E+03  0.49452525652E+03  0.00000000000E+00 0. -1.
          2    1    1    2  501    0  0.43781448301E+02 -0.60833158033E+01  0.42370469388E+02  0.61229720146E+02  0.25500000000E-02 0. -1.
<mgrwt>
<rscale>  0 0.44202058E+02</rscale>
<asrwt>0</asrwt>
<pdfrwt beam="1">  1       11 0.10000000E+01 0.10669476E+03</pdfrwt>
<pdfrwt beam="2">  1        2 0.36900368E-02 0.44202058E+02</pdfrwt>
<totfact> 0.24219707E+03</totfact>
</mgrwt>
</event>
<event>
 5    1  0.2968854E-003  0.2683494E+03  0.7818608E-02  0.1103412E+00
         11   -1    0    0    0    0  0.00000000000E+00  0.00000000000E+00  0.10003278956E+04  0.10003278956E+04  0.51100000000E-03 0.  1.
          2   -1    0    0  501    0 -0.00000000000E+00 -0.00000000000E+00 -0.11703042950E+03  0.11703042953E+03  0.25500000000E-02 0.  1.
         11    1    1    2    0    0 -0.23899280126E+03 -0.89441834977E+02  0.73815390511E+03  0.78101766211E+03  0.51100000000E-03 0.  1.
         22    1    1    2    0    0 -0.12224333402E+02  0.10695325194E+01  0.53217070148E+02  0.54613503661E+02  0.00000000000E+00 0.  1.
          2    1    1    2  501    0  0.25121713466E+03  0.88372302458E+02  0.91926490817E+02  0.28172715934E+03  0.25500000000E-02 0.  1.
<mgrwt>
<rscale>  0 0.26630755E+03</rscale>
<asrwt>0</asrwt>
<pdfrwt beam="1">  1       11 0.10000000E+01 0.26834945E+03</pdfrwt>
<pdfrwt beam="2">  1        2 0.18010585E-01 0.26630755E+03</pdfrwt>
<totfact> 0.38696411E+02</totfact>
</mgrwt>
</event>
<event>
 5    1  0.2968854E-003  0.1575561E+03  0.7818608E-02  0.1198787E+00
         11   -1    0    0    0    0  0.00000000000E+00  0.00000000000E+00  0.10000442118E+04  0.10000442118E+04  0.51100000000E-03 0. -1.
          2   -1    0    0  501    0 -0.00000000000E+00 -0.00000000000E+00 -0.46717077247E+02  0.46717077317E+02  0.25500000000E-02 0. -1.
         11    1    1    2    0    0 -0.43561521234E+01  0.38917660394E+02  0.15364411740E+03  0.15855622083E+03  0.51100000000E-03 0. -1.
         22    1    1    2    0    0  0.44096644927E+02  0.10715296495E+03  0.69394602730E+03  0.70355338163E+03  0.00000000000E+00 0. -1.
          2    1    1    2  501    0 -0.39740492803E+02 -0.14607062534E+03  0.10573698984E+03  0.18465168665E+03  0.25500000000E-02 0. -1.
<mgrwt>
<rscale>  0 0.15138010E+03</rscale>
<asrwt>0</asrwt>
<pdfrwt beam="1">  1       11 0.10000000E+01 0.15755606E+03</pdfrwt>
<pdfrwt beam="2">  1        2 0.71875602E-02 0.15138010E+03</pdfrwt>
<totfact> 0.11570806E+03</totfact>
</mgrwt>
</event>
<event>
 5    1  0.2968854E-003  0.1504581E+03  0.7818608E-02  0.1199911E+00
         11   -1    0    0    0    0  0.00000000000E+00  0.00000000000E+00  0.99971276279E+03  0.99971276279E+03  0.51100000000E-03 0. -1.
          2   -1    0    0  501    0 -0.00000000000E+00 -0.00000000000E+00 -0.29182366775E+03  0.29182366776E+03  0.25500000000E-02 0.  1.
         11    1    1    2    0    0  0.79454876904E+02  0.55746033488E+01  0.46597422043E+03  0.47273261763E+03  0.51100000000E-03 0. -1.
         22    1    1    2    0    0 -0.12005991202E+03 -0.14933114329E+03  0.49172438405E+03  0.52773766466E+03  0.00000000000E+00 0. -1.
          2    1    1    2  501    0  0.40605035113E+02  0.14375653994E+03 -0.24980950943E+03  0.29106614826E+03  0.25500000000E-02 0.  1.
<mgrwt>
<rscale>  0 0.15045807E+03</rscale>
<asrwt>0</asrwt>
<pdfrwt beam="1">  1       11 0.10000000E+01 0.79650196E+02</pdfrwt>
<pdfrwt beam="2">  1        2 0.44883052E-01 0.15045807E+03</pdfrwt>
<totfact> 0.13957466E+02</totfact>
</mgrwt>
</event>
<event>
 5    1  0.2968854E-003  0.1548706E+03  0.7818608E-02  0.1195864E+00
         11   -1    0    0    0    0  0.00000000000E+00  0.00000000000E+00  0.10000982678E+04  0.10000982678E+04  0.51100000000E-03 0. -1.
          2   -1    0    0  501    0 -0.00000000000E+00 -0.00000000000E+00 -0.29814896631E+02  0.29814896740E+02  0.25500000000E-02 0. -1.
         11    1    1    2    0    0  0.12270660902E+02 -0.14367861377E+03  0.24392529043E+03  0.28336136026E+03  0.51100000000E-03 0. -1.
         22    1    1    2    0    0  0.42712148043E+01 -0.92426623574E+01  0.11616503451E+02  0.15447110920E+02  0.00000000000E+00 0. -1.
          2    1    1    2  501    0 -0.16541875706E+02  0.15292127613E+03  0.71474157726E+03  0.73110469333E+03  0.25500000000E-02 0. -1.
<mgrwt>
<rscale>  0 0.15381336E+03</rscale>
<asrwt>0</asrwt>
<pdfrwt beam="1">  1       11 0.10000000E+01 0.15487057E+03</pdfrwt>
<pdfrwt beam="2">  1        2 0.45873578E-02 0.15381336E+03</pdfrwt>
<totfact> 0.20730722E+03</totfact>
</mgrwt>
</event>
<event>
 5    1  0.2968854E-003  0.2902716E+03  0.7818608E-02  0.1090207E+00
         11   -1    0    0    0    0  0.00000000000E+00  0.00000000000E+00  0.10003691881E+04  0.10003691881E+04  0.51100000000E-03 0. -1.
          2   -1    0    0  501    0 -0.00000000000E+00 -0.00000000000E+00 -0.15075242416E+03  0.15075242418E+03  0.25500000000E-02 0. -1.
         11    1    1    2    0    0 -0.23481781660E+02  0.24728986819E+03  0.35047195453E+03  0.42957451495E+03  0.51100000000E-03 0. -1.
         22    1    1    2    0    0 -0.29769028085E+02  0.63437287132E+02  0.37699609358E+03  0.38345343786E+03  0.00000000000E+00 0. -1.
          2    1    1    2  501    0  0.53250809745E+02 -0.31072715532E+03  0.12214871581E+03  0.33809365947E+03  0.25500000000E-02 0. -1.
<mgrwt>
<rscale>  0 0.29027159E+03</rscale>
<asrwt>0</asrwt>
<pdfrwt beam="1">  1       11 0.10000000E+01 0.70074849E+02</pdfrwt>
<pdfrwt beam="2">  1        2 0.23201242E-01 0.29027159E+03</pdfrwt>
<totfact> 0.28980934E+02</totfact>
</mgrwt>
</event>
<event>
 5    1  0.2968854E-003  0.1700752E+03  0.7818608E-02  0.1180570E+00
         11   -1    0    0    0    0  0.00000000000E+00  0.00000000000E+00  0.99984049862E+03  0.99984049862E+03  0.51100000000E-03 0. -1.
         -2   -1    0    0    0  501 -0.00000000000E+00 -0.00000000000E+00 -0.83933401003E+02  0.83933401042E+02  0.25500000000E-02 0. -1.
         11    1    1    2    0    0 -0.12933042357E+02  0.77805761544E+01  0.86912921269E+02  0.88213699807E+02  0.51100000000E-03 0. -1.
         22    1    1    2    0    0 -0.61244746998E+02  0.14230457547E+03  0.81272148971E+03  0.82735586725E+03  0.00000000000E+00 0. -1.
         -2    1    1    2    0  501  0.74177789355E+02 -0.15008515163E+03  0.16272686643E+02  0.16820433261E+03  0.25500000000E-02 0. -1.
<mgrwt>
<rscale>  0 0.16741534E+03</rscale>
<asrwt>0</asrwt>
<pdfrwt beam="1">  1       11 0.10000000E+01 0.17007516E+03</pdfrwt>
<pdfrwt beam="2">  1       -2 0.12910771E-01 0.16741534E+03</pdfrwt>
<totfact> 0.34366717E+02</totfact>
</mgrwt>
</event>
<event>
 5    1  0.2968854E-003  0.2573479E+03  0.7818608E-02  0.1108747E+00
         11   -1    0    0    0    0  0.00000000000E+00  0.00000000000E+00  0.10002289222E+04  0.10002289222E+04  0.51100000000E-03 0. -1.
          2   -1    0    0  501    0 -0.00000000000E+00 -0.00000000000E+00 -0.20509489560E+03  0.20509489561E+03  0.25500000000E-02 0. -1.
         11    1    1    2    0    0 -0.76082776675E+02 -0.23716950737E+03  0.77295462444E+03  0.81209409281E+03  0.51100000000E-03 0. -1.
         22    1    1    2    0    0  0.24657727566E+02 -0.16115725231E+02  0.11492467368E+03  0.11863979412E+03  0.00000000000E+00 0.  1.
          2    1    1    2  501    0  0.51425049109E+02  0.25328523260E+03 -0.92745271537E+02  0.27458993086E+03  0.25500000000E-02 0. -1.
<mgrwt>
<rscale>  0 0.25734791E+03</rscale>
<asrwt>0</asrwt>
<pdfrwt beam="1">  1       11 0.10000000E+01 0.29457090E+02</pdfrwt>
<pdfrwt beam="2">  1        2 0.31560283E-01 0.25734791E+03</pdfrwt>
<totfact> 0.20514347E+02</totfact>
</mgrwt>
</event>
<event>
 5    1  0.2968854E-003  0.1949985E+03  0.7818608E-02  0.1159076E+00
         11   -1    0    0    0    0  0.00000000000E+00  0.00000000000E+00  0.10007054040E+04  0.10007054040E+04  0.51100000000E-03 0. -1.
          2   -1    0    0  501    0 -0.00000000000E+00 -0.00000000000E+00 -0.14094591457E+04  0.14094591457E+04  0.25500000000E-02 0. -1.
         11    1    1    2    0    0  0.55351782870E+02 -0.98634978041E+01  0.25157443223E+03  0.25778053341E+03  0.51100000000E-03 0. -1.
         22    1    1    2    0    0  0.10705798776E+03 -0.87425239198E+02  0.73316958881E+03  0.74608460052E+03  0.00000000000E+00 0. -1.
          2    1    1    2  501    0 -0.16240977063E+03  0.97288737002E+02 -0.13934977628E+04  0.14062994158E+04  0.25500000000E-02 0. -1.
<mgrwt>
<rscale>  0 0.18931992E+03</rscale>
<asrwt>0</asrwt>
<pdfrwt beam="1">  1       11 0.10000000E+01 0.19499851E+03</pdfrwt>
<pdfrwt beam="2">  1        2 0.21699282E+00 0.18931992E+03</pdfrwt>
<totfact> 0.19610492E+01</totfact>
</mgrwt>
</event>
<event>
 5    1  0.2968854E-003  0.1481979E+03  0.7818608E-02  0.1202705E+00
         11   -1    0    0    0    0  0.00000000000E+00  0.00000000000E+00  0.10002121918E+04  0.10002121918E+04  0.51100000000E-03 0. -1.
          2   -1    0    0  501    0 -0.00000000000E+00 -0.00000000000E+00 -0.86039758432E+03  0.86039758433E+03  0.25500000000E-02 0. -1.
         11    1    1    2    0    0 -0.12425168770E+03 -0.98015563324E+02  0.77839349940E+03  0.79431855855E+03  0.51100000000E-03 0. -1.
         22    1    1    2    0    0 -0.10773773706E+02  0.37043873136E+02  0.20561133712E+03  0.20919929419E+03  0.00000000000E+00 0.  1.
          2    1    1    2  501    0  0.13502546140E+03  0.60971690188E+02 -0.84419022907E+03  0.85709192336E+03  0.25500000000E-02 0. -1.
<mgrwt>
<rscale>  0 0.14819785E+03</rscale>
<asrwt>0</asrwt>
<pdfrwt beam="1">  1       11 0.10000000E+01 0.38578786E+02</pdfrwt>
<pdfrwt beam="2">  1        2 0.13239694E+00 0.14819785E+03</pdfrwt>
<totfact> 0.41306798E+01</totfact>
</mgrwt>
</event>
<event>
 5    1  0.2968854E-003  0.2981167E+03  0.7818608E-02  0.1283630E+00
         11   -1    0    0    0    0  0.00000000000E+00  0.00000000000E+00  0.10001168944E+04  0.10001168944E+04  0.51100000000E-03 0.  1.
          2   -1    0    0  501    0 -0.00000000000E+00 -0.00000000000E+00 -0.53546225895E+03  0.53546225895E+03  0.25500000000E-02 0. -1.
         11    1    1    2    0    0 -0.15964474125E+02  0.29005618478E+03  0.56620295879E+03  0.63637508225E+03  0.51100000000E-03 0.  1.
         22    1    1    2    0    0  0.11377164746E+03 -0.30112009777E+03  0.32738147825E+03  0.45912518266E+03  0.00000000000E+00 0. -1.
          2    1    1    2  501    0 -0.97807173339E+02  0.11063912999E+02 -0.42892980161E+03  0.44007888843E+03  0.25500000000E-02 0. -1.
<mgrwt>
<rscale>  0 0.98430957E+02</rscale>
<asrwt>0</asrwt>
<pdfrwt beam="1">  1       11 0.10000000E+01 0.29811673E+03</pdfrwt>
<pdfrwt beam="2">  1        2 0.82388436E-01 0.98430957E+02</pdfrwt>
<totfact> 0.73053807E+01</totfact>
</mgrwt>
</event>
<event>
 5    1  0.2968854E-003  0.1357062E+03  0.7818608E-02  0.1221676E+00
         11   -1    0    0    0    0  0.00000000000E+00  0.00000000000E+00  0.10007625071E+04  0.10007625071E+04  0.51100000000E-03 0. -1.
          2   -1    0    0  501    0 -0.00000000000E+00 -0.00000000000E+00 -0.19082989007E+02  0.19082989178E+02  0.25500000000E-02 0. -1.
         11    1    1    2    0    0 -0.80566951475E+02  0.71938235130E+02  0.45675813016E+03  0.46935501788E+03  0.51100000000E-03 0. -1.
         22    1    1    2    0    0 -0.24578130398E+02  0.11088432581E+02  0.14874291469E+03  0.15116710125E+03  0.00000000000E+00 0. -1.
          2    1    1    2  501    0  0.10514508187E+03 -0.83026667711E+02  0.37617847322E+03  0.39932337711E+03  0.25500000000E-02 0. -1.
<mgrwt>
<rscale>  0 0.13397356E+03</rscale>
<asrwt>0</asrwt>
<pdfrwt beam="1">  1       11 0.10000000E+01 0.13570625E+03</pdfrwt>
<pdfrwt beam="2">  1        2 0.29380830E-02 0.13397356E+03</pdfrwt>
<totfact> 0.37056292E+03</totfact>
</mgrwt>
</event>
<event>
 5    1  0.2968854E-003  0.7324616E+02  0.7818608E-02  0.1467259E+00
         11   -1    0    0    0    0  0.00000000000E+00  0.00000000000E+00  0.10001754201E+04  0.10001754201E+04  0.51100000000E-03 0.  1.
          2   -1    0    0  501    0 -0.00000000000E+00 -0.00000000000E+00 -0.86036593407E+01  0.86036597186E+01  0.25500000000E-02 0.  1.
         11    1    1    2    0    0  0.47418405252E+02 -0.64546262377E+02  0.41970295885E+03  0.42727660691E+03  0.51100000000E-03 0.  1.
         22    1    1    2    0    0 -0.28857887532E+02 -0.36160322398E+01  0.92732407880E+02  0.97186176143E+02  0.00000000000E+00 0.  1.
          2    1    1    2  501    0 -0.18560517719E+02  0.68162294617E+02  0.47913639407E+03  0.48431629681E+03  0.25500000000E-02 0.  1.
<mgrwt>
<rscale>  0 0.46154717E+02</rscale>
<asrwt>0</asrwt>
<pdfrwt beam="1">  1       11 0.10000000E+01 0.73246161E+02</pdfrwt>
<pdfrwt beam="2">  1        2 0.13238721E-02 0.46154717E+02</pdfrwt>
<totfact> 0.93397590E+03</totfact>
</mgrwt>
</event>
<event>
 5    1  0.2968854E-003  0.1698014E+03  0.7818608E-02  0.1178055E+00
         11   -1    0    0    0    0  0.00000000000E+00  0.00000000000E+00  0.10007138796E+04  0.10007138796E+04  0.51100000000E-03 0. -1.
         -2   -1    0    0    0  501 -0.00000000000E+00 -0.00000000000E+00 -0.82612452031E+02  0.82612452070E+02  0.25500000000E-02 0.  1.
         11    1    1    2    0    0 -0.84112520659E+02  0.93499183773E+02  0.74930633521E+03  0.75978746862E+03  0.51100000000E-03 0. -1.
         22    1    1    2    0    0  0.31754135593E+01  0.63804395322E+02  0.12639816656E+03  0.14162478817E+03  0.00000000000E+00 0. -1.
         -2    1    1    2    0  501  0.80937107100E+02 -0.15730357910E+03  0.42396925757E+02  0.18191407483E+03  0.25500000000E-02 0.  1.
<mgrwt>
<rscale>  0 0.16980136E+03</rscale>
<asrwt>0</asrwt>
<pdfrwt beam="1">  1       11 0.10000000E+01 0.63883363E+02</pdfrwt>
<pdfrwt beam="2">  1       -2 0.12718681E-01 0.16980136E+03</pdfrwt>
<totfact> 0.35232457E+02</totfact>
</mgrwt>
</event>
<event>
 5    1  0.2968854E-003  0.3449181E+03  0.7818608E-02  0.1065405E+00
         11   -1    0    0    0    0  0.00000000000E+00  0.00000000000E+00  0.10000463313E+04  0.10000463313E+04  0.51100000000E-03 0.  1.
          2   -1    0    0  501    0 -0.00000000000E+00 -0.00000000000E+00 -0.12646268915E+03  0.12646268918E+03  0.25500000000E-02 0.  1.
         11    1    1    2    0    0  0.32370182301E+03 -0.65903999457E+02  0.56389389735E+03  0.65353082164E+03  0.51100000000E-03 0.  1.
         22    1    1    2    0    0  0.13677201256E+02  0.24939101667E+01  0.16080921129E+02  0.21257503298E+02  0.00000000000E+00 0.  1.
          2    1    1    2  501    0 -0.33737902426E+03  0.63410089291E+02  0.29360882366E+03  0.45172069553E+03  0.25500000000E-02 0.  1.
<mgrwt>
<rscale>  0 0.34328624E+03</rscale>
<asrwt>0</asrwt>
<pdfrwt beam="1">  1       11 0.10000000E+01 0.34491810E+03</pdfrwt>
<pdfrwt beam="2">  1        2 0.19456699E-01 0.34328624E+03</pdfrwt>
<totfact> 0.35614663E+02</totfact>
</mgrwt>
</event>
<event>
 5    1  0.2968854E-003  0.1340325E+03  0.7818608E-02  0.1221592E+00
         11   -1    0    0    0    0  0.00000000000E+00  0.00000000000E+00  0.10002008776E+04  0.10002008776E+04  0.51100000000E-03 0.  1.
         -2   -1    0    0    0  501 -0.00000000000E+00 -0.00000000000E+00 -0.55079734372E+02  0.55079734431E+02  0.25500000000E-02 0. -1.
         11    1    1    2    0    0 -0.44254768628E+02  0.13249457431E+03  0.78559718177E+03  0.79791993882E+03  0.51100000000E-03 0.  1.
         22    1    1    2    0    0 -0.19709098652E+02 -0.15210654554E+02  0.11329147972E+03  0.11599470660E+03  0.00000000000E+00 0.  1.
         -2    1    1    2    0  501  0.63963867280E+02 -0.11728391975E+03  0.46232481783E+02  0.14136596665E+03  0.25500000000E-02 0. -1.
<mgrwt>
<rscale>  0 0.13403247E+03</rscale>
<asrwt>0</asrwt>
<pdfrwt beam="1">  1       11 0.10000000E+01 0.24896035E+02</pdfrwt>
<pdfrwt beam="2">  1       -2 0.84755072E-02 0.13403247E+03</pdfrwt>
<totfact> 0.66025409E+02</totfact>
</mgrwt>
</event>
<event>
 5    1  0.2968854E-003  0.3776185E+03  0.7818608E-02  0.1057434E+00
         11   -1    0    0    0    0  0.00000000000E+00  0.00000000000E+00  0.10002326074E+04  0.10002326074E+04  0.51100000000E-03 0. -1.
          2   -1    0    0  501    0 -0.00000000000E+00 -0.00000000000E+00 -0.21310019527E+03  0.21310019528E+03  0.25500000000E-02 0. -1.
         11    1    1    2    0    0 -0.12351215703E+03  0.28087136324E+03  0.55967628878E+03  0.63826446231E+03  0.51100000000E-03 0. -1.
         22    1    1    2    0    0  0.88920117716E+01  0.63470877086E+02  0.20124626241E+03  0.21120529881E+03  0.00000000000E+00 0. -1.
          2    1    1    2  501    0  0.11462014526E+03 -0.34434224033E+03  0.26209860910E+02  0.36386304153E+03  0.25500000000E-02 0. -1.
<mgrwt>
<rscale>  0 0.36291784E+03</rscale>
<asrwt>0</asrwt>
<pdfrwt beam="1">  1       11 0.10000000E+01 0.37761852E+03</pdfrwt>
<pdfrwt beam="2">  1        2 0.32792270E-01 0.36291784E+03</pdfrwt>
<totfact> 0.19745685E+02</totfact>
</mgrwt>
</event>
<event>
 5    1  0.2968854E-003  0.4988471E+02  0.7818608E-02  0.1449998E+00
         11   -1    0    0    0    0  0.00000000000E+00  0.00000000000E+00  0.10001433268E+04  0.10001433268E+04  0.51100000000E-03 0.  1.
          2   -1    0    0  501    0 -0.00000000000E+00 -0.00000000000E+00 -0.35638824000E+01  0.35638833123E+01  0.25500000000E-02 0.  1.
         11    1    1    2    0    0 -0.45983903633E+01  0.38093911336E+02  0.15539616365E+03  0.16006329670E+03  0.51100000000E-03 0.  1.
         22    1    1    2    0    0  0.52686037842E+00  0.10884086439E+02  0.65071027078E+02  0.65977113338E+02  0.00000000000E+00 0.  1.
          2    1    1    2  501    0  0.40715299849E+01 -0.48977997776E+02  0.77611225368E+03  0.77766680007E+03  0.25500000000E-02 0.  1.
<mgrwt>
<rscale>  0 0.49146939E+02</rscale>
<asrwt>0</asrwt>
<pdfrwt beam="1">  1       11 0.10000000E+01 0.49884715E+02</pdfrwt>
<pdfrwt beam="2">  1        2 0.54836824E-03 0.49146939E+02</pdfrwt>
<totfact> 0.30870326E+04</totfact>
</mgrwt>
</event>
<event>
 5    1  0.2968854E-003  0.1738523E+03  0.7818608E-02  0.1175757E+00
         11   -1    0    0    0    0  0.00000000000E+00  0.00000000000E+00  0.10000156972E+04  0.10000156972E+04  0.51100000000E-03 0. -1.
         -2   -1    0    0    0  501 -0.00000000000E+00 -0.00000000000E+00 -0.68546992094E+02  0.68546992141E+02  0.25500000000E-02 0.  1.
         11    1    1    2    0    0  0.12931919988E+03 -0.70700286301E+02  0.71563350293E+03  0.73065265102E+03  0.51100000000E-03 0. -1.
         22    1    1    2    0    0  0.25869575850E+02 -0.35111946390E+01  0.15231613302E+03  0.15453727000E+03  0.00000000000E+00 0. -1.
         -2    1    1    2    0  501 -0.15518877573E+03  0.74211480940E+02  0.63519069202E+02  0.18337276835E+03  0.25500000000E-02 0.  1.
<mgrwt>
<rscale>  0 0.17202006E+03</rscale>
<asrwt>0</asrwt>
<pdfrwt beam="1">  1       11 0.10000000E+01 0.17385231E+03</pdfrwt>
<pdfrwt beam="2">  1       -2 0.10545856E-01 0.17202006E+03</pdfrwt>
<totfact> 0.47580626E+02</totfact>
</mgrwt>
</event>
<event>
 5    1  0.2968854E-003  0.2390995E+03  0.7818608E-02  0.1122635E+00
         11   -1    0    0    0    0  0.00000000000E+00  0.00000000000E+00  0.10000841623E+04  0.10000841623E+04  0.51100000000E-03 0. -1.
          2   -1    0    0  501    0 -0.00000000000E+00 -0.00000000000E+00 -0.14532154294E+03  0.14532154297E+03  0.25500000000E-02 0. -1.
         11    1    1    2    0    0 -0.36479892166E+02 -0.22494791434E+03  0.82311416447E+03  0.85407802597E+03  0.51100000000E-03 0. -1.
         22    1    1    2    0    0  0.60028706201E+01 -0.88554942140E+01  0.53478247960E+02  0.54537851427E+02  0.00000000000E+00 0.  1.
          2    1    1    2  501    0  0.30477021546E+02  0.23380340856E+03 -0.21829793102E+02  0.23678982784E+03  0.25500000000E-02 0. -1.
<mgrwt>
<rscale>  0 0.23578143E+03</rscale>
<asrwt>0</asrwt>
<pdfrwt beam="1">  1       11 0.10000000E+01 0.23909947E+03</pdfrwt>
<pdfrwt beam="2">  1        2 0.22359041E-01 0.23578143E+03</pdfrwt>
<totfact> 0.30080147E+02</totfact>
</mgrwt>
</event>
<event>
 5    1  0.2968854E-003  0.9550256E+02  0.7818608E-02  0.1300547E+00
         11   -1    0    0    0    0  0.00000000000E+00  0.00000000000E+00  0.10004087752E+04  0.10004087752E+04  0.51100000000E-03 0.  1.
         -2   -1    0    0    0  501 -0.00000000000E+00 -0.00000000000E+00 -0.91031860420E+01  0.91031863992E+01  0.25500000000E-02 0. -1.
         11    1    1    2    0    0  0.46324737216E+02 -0.40995312747E+02  0.22204997659E+03  0.23050550763E+03  0.51100000000E-03 0.  1.
         22    1    1    2    0    0  0.10870208423E+02 -0.29731001410E+02  0.17741579931E+03  0.18021781189E+03  0.00000000000E+00 0. -1.
         -2    1    1    2    0  501 -0.57194945639E+02  0.70726314156E+02  0.59183981323E+03  0.59878864205E+03  0.25500000000E-02 0. -1.
<mgrwt>
<rscale>  0 0.90958635E+02</rscale>
<asrwt>0</asrwt>
<pdfrwt beam="1">  1       11 0.10000000E+01 0.95502561E+02</pdfrwt>
<pdfrwt beam="2">  1       -2 0.14010626E-02 0.90958635E+02</pdfrwt>
<totfact> 0.90118320E+03</totfact>
</mgrwt>
</event>
<event>
 5    1  0.2968854E-003  0.1121408E+03  0.7818608E-02  0.1256656E+00
         11   -1    0    0    0    0  0.00000000000E+00  0.00000000000E+00  0.10004599827E+04  0.10004599827E+04  0.51100000000E-03 0. -1.
          2   -1    0    0  501    0 -0.00000000000E+00 -0.00000000000E+00 -0.91761762543E+02  0.91761762578E+02  0.25500000000E-02 0. -1.
         11    1    1    2    0    0  0.60890512189E+02  0.36668809432E+01  0.24783472263E+02  0.65843154452E+02  0.51100000000E-03 0. -1.
         22    1    1    2    0    0 -0.14594421405E+03 -0.72926813583E+02  0.90075144802E+03  0.91540767140E+03  0.00000000000E+00 0. -1.
          2    1    1    2  501    0  0.85053701863E+02  0.69259932640E+02 -0.16836700166E+02  0.11097091938E+03  0.25500000000E-02 0. -1.
<mgrwt>
<rscale>  0 0.11214078E+03</rscale>
<asrwt>0</asrwt>
<pdfrwt beam="1">  1       11 0.10000000E+01 0.61000854E+02</pdfrwt>
<pdfrwt beam="2">  1        2 0.14123688E-01 0.11214078E+03</pdfrwt>
<totfact> 0.49772293E+02</totfact>
</mgrwt>
</event>
<event>
 5    1  0.2968854E-003  0.3238245E+02  0.7818608E-02  0.1745322E+00
         11   -1    0    0    0    0  0.00000000000E+00  0.00000000000E+00  0.99991917394E+03  0.99991917394E+03  0.51100000000E-03 0. -1.
          2   -1    0    0  501    0 -0.00000000000E+00 -0.00000000000E+00 -0.30431448652E+01  0.30431459336E+01  0.25500000000E-02 0. -1.
         11    1    1    2    0    0  0.25093404756E+02  0.57893856478E+01  0.81493771407E+02  0.85465962388E+02  0.51100000000E-03 0. -1.
         22    1    1    2    0    0  0.36136807225E+01  0.11812337115E+02  0.51600214210E+02  0.53058195436E+02  0.00000000000E+00 0.  1.
          2    1    1    2  501    0 -0.28707085479E+02 -0.17601722763E+02  0.86378204346E+03  0.86443816205E+03  0.25500000000E-02 0. -1.
<mgrwt>
<rscale>  0 0.20000288E+02</rscale>
<asrwt>0</asrwt>
<pdfrwt beam="1">  1       11 0.10000000E+01 0.32382450E+02</pdfrwt>
<pdfrwt beam="2">  1        2 0.46813836E-03 0.20000288E+02</pdfrwt>
<totfact> 0.30603806E+04</totfact>
</mgrwt>
</event>
<event>
 5    1  0.2968854E-003  0.6682304E+02  0.7818608E-02  0.1374470E+00
         11   -1    0    0    0    0  0.00000000000E+00  0.00000000000E+00  0.10000362350E+04  0.10000362350E+04  0.51100000000E-03 0. -1.
          2   -1    0    0  501    0 -0.00000000000E+00 -0.00000000000E+00 -0.11677558322E+02  0.11677558600E+02  0.25500000000E-02 0. -1.
         11    1    1    2    0    0 -0.70156220020E+02 -0.18950846201E+02  0.36170785693E+03  0.36893577157E+03  0.51100000000E-03 0. -1.
         22    1    1    2    0    0  0.40460850626E+02 -0.50959455838E+02  0.23568303231E+03  0.24450038505E+03  0.00000000000E+00 0. -1.
          2    1    1    2  501    0  0.29695369395E+02  0.69910302039E+02  0.39096778748E+03  0.39827763702E+03  0.25500000000E-02 0. -1.
<mgrwt>
<rscale>  0 0.65940078E+02</rscale>
<asrwt>0</asrwt>
<pdfrwt beam="1">  1       11 0.10000000E+01 0.66823040E+02</pdfrwt>
<pdfrwt beam="2">  1        2 0.17966125E-02 0.65940078E+02</pdfrwt>
<totfact> 0.65742629E+03</totfact>
</mgrwt>
</event>
<event>
 5    1  0.2968854E-003  0.4441484E+03  0.7818608E-02  0.1029482E+00
         11   -1    0    0    0    0  0.00000000000E+00  0.00000000000E+00  0.10003610421E+04  0.10003610421E+04  0.51100000000E-03 0.  1.
          2   -1    0    0  501    0 -0.00000000000E+00 -0.00000000000E+00 -0.79726226361E+03  0.79726226362E+03  0.25500000000E-02 0.  1.
         11    1    1    2    0    0 -0.35367500005E+03  0.19065679785E+03  0.78899614974E+03  0.88541004317E+03  0.51100000000E-03 0.  1.
         22    1    1    2    0    0 -0.67350999885E+02 -0.37742894986E+02  0.79029173016E+02  0.11048209581E+03  0.00000000000E+00 0.  1.
          2    1    1    2  501    0  0.42102599994E+03 -0.15291390287E+03 -0.66492654432E+03  0.80173116670E+03  0.25500000000E-02 0.  1.
<mgrwt>
<rscale>  0 0.44414835E+03</rscale>
<asrwt>0</asrwt>
<pdfrwt beam="1">  1       11 0.10000000E+01 0.77205462E+02</pdfrwt>
<pdfrwt beam="2">  1        2 0.12270001E+00 0.44414835E+03</pdfrwt>
<totfact> 0.43716680E+01</totfact>
</mgrwt>
</event>
<event>
 5    1  0.2968854E-003  0.2105683E+03  0.7818608E-02  0.1145712E+00
         11   -1    0    0    0    0  0.00000000000E+00  0.00000000000E+00  0.10001672054E+04  0.10001672054E+04  0.51100000000E-03 0. -1.
          2   -1    0    0  501    0 -0.00000000000E+00 -0.00000000000E+00 -0.44541287749E+02  0.44541287822E+02  0.25500000000E-02 0. -1.
         11    1    1    2    0    0  0.13003208010E+03 -0.48342688974E+02  0.33069551889E+03  0.35861523064E+03  0.51100000000E-03 0. -1.
         22    1    1    2    0    0  0.53684399898E+02 -0.42272725351E+02  0.24627699788E+03  0.25558043311E+03  0.00000000000E+00 0. -1.
          2    1    1    2  501    0 -0.18371648000E+03  0.90615414325E+02  0.37865340088E+03  0.43051282947E+03  0.25500000000E-02 0. -1.
<mgrwt>
<rscale>  0 0.20484848E+03</rscale>
<asrwt>0</asrwt>
<pdfrwt beam="1">  1       11 0.10000000E+01 0.21056835E+03</pdfrwt>
<pdfrwt beam="2">  1        2 0.68536514E-02 0.20484848E+03</pdfrwt>
<totfact> 0.12541665E+03</totfact>
</mgrwt>
</event>
<event>
 5    1  0.2968854E-003  0.1233988E+03  0.7818608E-02  0.1237593E+00
         11   -1    0    0    0    0  0.00000000000E+00  0.00000000000E+00  0.10001074041E+04  0.10001074041E+04  0.51100000000E-03 0.  1.
          2   -1    0    0  501    0 -0.00000000000E+00 -0.00000000000E+00 -0.11230193711E+03  0.11230193714E+03  0.25500000000E-02 0.  1.
         11    1    1    2    0    0  0.43717885435E+02  0.10372065084E+03  0.51550908637E+03  0.52765409602E+03  0.51100000000E-03 0.  1.
         22    1    1    2    0    0 -0.96209475226E+02  0.11755285416E+02  0.43329549258E+03  0.44400386682E+03  0.00000000000E+00 0.  1.
          2    1    1    2  501    0  0.52491589792E+02 -0.11547593626E+03 -0.60999111961E+02  0.14075137839E+03  0.25500000000E-02 0.  1.
<mgrwt>
<rscale>  0 0.12339884E+03</rscale>
<asrwt>0</asrwt>
<pdfrwt beam="1">  1       11 0.10000000E+01 0.96924970E+02</pdfrwt>
<pdfrwt beam="2">  1        2 0.17279076E-01 0.12339884E+03</pdfrwt>
<totfact> 0.39552142E+02</totfact>
</mgrwt>
</event>
<event>
 5    1  0.2968854E-003  0.2390074E+03  0.7818608E-02  0.1123023E+00
         11   -1    0    0    0    0  0.00000000000E+00  0.00000000000E+00  0.10004047135E+04  0.10004047135E+04  0.51100000000E-03 0.  1.
          2   -1    0    0  501    0 -0.00000000000E+00 -0.00000000000E+00 -0.17247718300E+03  0.17247718302E+03  0.25500000000E-02 0.  1.
         11    1    1    2    0    0  0.21154286215E+03  0.82069237917E+02  0.87485415746E+03  0.90380060808E+03  0.51100000000E-03 0.  1.
         22    1    1    2    0    0  0.99706287353E+01 -0.29650259662E+01  0.21696484525E+02  0.24061218945E+02  0.00000000000E+00 0. -1.
          2    1    1    2  501    0 -0.22151349089E+03 -0.79104211951E+02 -0.68623111523E+02  0.24502006945E+03  0.25500000000E-02 0.  1.
<mgrwt>
<rscale>  0 0.23521416E+03</rscale>
<asrwt>0</asrwt>
<pdfrwt beam="1">  1       11 0.10000000E+01 0.23900736E+03</pdfrwt>
<pdfrwt beam="2">  1        2 0.26545690E-01 0.23521416E+03</pdfrwt>
<totfact> 0.24803278E+02</totfact>
</mgrwt>
</event>
<event>
 5    1  0.2968854E-003  0.3113697E+03  0.7818608E-02  0.1093558E+00
         11   -1    0    0    0    0  0.00000000000E+00  0.00000000000E+00  0.10007622537E+04  0.10007622537E+04  0.51100000000E-03 0. -1.
         -2   -1    0    0    0  501 -0.00000000000E+00 -0.00000000000E+00 -0.42798059040E+03  0.42798059041E+03  0.25500000000E-02 0.  1.
         11    1    1    2    0    0 -0.48830373663E+02  0.16416083912E+03  0.41667306949E+03  0.45049931557E+03  0.51100000000E-03 0. -1.
         22    1    1    2    0    0  0.58700492638E+02  0.11960382243E+03  0.50851794039E+03  0.52568176482E+03  0.00000000000E+00 0. -1.
         -2    1    1    2    0  501 -0.98701189751E+01 -0.28376466154E+03 -0.35240934659E+03  0.45256176370E+03  0.25500000000E-02 0.  1.
<mgrwt>
<rscale>  0 0.28393626E+03</rscale>
<asrwt>0</asrwt>
<pdfrwt beam="1">  1       11 0.10000000E+01 0.31136971E+03</pdfrwt>
<pdfrwt beam="2">  1       -2 0.65893355E-01 0.28393626E+03</pdfrwt>
<totfact> 0.17598215E+01</totfact>
</mgrwt>
</event>
<event>
 5    1  0.2968854E-003  0.2470884E+03  0.7818608E-02  0.1126057E+00
         11   -1    0    0    0    0  0.00000000000E+00  0.00000000000E+00  0.99992544331E+03  0.99992544331E+03  0.51100000000E-03 0. -1.
          2   -1    0    0  501    0 -0.00000000000E+00 -0.00000000000E+00 -0.26757129016E+04  0.26757129016E+04  0.25500000000E-02 0. -1.
         11    1    1    2    0    0  0.12301545394E+03 -0.29107643128E+02  0.45181995556E+03  0.46917089534E+03  0.51100000000E-03 0. -1.
         22    1    1    2    0    0  0.70992770970E+02 -0.95964259087E+02  0.52775734192E+03  0.54108864755E+03  0.00000000000E+00 0. -1.
          2    1    1    2  501    0 -0.19400822491E+03  0.12507190222E+03 -0.26553647558E+04  0.26653788020E+04  0.25500000000E-02 0. -1.
<mgrwt>
<rscale>  0 0.23082931E+03</rscale>
<asrwt>0</asrwt>
<pdfrwt beam="1">  1       11 0.10000000E+01 0.24708837E+03</pdfrwt>
<pdfrwt beam="2">  1        2 0.41161744E+00 0.23082931E+03</pdfrwt>
<totfact> 0.41041765E+00</totfact>
</mgrwt>
</event>
<event>
 5    1  0.2968854E-003  0.3134280E+02  0.7818608E-02  0.1583703E+00
         11   -1    0    0    0    0  0.00000000000E+00  0.00000000000E+00  0.10006560927E+04  0.10006560927E+04  0.51100000000E-03 0. -1.
          2   -1    0    0  501    0 -0.00000000000E+00 -0.00000000000E+00 -0.48466193615E+01  0.48466200323E+01  0.25500000000E-02 0. -1.
         11    1    1    2    0    0 -0.24288493409E+01 -0.26648865763E+02  0.60811968585E+02  0.66439121600E+02  0.51100000000E-03 0. -1.
         22    1    1    2    0    0  0.25904559433E+02 -0.13663534470E+02  0.15965661618E+03  0.16232058854E+03  0.00000000000E+00 0. -1.
          2    1    1    2  501    0 -0.23475710092E+02  0.40312400233E+02  0.77534088855E+03  0.77674300257E+03  0.25500000000E-02 0. -1.
<mgrwt>
<rscale>  0 0.31342804E+02</rscale>
<asrwt>0</asrwt>
<pdfrwt beam="1">  1       11 0.10000000E+01 0.26759336E+02</pdfrwt>
<pdfrwt beam="2">  1        2 0.74612298E-03 0.31342804E+02</pdfrwt>
<totfact> 0.18541300E+04</totfact>
</mgrwt>
</event>
<event>
 5    1  0.2968854E-003  0.1022913E+03  0.7818608E-02  0.1279367E+00
         11   -1    0    0    0    0  0.00000000000E+00  0.00000000000E+00  0.10000491737E+04  0.10000491737E+04  0.51100000000E-03 0. -1.
          2   -1    0    0  501    0 -0.00000000000E+00 -0.00000000000E+00 -0.10333965948E+02  0.10333966263E+02  0.25500000000E-02 0. -1.
         11    1    1    2    0    0 -0.75623350572E+02 -0.32323346023E+02  0.44168192179E+03  0.44927342442E+03  0.51100000000E-03 0. -1.
         22    1    1    2    0    0 -0.12814164046E+02 -0.15295863885E+02  0.95889331281E+02  0.97943504663E+02  0.00000000000E+00 0. -1.
          2    1    1    2  501    0  0.88437514618E+02  0.47619209908E+02  0.45214395470E+03  0.46316621090E+03  0.25500000000E-02 0. -1.
<mgrwt>
<rscale>  0 0.10044293E+03</rscale>
<asrwt>0</asrwt>
<pdfrwt beam="1">  1       11 0.10000000E+01 0.10229133E+03</pdfrwt>
<pdfrwt beam="2">  1        2 0.15899191E-02 0.10044293E+03</pdfrwt>
<totfact> 0.82250812E+03</totfact>
</mgrwt>
</event>
<event>
 5    1  0.2968854E-003  0.1485438E+03  0.7818608E-02  0.1205475E+00
         11   -1    0    0    0    0  0.00000000000E+00  0.00000000000E+00  0.10001733105E+04  0.10001733105E+04  0.51100000000E-03 0. -1.
         -2   -1    0    0    0  501 -0.00000000000E+00 -0.00000000000E+00 -0.26896307864E+02  0.26896307985E+02  0.25500000000E-02 0.  1.
         11    1    1    2    0    0  0.42386163304E+02 -0.11566222822E+03  0.64236786662E+03  0.65407248371E+03  0.51100000000E-03 0. -1.
         22    1    1    2    0    0  0.40454029147E+01 -0.22758922727E+02  0.73688271833E+02  0.77228849883E+02  0.00000000000E+00 0. -1.
         -2    1    1    2    0  501 -0.46431566219E+02  0.13842115094E+03  0.25722086415E+03  0.29576828486E+03  0.25500000000E-02 0.  1.
<mgrwt>
<rscale>  0 0.14600105E+03</rscale>
<asrwt>0</asrwt>
<pdfrwt beam="1">  1       11 0.10000000E+01 0.14854375E+03</pdfrwt>
<pdfrwt beam="2">  1       -2 0.41386105E-02 0.14600105E+03</pdfrwt>
<totfact> 0.19731010E+03</totfact>
</mgrwt>
</event>
<event>
 5    1  0.2968854E-003  0.3926841E+02  0.7818608E-02  0.1531383E+00
         11   -1    0    0    0    0  0.00000000000E+00  0.00000000000E+00  0.10001310956E+04  0.10001310956E+04  0.51100000000E-03 0.  1.
          2   -1    0    0  501    0 -0.00000000000E+00 -0.00000000000E+00 -0.25446404088E+01  0.25446416865E+01  0.25500000000E-02 0.  1.
         11    1    1    2    0    0 -0.13785675524E+02 -0.41030690791E+00  0.58215001991E+02  0.59826412716E+02  0.51100000000E-03 0.  1.
         22    1    1    2    0    0 -0.19845357720E+02  0.15877516629E+02  0.12096268717E+03  0.12360382456E+03  0.00000000000E+00 0.  1.
          2    1    1    2  501    0  0.33631033243E+02 -0.15467209721E+02  0.81840876605E+03  0.81924550004E+03  0.25500000000E-02 0.  1.
<mgrwt>
<rscale>  0 0.37017306E+02</rscale>
<asrwt>0</asrwt>
<pdfrwt beam="1">  1       11 0.10000000E+01 0.39268405E+02</pdfrwt>
<pdfrwt beam="2">  1        2 0.39153455E-03 0.37017306E+02</pdfrwt>
<totfact> 0.45518874E+04</totfact>
</mgrwt>
</event>
<event>
 5    1  0.2968854E-003  0.1255653E+03  0.7818608E-02  0.1234189E+00
         11   -1    0    0    0    0  0.00000000000E+00  0.00000000000E+00  0.10003396738E+04  0.10003396738E+04  0.51100000000E-03 0. -1.
          2   -1    0    0  501    0 -0.00000000000E+00 -0.00000000000E+00 -0.48356862171E+02  0.48356862238E+02  0.25500000000E-02 0. -1.
         11    1    1    2    0    0 -0.10700691562E+03 -0.83599171305E+01  0.56017450945E+03  0.57036466339E+03  0.51100000000E-03 0. -1.
         22    1    1    2    0    0 -0.34956572116E+01  0.11346148685E+03  0.22693571673E+03  0.25374307506E+03  0.00000000000E+00 0. -1.
          2    1    1    2  501    0  0.11050257283E+03 -0.10510156972E+03  0.16487258544E+03  0.22458879757E+03  0.25500000000E-02 0. -1.
<mgrwt>
<rscale>  0 0.12556525E+03</rscale>
<asrwt>0</asrwt>
<pdfrwt beam="1">  1       11 0.10000000E+01 0.10733298E+03</pdfrwt>
<pdfrwt beam="2">  1        2 0.74420441E-02 0.12556525E+03</pdfrwt>
<totfact> 0.10932770E+03</totfact>
</mgrwt>
</event>
<event>
 5    1  0.2968854E-003  0.2066298E+03  0.7818608E-02  0.1144263E+00
         11   -1    0    0    0    0  0.00000000000E+00  0.00000000000E+00  0.10003064987E+04  0.10003064987E+04  0.51100000000E-03 0. -1.
          2   -1    0    0  501    0 -0.00000000000E+00 -0.00000000000E+00 -0.38746611325E+03  0.38746611326E+03  0.25500000000E-02 0. -1.
         11    1    1    2    0    0  0.11347676737E+03 -0.17106057089E+03  0.85514233064E+03  0.87943567206E+03  0.51100000000E-03 0. -1.
         22    1    1    2    0    0 -0.53450416674E+02 -0.27000747779E+02  0.95180142734E+02  0.11245108712E+03  0.00000000000E+00 0.  1.
          2    1    1    2  501    0 -0.60026350695E+02  0.19806131867E+03 -0.33748208794E+03  0.39588585276E+03  0.25500000000E-02 0. -1.
<mgrwt>
<rscale>  0 0.20662981E+03</rscale>
<asrwt>0</asrwt>
<pdfrwt beam="1">  1       11 0.10000000E+01 0.59883115E+02</pdfrwt>
<pdfrwt beam="2">  1        2 0.59628440E-01 0.20662981E+03</pdfrwt>
<totfact> 0.10294429E+02</totfact>
</mgrwt>
</event>
<event>
 5    1  0.2968854E-003  0.1286785E+03  0.7818608E-02  0.1531881E+00
         11   -1    0    0    0    0  0.00000000000E+00  0.00000000000E+00  0.10002414508E+04  0.10002414508E+04  0.51100000000E-03 0. -1.
          2   -1    0    0  501    0 -0.00000000000E+00 -0.00000000000E+00 -0.26304085718E+03  0.26304085719E+03  0.25500000000E-02 0. -1.
         11    1    1    2    0    0  0.99339370231E+02  0.65844022745E+02  0.59405389914E+03  0.60589089851E+03  0.51100000000E-03 0. -1.
         22    1    1    2    0    0 -0.11700158746E+03 -0.98306898751E+02  0.38422323518E+03  0.41349862426E+03  0.00000000000E+00 0.  1.
          2    1    1    2  501    0  0.17662217232E+02  0.32462876006E+02 -0.24107654067E+03  0.24389278526E+03  0.25500000000E-02 0. -1.
<mgrwt>
<rscale>  0 0.36956627E+02</rscale>
<asrwt>0</asrwt>
<pdfrwt beam="1">  1       11 0.10000000E+01 0.12867851E+03</pdfrwt>
<pdfrwt beam="2">  1        2 0.40477594E-01 0.36956627E+02</pdfrwt>
<totfact> 0.15279090E+02</totfact>
</mgrwt>
</event>
<event>
 5    1  0.2968854E-003  0.1131760E+03  0.7818608E-02  0.1258214E+00
         11   -1    0    0    0    0  0.00000000000E+00  0.00000000000E+00  0.10002283730E+04  0.10002283730E+04  0.51100000000E-03 0. -1.
          2   -1    0    0  501    0 -0.00000000000E+00 -0.00000000000E+00 -0.12630823069E+02  0.12630823327E+02  0.25500000000E-02 0. -1.
         11    1    1    2    0    0  0.82144441704E+02  0.41207935496E+02  0.41062381293E+03  0.42078227029E+03  0.51100000000E-03 0. -1.
         22    1    1    2    0    0  0.19637017773E+02  0.37839153789E+01  0.59433015659E+02  0.62707366656E+02  0.00000000000E+00 0. -1.
          2    1    1    2  501    0 -0.10178145948E+03 -0.44991850874E+02  0.51754072136E+03  0.52936955939E+03  0.25500000000E-02 0. -1.
<mgrwt>
<rscale>  0 0.11128222E+03</rscale>
<asrwt>0</asrwt>
<pdfrwt beam="1">  1       11 0.10000000E+01 0.11317600E+03</pdfrwt>
<pdfrwt beam="2">  1        2 0.19436473E-02 0.11128222E+03</pdfrwt>
<totfact> 0.63435131E+03</totfact>
</mgrwt>
</event>
<event>
 5    1  0.2968854E-003  0.8901637E+02  0.7818608E-02  0.1426441E+00
         11   -1    0    0    0    0  0.00000000000E+00  0.00000000000E+00  0.10003090354E+04  0.10003090354E+04  0.51100000000E-03 0. -1.
          2   -1    0    0  501    0 -0.00000000000E+00 -0.00000000000E+00 -0.12483928398E+02  0.12483928658E+02  0.25500000000E-02 0. -1.
         11    1    1    2    0    0  0.18804784194E+02  0.84338881125E+02  0.51778526955E+03  0.52494595164E+03  0.51100000000E-03 0. -1.
         22    1    1    2    0    0  0.32347823601E+02 -0.12553762577E+01  0.13957572755E+03  0.14328063854E+03  0.00000000000E+00 0. -1.
          2    1    1    2  501    0 -0.51152607795E+02 -0.83083504867E+02  0.33046410995E+03  0.34456637392E+03  0.25500000000E-02 0. -1.
<mgrwt>
<rscale>  0 0.53681035E+02</rscale>
<asrwt>0</asrwt>
<pdfrwt beam="1">  1       11 0.10000000E+01 0.89016372E+02</pdfrwt>
<pdfrwt beam="2">  1        2 0.19211979E-02 0.53681035E+02</pdfrwt>
<totfact> 0.58330567E+03</totfact>
</mgrwt>
</event>
<event>
 5    1  0.2968854E-003  0.8617010E+02  0.7818608E-02  0.1317015E+00
         11   -1    0    0    0    0  0.00000000000E+00  0.00000000000E+00  0.10003233118E+04  0.10003233118E+04  0.51100000000E-03 0. -1.
          2   -1    0    0  501    0 -0.00000000000E+00 -0.00000000000E+00 -0.74976329935E+01  0.74976334272E+01  0.25500000000E-02 0. -1.
         11    1    1    2    0    0  0.63484894583E+02 -0.22108214902E+02  0.32237301574E+03  0.32930755576E+03  0.51100000000E-03 0. -1.
         22    1    1    2    0    0  0.12824389517E+02 -0.13945168131E+02  0.91433942791E+02  0.93376113515E+02  0.00000000000E+00 0. -1.
          2    1    1    2  501    0 -0.76309284100E+02  0.36053383033E+02  0.57901872028E+03  0.58513727595E+03  0.25500000000E-02 0. -1.
<mgrwt>
<rscale>  0 0.84397590E+02</rscale>
<asrwt>0</asrwt>
<pdfrwt beam="1">  1       11 0.10000000E+01 0.86170095E+02</pdfrwt>
<pdfrwt beam="2">  1        2 0.11538549E-02 0.84397590E+02</pdfrwt>
<totfact> 0.12411214E+04</totfact>
</mgrwt>
</event>
<event>
 5    1  0.2968854E-003  0.4242916E+03  0.7818608E-02  0.1038451E+00
         11   -1    0    0    0    0  0.00000000000E+00  0.00000000000E+00  0.10003501617E+04  0.10003501617E+04  0.51100000000E-03 0. -1.
          2   -1    0    0  501    0 -0.00000000000E+00 -0.00000000000E+00 -0.10048200015E+04  0.10048200015E+04  0.25500000000E-02 0. -1.
         11    1    1    2    0    0 -0.37669659093E+03  0.99231261274E+02  0.78400710245E+03  0.87545091326E+03  0.51100000000E-03 0. -1.
         22    1    1    2    0    0 -0.24440908824E+02  0.10107794985E+02  0.12410246308E+03  0.12688950660E+03  0.00000000000E+00 0. -1.
          2    1    1    2  501    0  0.40113749976E+03 -0.10933905626E+03 -0.91257940540E+03  0.10028297433E+04  0.25500000000E-02 0. -1.
<mgrwt>
<rscale>  0 0.41577196E+03</rscale>
<asrwt>0</asrwt>
<pdfrwt beam="1">  1       11 0.10000000E+01 0.42429157E+03</pdfrwt>
<pdfrwt beam="2">  1        2 0.15464182E+00 0.41577196E+03</pdfrwt>
<totfact> 0.31949140E+01</totfact>
</mgrwt>
</event>
<event>
 5    1  0.2968854E-003  0.1244841E+03  0.7818608E-02  0.1616188E+00
         11   -1    0    0    0    0  0.00000000000E+00  0.00000000000E+00  0.99963456382E+03  0.99963456382E+03  0.51100000000E-03 0. -1.
          2   -1    0    0  501    0 -0.00000000000E+00 -0.00000000000E+00 -0.71780259685E+03  0.71780259685E+03  0.25500000000E-02 0. -1.
         11    1    1    2    0    0  0.62505639807E+02  0.11430801972E+03  0.65917403213E+03  0.67192535524E+03  0.51100000000E-03 0. -1.
         22    1    1    2    0    0 -0.34208859340E+02 -0.11161826757E+03  0.32358935136E+03  0.34400429071E+03  0.00000000000E+00 0. -1.
          2    1    1    2  501    0 -0.28296780468E+02 -0.26897521432E+01 -0.70093141652E+03  0.70150751473E+03  0.25500000000E-02 0. -1.
<mgrwt>
<rscale>  0 0.28424330E+02</rscale>
<asrwt>0</asrwt>
<pdfrwt beam="1">  1       11 0.10000000E+01 0.12448407E+03</pdfrwt>
<pdfrwt beam="2">  1        2 0.11039081E+00 0.28424330E+02</pdfrwt>
<totfact> 0.54504127E+01</totfact>
</mgrwt>
</event>
<event>
 5    1  0.2968854E-003  0.4441419E+03  0.7818608E-02  0.1029999E+00
         11   -1    0    0    0    0  0.00000000000E+00  0.00000000000E+00  0.10001489165E+04  0.10001489165E+04  0.51100000000E-03 0. -1.
          2   -1    0    0  501    0 -0.00000000000E+00 -0.00000000000E+00 -0.42094783727E+03  0.42094783728E+03  0.25500000000E-02 0. -1.
         11    1    1    2    0    0 -0.42139842330E+03 -0.33892555095E+02  0.75347817519E+03  0.86397609744E+03  0.51100000000E-03 0. -1.
         22    1    1    2    0    0 -0.19778612975E+02  0.41480302989E+00  0.55248202646E+02  0.58683298206E+02  0.00000000000E+00 0.  1.
          2    1    1    2  501    0  0.44117703628E+03  0.33477752065E+02 -0.22952529864E+03  0.49843735810E+03  0.25500000000E-02 0. -1.
<mgrwt>
<rscale>  0 0.44244541E+03</rscale>
<asrwt>0</asrwt>
<pdfrwt beam="1">  1       11 0.10000000E+01 0.44414188E+03</pdfrwt>
<pdfrwt beam="2">  1        2 0.64770848E-01 0.44244541E+03</pdfrwt>
<totfact> 0.93386121E+01</totfact>
</mgrwt>
</event>
<event>
 5    1  0.2968854E-003  0.6443160E+02  0.7818608E-02  0.1395635E+00
         11   -1    0    0    0    0  0.00000000000E+00  0.00000000000E+00  0.10004017247E+04  0.10004017247E+04  0.51100000000E-03 0.  1.
          2   -1    0    0  501    0 -0.00000000000E+00 -0.00000000000E+00 -0.61642928286E+01  0.61642933561E+01  0.25500000000E-02 0.  1.
         11    1    1    2    0    0  0.12914866634E+02  0.33344996741E+02  0.92755140903E+02  0.99409248825E+02  0.51100000000E-03 0.  1.
         22    1    1    2    0    0  0.22214155666E+02  0.15944081402E+02  0.10940511624E+03  0.11277039462E+03  0.00000000000E+00 0. -1.
          2    1    1    2  501    0 -0.35129022300E+02 -0.49289078143E+02  0.79207717476E+03  0.79438637464E+03  0.25500000000E-02 0.  1.
<mgrwt>
<rscale>  0 0.60526535E+02</rscale>
<asrwt>0</asrwt>
<pdfrwt beam="1">  1       11 0.10000000E+01 0.64431603E+02</pdfrwt>
<pdfrwt beam="2">  1        2 0.94873373E-03 0.60526535E+02</pdfrwt>
<totfact> 0.15321123E+04</totfact>
</mgrwt>
</event>
<event>
 5    1  0.2968854E-003  0.1077955E+03  0.7818608E-02  0.1507540E+00
         11   -1    0    0    0    0  0.00000000000E+00  0.00000000000E+00  0.10001200437E+04  0.10001200437E+04  0.51100000000E-03 0.  1.
          2   -1    0    0  501    0 -0.00000000000E+00 -0.00000000000E+00 -0.15099257133E+03  0.15099257135E+03  0.25500000000E-02 0. -1.
         11    1    1    2    0    0  0.10617733471E+03  0.53796456745E+02  0.44076022538E+03  0.45654929793E+03  0.51100000000E-03 0.  1.
         22    1    1    2    0    0 -0.71722519569E+02 -0.74295003229E+02  0.54369852677E+03  0.55341842699E+03  0.00000000000E+00 0.  1.
          2    1    1    2  501    0 -0.34454815141E+02  0.20498546484E+02 -0.13533127982E+03  0.14114489009E+03  0.25500000000E-02 0. -1.
<mgrwt>
<rscale>  0 0.40091454E+02</rscale>
<asrwt>0</asrwt>
<pdfrwt beam="1">  1       11 0.10000000E+01 0.10779551E+03</pdfrwt>
<pdfrwt beam="2">  1        2 0.23232414E-01 0.40091454E+02</pdfrwt>
<totfact> 0.27222114E+02</totfact>
</mgrwt>
</event>
<event>
 5    1  0.2968854E-003  0.3844122E+02  0.7818608E-02  0.1526913E+00
         11   -1    0    0    0    0  0.00000000000E+00  0.00000000000E+00  0.10005471304E+04  0.10005471304E+04  0.51100000000E-03 0. -1.
         -2   -1    0    0    0  501 -0.00000000000E+00 -0.00000000000E+00 -0.22581279540E+01  0.22581293938E+01  0.25500000000E-02 0. -1.
         11    1    1    2    0    0 -0.24125921316E+02  0.77402210521E+01  0.14886762829E+03  0.15100841650E+03  0.51100000000E-03 0. -1.
         22    1    1    2    0    0 -0.12633512456E+02  0.10935403201E-01  0.52809450300E+02  0.54299574562E+02  0.00000000000E+00 0.  1.
         -2    1    1    2    0  501  0.36759433773E+02 -0.77511564553E+01  0.79661192386E+03  0.79749726874E+03  0.25500000000E-02 0. -1.
<mgrwt>
<rscale>  0 0.37567758E+02</rscale>
<asrwt>0</asrwt>
<pdfrwt beam="1">  1       11 0.10000000E+01 0.38441217E+02</pdfrwt>
<pdfrwt beam="2">  1       -2 0.34759448E-03 0.37567758E+02</pdfrwt>
<totfact> 0.52551222E+04</totfact>
</mgrwt>
</event>
<event>
 5    1  0.2968854E-003  0.1786203E+03  0.7818608E-02  0.1169145E+00
         11   -1    0    0    0    0  0.00000000000E+00  0.00000000000E+00  0.10001578905E+04  0.10001578905E+04  0.51100000000E-03 0.  1.
          2   -1    0    0  501    0 -0.00000000000E+00 -0.00000000000E+00 -0.45480093253E+02  0.45480093324E+02  0.25500000000E-02 0.  1.
         11    1    1    2    0    0 -0.61996461760E+02  0.16262642182E+03  0.52819971173E+03  0.55613474070E+03  0.51100000000E-03 0.  1.
         22    1    1    2    0    0 -0.33928199020E+02 -0.78948764666E+01  0.17853125246E+03  0.18189793805E+03  0.00000000000E+00 0. -1.
          2    1    1    2  501    0  0.95924660780E+02 -0.15473154536E+03  0.24794683304E+03  0.30760530505E+03  0.25500000000E-02 0.  1.
<mgrwt>
<rscale>  0 0.17862033E+03</rscale>
<asrwt>0</asrwt>
<pdfrwt beam="1">  1       11 0.10000000E+01 0.34834635E+02</pdfrwt>
<pdfrwt beam="2">  1        2 0.69980420E-02 0.17862033E+03</pdfrwt>
<totfact> 0.12103272E+03</totfact>
</mgrwt>
</event>
<event>
 5    1  0.2968854E-003  0.2023605E+03  0.7818608E-02  0.1154635E+00
         11   -1    0    0    0    0  0.00000000000E+00  0.00000000000E+00  0.10001880271E+04  0.10001880271E+04  0.51100000000E-03 0. -1.
          2   -1    0    0  501    0 -0.00000000000E+00 -0.00000000000E+00 -0.13835740828E+03  0.13835740830E+03  0.25500000000E-02 0. -1.
         11    1    1    2    0    0 -0.60047634730E+02 -0.17172024138E+03  0.80748347988E+03  0.82772165009E+03  0.51100000000E-03 0. -1.
         22    1    1    2    0    0 -0.19348382062E+02 -0.56232494787E+01  0.10750629184E+03  0.10937816788E+03  0.00000000000E+00 0. -1.
          2    1    1    2  501    0  0.79396016792E+02  0.17734349086E+03 -0.53159152923E+02  0.20144561742E+03  0.25500000000E-02 0. -1.
<mgrwt>
<rscale>  0 0.19430502E+03</rscale>
<asrwt>0</asrwt>
<pdfrwt beam="1">  1       11 0.10000000E+01 0.20236054E+03</pdfrwt>
<pdfrwt beam="2">  1        2 0.21289757E-01 0.19430502E+03</pdfrwt>
<totfact> 0.31641333E+02</totfact>
</mgrwt>
</event>
<event>
 5    1  0.2968854E-003  0.7229670E+02  0.7818608E-02  0.1475030E+00
         11   -1    0    0    0    0  0.00000000000E+00  0.00000000000E+00  0.10000631289E+04  0.10000631289E+04  0.51100000000E-03 0. -1.
          2   -1    0    0  501    0 -0.00000000000E+00 -0.00000000000E+00 -0.81319018964E+01  0.81319022962E+01  0.25500000000E-02 0. -1.
         11    1    1    2    0    0  0.64896982266E+02 -0.58682918272E+00  0.25106845931E+03  0.25932090918E+03  0.51100000000E-03 0. -1.
         22    1    1    2    0    0  0.90222279339E+01  0.26372210707E+02  0.12591593266E+03  0.12896401123E+03  0.00000000000E+00 0.  1.
          2    1    1    2  501    0 -0.73919210200E+02 -0.25785381525E+02  0.61494683506E+03  0.61991011082E+03  0.25500000000E-02 0. -1.
<mgrwt>
<rscale>  0 0.44889998E+02</rscale>
<asrwt>0</asrwt>
<pdfrwt beam="1">  1       11 0.10000000E+01 0.72296700E+02</pdfrwt>
<pdfrwt beam="2">  1        2 0.12511408E-02 0.44889998E+02</pdfrwt>
<totfact> 0.10021000E+04</totfact>
</mgrwt>
</event>
<event>
 5    1  0.2968854E-003  0.1335899E+03  0.7818608E-02  0.1222224E+00
         11   -1    0    0    0    0  0.00000000000E+00  0.00000000000E+00  0.10004356815E+04  0.10004356815E+04  0.51100000000E-03 0. -1.
          2   -1    0    0  501    0 -0.00000000000E+00 -0.00000000000E+00 -0.26733234402E+02  0.26733234524E+02  0.25500000000E-02 0. -1.
         11    1    1    2    0    0 -0.17153761709E+02  0.40887652298E+01  0.14386922017E+02  0.22758582277E+02  0.51100000000E-03 0. -1.
         22    1    1    2    0    0  0.12317977111E+03 -0.77487384877E+02  0.69800370282E+03  0.71301242624E+03  0.00000000000E+00 0. -1.
          2    1    1    2  501    0 -0.10602600940E+03  0.73398619647E+02  0.26131182222E+03  0.29139790746E+03  0.25500000000E-02 0. -1.
<mgrwt>
<rscale>  0 0.13358990E+03</rscale>
<asrwt>0</asrwt>
<pdfrwt beam="1">  1       11 0.10000000E+01 0.17634337E+02</pdfrwt>
<pdfrwt beam="2">  1        2 0.41145971E-02 0.13358990E+03</pdfrwt>
<totfact> 0.23641428E+03</totfact>
</mgrwt>
</event>
<event>
 5    1  0.2968854E-003  0.1190882E+03  0.7818608E-02  0.1248374E+00
         11   -1    0    0    0    0  0.00000000000E+00  0.00000000000E+00  0.10001563994E+04  0.10001563994E+04  0.51100000000E-03 0. -1.
          2   -1    0    0  501    0 -0.00000000000E+00 -0.00000000000E+00 -0.14712159354E+02  0.14712159575E+02  0.25500000000E-02 0. -1.
         11    1    1    2    0    0 -0.56988617948E+02  0.68694541780E+02  0.29957958207E+03  0.31259329590E+03  0.51100000000E-03 0. -1.
         22    1    1    2    0    0 -0.84332710090E+01  0.28132562997E+02  0.79462606080E+02  0.84716391128E+02  0.00000000000E+00 0. -1.
          2    1    1    2  501    0  0.65421888957E+02 -0.96827104777E+02  0.60640205186E+03  0.61755887191E+03  0.25500000000E-02 0. -1.
<mgrwt>
<rscale>  0 0.11685680E+03</rscale>
<asrwt>0</asrwt>
<pdfrwt beam="1">  1       11 0.10000000E+01 0.11908823E+03</pdfrwt>
<pdfrwt beam="2">  1        2 0.22637631E-02 0.11685680E+03</pdfrwt>
<totfact> 0.51892729E+03</totfact>
</mgrwt>
</event>
<event>
 5    1  0.2968854E-003  0.3492012E+03  0.7818608E-02  0.1069902E+00
         11   -1    0    0    0    0  0.00000000000E+00  0.00000000000E+00  0.10001173606E+04  0.10001173606E+04  0.51100000000E-03 0. -1.
          2   -1    0    0  501    0 -0.00000000000E+00 -0.00000000000E+00 -0.19347304170E+03  0.19347304172E+03  0.25500000000E-02 0. -1.
         11    1    1    2    0    0 -0.26741587889E+03 -0.27130314533E+01  0.53783532718E+03  0.60065418669E+03  0.51100000000E-03 0. -1.
         22    1    1    2    0    0 -0.62251092125E+02 -0.42884840872E+02  0.24824134633E+03  0.25949580744E+03  0.00000000000E+00 0. -1.
          2    1    1    2  501    0  0.32966697102E+03  0.45597872326E+02  0.20567645336E+02  0.33344040814E+03  0.25500000000E-02 0. -1.
<mgrwt>
<rscale>  0 0.33280547E+03</rscale>
<asrwt>0</asrwt>
<pdfrwt beam="1">  1       11 0.10000000E+01 0.34920120E+03</pdfrwt>
<pdfrwt beam="2">  1        2 0.29768576E-01 0.33280547E+03</pdfrwt>
<totfact> 0.21958497E+02</totfact>
</mgrwt>
</event>
<event>
 5    1  0.2968854E-003  0.2714877E+02  0.7818608E-02  0.1781133E+00
         11   -1    0    0    0    0  0.00000000000E+00  0.00000000000E+00  0.10001825252E+04  0.10001825252E+04  0.51100000000E-03 0.  1.
          2   -1    0    0  501    0 -0.00000000000E+00 -0.00000000000E+00 -0.88434717803E+01  0.88434721479E+01  0.25500000000E-02 0.  1.
         11    1    1    2    0    0  0.50219477552E+01 -0.24525153827E+02  0.40856270738E+02  0.47915947120E+02  0.51100000000E-03 0.  1.
         22    1    1    2    0    0  0.11976724924E+02  0.30217000096E+01  0.23407328680E+01  0.12571859099E+02  0.00000000000E+00 0.  1.
          2    1    1    2  501    0 -0.16998672679E+02  0.21503453818E+02  0.94814204983E+03  0.94853819114E+03  0.25500000000E-02 0.  1.
<mgrwt>
<rscale>  0 0.18312350E+02</rscale>
<asrwt>0</asrwt>
<pdfrwt beam="1">  1       11 0.10000000E+01 0.27148766E+02</pdfrwt>
<pdfrwt beam="2">  1        2 0.13607824E-02 0.18312350E+02</pdfrwt>
<totfact> 0.75151521E+03</totfact>
</mgrwt>
</event>
<event>
 5    1  0.2968854E-003  0.1659733E+03  0.7818608E-02  0.1182113E+00
         11   -1    0    0    0    0  0.00000000000E+00  0.00000000000E+00  0.10001278492E+04  0.10001278492E+04  0.51100000000E-03 0. -1.
          2   -1    0    0  501    0 -0.00000000000E+00 -0.00000000000E+00 -0.36385398761E+03  0.36385398762E+03  0.25500000000E-02 0. -1.
         11    1    1    2    0    0 -0.42041751593E+02 -0.19389635403E+02  0.14094439052E+03  0.14835359132E+03  0.51100000000E-03 0. -1.
         22    1    1    2    0    0 -0.26502841810E+01 -0.14116385454E+03  0.82991215950E+03  0.84183635602E+03  0.00000000000E+00 0. -1.
          2    1    1    2  501    0  0.44692035774E+02  0.16055348995E+03 -0.33458268846E+03  0.37379188945E+03  0.25500000000E-02 0. -1.
<mgrwt>
<rscale>  0 0.16597332E+03</rscale>
<asrwt>0</asrwt>
<pdfrwt beam="1">  1       11 0.10000000E+01 0.46297590E+02</pdfrwt>
<pdfrwt beam="2">  1        2 0.55984692E-01 0.16597332E+03</pdfrwt>
<totfact> 0.11028449E+02</totfact>
</mgrwt>
</event>
<event>
 5    1  0.2968854E-003  0.1751228E+03  0.7818608E-02  0.1179966E+00
         11   -1    0    0    0    0  0.00000000000E+00  0.00000000000E+00  0.10015066119E+04  0.10015066119E+04  0.51100000000E-03 0. -1.
          2   -1    0    0  501    0 -0.00000000000E+00 -0.00000000000E+00 -0.11881952230E+04  0.11881952230E+04  0.25500000000E-02 0. -1.
         11    1    1    2    0    0  0.18284412323E+03  0.36108147264E+02  0.43384345483E+03  0.47218207823E+03  0.51100000000E-03 0. -1.
         22    1    1    2    0    0 -0.15452156803E+03  0.12947137844E+03  0.52362809846E+03  0.56109369834E+03  0.00000000000E+00 0. -1.
          2    1    1    2  501    0 -0.28322555205E+02 -0.16557952570E+03 -0.11441601644E+04  0.11564260583E+04  0.25500000000E-02 0. -1.
<mgrwt>
<rscale>  0 0.16798436E+03</rscale>
<asrwt>0</asrwt>
<pdfrwt beam="1">  1       11 0.10000000E+01 0.17512284E+03</pdfrwt>
<pdfrwt beam="2">  1        2 0.18307467E+00 0.16798436E+03</pdfrwt>
<totfact> 0.26084220E+01</totfact>
</mgrwt>
</event>
<event>
 5    1  0.2968854E-003  0.9025228E+02  0.7818608E-02  0.1344615E+00
         11   -1    0    0    0    0  0.00000000000E+00  0.00000000000E+00  0.10002881729E+04  0.10002881729E+04  0.51100000000E-03 0.  1.
          2   -1    0    0  501    0 -0.00000000000E+00 -0.00000000000E+00 -0.53532044404E+02  0.53532044465E+02  0.25500000000E-02 0. -1.
         11    1    1    2    0    0  0.20612972319E+02  0.73909668845E+02  0.29349473542E+03  0.30335901749E+03  0.51100000000E-03 0.  1.
         22    1    1    2    0    0 -0.94817824228E+02 -0.64813621691E+02  0.66494705012E+03  0.67479315705E+03  0.00000000000E+00 0.  1.
          2    1    1    2  501    0  0.74204851909E+02 -0.90960471542E+01 -0.11685657017E+02  0.75668042839E+02  0.25500000000E-02 0. -1.
<mgrwt>
<rscale>  0 0.74760271E+02</rscale>
<asrwt>0</asrwt>
<pdfrwt beam="1">  1       11 0.10000000E+01 0.90252278E+02</pdfrwt>
<pdfrwt beam="2">  1        2 0.82380722E-02 0.74760271E+02</pdfrwt>
<totfact> 0.92827395E+02</totfact>
</mgrwt>
</event>
<event>
 5    1  0.2968854E-003  0.1484536E+03  0.7818608E-02  0.1202386E+00
         11   -1    0    0    0    0  0.00000000000E+00  0.00000000000E+00  0.10000953633E+04  0.10000953633E+04  0.51100000000E-03 0. -1.
          2   -1    0    0  501    0 -0.00000000000E+00 -0.00000000000E+00 -0.26055021280E+02  0.26055021404E+02  0.25500000000E-02 0.  1.
         11    1    1    2    0    0  0.95025397888E+01  0.80417853357E+01  0.18299120678E+02  0.22132021862E+02  0.51100000000E-03 0. -1.
         22    1    1    2    0    0  0.14243663473E+03 -0.16879244201E+01  0.60827090022E+03  0.62472756626E+03  0.00000000000E+00 0. -1.
          2    1    1    2  501    0 -0.15193917452E+03 -0.63538609156E+01  0.34747032116E+03  0.37929079661E+03  0.25500000000E-02 0.  1.
<mgrwt>
<rscale>  0 0.14845356E+03</rscale>
<asrwt>0</asrwt>
<pdfrwt beam="1">  1       11 0.10000000E+01 0.12448644E+02</pdfrwt>
<pdfrwt beam="2">  1        2 0.40088470E-02 0.14845356E+03</pdfrwt>
<totfact> 0.24701471E+03</totfact>
</mgrwt>
</event>
<event>
 5    1  0.2968854E-003  0.1475628E+03  0.7818608E-02  0.1207947E+00
         11   -1    0    0    0    0  0.00000000000E+00  0.00000000000E+00  0.10003886555E+04  0.10003886555E+04  0.51100000000E-03 0.  1.
          2   -1    0    0  501    0 -0.00000000000E+00 -0.00000000000E+00 -0.22134254330E+02  0.22134254476E+02  0.25500000000E-02 0.  1.
         11    1    1    2    0    0 -0.12576239299E+03 -0.34056577559E+02  0.32009266905E+03  0.34559419374E+03  0.51100000000E-03 0.  1.
         22    1    1    2    0    0 -0.13507710055E+02 -0.28460584304E+01  0.72762887238E+02  0.74060759101E+02  0.00000000000E+00 0.  1.
          2    1    1    2  501    0  0.13927010304E+03  0.36902635989E+02  0.58539884483E+03  0.60286795709E+03  0.25500000000E-02 0.  1.
<mgrwt>
<rscale>  0 0.14407625E+03</rscale>
<asrwt>0</asrwt>
<pdfrwt beam="1">  1       11 0.10000000E+01 0.14756284E+03</pdfrwt>
<pdfrwt beam="2">  1        2 0.34065933E-02 0.14407625E+03</pdfrwt>
<totfact> 0.30602990E+03</totfact>
</mgrwt>
</event>
<event>
 5    1  0.2968854E-003  0.2454723E+03  0.7818608E-02  0.1116200E+00
         11   -1    0    0    0    0  0.00000000000E+00  0.00000000000E+00  0.99971412502E+03  0.99971412502E+03  0.51100000000E-03 0. -1.
          2   -1    0    0  501    0 -0.00000000000E+00 -0.00000000000E+00 -0.39853468497E+03  0.39853468498E+03  0.25500000000E-02 0. -1.
         11    1    1    2    0    0 -0.12342117374E+03 -0.78809013927E+02  0.22593451876E+03  0.26923976967E+03  0.51100000000E-03 0. -1.
         22    1    1    2    0    0 -0.13959776611E+03  0.34218374845E+02  0.69664559109E+03  0.71131815179E+03  0.00000000000E+00 0. -1.
          2    1    1    2  501    0  0.26301893985E+03  0.44590639081E+02 -0.32140066980E+03  0.41769088854E+03  0.25500000000E-02 0. -1.
<mgrwt>
<rscale>  0 0.24547227E+03</rscale>
<asrwt>0</asrwt>
<pdfrwt beam="1">  1       11 0.10000000E+01 0.14373042E+03</pdfrwt>
<pdfrwt beam="2">  1        2 0.61295499E-01 0.24547227E+03</pdfrwt>
<totfact> 0.99789622E+01</totfact>
</mgrwt>
</event>
<event>
 5    1  0.2968854E-003  0.1709922E+03  0.7818608E-02  0.1179062E+00
         11   -1    0    0    0    0  0.00000000000E+00  0.00000000000E+00  0.10000011043E+04  0.10000011043E+04  0.51100000000E-03 0. -1.
         -2   -1    0    0    0  501 -0.00000000000E+00 -0.00000000000E+00 -0.54992219614E+02  0.54992219674E+02  0.25500000000E-02 0. -1.
         11    1    1    2    0    0  0.15257976598E+03 -0.37732101374E+02  0.78903336790E+03  0.80453586130E+03  0.51100000000E-03 0. -1.
         22    1    1    2    0    0  0.12762203662E+02  0.35374505052E+01  0.48584906245E+02  0.50357526878E+02  0.00000000000E+00 0. -1.
         -2    1    1    2    0  501 -0.16534196964E+03  0.34194650869E+02  0.10739061057E+03  0.20009993583E+03  0.25500000000E-02 0. -1.
<mgrwt>
<rscale>  0 0.16884088E+03</rscale>
<asrwt>0</asrwt>
<pdfrwt beam="1">  1       11 0.10000000E+01 0.17099220E+03</pdfrwt>
<pdfrwt beam="2">  1       -2 0.84603506E-02 0.16884088E+03</pdfrwt>
<totfact> 0.67212605E+02</totfact>
</mgrwt>
</event>
<event>
 5    1  0.2968854E-003  0.1373060E+03  0.7818608E-02  0.1329589E+00
         11   -1    0    0    0    0  0.00000000000E+00  0.00000000000E+00  0.10005229797E+04  0.10005229797E+04  0.51100000000E-03 0.  1.
          2   -1    0    0  501    0 -0.00000000000E+00 -0.00000000000E+00 -0.70128182850E+02  0.70128182896E+02  0.25500000000E-02 0.  1.
         11    1    1    2    0    0 -0.13483710941E+03 -0.66512935950E+02  0.46466216065E+03  0.48838093765E+03  0.51100000000E-03 0.  1.
         22    1    1    2    0    0  0.72238827944E+02  0.11602286350E+03  0.48184116759E+03  0.50084994150E+03  0.00000000000E+00 0.  1.
          2    1    1    2  501    0  0.62598281467E+02 -0.49509927549E+02 -0.16108531375E+02  0.81420283456E+02  0.25500000000E-02 0.  1.
<mgrwt>
<rscale>  0 0.79810888E+02</rscale>
<asrwt>0</asrwt>
<pdfrwt beam="1">  1       11 0.10000000E+01 0.13730602E+03</pdfrwt>
<pdfrwt beam="2">  1        2 0.10794593E-01 0.79810888E+02</pdfrwt>
<totfact> 0.67179058E+02</totfact>
</mgrwt>
</event>
<event>
 5    1  0.2968854E-003  0.1994770E+03  0.7818608E-02  0.1150181E+00
         11   -1    0    0    0    0  0.00000000000E+00  0.00000000000E+00  0.10000396527E+04  0.10000396527E+04  0.51100000000E-03 0. -1.
          2   -1    0    0  501    0 -0.00000000000E+00 -0.00000000000E+00 -0.71083289212E+02  0.71083289258E+02  0.25500000000E-02 0. -1.
         11    1    1    2    0    0 -0.19012478933E+03 -0.17065432761E+02  0.14525744327E+03  0.23987161011E+03  0.51100000000E-03 0. -1.
         22    1    1    2    0    0 -0.36074726941E+02 -0.28908865185E+02  0.12414932292E+03  0.13247702741E+03  0.00000000000E+00 0.  1.
          2    1    1    2  501    0  0.22619951627E+03  0.45974297946E+02  0.65954959731E+03  0.69877430445E+03  0.25500000000E-02 0. -1.
<mgrwt>
<rscale>  0 0.19947702E+03</rscale>
<asrwt>0</asrwt>
<pdfrwt beam="1">  1       11 0.10000000E+01 0.46228870E+02</pdfrwt>
<pdfrwt beam="2">  1        2 0.10936324E-01 0.19947702E+03</pdfrwt>
<totfact> 0.69539749E+02</totfact>
</mgrwt>
</event>
<event>
 5    1  0.2968854E-003  0.1698164E+03  0.7818608E-02  0.1187812E+00
         11   -1    0    0    0    0  0.00000000000E+00  0.00000000000E+00  0.99994616118E+03  0.99994616118E+03  0.51100000000E-03 0. -1.
          2   -1    0    0  501    0 -0.00000000000E+00 -0.00000000000E+00 -0.54772991220E+02  0.54772991280E+02  0.25500000000E-02 0. -1.
         11    1    1    2    0    0  0.13956243610E+03  0.16160557738E+02  0.72842811245E+03  0.74185332257E+03  0.51100000000E-03 0. -1.
         22    1    1    2    0    0  0.16132321582E+02  0.23982712786E+02  0.12383940710E+03  0.12716768875E+03  0.00000000000E+00 0. -1.
          2    1    1    2  501    0 -0.15569475768E+03 -0.40143270524E+02  0.92905650411E+02  0.18569814114E+03  0.25500000000E-02 0. -1.
<mgrwt>
<rscale>  0 0.16078663E+03</rscale>
<asrwt>0</asrwt>
<pdfrwt beam="1">  1       11 0.10000000E+01 0.16981635E+03</pdfrwt>
<pdfrwt beam="2">  1        2 0.84261601E-02 0.16078663E+03</pdfrwt>
<totfact> 0.95015695E+02</totfact>
</mgrwt>
</event>
<event>
 5    1  0.2968854E-003  0.1457034E+03  0.7818608E-02  0.1213449E+00
         11   -1    0    0    0    0  0.00000000000E+00  0.00000000000E+00  0.10000250447E+04  0.10000250447E+04  0.51100000000E-03 0. -1.
          2   -1    0    0  501    0 -0.00000000000E+00 -0.00000000000E+00 -0.20610494652E+02  0.20610494809E+02  0.25500000000E-02 0. -1.
         11    1    1    2    0    0 -0.40569773982E+02  0.10199575015E+03  0.28886764290E+03  0.30902031442E+03  0.51100000000E-03 0. -1.
         22    1    1    2    0    0 -0.39626021351E+01  0.30638702053E+02  0.15829675200E+03  0.16128327245E+03  0.00000000000E+00 0. -1.
          2    1    1    2  501    0  0.44532376117E+02 -0.13263445220E+03  0.53225015516E+03  0.55033195265E+03  0.25500000000E-02 0. -1.
<mgrwt>
<rscale>  0 0.13991079E+03</rscale>
<asrwt>0</asrwt>
<pdfrwt beam="1">  1       11 0.10000000E+01 0.14570336E+03</pdfrwt>
<pdfrwt beam="2">  1        2 0.31709247E-02 0.13991079E+03</pdfrwt>
<totfact> 0.33593183E+03</totfact>
</mgrwt>
</event>
<event>
 5    1  0.2968854E-003  0.6445515E+02  0.7818608E-02  0.1380033E+00
         11   -1    0    0    0    0  0.00000000000E+00  0.00000000000E+00  0.99994395424E+03  0.99994395424E+03  0.51100000000E-03 0. -1.
          2   -1    0    0  501    0 -0.00000000000E+00 -0.00000000000E+00 -0.11530473252E+02  0.11530473534E+02  0.25500000000E-02 0. -1.
         11    1    1    2    0    0  0.45573843350E+02 -0.10679639219E+02  0.95935084401E+02  0.10674535264E+03  0.51100000000E-03 0. -1.
         22    1    1    2    0    0 -0.13998644214E+01 -0.60094188418E+02  0.26520182582E+03  0.27192881333E+03  0.00000000000E+00 0. -1.
          2    1    1    2  501    0 -0.44173978929E+02  0.70773827637E+02  0.62727657077E+03  0.63280026180E+03  0.25500000000E-02 0. -1.
<mgrwt>
<rscale>  0 0.64455147E+02</rscale>
<asrwt>0</asrwt>
<pdfrwt beam="1">  1       11 0.10000000E+01 0.46808462E+02</pdfrwt>
<pdfrwt beam="2">  1        2 0.17738195E-02 0.64455147E+02</pdfrwt>
<totfact> 0.66655402E+03</totfact>
</mgrwt>
</event>
<event>
 5    1  0.2968854E-003  0.1838473E+03  0.7818608E-02  0.1164131E+00
         11   -1    0    0    0    0  0.00000000000E+00  0.00000000000E+00  0.99982528779E+03  0.99982528779E+03  0.51100000000E-03 0. -1.
          2   -1    0    0  501    0 -0.00000000000E+00 -0.00000000000E+00 -0.10383132476E+03  0.10383132479E+03  0.25500000000E-02 0. -1.
         11    1    1    2    0    0  0.76354965094E+02  0.20160944048E+02  0.27325264291E+03  0.28443549571E+03  0.51100000000E-03 0. -1.
         22    1    1    2    0    0 -0.46154985913E+02 -0.20012091878E+03  0.60140084321E+03  0.63550109290E+03  0.00000000000E+00 0. -1.
          2    1    1    2  501    0 -0.30199979182E+02  0.17995997473E+03  0.21340476904E+02  0.18372002397E+03  0.25500000000E-02 0. -1.
<mgrwt>
<rscale>  0 0.18384734E+03</rscale>
<asrwt>0</asrwt>
<pdfrwt beam="1">  1       11 0.10000000E+01 0.78971795E+02</pdfrwt>
<pdfrwt beam="2">  1        2 0.15971259E-01 0.18384734E+03</pdfrwt>
<totfact> 0.43991189E+02</totfact>
</mgrwt>
</event>
<event>
 5    1  0.2968854E-003  0.5682607E+02  0.7818608E-02  0.1428865E+00
         11   -1    0    0    0    0  0.00000000000E+00  0.00000000000E+00  0.10001596876E+04  0.10001596876E+04  0.51100000000E-03 0. -1.
          2   -1    0    0  501    0 -0.00000000000E+00 -0.00000000000E+00 -0.16811228484E+02  0.16811228678E+02  0.25500000000E-02 0. -1.
         11    1    1    2    0    0  0.65718212821E+01 -0.43526334176E+02  0.21887822585E+02  0.49161035176E+02  0.51100000000E-03 0. -1.
         22    1    1    2    0    0 -0.70563991238E+01 -0.96599127956E+01  0.12292364953E+02  0.17152519347E+02  0.00000000000E+00 0. -1.
          2    1    1    2  501    0  0.48457784171E+00  0.53186246972E+02  0.94916827154E+03  0.95065736172E+03  0.25500000000E-02 0. -1.
<mgrwt>
<rscale>  0 0.53188454E+02</rscale>
<asrwt>0</asrwt>
<pdfrwt beam="1">  1       11 0.10000000E+01 0.56826071E+02</pdfrwt>
<pdfrwt beam="2">  1        2 0.25867558E-02 0.53188454E+02</pdfrwt>
<totfact> 0.39340287E+03</totfact>
</mgrwt>
</event>
<event>
 5    1  0.2968854E-003  0.2295706E+03  0.7818608E-02  0.1134542E+00
         11   -1    0    0    0    0  0.00000000000E+00  0.00000000000E+00  0.10001661243E+04  0.10001661243E+04  0.51100000000E-03 0.  1.
         -2   -1    0    0    0  501 -0.00000000000E+00 -0.00000000000E+00 -0.18518041249E+03  0.18518041251E+03  0.25500000000E-02 0. -1.
         11    1    1    2    0    0 -0.14569742998E+03 -0.42956489690E+02  0.66781395044E+03  0.68487113643E+03  0.51100000000E-03 0.  1.
         22    1    1    2    0    0 -0.72405034857E+02  0.21877554626E+02  0.24799519329E+03  0.25927347023E+03  0.00000000000E+00 0.  1.
         -2    1    1    2    0  501  0.21810246483E+03  0.21078935064E+02 -0.10082343193E+03  0.24120193014E+03  0.25500000000E-02 0. -1.
<mgrwt>
<rscale>  0 0.21911870E+03</rscale>
<asrwt>0</asrwt>
<pdfrwt beam="1">  1       11 0.10000000E+01 0.22957058E+03</pdfrwt>
<pdfrwt beam="2">  1       -2 0.28494026E-01 0.21911870E+03</pdfrwt>
<totfact> 0.90237531E+01</totfact>
</mgrwt>
</event>
<event>
 5    1  0.2968854E-003  0.1098882E+03  0.7818608E-02  0.1640007E+00
         11   -1    0    0    0    0  0.00000000000E+00  0.00000000000E+00  0.10002375588E+04  0.10002375588E+04  0.51100000000E-03 0.  1.
          2   -1    0    0  501    0 -0.00000000000E+00 -0.00000000000E+00 -0.21923738590E+02  0.21923738739E+02  0.25500000000E-02 0. -1.
         11    1    1    2    0    0  0.88761125322E+02  0.63827859677E+02  0.33796979439E+03  0.35521277421E+03  0.51100000000E-03 0.  1.
         22    1    1    2    0    0 -0.10328206639E+03 -0.41629688706E+02  0.62781220189E+03  0.63761146246E+03  0.00000000000E+00 0.  1.
          2    1    1    2  501    0  0.14520941065E+02 -0.22198170971E+02  0.12531823953E+02  0.29337060896E+02  0.25500000000E-02 0. -1.
<mgrwt>
<rscale>  0 0.26525771E+02</rscale>
<asrwt>0</asrwt>
<pdfrwt beam="1">  1       11 0.10000000E+01 0.10988819E+03</pdfrwt>
<pdfrwt beam="2">  1        2 0.33736840E-02 0.26525771E+02</pdfrwt>
<totfact> 0.25310123E+03</totfact>
</mgrwt>
</event>
<event>
 5    1  0.2968854E-003  0.1471331E+03  0.7818608E-02  0.1214778E+00
         11   -1    0    0    0    0  0.00000000000E+00  0.00000000000E+00  0.10000409065E+04  0.10000409065E+04  0.51100000000E-03 0. -1.
         -2   -1    0    0    0  501 -0.00000000000E+00 -0.00000000000E+00 -0.23626521033E+02  0.23626521171E+02  0.25500000000E-02 0.  1.
         11    1    1    2    0    0  0.12285581350E+03  0.25055674468E+02  0.61853122673E+03  0.63111188879E+03  0.51100000000E-03 0. -1.
         22    1    1    2    0    0  0.90995858036E+01  0.18406710392E+02  0.69199865046E+02  0.72181928289E+02  0.00000000000E+00 0.  1.
         -2    1    1    2    0  501 -0.13195539930E+03 -0.43462384859E+02  0.28868329373E+03  0.32037361063E+03  0.25500000000E-02 0.  1.
<mgrwt>
<rscale>  0 0.13892878E+03</rscale>
<asrwt>0</asrwt>
<pdfrwt beam="1">  1       11 0.10000000E+01 0.14713306E+03</pdfrwt>
<pdfrwt beam="2">  1       -2 0.36349980E-02 0.13892878E+03</pdfrwt>
<totfact> 0.23813360E+03</totfact>
</mgrwt>
</event>
<event>
 5    1  0.2968854E-003  0.1943223E+03  0.7818608E-02  0.1158846E+00
         11   -1    0    0    0    0  0.00000000000E+00  0.00000000000E+00  0.10006301951E+04  0.10006301951E+04  0.51100000000E-03 0. -1.
          2   -1    0    0  501    0 -0.00000000000E+00 -0.00000000000E+00 -0.36820930504E+02  0.36820930593E+02  0.25500000000E-02 0. -1.
         11    1    1    2    0    0 -0.12295085744E+03 -0.13505912737E+03  0.44674493261E+03  0.48263745819E+03  0.51100000000E-03 0. -1.
         22    1    1    2    0    0 -0.10852564194E+02  0.76528191730E+00  0.40283491961E+02  0.41726772348E+02  0.00000000000E+00 0. -1.
          2    1    1    2  501    0  0.13380342163E+03  0.13429384545E+03  0.47678084005E+03  0.51308689519E+03  0.25500000000E-02 0. -1.
<mgrwt>
<rscale>  0 0.18957371E+03</rscale>
<asrwt>0</asrwt>
<pdfrwt beam="1">  1       11 0.10000000E+01 0.19432231E+03</pdfrwt>
<pdfrwt beam="2">  1        2 0.56683283E-02 0.18957371E+03</pdfrwt>
<totfact> 0.15960847E+03</totfact>
</mgrwt>
</event>
<event>
 5    1  0.2968854E-003  0.2501181E+03  0.7818608E-02  0.1115603E+00
         11   -1    0    0    0    0  0.00000000000E+00  0.00000000000E+00  0.10003889789E+04  0.10003889789E+04  0.51100000000E-03 0. -1.
          2   -1    0    0  501    0 -0.00000000000E+00 -0.00000000000E+00 -0.66850637928E+03  0.66850637929E+03  0.25500000000E-02 0. -1.
         11    1    1    2    0    0 -0.21192030125E+02  0.22595151927E+02  0.14324769480E+03  0.14655901575E+03  0.51100000000E-03 0. -1.
         22    1    1    2    0    0 -0.20657827887E+03  0.71384415419E+02  0.81787435219E+03  0.84657473151E+03  0.00000000000E+00 0. -1.
          2    1    1    2  501    0  0.22777030899E+03 -0.93979567347E+02 -0.62923944734E+03  0.67576161095E+03  0.25500000000E-02 0. -1.
<mgrwt>
<rscale>  0 0.24639698E+03</rscale>
<asrwt>0</asrwt>
<pdfrwt beam="1">  1       11 0.10000000E+01 0.25011807E+03</pdfrwt>
<pdfrwt beam="2">  1        2 0.10288714E+00 0.24639698E+03</pdfrwt>
<totfact> 0.55482040E+01</totfact>
</mgrwt>
</event>
<event>
 5    1  0.2968854E-003  0.1915550E+03  0.7818608E-02  0.1420955E+00
         11   -1    0    0    0    0  0.00000000000E+00  0.00000000000E+00  0.99995359425E+03  0.99995359425E+03  0.51100000000E-03 0.  1.
          2   -1    0    0  501    0 -0.00000000000E+00 -0.00000000000E+00 -0.11491722075E+03  0.11491722078E+03  0.25500000000E-02 0.  1.
         11    1    1    2    0    0  0.75258038180E+02  0.18049470769E+03 -0.78784451711E+01  0.19571454139E+03  0.51100000000E-03 0.  1.
         22    1    1    2    0    0 -0.15644055825E+02  0.11776254402E+01  0.19347515673E+02  0.24908826690E+02  0.00000000000E+00 0.  1.
          2    1    1    2  501    0 -0.59613982355E+02 -0.18167233313E+03  0.87356730299E+03  0.89424744695E+03  0.25500000000E-02 0.  1.
<mgrwt>
<rscale>  0 0.54819471E+02</rscale>
<asrwt>0</asrwt>
<pdfrwt beam="1">  1       11 0.10000000E+01 0.19155503E+03</pdfrwt>
<pdfrwt beam="2">  1        2 0.17678751E-01 0.54819471E+02</pdfrwt>
<totfact> 0.37196354E+02</totfact>
</mgrwt>
</event>
<event>
 5    1  0.2968854E-003  0.1770279E+03  0.7818608E-02  0.1174127E+00
         11   -1    0    0    0    0  0.00000000000E+00  0.00000000000E+00  0.10003553600E+04  0.10003553600E+04  0.51100000000E-03 0.  1.
          2   -1    0    0  501    0 -0.00000000000E+00 -0.00000000000E+00 -0.25266707546E+03  0.25266707548E+03  0.25500000000E-02 0.  1.
         11    1    1    2    0    0 -0.13681391808E+03 -0.35405996495E+02  0.75358555641E+03  0.76672212932E+03  0.51100000000E-03 0.  1.
         22    1    1    2    0    0 -0.26351326122E+02 -0.23925947172E+02  0.20787861075E+03  0.21090367503E+03  0.00000000000E+00 0.  1.
          2    1    1    2  501    0  0.16316524420E+03  0.59331943667E+02 -0.21377588260E+03  0.27539663114E+03  0.25500000000E-02 0.  1.
<mgrwt>
<rscale>  0 0.17361790E+03</rscale>
<asrwt>0</asrwt>
<pdfrwt beam="1">  1       11 0.10000000E+01 0.17702788E+03</pdfrwt>
<pdfrwt beam="2">  1        2 0.38885670E-01 0.17361790E+03</pdfrwt>
<totfact> 0.16282591E+02</totfact>
</mgrwt>
</event>
<event>
 5    1  0.2968854E-003  0.1728591E+03  0.7818608E-02  0.1177323E+00
         11   -1    0    0    0    0  0.00000000000E+00  0.00000000000E+00  0.10001977887E+04  0.10001977887E+04  0.51100000000E-03 0. -1.
          2   -1    0    0  501    0 -0.00000000000E+00 -0.00000000000E+00 -0.50567713713E+02  0.50567713778E+02  0.25500000000E-02 0. -1.
         11    1    1    2    0    0 -0.10544279492E+03 -0.12209413410E+03  0.78794701840E+03  0.80429202681E+03  0.51100000000E-03 0. -1.
         22    1    1    2    0    0 -0.92567287840E+01 -0.40630074710E+01  0.28128571578E+02  0.29889991577E+02  0.00000000000E+00 0. -1.
          2    1    1    2  501    0  0.11469952371E+03  0.12615714157E+03  0.13355448501E+03  0.21658348409E+03  0.25500000000E-02 0. -1.
<mgrwt>
<rscale>  0 0.17050397E+03</rscale>
<asrwt>0</asrwt>
<pdfrwt beam="1">  1       11 0.10000000E+01 0.17285911E+03</pdfrwt>
<pdfrwt beam="2">  1        2 0.77811868E-02 0.17050397E+03</pdfrwt>
<totfact> 0.10542368E+03</totfact>
</mgrwt>
</event>
<event>
 5    1  0.2968854E-003  0.1000622E+03  0.7818608E-02  0.1290612E+00
         11   -1    0    0    0    0  0.00000000000E+00  0.00000000000E+00  0.10005691279E+04  0.10005691279E+04  0.51100000000E-03 0.  1.
          2   -1    0    0  501    0 -0.00000000000E+00 -0.00000000000E+00 -0.35796423212E+02  0.35796423303E+02  0.25500000000E-02 0.  1.
         11    1    1    2    0    0  0.99916661230E+02  0.53939933256E+01  0.42467879783E+03  0.43630782216E+03  0.51100000000E-03 0.  1.
         22    1    1    2    0    0 -0.66660415180E+02  0.89858632682E+02  0.45350911347E+03  0.46710673386E+03  0.00000000000E+00 0.  1.
          2    1    1    2  501    0 -0.33256246050E+02 -0.95252626007E+02  0.86584793356E+02  0.13295099514E+03  0.25500000000E-02 0.  1.
<mgrwt>
<rscale>  0 0.95251092E+02</rscale>
<asrwt>0</asrwt>
<pdfrwt beam="1">  1       11 0.10000000E+01 0.10006215E+03</pdfrwt>
<pdfrwt beam="2">  1        2 0.55102762E-02 0.95251092E+02</pdfrwt>
<totfact> 0.15686423E+03</totfact>
</mgrwt>
</event>
<event>
 5    1  0.2968854E-003  0.4441307E+02  0.7818608E-02  0.1648090E+00
         11   -1    0    0    0    0  0.00000000000E+00  0.00000000000E+00  0.10002808860E+04  0.10002808860E+04  0.51100000000E-03 0.  1.
          2   -1    0    0  501    0 -0.00000000000E+00 -0.00000000000E+00 -0.36692895995E+01  0.36692904856E+01  0.25500000000E-02 0.  1.
         11    1    1    2    0    0 -0.26840512316E+02 -0.38303025433E+02  0.23938649737E+03  0.24391275076E+03  0.51100000000E-03 0.  1.
         22    1    1    2    0    0  0.14532082159E+02 -0.42133460510E+01  0.83489671959E+02  0.84849625931E+02  0.00000000000E+00 0.  1.
          2    1    1    2  501    0  0.12308430157E+02  0.42516371484E+02  0.67373542704E+03  0.67518779977E+03  0.25500000000E-02 0.  1.
<mgrwt>
<rscale>  0 0.25922848E+02</rscale>
<asrwt>0</asrwt>
<pdfrwt beam="1">  1       11 0.10000000E+01 0.44413070E+02</pdfrwt>
<pdfrwt beam="2">  1        2 0.56466471E-03 0.25922848E+02</pdfrwt>
<totfact> 0.25623836E+04</totfact>
</mgrwt>
</event>
<event>
 5    1  0.2968854E-003  0.2742224E+02  0.7818608E-02  0.1651492E+00
         11   -1    0    0    0    0  0.00000000000E+00  0.00000000000E+00  0.10000554491E+04  0.10000554491E+04  0.51100000000E-03 0.  1.
          2   -1    0    0  501    0 -0.00000000000E+00 -0.00000000000E+00 -0.35929291209E+01  0.35929300258E+01  0.25500000000E-02 0.  1.
         11    1    1    2    0    0  0.44662376250E+01 -0.25216615130E+02  0.73105852347E+02  0.77461542747E+02  0.51100000000E-03 0.  1.
         22    1    1    2    0    0  0.20931736671E+02  0.11821251874E+02  0.12366382250E+03  0.12597865133E+03  0.00000000000E+00 0.  1.
          2    1    1    2  501    0 -0.25397974296E+02  0.13395363255E+02  0.79969284513E+03  0.80020818505E+03  0.25500000000E-02 0.  1.
<mgrwt>
<rscale>  0 0.25675016E+02</rscale>
<asrwt>0</asrwt>
<pdfrwt beam="1">  1       11 0.10000000E+01 0.27422243E+02</pdfrwt>
<pdfrwt beam="2">  1        2 0.55278903E-03 0.25675016E+02</pdfrwt>
<totfact> 0.26288644E+04</totfact>
</mgrwt>
</event>
<event>
 5    1  0.2968854E-003  0.1863756E+03  0.7818608E-02  0.1161772E+00
         11   -1    0    0    0    0  0.00000000000E+00  0.00000000000E+00  0.10004553112E+04  0.10004553112E+04  0.51100000000E-03 0.  1.
          2   -1    0    0  501    0 -0.00000000000E+00 -0.00000000000E+00 -0.11558472196E+04  0.11558472196E+04  0.25500000000E-02 0. -1.
         11    1    1    2    0    0 -0.14095903826E+03  0.89660047044E+02  0.94819493131E+03  0.96279904563E+03  0.51100000000E-03 0.  1.
         22    1    1    2    0    0 -0.14862669210E+02  0.12871581898E+02  0.34781637924E+02  0.39954209957E+02  0.00000000000E+00 0. -1.
          2    1    1    2  501    0  0.15582170747E+03 -0.10253162894E+03 -0.11383684776E+04  0.11535492752E+04  0.25500000000E-02 0. -1.
<mgrwt>
<rscale>  0 0.18637558E+03</rscale>
<asrwt>0</asrwt>
<pdfrwt beam="1">  1       11 0.10000000E+01 0.19661550E+02</pdfrwt>
<pdfrwt beam="2">  1        2 0.17790361E+00 0.18637558E+03</pdfrwt>
<totfact> 0.27082977E+01</totfact>
</mgrwt>
</event>
<event>
 5    1  0.2968854E-003  0.1595360E+03  0.7818608E-02  0.1189222E+00
         11   -1    0    0    0    0  0.00000000000E+00  0.00000000000E+00  0.10001273746E+04  0.10001273746E+04  0.51100000000E-03 0. -1.
          2   -1    0    0  501    0 -0.00000000000E+00 -0.00000000000E+00 -0.33221760125E+02  0.33221760223E+02  0.25500000000E-02 0. -1.
         11    1    1    2    0    0 -0.22513025025E+02  0.15489126903E+03  0.61176768513E+03  0.63147275640E+03  0.51100000000E-03 0. -1.
         22    1    1    2    0    0 -0.15349616843E+02  0.17338793164E+01  0.92246482771E+02  0.93530907503E+02  0.00000000000E+00 0.  1.
          2    1    1    2  501    0  0.37862641868E+02 -0.15662514834E+03  0.26289144656E+03  0.30834547090E+03  0.25500000000E-02 0. -1.
<mgrwt>
<rscale>  0 0.15953602E+03</rscale>
<asrwt>0</asrwt>
<pdfrwt beam="1">  1       11 0.10000000E+01 0.15447235E+02</pdfrwt>
<pdfrwt beam="2">  1        2 0.51116909E-02 0.15953602E+03</pdfrwt>
<totfact> 0.18036867E+03</totfact>
</mgrwt>
</event>
<event>
 5    1  0.2968854E-003  0.1799061E+03  0.7818608E-02  0.1171642E+00
         11   -1    0    0    0    0  0.00000000000E+00  0.00000000000E+00  0.10001662414E+04  0.10001662414E+04  0.51100000000E-03 0.  1.
          2   -1    0    0  501    0 -0.00000000000E+00 -0.00000000000E+00 -0.19860259427E+03  0.19860259429E+03  0.25500000000E-02 0.  1.
         11    1    1    2    0    0  0.54408384378E+02 -0.13094896416E+03  0.78963975570E+03  0.80227105600E+03  0.51100000000E-03 0.  1.
         22    1    1    2    0    0 -0.19982104727E+01 -0.37160821185E+02  0.16132908272E+03  0.16556567401E+03  0.00000000000E+00 0.  1.
          2    1    1    2  501    0 -0.52410173905E+02  0.16810978535E+03 -0.14940519128E+03  0.23093210570E+03  0.25500000000E-02 0.  1.
<mgrwt>
<rscale>  0 0.17609011E+03</rscale>
<asrwt>0</asrwt>
<pdfrwt beam="1">  1       11 0.10000000E+01 0.17990610E+03</pdfrwt>
<pdfrwt beam="2">  1        2 0.30559324E-01 0.17609011E+03</pdfrwt>
<totfact> 0.21130416E+02</totfact>
</mgrwt>
</event>
<event>
 5    1  0.2968854E-003  0.2434989E+03  0.7818608E-02  0.1117484E+00
         11   -1    0    0    0    0  0.00000000000E+00  0.00000000000E+00  0.10003234168E+04  0.10003234168E+04  0.51100000000E-03 0. -1.
         -2   -1    0    0    0  501 -0.00000000000E+00 -0.00000000000E+00 -0.16876678272E+03  0.16876678274E+03  0.25500000000E-02 0.  1.
         11    1    1    2    0    0  0.22074970443E+03 -0.91891812366E+02  0.72820700767E+03  0.76645938131E+03  0.51100000000E-03 0. -1.
         22    1    1    2    0    0 -0.40219672897E+02 -0.75301322439E+02  0.12958502322E+03  0.15517792849E+03  0.00000000000E+00 0. -1.
         -2    1    1    2    0  501 -0.18053003153E+03  0.16719313480E+03 -0.26235396761E+02  0.24745288978E+03  0.25500000000E-02 0.  1.
<mgrwt>
<rscale>  0 0.24349888E+03</rscale>
<asrwt>0</asrwt>
<pdfrwt beam="1">  1       11 0.10000000E+01 0.85369264E+02</pdfrwt>
<pdfrwt beam="2">  1       -2 0.25972517E-01 0.24349888E+03</pdfrwt>
<totfact> 0.10669837E+02</totfact>
</mgrwt>
</event>
<event>
 5    1  0.2968854E-003  0.1483579E+03  0.7818608E-02  0.1202505E+00
         11   -1    0    0    0    0  0.00000000000E+00  0.00000000000E+00  0.10002066981E+04  0.10002066981E+04  0.51100000000E-03 0.  1.
          2   -1    0    0  501    0 -0.00000000000E+00 -0.00000000000E+00 -0.52465622666E+03  0.52465622666E+03  0.25500000000E-02 0.  1.
         11    1    1    2    0    0 -0.28494134929E+01  0.60722282089E+02  0.32954206823E+03  0.33510190902E+03  0.51100000000E-03 0.  1.
         22    1    1    2    0    0 -0.10223529646E+03  0.45025312444E+02  0.65239252384E+03  0.66188770933E+03  0.00000000000E+00 0.  1.
          2    1    1    2  501    0  0.10508470995E+03 -0.10574759453E+03 -0.50638412061E+03  0.52787330642E+03  0.25500000000E-02 0.  1.
<mgrwt>
<rscale>  0 0.14835795E+03</rscale>
<asrwt>0</asrwt>
<pdfrwt beam="1">  1       11 0.10000000E+01 0.60789100E+02</pdfrwt>
<pdfrwt beam="2">  1        2 0.80733024E-01 0.14835795E+03</pdfrwt>
<totfact> 0.74189256E+01</totfact>
</mgrwt>
</event>
<event>
 5    1  0.2968854E-003  0.1952996E+03  0.7818608E-02  0.1159110E+00
         11   -1    0    0    0    0  0.00000000000E+00  0.00000000000E+00  0.10001005460E+04  0.10001005460E+04  0.51100000000E-03 0.  1.
         -2   -1    0    0    0  501 -0.00000000000E+00 -0.00000000000E+00 -0.38798991434E+02  0.38798991518E+02  0.25500000000E-02 0. -1.
         11    1    1    2    0    0 -0.16189611426E+03 -0.30959011482E+02  0.53907900777E+03  0.56371534379E+03  0.51100000000E-03 0.  1.
         22    1    1    2    0    0 -0.26341066737E+02  0.11096301343E+02  0.61442569175E+02  0.67765544395E+02  0.00000000000E+00 0. -1.
         -2    1    1    2    0  501  0.18823718099E+03  0.19862710139E+02  0.36077997757E+03  0.40741864928E+03  0.25500000000E-02 0. -1.
<mgrwt>
<rscale>  0 0.18928223E+03</rscale>
<asrwt>0</asrwt>
<pdfrwt beam="1">  1       11 0.10000000E+01 0.19529964E+03</pdfrwt>
<pdfrwt beam="2">  1       -2 0.59696756E-02 0.18928223E+03</pdfrwt>
<totfact> 0.11600903E+03</totfact>
</mgrwt>
</event>
<event>
 5    1  0.2968854E-003  0.7206799E+02  0.7818608E-02  0.1358365E+00
         11   -1    0    0    0    0  0.00000000000E+00  0.00000000000E+00  0.10002692252E+04  0.10002692252E+04  0.51100000000E-03 0. -1.
          2   -1    0    0  501    0 -0.00000000000E+00 -0.00000000000E+00 -0.60572410397E+01  0.60572415764E+01  0.25500000000E-02 0. -1.
         11    1    1    2    0    0 -0.65281070942E+01  0.50448434133E+02  0.21763406186E+03  0.22349999009E+03  0.51100000000E-03 0. -1.
         22    1    1    2    0    0  0.66387532466E+01  0.20062205165E+02  0.82016687625E+02  0.84695349163E+02  0.00000000000E+00 0.  1.
          2    1    1    2  501    0 -0.11064615241E+00 -0.70510639298E+02  0.69456123468E+03  0.69813112753E+03  0.25500000000E-02 0. -1.
<mgrwt>
<rscale>  0 0.70510726E+02</rscale>
<asrwt>0</asrwt>
<pdfrwt beam="1">  1       11 0.10000000E+01 0.72067992E+02</pdfrwt>
<pdfrwt beam="2">  1        2 0.93213414E-03 0.70510726E+02</pdfrwt>
<totfact> 0.16115153E+04</totfact>
</mgrwt>
</event>
<event>
 5    1  0.2968854E-003  0.2053076E+03  0.7818608E-02  0.1145337E+00
         11   -1    0    0    0    0  0.00000000000E+00  0.00000000000E+00  0.10003967604E+04  0.10003967604E+04  0.51100000000E-03 0. -1.
          2   -1    0    0  501    0 -0.00000000000E+00 -0.00000000000E+00 -0.13704065210E+03  0.13704065212E+03  0.25500000000E-02 0. -1.
         11    1    1    2    0    0 -0.11310816243E+03  0.13303707136E+03  0.58865572659E+03  0.61400967681E+03  0.51100000000E-03 0. -1.
         22    1    1    2    0    0  0.10529805746E+03  0.83606453734E+02  0.27559277149E+03  0.30664164053E+03  0.00000000000E+00 0. -1.
          2    1    1    2  501    0  0.78101049759E+01 -0.21664352510E+03 -0.89238976741E+00  0.21678609520E+03  0.25500000000E-02 0. -1.
<mgrwt>
<rscale>  0 0.20530759E+03</rscale>
<asrwt>0</asrwt>
<pdfrwt beam="1">  1       11 0.10000000E+01 0.13445341E+03</pdfrwt>
<pdfrwt beam="2">  1        2 0.21091542E-01 0.20530759E+03</pdfrwt>
<totfact> 0.32026218E+02</totfact>
</mgrwt>
</event>
<event>
 5    1  0.2968854E-003  0.5499157E+02  0.7818608E-02  0.1426558E+00
         11   -1    0    0    0    0  0.00000000000E+00  0.00000000000E+00  0.10001841693E+04  0.10001841693E+04  0.51100000000E-03 0.  1.
          2   -1    0    0  501    0 -0.00000000000E+00 -0.00000000000E+00 -0.38148550116E+01  0.38148558638E+01  0.25500000000E-02 0.  1.
         11    1    1    2    0    0 -0.13179463289E+02 -0.34633730128E+02  0.17008816623E+03  0.17407807962E+03  0.51100000000E-03 0.  1.
         22    1    1    2    0    0  0.15808729892E+01 -0.17754937689E+02  0.93904253439E+02  0.95581095336E+02  0.00000000000E+00 0. -1.
          2    1    1    2  501    0  0.11598590299E+02  0.52388667817E+02  0.73237689467E+03  0.73433985025E+03  0.25500000000E-02 0.  1.
<mgrwt>
<rscale>  0 0.53657244E+02</rscale>
<asrwt>0</asrwt>
<pdfrwt beam="1">  1       11 0.10000000E+01 0.54991572E+02</pdfrwt>
<pdfrwt beam="2">  1        2 0.58700891E-03 0.53657244E+02</pdfrwt>
<totfact> 0.28675389E+04</totfact>
</mgrwt>
</event>
<event>
 5    1  0.4066402E-003  0.2017852E+03  0.7818608E-02  0.1149874E+00
         11   -1    0    0    0    0  0.00000000000E+00  0.00000000000E+00  0.10005988665E+04  0.10005988665E+04  0.51100000000E-03 0. -1.
          2   -1    0    0  501    0 -0.00000000000E+00 -0.00000000000E+00 -0.98994475257E+03  0.98994475257E+03  0.25500000000E-02 0. -1.
         11    1    1    2    0    0  0.16101552656E+03 -0.72642723463E+02  0.90073700097E+03  0.91789438934E+03  0.51100000000E-03 0. -1.
         22    1    1    2    0    0  0.19526361808E+02 -0.13034270282E+02  0.79392756200E+02  0.82791187600E+02  0.00000000000E+00 0. -1.
          2    1    1    2  501    0 -0.18054188837E+03  0.85676993745E+02 -0.96947564324E+03  0.98985804213E+03  0.25500000000E-02 0. -1.
<mgrwt>
<rscale>  0 0.19983974E+03</rscale>
<asrwt>0</asrwt>
<pdfrwt beam="1">  1       11 0.10000000E+01 0.20178524E+03</pdfrwt>
<pdfrwt beam="2">  1        2 0.15239040E+00 0.19983974E+03</pdfrwt>
<totfact> 0.33775984E+01</totfact>
</mgrwt>
</event>
