<event>
 5    1  0.3071919E-012  0.2000640E+01  0.7818608E-02  0.3998288E+00
         11   -1    0    0    0    0  0.00000000000E+00  0.00000000000E+00  0.39999999603E+01  0.39999999929E+01  0.51100000000E-03 0.  1.
         -4   -1    0    0    0  501 -0.00000000000E+00 -0.00000000000E+00  0.23835634900E+00  0.14398658789E+01  0.14200000000E+01 0. -1.
         11    1    1    2    0    0 -0.37653223588E+00  0.13458219325E+01  0.17386537249E+01  0.22306793214E+01  0.51100000000E-03 0.  1.
         22    1    1    2    0    0 -0.34946373775E-02  0.11284593306E-01  0.12357508670E-01  0.17095688258E-01  0.00000000000E+00 0. -1.
         -4    1    1    2    0  501  0.38002687325E+00 -0.13571065258E+01  0.24873450757E+01  0.31920908622E+01  0.14200000000E+01 0. -1.
<mgrwt>
<rscale>  0 0.20006395E+01</rscale>
<asrwt>0</asrwt>
<pdfrwt beam="1">  1       11 0.10000000E+01 0.14094162E+01</pdfrwt>
<pdfrwt beam="2">  1       -4 0.99790183E+00 0.20006395E+01</pdfrwt>
<totfact> 0.51254119E-10</totfact>
</mgrwt>
</event>
<event>
 5    1  0.2021837E-012  0.2000099E+01  0.7818608E-02  0.3998973E+00
         11   -1    0    0    0    0  0.00000000000E+00  0.00000000000E+00  0.39999999520E+01  0.39999999846E+01  0.51100000000E-03 0.  1.
         -4   -1    0    0    0  501 -0.00000000000E+00 -0.00000000000E+00  0.23645109648E+00  0.14395517084E+01  0.14200000000E+01 0.  1.
         11    1    1    2    0    0 -0.26373916691E+00  0.13363039527E+01  0.17282695807E+01  0.22004959911E+01  0.51100000000E-03 0.  1.
         22    1    1    2    0    0  0.22128809997E-02  0.47748640453E-01  0.79986942442E-01  0.93181223799E-01  0.00000000000E+00 0.  1.
         -4    1    1    2    0  501  0.26152628592E+00 -0.13840525932E+01  0.24281945253E+01  0.31458744781E+01  0.14200000000E+01 0.  1.
<mgrwt>
<rscale>  0 0.20000994E+01</rscale>
<asrwt>0</asrwt>
<pdfrwt beam="1">  1       11 0.10000000E+01 0.14110859E+01</pdfrwt>
<pdfrwt beam="2">  1       -4 0.99899415E+00 0.20000994E+01</pdfrwt>
<totfact> 0.25888618E-10</totfact>
</mgrwt>
</event>
<event>
 5    1  0.2021837E-012  0.2001088E+01  0.7818608E-02  0.3997719E+00
         11   -1    0    0    0    0  0.00000000000E+00  0.00000000000E+00  0.39999999635E+01  0.39999999961E+01  0.51100000000E-03 0.  1.
          4   -1    0    0  501    0 -0.00000000000E+00 -0.00000000000E+00  0.23689254096E+00  0.14396242829E+01  0.14200000000E+01 0.  1.
         11    1    1    2    0    0 -0.64702702747E+00  0.12212925193E+01  0.16842292803E+01  0.21787216255E+01  0.51100000000E-03 0.  1.
         22    1    1    2    0    0 -0.13369442397E-01  0.24432841839E-01  0.40576383389E-01  0.49215329312E-01  0.00000000000E+00 0. -1.
          4    1    1    2  501    0  0.66039646987E+00 -0.12457253611E+01  0.25120868408E+01  0.32116873242E+01  0.14200000000E+01 0.  1.
<mgrwt>
<rscale>  0 0.20010885E+01</rscale>
<asrwt>0</asrwt>
<pdfrwt beam="1">  1       11 0.10000000E+01 0.14102306E+01</pdfrwt>
<pdfrwt beam="2">  1        4 0.99874091E+00 0.20010885E+01</pdfrwt>
<totfact> 0.32049960E-10</totfact>
</mgrwt>
</event>
<event>
 5    1  0.2021837E-012  0.2000959E+01  0.7818608E-02  0.3997883E+00
         11   -1    0    0    0    0  0.00000000000E+00  0.00000000000E+00  0.39999999503E+01  0.39999999829E+01  0.51100000000E-03 0.  1.
         -4   -1    0    0    0  501 -0.00000000000E+00 -0.00000000000E+00  0.23744482798E+00  0.14397152657E+01  0.14200000000E+01 0.  1.
         11    1    1    2    0    0 -0.87776024284E+00  0.10792621213E+01  0.16988936593E+01  0.21957936372E+01  0.51100000000E-03 0.  1.
         22    1    1    2    0    0 -0.11716145191E-01  0.14478387050E-01  0.22180315930E-01  0.28963048259E-01  0.00000000000E+00 0.  1.
         -4    1    1    2    0  501  0.88947638803E+00 -0.10937405084E+01  0.25163708030E+01  0.32149585632E+01  0.14200000000E+01 0.  1.
<mgrwt>
<rscale>  0 0.20009589E+01</rscale>
<asrwt>0</asrwt>
<pdfrwt beam="1">  1       11 0.10000000E+01 0.14097690E+01</pdfrwt>
<pdfrwt beam="2">  1       -4 0.99842421E+00 0.20009589E+01</pdfrwt>
<totfact> 0.39495167E-10</totfact>
</mgrwt>
</event>
<event>
 5    1  0.2021837E-012  0.2000325E+01  0.7818608E-02  0.3998687E+00
         11   -1    0    0    0    0  0.00000000000E+00  0.00000000000E+00  0.39999999519E+01  0.39999999846E+01  0.51100000000E-03 0.  1.
          4   -1    0    0  501    0 -0.00000000000E+00 -0.00000000000E+00  0.23557139502E+00  0.14394074761E+01  0.14200000000E+01 0.  1.
         11    1    1    2    0    0 -0.13319164828E+01 -0.26964177363E-01  0.15637517121E+01  0.20542756052E+01  0.51100000000E-03 0.  1.
         22    1    1    2    0    0 -0.76891750606E-01  0.14344504982E-01  0.10445228325E+00  0.13049285655E+00  0.00000000000E+00 0. -1.
          4    1    1    2  501    0  0.14088082334E+01  0.12619672380E-01  0.25673673516E+01  0.32546389989E+01  0.14200000000E+01 0.  1.
<mgrwt>
<rscale>  0 0.20003249E+01</rscale>
<asrwt>0</asrwt>
<pdfrwt beam="1">  1       11 0.10000000E+01 0.14107837E+01</pdfrwt>
<pdfrwt beam="2">  1        4 0.99949906E+00 0.20003249E+01</pdfrwt>
<totfact> 0.13214594E-10</totfact>
</mgrwt>
</event>
<event>
 5    1  0.2021837E-012  0.2000857E+01  0.7818608E-02  0.3998012E+00
         11   -1    0    0    0    0  0.00000000000E+00  0.00000000000E+00  0.39999999543E+01  0.39999999869E+01  0.51100000000E-03 0.  1.
         -4   -1    0    0    0  501 -0.00000000000E+00 -0.00000000000E+00  0.23575223447E+00  0.14394370830E+01  0.14200000000E+01 0.  1.
         11    1    1    2    0    0 -0.51496210841E+00  0.23979477733E+00  0.76857839277E+00  0.95571989374E+00  0.51100000000E-03 0.  1.
         22    1    1    2    0    0 -0.75397385573E+00  0.37407169886E+00  0.10626320837E+01  0.13555785320E+01  0.00000000000E+00 0.  1.
         -4    1    1    2    0  501  0.12689359641E+01 -0.61386647619E+00  0.24045417122E+01  0.31281386442E+01  0.14200000000E+01 0.  1.
<mgrwt>
<rscale>  0 0.20008574E+01</rscale>
<asrwt>0</asrwt>
<pdfrwt beam="1">  1       11 0.10000000E+01 0.14102371E+01</pdfrwt>
<pdfrwt beam="2">  1       -4 0.99939524E+00 0.20008574E+01</pdfrwt>
<totfact> 0.15884084E-10</totfact>
</mgrwt>
</event>
<event>
 5    1  0.2021837E-012  0.2000214E+01  0.7818608E-02  0.3998828E+00
         11   -1    0    0    0    0  0.00000000000E+00  0.00000000000E+00  0.39999999501E+01  0.39999999827E+01  0.51100000000E-03 0. -1.
         -4   -1    0    0    0  501 -0.00000000000E+00 -0.00000000000E+00  0.23823889226E+00  0.14398464397E+01  0.14200000000E+01 0.  1.
         11    1    1    2    0    0 -0.11280699776E+01  0.39118435272E+00  0.15423063009E+01  0.19504553466E+01  0.51100000000E-03 0. -1.
         22    1    1    2    0    0 -0.20517446130E+00  0.63694452002E-01  0.27898214124E+00  0.35211443867E+00  0.00000000000E+00 0.  1.
         -4    1    1    2    0  501  0.13332444389E+01 -0.45487880472E+00  0.24169504001E+01  0.31372766371E+01  0.14200000000E+01 0.  1.
<mgrwt>
<rscale>  0 0.20002139E+01</rscale>
<asrwt>0</asrwt>
<pdfrwt beam="1">  1       11 0.10000000E+01 0.14088066E+01</pdfrwt>
<pdfrwt beam="2">  1       -4 0.99796912E+00 0.20002139E+01</pdfrwt>
<totfact> 0.49747954E-10</totfact>
</mgrwt>
</event>
<event>
 5    1  0.2021837E-012  0.2001276E+01  0.7818608E-02  0.3997481E+00
         11   -1    0    0    0    0  0.00000000000E+00  0.00000000000E+00  0.39999999667E+01  0.39999999994E+01  0.51100000000E-03 0.  1.
         -4   -1    0    0    0  501 -0.00000000000E+00 -0.00000000000E+00  0.23586366359E+00  0.14394553372E+01  0.14200000000E+01 0.  1.
         11    1    1    2    0    0 -0.13045381254E+01  0.23874564532E+00  0.17050376989E+01  0.21600863454E+01  0.51100000000E-03 0.  1.
         22    1    1    2    0    0 -0.81629558001E-01  0.20573771411E-01  0.10419600448E+00  0.13395324617E+00  0.00000000000E+00 0.  1.
         -4    1    1    2    0  501  0.13861676834E+01 -0.25931941673E+00  0.24266299269E+01  0.31454157450E+01  0.14200000000E+01 0.  1.
<mgrwt>
<rscale>  0 0.20012764E+01</rscale>
<asrwt>0</asrwt>
<pdfrwt beam="1">  1       11 0.10000000E+01 0.14104223E+01</pdfrwt>
<pdfrwt beam="2">  1       -4 0.99933127E+00 0.20012764E+01</pdfrwt>
<totfact> 0.17518884E-10</totfact>
</mgrwt>
</event>
<event>
 5    1  0.2021837E-012  0.2000446E+01  0.7818608E-02  0.3998533E+00
         11   -1    0    0    0    0  0.00000000000E+00  0.00000000000E+00  0.39999999630E+01  0.39999999956E+01  0.51100000000E-03 0.  1.
          4   -1    0    0  501    0 -0.00000000000E+00 -0.00000000000E+00  0.23873319101E+00  0.14399283095E+01  0.14200000000E+01 0. -1.
         11    1    1    2    0    0  0.12413299930E+01  0.39186272212E+00  0.16453484710E+01  0.20980058143E+01  0.51100000000E-03 0.  1.
         22    1    1    2    0    0  0.10247005092E+00  0.31914891075E-01  0.13558128702E+00  0.17291893187E+00  0.00000000000E+00 0. -1.
          4    1    1    2  501    0 -0.13438000439E+01 -0.42377761320E+00  0.24578033960E+01  0.31690035590E+01  0.14200000000E+01 0. -1.
<mgrwt>
<rscale>  0 0.20004465E+01</rscale>
<asrwt>0</asrwt>
<pdfrwt beam="1">  1       11 0.10000000E+01 0.14090381E+01</pdfrwt>
<pdfrwt beam="2">  1        4 0.99768598E+00 0.20004465E+01</pdfrwt>
<totfact> 0.55925765E-10</totfact>
</mgrwt>
</event>
<event>
 5    1  0.2021837E-012  0.2000099E+01  0.7818608E-02  0.3998974E+00
         11   -1    0    0    0    0  0.00000000000E+00  0.00000000000E+00  0.39999999683E+01  0.40000000009E+01  0.51100000000E-03 0.  1.
          4   -1    0    0  501    0 -0.00000000000E+00 -0.00000000000E+00  0.23553672008E+00  0.14394018016E+01  0.14200000000E+01 0. -1.
         11    1    1    2    0    0 -0.36954507279E+00 -0.51684164724E-01  0.49962255669E+00  0.62358461654E+00  0.51100000000E-03 0.  1.
         22    1    1    2    0    0 -0.10253914972E+01 -0.14363012793E+00  0.13839455462E+01  0.17283988576E+01  0.00000000000E+00 0.  1.
          4    1    1    2  501    0  0.13949365700E+01  0.19531429266E+00  0.23519685855E+01  0.30874183284E+01  0.14200000000E+01 0. -1.
<mgrwt>
<rscale>  0 0.20000989E+01</rscale>
<asrwt>0</asrwt>
<pdfrwt beam="1">  1       11 0.10000000E+01 0.14085444E+01</pdfrwt>
<pdfrwt beam="2">  1        4 0.99951898E+00 0.20000989E+01</pdfrwt>
<totfact> 0.12697977E-10</totfact>
</mgrwt>
</event>
<event>
 5    1  0.2021837E-012  0.2000590E+01  0.7818608E-02  0.3998351E+00
         11   -1    0    0    0    0  0.00000000000E+00  0.00000000000E+00  0.39999999518E+01  0.39999999844E+01  0.51100000000E-03 0.  1.
         -4   -1    0    0    0  501 -0.00000000000E+00 -0.00000000000E+00  0.23791868662E+00  0.14397934926E+01  0.14200000000E+01 0. -1.
         11    1    1    2    0    0 -0.28976899851E+00 -0.60811105317E+00  0.86266323580E+00  0.10945105047E+01  0.51100000000E-03 0.  1.
         22    1    1    2    0    0 -0.34816248851E+00 -0.64847351169E+00  0.91342268169E+00  0.11730626621E+01  0.00000000000E+00 0.  1.
         -4    1    1    2    0  501  0.63793148703E+00  0.12565845649E+01  0.24618327209E+01  0.31722203102E+01  0.14200000000E+01 0. -1.
<mgrwt>
<rscale>  0 0.20005903E+01</rscale>
<asrwt>0</asrwt>
<pdfrwt beam="1">  1       11 0.10000000E+01 0.14097542E+01</pdfrwt>
<pdfrwt beam="2">  1       -4 0.99815260E+00 0.20005903E+01</pdfrwt>
<totfact> 0.45677685E-10</totfact>
</mgrwt>
</event>
<event>
 5    1  0.2600498E-012  0.2000089E+01  0.7818608E-02  0.3998986E+00
         11   -1    0    0    0    0  0.00000000000E+00  0.00000000000E+00  0.39999999622E+01  0.39999999948E+01  0.51100000000E-03 0. -1.
          4   -1    0    0  501    0 -0.00000000000E+00 -0.00000000000E+00  0.23968956016E+00  0.14400871797E+01  0.14200000000E+01 0. -1.
         11    1    1    2    0    0  0.39887191417E+00 -0.10300445856E+01  0.13520075788E+01  0.17458566397E+01  0.51100000000E-03 0. -1.
         22    1    1    2    0    0  0.10990512967E+00 -0.28338658945E+00  0.38370546132E+00  0.48950687192E+00  0.00000000000E+00 0. -1.
          4    1    1    2  501    0 -0.50877704383E+00  0.13134311751E+01  0.25039764822E+01  0.32047236629E+01  0.14200000000E+01 0. -1.
<mgrwt>
<rscale>  0 0.20000889E+01</rscale>
<asrwt>0</asrwt>
<pdfrwt beam="1">  1       11 0.10000000E+01 0.14085994E+01</pdfrwt>
<pdfrwt beam="2">  1        4 0.99713848E+00 0.20000889E+01</pdfrwt>
<totfact> 0.67317567E-10</totfact>
</mgrwt>
</event>
<event>
 5    1  0.2021837E-012  0.2000029E+01  0.7818608E-02  0.3999063E+00
         11   -1    0    0    0    0  0.00000000000E+00  0.00000000000E+00  0.39999999508E+01  0.39999999834E+01  0.51100000000E-03 0.  1.
         -4   -1    0    0    0  501 -0.00000000000E+00 -0.00000000000E+00  0.23982460018E+00  0.14401096621E+01  0.14200000000E+01 0.  1.
         11    1    1    2    0    0 -0.79266765533E-01  0.13867427839E+01  0.17452437376E+01  0.22305189382E+01  0.51100000000E-03 0.  1.
         22    1    1    2    0    0 -0.55219780194E-03  0.19437718054E-01  0.21580679377E-01  0.29049191520E-01  0.00000000000E+00 0. -1.
         -4    1    1    2    0  501  0.79818963335E-01 -0.14061805020E+01  0.24730001340E+01  0.31805415158E+01  0.14200000000E+01 0.  1.
<mgrwt>
<rscale>  0 0.20000287E+01</rscale>
<asrwt>0</asrwt>
<pdfrwt beam="1">  1       11 0.10000000E+01 0.14085381E+01</pdfrwt>
<pdfrwt beam="2">  1       -4 0.99706121E+00 0.20000287E+01</pdfrwt>
<totfact> 0.68872067E-10</totfact>
</mgrwt>
</event>
<event>
 5    1  0.2021837E-012  0.2000432E+01  0.7818608E-02  0.3998552E+00
         11   -1    0    0    0    0  0.00000000000E+00  0.00000000000E+00  0.39999999685E+01  0.40000000011E+01  0.51100000000E-03 0.  1.
         -4   -1    0    0    0  501 -0.00000000000E+00 -0.00000000000E+00  0.23891463470E+00  0.14399584031E+01  0.14200000000E+01 0.  1.
         11    1    1    2    0    0 -0.59442804346E+00 -0.11772918930E+01  0.16544344881E+01  0.21157775490E+01  0.51100000000E-03 0.  1.
         22    1    1    2    0    0 -0.40018815507E-01 -0.80803671551E-01  0.11301337455E+00  0.14457787437E+00  0.00000000000E+00 0.  1.
         -4    1    1    2    0  501  0.63444685897E+00  0.12580955646E+01  0.24714667405E+01  0.31796029809E+01  0.14200000000E+01 0.  1.
<mgrwt>
<rscale>  0 0.20004318E+01</rscale>
<asrwt>0</asrwt>
<pdfrwt beam="1">  1       11 0.10000000E+01 0.14090191E+01</pdfrwt>
<pdfrwt beam="2">  1       -4 0.99758208E+00 0.20004318E+01</pdfrwt>
<totfact> 0.58142147E-10</totfact>
</mgrwt>
</event>
<event>
 5    1  0.2021837E-012  0.2000640E+01  0.7818608E-02  0.3998287E+00
         11   -1    0    0    0    0  0.00000000000E+00  0.00000000000E+00  0.39999999671E+01  0.39999999997E+01  0.51100000000E-03 0. -1.
          4   -1    0    0  501    0 -0.00000000000E+00 -0.00000000000E+00  0.23802444357E+00  0.14398109722E+01  0.14200000000E+01 0. -1.
         11    1    1    2    0    0  0.30316822614E+00  0.12684497566E+01  0.16623170680E+01  0.21128592130E+01  0.51100000000E-03 0. -1.
         22    1    1    2    0    0  0.23326347604E-01  0.10252144957E+00  0.13026059230E+00  0.16739948632E+00  0.00000000000E+00 0. -1.
          4    1    1    2  501    0 -0.32649457374E+00 -0.13709712061E+01  0.24454467504E+01  0.31595522726E+01  0.14200000000E+01 0. -1.
<mgrwt>
<rscale>  0 0.20006401E+01</rscale>
<asrwt>0</asrwt>
<pdfrwt beam="1">  1       11 0.10000000E+01 0.14093421E+01</pdfrwt>
<pdfrwt beam="2">  1        4 0.99809200E+00 0.20006401E+01</pdfrwt>
<totfact> 0.47040450E-10</totfact>
</mgrwt>
</event>
<event>
 5    1  0.2021837E-012  0.2001288E+01  0.7818608E-02  0.3997467E+00
         11   -1    0    0    0    0  0.00000000000E+00  0.00000000000E+00  0.39999999647E+01  0.39999999974E+01  0.51100000000E-03 0. -1.
          4   -1    0    0  501    0 -0.00000000000E+00 -0.00000000000E+00  0.23514481046E+00  0.14393377234E+01  0.14200000000E+01 0. -1.
         11    1    1    2    0    0 -0.40781794030E+00 -0.13350477037E+01  0.18158753469E+01  0.22904303919E+01  0.51100000000E-03 0. -1.
         22    1    1    2    0    0 -0.38284050075E-02 -0.13766755017E-01  0.19074836231E-01  0.23833371684E-01  0.00000000000E+00 0.  1.
          4    1    1    2  501    0  0.41164634531E+00  0.13488144587E+01  0.24001945921E+01  0.31250739571E+01  0.14200000000E+01 0. -1.
<mgrwt>
<rscale>  0 0.20012879E+01</rscale>
<asrwt>0</asrwt>
<pdfrwt beam="1">  1       11 0.10000000E+01 0.14102392E+01</pdfrwt>
<pdfrwt beam="2">  1        4 0.99974404E+00 0.20012879E+01</pdfrwt>
<totfact> 0.68403870E-11</totfact>
</mgrwt>
</event>
<event>
 5    1  0.2021837E-012  0.2000567E+01  0.7818608E-02  0.3998380E+00
         11   -1    0    0    0    0  0.00000000000E+00  0.00000000000E+00  0.39999999587E+01  0.39999999913E+01  0.51100000000E-03 0. -1.
         -4   -1    0    0    0  501 -0.00000000000E+00 -0.00000000000E+00  0.23594342831E+00  0.14394684093E+01  0.14200000000E+01 0. -1.
         11    1    1    2    0    0 -0.13809772938E+01 -0.64214720172E-01  0.16391910173E+01  0.21443342250E+01  0.51100000000E-03 0. -1.
         22    1    1    2    0    0 -0.27063790081E-01  0.68777763004E-02  0.35107083290E-01  0.44858219286E-01  0.00000000000E+00 0.  1.
         -4    1    1    2    0  501  0.14080410839E+01  0.57336943872E-01  0.25616452864E+01  0.32502759563E+01  0.14200000000E+01 0. -1.
<mgrwt>
<rscale>  0 0.20005667E+01</rscale>
<asrwt>0</asrwt>
<pdfrwt beam="1">  1       11 0.10000000E+01 0.14104224E+01</pdfrwt>
<pdfrwt beam="2">  1       -4 0.99928549E+00 0.20005667E+01</pdfrwt>
<totfact> 0.18661058E-10</totfact>
</mgrwt>
</event>
<event>
 5    1  0.2021837E-012  0.2000967E+01  0.7818608E-02  0.3997874E+00
         11   -1    0    0    0    0  0.00000000000E+00  0.00000000000E+00  0.39999999556E+01  0.39999999883E+01  0.51100000000E-03 0. -1.
         -4   -1    0    0    0  501 -0.00000000000E+00 -0.00000000000E+00  0.23576025669E+00  0.14394383970E+01  0.14200000000E+01 0. -1.
         11    1    1    2    0    0 -0.13615808399E+01  0.27682689509E+00  0.16407851333E+01  0.21500492153E+01  0.51100000000E-03 0. -1.
         22    1    1    2    0    0 -0.19575125934E-01  0.57952938333E-02  0.23955715198E-01  0.31474549665E-01  0.00000000000E+00 0. -1.
         -4    1    1    2    0  501  0.13811559659E+01 -0.28262218892E+00  0.25710193638E+01  0.32579146203E+01  0.14200000000E+01 0. -1.
<mgrwt>
<rscale>  0 0.20009665E+01</rscale>
<asrwt>0</asrwt>
<pdfrwt beam="1">  1       11 0.10000000E+01 0.14098531E+01</pdfrwt>
<pdfrwt beam="2">  1       -4 0.99939063E+00 0.20009665E+01</pdfrwt>
<totfact> 0.16003602E-10</totfact>
</mgrwt>
</event>
<event>
 5    1  0.2021837E-012  0.2000521E+01  0.7818608E-02  0.3998438E+00
         11   -1    0    0    0    0  0.00000000000E+00  0.00000000000E+00  0.39999999614E+01  0.39999999940E+01  0.51100000000E-03 0. -1.
          4   -1    0    0  501    0 -0.00000000000E+00 -0.00000000000E+00  0.23875207858E+00  0.14399314411E+01  0.14200000000E+01 0. -1.
         11    1    1    2    0    0  0.70405011676E+00  0.11459294969E+01  0.16706448146E+01  0.21447366590E+01  0.51100000000E-03 0. -1.
         22    1    1    2    0    0  0.33263704517E-01  0.54925833197E-01  0.80552078435E-01  0.10301436080E+00  0.00000000000E+00 0.  1.
          4    1    1    2  501    0 -0.73731382127E+00 -0.12008553301E+01  0.24875551469E+01  0.31921804153E+01  0.14200000000E+01 0. -1.
<mgrwt>
<rscale>  0 0.20005212E+01</rscale>
<asrwt>0</asrwt>
<pdfrwt beam="1">  1       11 0.10000000E+01 0.14091473E+01</pdfrwt>
<pdfrwt beam="2">  1        4 0.99767517E+00 0.20005212E+01</pdfrwt>
<totfact> 0.56162540E-10</totfact>
</mgrwt>
</event>
<event>
 5    1  0.2021837E-012  0.2000384E+01  0.7818608E-02  0.3998613E+00
         11   -1    0    0    0    0  0.00000000000E+00  0.00000000000E+00  0.39999999601E+01  0.39999999927E+01  0.51100000000E-03 0. -1.
         -4   -1    0    0    0  501 -0.00000000000E+00 -0.00000000000E+00  0.23870459756E+00  0.14399235691E+01  0.14200000000E+01 0. -1.
         11    1    1    2    0    0  0.78198228575E-01  0.13783910453E+01  0.16771698107E+01  0.21723203428E+01  0.51100000000E-03 0. -1.
         22    1    1    2    0    0  0.13072674342E-02  0.28312110343E-01  0.34580334427E-01  0.44711117960E-01  0.00000000000E+00 0.  1.
         -4    1    1    2    0  501 -0.79505496009E-01 -0.14067031557E+01  0.25269544126E+01  0.32228921011E+01  0.14200000000E+01 0. -1.
<mgrwt>
<rscale>  0 0.20003837E+01</rscale>
<asrwt>0</asrwt>
<pdfrwt beam="1">  1       11 0.10000000E+01 0.14089506E+01</pdfrwt>
<pdfrwt beam="2">  1       -4 0.99770236E+00 0.20003837E+01</pdfrwt>
<totfact> 0.55570128E-10</totfact>
</mgrwt>
</event>
<event>
 5    1  0.2021837E-012  0.2000476E+01  0.7818608E-02  0.3998495E+00
         11   -1    0    0    0    0  0.00000000000E+00  0.00000000000E+00  0.39999999655E+01  0.39999999981E+01  0.51100000000E-03 0.  1.
          4   -1    0    0  501    0 -0.00000000000E+00 -0.00000000000E+00  0.23575570950E+00  0.14394376522E+01  0.14200000000E+01 0.  1.
         11    1    1    2    0    0 -0.11094092434E+01  0.48669224326E+00  0.14035081223E+01  0.18540478741E+01  0.51100000000E-03 0.  1.
         22    1    1    2    0    0 -0.17537747916E+00  0.91951267299E-01  0.25420504397E+00  0.32223050776E+00  0.00000000000E+00 0. -1.
          4    1    1    2  501    0  0.12847867225E+01 -0.57864351055E+00  0.25780425087E+01  0.32631592685E+01  0.14200000000E+01 0.  1.
<mgrwt>
<rscale>  0 0.20004763E+01</rscale>
<asrwt>0</asrwt>
<pdfrwt beam="1">  1       11 0.10000000E+01 0.14100272E+01</pdfrwt>
<pdfrwt beam="2">  1        4 0.99939325E+00 0.20004763E+01</pdfrwt>
<totfact> 0.15927517E-10</totfact>
</mgrwt>
</event>
<event>
 5    1  0.2021837E-012  0.2000512E+01  0.7818608E-02  0.3998450E+00
         11   -1    0    0    0    0  0.00000000000E+00  0.00000000000E+00  0.39999999549E+01  0.39999999875E+01  0.51100000000E-03 0. -1.
          4   -1    0    0  501    0 -0.00000000000E+00 -0.00000000000E+00  0.23863993637E+00  0.14399128513E+01  0.14200000000E+01 0. -1.
         11    1    1    2    0    0  0.69136358589E-01  0.94286547211E+00  0.11603868566E+01  0.14967541724E+01  0.51100000000E-03 0. -1.
         22    1    1    2    0    0  0.33622338099E-01  0.46251269964E+00  0.56754247646E+00  0.73290717116E+00  0.00000000000E+00 0. -1.
          4    1    1    2  501    0 -0.10275869669E+00 -0.14053781718E+01  0.25107105582E+01  0.32102514952E+01  0.14200000000E+01 0. -1.
<mgrwt>
<rscale>  0 0.20005117E+01</rscale>
<asrwt>0</asrwt>
<pdfrwt beam="1">  1       11 0.10000000E+01 0.14091316E+01</pdfrwt>
<pdfrwt beam="2">  1        4 0.99773939E+00 0.20005117E+01</pdfrwt>
<totfact> 0.54780835E-10</totfact>
</mgrwt>
</event>
<event>
 5    1  0.2021837E-012  0.2000845E+01  0.7818608E-02  0.3998027E+00
         11   -1    0    0    0    0  0.00000000000E+00  0.00000000000E+00  0.39999999604E+01  0.39999999930E+01  0.51100000000E-03 0.  1.
         -4   -1    0    0    0  501 -0.00000000000E+00 -0.00000000000E+00  0.23791327771E+00  0.14397925989E+01  0.14200000000E+01 0. -1.
         11    1    1    2    0    0 -0.29477901164E+00  0.84709878061E+00  0.11141869855E+01  0.14303439829E+01  0.51100000000E-03 0.  1.
         22    1    1    2    0    0 -0.17296338795E+00  0.48263761406E+00  0.64454447825E+00  0.82358544458E+00  0.00000000000E+00 0.  1.
         -4    1    1    2    0  501  0.46774239959E+00 -0.13297363947E+01  0.24791817744E+01  0.31858631644E+01  0.14200000000E+01 0. -1.
<mgrwt>
<rscale>  0 0.20008453E+01</rscale>
<asrwt>0</asrwt>
<pdfrwt beam="1">  1       11 0.10000000E+01 0.14096317E+01</pdfrwt>
<pdfrwt beam="2">  1       -4 0.99815570E+00 0.20008453E+01</pdfrwt>
<totfact> 0.45621424E-10</totfact>
</mgrwt>
</event>
<event>
 5    1  0.2021837E-012  0.2000519E+01  0.7818608E-02  0.3998440E+00
         11   -1    0    0    0    0  0.00000000000E+00  0.00000000000E+00  0.39999999641E+01  0.39999999968E+01  0.51100000000E-03 0. -1.
         -4   -1    0    0    0  501 -0.00000000000E+00 -0.00000000000E+00  0.23822367177E+00  0.14398439213E+01  0.14200000000E+01 0. -1.
         11    1    1    2    0    0  0.92308762046E+00  0.69714834141E+00  0.14201793780E+01  0.18316703556E+01  0.51100000000E-03 0. -1.
         22    1    1    2    0    0  0.19717232389E+00  0.15765902340E+00  0.33665859964E+00  0.42079960276E+00  0.00000000000E+00 0.  1.
         -4    1    1    2    0  501 -0.11202599444E+01 -0.85480736481E+00  0.24813856583E+01  0.31873739597E+01  0.14200000000E+01 0. -1.
<mgrwt>
<rscale>  0 0.20005194E+01</rscale>
<asrwt>0</asrwt>
<pdfrwt beam="1">  1       11 0.10000000E+01 0.14096600E+01</pdfrwt>
<pdfrwt beam="2">  1       -4 0.99797785E+00 0.20005194E+01</pdfrwt>
<totfact> 0.49572789E-10</totfact>
</mgrwt>
</event>
<event>
 5    1  0.2021837E-012  0.2001137E+01  0.7818608E-02  0.3997658E+00
         11   -1    0    0    0    0  0.00000000000E+00  0.00000000000E+00  0.39999999552E+01  0.39999999879E+01  0.51100000000E-03 0.  1.
         -4   -1    0    0    0  501 -0.00000000000E+00 -0.00000000000E+00  0.23698204702E+00  0.14396390140E+01  0.14200000000E+01 0. -1.
         11    1    1    2    0    0 -0.78153527483E+00 -0.72771113090E+00  0.13498794156E+01  0.17212017818E+01  0.51100000000E-03 0.  1.
         22    1    1    2    0    0 -0.25128613365E+00 -0.23220026150E+00  0.43355860141E+00  0.55229950503E+00  0.00000000000E+00 0.  1.
         -4    1    1    2    0  501  0.10328214085E+01  0.95991139240E+00  0.24535439852E+01  0.31661377150E+01  0.14200000000E+01 0. -1.
<mgrwt>
<rscale>  0 0.20011372E+01</rscale>
<asrwt>0</asrwt>
<pdfrwt beam="1">  1       11 0.10000000E+01 0.14100202E+01</pdfrwt>
<pdfrwt beam="2">  1       -4 0.99868957E+00 0.20011372E+01</pdfrwt>
<totfact> 0.33275888E-10</totfact>
</mgrwt>
</event>
<event>
 5    1  0.2021837E-012  0.2000296E+01  0.7818608E-02  0.3998724E+00
         11   -1    0    0    0    0  0.00000000000E+00  0.00000000000E+00  0.39999999632E+01  0.39999999959E+01  0.51100000000E-03 0.  1.
         -4   -1    0    0    0  501 -0.00000000000E+00 -0.00000000000E+00  0.23716837117E+00  0.14396696969E+01  0.14200000000E+01 0.  1.
         11    1    1    2    0    0  0.13305103125E+01 -0.72373890858E-02  0.16112743171E+01  0.20896208406E+01  0.51100000000E-03 0.  1.
         22    1    1    2    0    0  0.78170207086E-01 -0.12847453138E-01  0.11817951670E+00  0.14227451105E+00  0.00000000000E+00 0. -1.
         -4    1    1    2    0  501 -0.14086805196E+01  0.20084842224E-01  0.25077145006E+01  0.32077743411E+01  0.14200000000E+01 0.  1.
<mgrwt>
<rscale>  0 0.20002960E+01</rscale>
<asrwt>0</asrwt>
<pdfrwt beam="1">  1       11 0.10000000E+01 0.14107970E+01</pdfrwt>
<pdfrwt beam="2">  1       -4 0.99858272E+00 0.20002960E+01</pdfrwt>
<totfact> 0.35767867E-10</totfact>
</mgrwt>
</event>
<event>
 5    1  0.2021837E-012  0.2000122E+01  0.7818608E-02  0.3998945E+00
         11   -1    0    0    0    0  0.00000000000E+00  0.00000000000E+00  0.39999999539E+01  0.39999999866E+01  0.51100000000E-03 0.  1.
         -4   -1    0    0    0  501 -0.00000000000E+00 -0.00000000000E+00  0.23742684663E+00  0.14397123003E+01  0.14200000000E+01 0.  1.
         11    1    1    2    0    0  0.16826225256E+00  0.15667318391E-01  0.23610157021E+00  0.29034783119E+00  0.51100000000E-03 0.  1.
         22    1    1    2    0    0  0.12400077282E+01 -0.45038542990E-01  0.15010052974E+01  0.19474764541E+01  0.00000000000E+00 0.  1.
         -4    1    1    2    0  501 -0.14082699807E+01  0.29371224599E-01  0.25003199330E+01  0.32018880016E+01  0.14200000000E+01 0. -1.
<mgrwt>
<rscale>  0 0.20001217E+01</rscale>
<asrwt>0</asrwt>
<pdfrwt beam="1">  1       11 0.10000000E+01 0.14107867E+01</pdfrwt>
<pdfrwt beam="2">  1       -4 0.99843452E+00 0.20001217E+01</pdfrwt>
<totfact> 0.39217676E-10</totfact>
</mgrwt>
</event>
<event>
 5    1  0.2021837E-012  0.2000037E+01  0.7818608E-02  0.3999052E+00
         11   -1    0    0    0    0  0.00000000000E+00  0.00000000000E+00  0.39999999592E+01  0.39999999918E+01  0.51100000000E-03 0.  1.
         -4   -1    0    0    0  501 -0.00000000000E+00 -0.00000000000E+00  0.23914575341E+00  0.14399967678E+01  0.14200000000E+01 0.  1.
         11    1    1    2    0    0 -0.57340162009E+00  0.12524298930E+01  0.17504244525E+01  0.22274101732E+01  0.51100000000E-03 0.  1.
         22    1    1    2    0    0 -0.14128474733E-01  0.27630971721E-01  0.46631325836E-01  0.56013970987E-01  0.00000000000E+00 0. -1.
         -4    1    1    2    0  501  0.58753009482E+00 -0.12800608647E+01  0.24420899342E+01  0.31565726154E+01  0.14200000000E+01 0.  1.
<mgrwt>
<rscale>  0 0.20000369E+01</rscale>
<asrwt>0</asrwt>
<pdfrwt beam="1">  1       11 0.10000000E+01 0.14087641E+01</pdfrwt>
<pdfrwt beam="2">  1       -4 0.99744975E+00 0.20000369E+01</pdfrwt>
<totfact> 0.60904360E-10</totfact>
</mgrwt>
</event>
<event>
 5    1  0.2021837E-012  0.2001919E+01  0.7818608E-02  0.3996667E+00
         11   -1    0    0    0    0  0.00000000000E+00  0.00000000000E+00  0.39999999559E+01  0.39999999885E+01  0.51100000000E-03 0. -1.
          4   -1    0    0  501    0 -0.00000000000E+00 -0.00000000000E+00  0.23529316231E+00  0.14393619671E+01  0.14200000000E+01 0. -1.
         11    1    1    2    0    0  0.48262482455E+00  0.95875253435E+00  0.13369020534E+01  0.17144796601E+01  0.51100000000E-03 0. -1.
         22    1    1    2    0    0  0.15149104730E+00  0.30187334735E+00  0.42030875163E+00  0.53919987199E+00  0.00000000000E+00 0.  1.
          4    1    1    2  501    0 -0.63411587185E+00 -0.12606258817E+01  0.24780823132E+01  0.31856824235E+01  0.14200000000E+01 0.  1.
<mgrwt>
<rscale>  0 0.20019192E+01</rscale>
<asrwt>0</asrwt>
<pdfrwt beam="1">  1       11 0.10000000E+01 0.14111278E+01</pdfrwt>
<pdfrwt beam="2">  1        4 0.99965883E+00 0.20019192E+01</pdfrwt>
<totfact> 0.90870922E-11</totfact>
</mgrwt>
</event>
<event>
 5    1  0.2021837E-012  0.2000247E+01  0.7818608E-02  0.3998786E+00
         11   -1    0    0    0    0  0.00000000000E+00  0.00000000000E+00  0.39999999555E+01  0.39999999882E+01  0.51100000000E-03 0.  1.
          4   -1    0    0  501    0 -0.00000000000E+00 -0.00000000000E+00  0.23862092958E+00  0.14399097013E+01  0.14200000000E+01 0.  1.
         11    1    1    2    0    0  0.83282107550E+00  0.11083574476E+01  0.17809134740E+01  0.22569227365E+01  0.51100000000E-03 0.  1.
         22    1    1    2    0    0  0.13331008763E-01  0.17970725611E-01  0.28665781138E-01  0.36364677668E-01  0.00000000000E+00 0.  1.
          4    1    1    2  501    0 -0.84615208426E+00 -0.11263281733E+01  0.24290416300E+01  0.31466222754E+01  0.14200000000E+01 0.  1.
<mgrwt>
<rscale>  0 0.20002471E+01</rscale>
<asrwt>0</asrwt>
<pdfrwt beam="1">  1       11 0.10000000E+01 0.14087548E+01</pdfrwt>
<pdfrwt beam="2">  1        4 0.99775028E+00 0.20002471E+01</pdfrwt>
<totfact> 0.54529222E-10</totfact>
</mgrwt>
</event>
<event>
 5    1  0.2021837E-012  0.2000433E+01  0.7818608E-02  0.3998550E+00
         11   -1    0    0    0    0  0.00000000000E+00  0.00000000000E+00  0.39999999504E+01  0.39999999830E+01  0.51100000000E-03 0. -1.
         -4   -1    0    0    0  501 -0.00000000000E+00 -0.00000000000E+00  0.23885318006E+00  0.14399482080E+01  0.14200000000E+01 0. -1.
         11    1    1    2    0    0 -0.12825570243E+01  0.29837792503E+00  0.16156117212E+01  0.20842704723E+01  0.51100000000E-03 0. -1.
         22    1    1    2    0    0 -0.89691076127E-01  0.21412446621E-01  0.11422025979E+00  0.14679662719E+00  0.00000000000E+00 0.  1.
         -4    1    1    2    0  501  0.13722481005E+01 -0.31979037165E+00  0.25090211494E+01  0.32088810915E+01  0.14200000000E+01 0. -1.
<mgrwt>
<rscale>  0 0.20004326E+01</rscale>
<asrwt>0</asrwt>
<pdfrwt beam="1">  1       11 0.10000000E+01 0.14090223E+01</pdfrwt>
<pdfrwt beam="2">  1       -4 0.99761727E+00 0.20004326E+01</pdfrwt>
<totfact> 0.57393978E-10</totfact>
</mgrwt>
</event>
<event>
 5    1  0.2021837E-012  0.2000332E+01  0.7818608E-02  0.3998679E+00
         11   -1    0    0    0    0  0.00000000000E+00  0.00000000000E+00  0.39999999702E+01  0.40000000029E+01  0.51100000000E-03 0.  1.
         -4   -1    0    0    0  501 -0.00000000000E+00 -0.00000000000E+00  0.23714340506E+00  0.14396655843E+01  0.14200000000E+01 0.  1.
         11    1    1    2    0    0 -0.76653445080E+00 -0.97165556708E+00  0.16215408204E+01  0.20398736478E+01  0.51100000000E-03 0.  1.
         22    1    1    2    0    0 -0.10506418098E+00 -0.13525110692E+00  0.22228866697E+00  0.28061289263E+00  0.00000000000E+00 0. -1.
         -4    1    1    2    0  501  0.87159863179E+00  0.11069066740E+01  0.23933138879E+01  0.31191790468E+01  0.14200000000E+01 0.  1.
<mgrwt>
<rscale>  0 0.20003316E+01</rscale>
<asrwt>0</asrwt>
<pdfrwt beam="1">  1       11 0.10000000E+01 0.14088828E+01</pdfrwt>
<pdfrwt beam="2">  1       -4 0.99859704E+00 0.20003316E+01</pdfrwt>
<totfact> 0.35432555E-10</totfact>
</mgrwt>
</event>
<event>
 5    1  0.2021837E-012  0.2001428E+01  0.7818608E-02  0.3997290E+00
         11   -1    0    0    0    0  0.00000000000E+00  0.00000000000E+00  0.39999999527E+01  0.39999999853E+01  0.51100000000E-03 0. -1.
          4   -1    0    0  501    0 -0.00000000000E+00 -0.00000000000E+00  0.23638898331E+00  0.14395415074E+01  0.14200000000E+01 0. -1.
         11    1    1    2    0    0 -0.11570865818E+01 -0.45685397036E+00  0.15650864457E+01  0.19992650529E+01  0.51100000000E-03 0. -1.
         22    1    1    2    0    0 -0.15419673437E+00 -0.62615866085E-01  0.20831657374E+00  0.26663303334E+00  0.00000000000E+00 0.  1.
          4    1    1    2  501    0  0.13112833162E+01  0.51946983644E+00  0.24629859165E+01  0.31736434064E+01  0.14200000000E+01 0. -1.
<mgrwt>
<rscale>  0 0.20014277E+01</rscale>
<asrwt>0</asrwt>
<pdfrwt beam="1">  1       11 0.10000000E+01 0.14104382E+01</pdfrwt>
<pdfrwt beam="2">  1        4 0.99902978E+00 0.20014277E+01</pdfrwt>
<totfact> 0.25054269E-10</totfact>
</mgrwt>
</event>
<event>
 5    1  0.2021837E-012  0.2000388E+01  0.7818608E-02  0.3998607E+00
         11   -1    0    0    0    0  0.00000000000E+00  0.00000000000E+00  0.39999999511E+01  0.39999999837E+01  0.51100000000E-03 0. -1.
         -4   -1    0    0    0  501 -0.00000000000E+00 -0.00000000000E+00  0.23858840250E+00  0.14399043113E+01  0.14200000000E+01 0.  1.
         11    1    1    2    0    0 -0.82568488869E+00  0.61526898578E+00  0.12466315768E+01  0.16169112559E+01  0.51100000000E-03 0. -1.
         22    1    1    2    0    0 -0.30377535415E+00  0.22703305791E+00  0.45996898916E+00  0.59615010372E+00  0.00000000000E+00 0. -1.
         -4    1    1    2    0  501  0.11294602428E+01 -0.84230204369E+00  0.25319877877E+01  0.32268429354E+01  0.14200000000E+01 0.  1.
<mgrwt>
<rscale>  0 0.20003883E+01</rscale>
<asrwt>0</asrwt>
<pdfrwt beam="1">  1       11 0.10000000E+01 0.14089560E+01</pdfrwt>
<pdfrwt beam="2">  1       -4 0.99776891E+00 0.20003883E+01</pdfrwt>
<totfact> 0.54135355E-10</totfact>
</mgrwt>
</event>
<event>
 5    1  0.2021837E-012  0.2001719E+01  0.7818608E-02  0.3996921E+00
         11   -1    0    0    0    0  0.00000000000E+00  0.00000000000E+00  0.39999999666E+01  0.39999999993E+01  0.51100000000E-03 0. -1.
          4   -1    0    0  501    0 -0.00000000000E+00 -0.00000000000E+00  0.23572252705E+00  0.14394322178E+01  0.14200000000E+01 0. -1.
         11    1    1    2    0    0  0.32674287862E+00  0.13411551801E+01  0.16966580555E+01  0.21872601455E+01  0.51100000000E-03 0. -1.
         22    1    1    2    0    0  0.73751949162E-02  0.29554376847E-01  0.37195474754E-01  0.48076585081E-01  0.00000000000E+00 0.  1.
          4    1    1    2  501    0 -0.33411807354E+00 -0.13707095569E+01  0.25018689635E+01  0.32040954865E+01  0.14200000000E+01 0. -1.
<mgrwt>
<rscale>  0 0.20017192E+01</rscale>
<asrwt>0</asrwt>
<pdfrwt beam="1">  1       11 0.10000000E+01 0.14108452E+01</pdfrwt>
<pdfrwt beam="2">  1        4 0.99941230E+00 0.20017192E+01</pdfrwt>
<totfact> 0.15464937E-10</totfact>
</mgrwt>
</event>
<event>
 5    1  0.2021837E-012  0.2000966E+01  0.7818608E-02  0.3997875E+00
         11   -1    0    0    0    0  0.00000000000E+00  0.00000000000E+00  0.39999999603E+01  0.39999999929E+01  0.51100000000E-03 0. -1.
          4   -1    0    0  501    0 -0.00000000000E+00 -0.00000000000E+00  0.23748356937E+00  0.14397216556E+01  0.14200000000E+01 0.  1.
         11    1    1    2    0    0  0.30816227620E+00  0.13650401686E+01  0.17124377703E+01  0.22115022108E+01  0.51100000000E-03 0. -1.
         22    1    1    2    0    0  0.25378015123E-02  0.10070645343E-01  0.13413851983E-01  0.16964367337E-01  0.00000000000E+00 0. -1.
          4    1    1    2  501    0 -0.31070007771E+00 -0.13751108139E+01  0.25116319074E+01  0.32112550704E+01  0.14200000000E+01 0.  1.
<mgrwt>
<rscale>  0 0.20009658E+01</rscale>
<asrwt>0</asrwt>
<pdfrwt beam="1">  1       11 0.10000000E+01 0.14097877E+01</pdfrwt>
<pdfrwt beam="2">  1        4 0.99840200E+00 0.20009658E+01</pdfrwt>
<totfact> 0.40009049E-10</totfact>
</mgrwt>
</event>
<event>
 5    1  0.2021837E-012  0.2000952E+01  0.7818608E-02  0.3997893E+00
         11   -1    0    0    0    0  0.00000000000E+00  0.00000000000E+00  0.39999999563E+01  0.39999999889E+01  0.51100000000E-03 0.  1.
          4   -1    0    0  501    0 -0.00000000000E+00 -0.00000000000E+00  0.23644990903E+00  0.14395515133E+01  0.14200000000E+01 0.  1.
         11    1    1    2    0    0 -0.54005611688E+00  0.12157725415E+00  0.70479908250E+00  0.89620513607E+00  0.51100000000E-03 0.  1.
         22    1    1    2    0    0 -0.84217917373E+00  0.15561090604E+00  0.10085837702E+01  0.13231484181E+01  0.00000000000E+00 0.  1.
          4    1    1    2  501    0  0.13822352906E+01 -0.27718816018E+00  0.25230670126E+01  0.32201979481E+01  0.14200000000E+01 0.  1.
<mgrwt>
<rscale>  0 0.20009517E+01</rscale>
<asrwt>0</asrwt>
<pdfrwt beam="1">  1       11 0.10000000E+01 0.14106209E+01</pdfrwt>
<pdfrwt beam="2">  1        4 0.99899483E+00 0.20009517E+01</pdfrwt>
<totfact> 0.25898376E-10</totfact>
</mgrwt>
</event>
<event>
 5    1  0.2021837E-012  0.2000502E+01  0.7818608E-02  0.3998462E+00
         11   -1    0    0    0    0  0.00000000000E+00  0.00000000000E+00  0.39999999686E+01  0.40000000012E+01  0.51100000000E-03 0.  1.
         -4   -1    0    0    0  501 -0.00000000000E+00 -0.00000000000E+00  0.23514258145E+00  0.14393373592E+01  0.14200000000E+01 0. -1.
         11    1    1    2    0    0 -0.14515948256E-01 -0.13969396354E+01  0.16141456193E+01  0.21347405929E+01  0.51100000000E-03 0.  1.
         22    1    1    2    0    0  0.32282283557E-03 -0.12105515736E-01  0.14378567790E-01  0.18798695101E-01  0.00000000000E+00 0. -1.
         -4    1    1    2    0  501  0.14193125420E-01  0.14090451511E+01  0.26066183629E+01  0.32857980724E+01  0.14200000000E+01 0. -1.
<mgrwt>
<rscale>  0 0.20005024E+01</rscale>
<asrwt>0</asrwt>
<pdfrwt beam="1">  1       11 0.10000000E+01 0.14091282E+01</pdfrwt>
<pdfrwt beam="2">  1       -4 0.99974532E+00 0.20005024E+01</pdfrwt>
<totfact> 0.68000190E-11</totfact>
</mgrwt>
</event>
<event>
 5    1  0.2021837E-012  0.2000335E+01  0.7818608E-02  0.3998675E+00
         11   -1    0    0    0    0  0.00000000000E+00  0.00000000000E+00  0.39999999594E+01  0.39999999920E+01  0.51100000000E-03 0. -1.
         -4   -1    0    0    0  501 -0.00000000000E+00 -0.00000000000E+00  0.23893191872E+00  0.14399612709E+01  0.14200000000E+01 0. -1.
         11    1    1    2    0    0  0.93970853560E+00 -0.80302152507E+00  0.15436468127E+01  0.19775594669E+01  0.51100000000E-03 0. -1.
         22    1    1    2    0    0  0.13324046041E+00 -0.11006077819E+00  0.22868590226E+00  0.28664200160E+00  0.00000000000E+00 0. -1.
         -4    1    1    2    0  501 -0.10729489960E+01  0.91308230325E+00  0.24665991632E+01  0.31757597945E+01  0.14200000000E+01 0. -1.
<mgrwt>
<rscale>  0 0.20003347E+01</rscale>
<asrwt>0</asrwt>
<pdfrwt beam="1">  1       11 0.10000000E+01 0.14090582E+01</pdfrwt>
<pdfrwt beam="2">  1       -4 0.99757218E+00 0.20003347E+01</pdfrwt>
<totfact> 0.58345672E-10</totfact>
</mgrwt>
</event>
<event>
 5    1  0.2021837E-012  0.2000169E+01  0.7818608E-02  0.3998885E+00
         11   -1    0    0    0    0  0.00000000000E+00  0.00000000000E+00  0.39999999590E+01  0.39999999917E+01  0.51100000000E-03 0. -1.
         -4   -1    0    0    0  501 -0.00000000000E+00 -0.00000000000E+00  0.23597007974E+00  0.14394727780E+01  0.14200000000E+01 0.  1.
         11    1    1    2    0    0  0.13058478314E+01  0.45287391952E+00  0.15980255252E+01  0.21128225638E+01  0.51100000000E-03 0. -1.
         22    1    1    2    0    0  0.25791970626E-01  0.64846646453E-02  0.36315962106E-01  0.45012506351E-01  0.00000000000E+00 0. -1.
         -4    1    1    2    0  501 -0.13316398020E+01 -0.45935858417E+00  0.26016285515E+01  0.32816376995E+01  0.14200000000E+01 0.  1.
<mgrwt>
<rscale>  0 0.20001687E+01</rscale>
<asrwt>0</asrwt>
<pdfrwt beam="1">  1       11 0.10000000E+01 0.14089649E+01</pdfrwt>
<pdfrwt beam="2">  1       -4 0.99927019E+00 0.20001687E+01</pdfrwt>
<totfact> 0.19037353E-10</totfact>
</mgrwt>
</event>
<event>
 5    1  0.2021837E-012  0.2000361E+01  0.7818608E-02  0.3998641E+00
         11   -1    0    0    0    0  0.00000000000E+00  0.00000000000E+00  0.39999999566E+01  0.39999999892E+01  0.51100000000E-03 0. -1.
          4   -1    0    0  501    0 -0.00000000000E+00 -0.00000000000E+00  0.23910188617E+00  0.14399894833E+01  0.14200000000E+01 0.  1.
         11    1    1    2    0    0  0.97418520259E+00 -0.72793059782E+00  0.15004506002E+01  0.19313912159E+01  0.51100000000E-03 0. -1.
         22    1    1    2    0    0  0.15296544628E+00 -0.11739513723E+00  0.24005863436E+00  0.30790939240E+00  0.00000000000E+00 0. -1.
          4    1    1    2  501    0 -0.11271506489E+01  0.84532573505E+00  0.24985926082E+01  0.32006888642E+01  0.14200000000E+01 0.  1.
<mgrwt>
<rscale>  0 0.20003610E+01</rscale>
<asrwt>0</asrwt>
<pdfrwt beam="1">  1       11 0.10000000E+01 0.14089346E+01</pdfrwt>
<pdfrwt beam="2">  1        4 0.99747486E+00 0.20003610E+01</pdfrwt>
<totfact> 0.60400404E-10</totfact>
</mgrwt>
</event>
<event>
 5    1  0.2021837E-012  0.2000772E+01  0.7818608E-02  0.3998121E+00
         11   -1    0    0    0    0  0.00000000000E+00  0.00000000000E+00  0.39999999525E+01  0.39999999851E+01  0.51100000000E-03 0. -1.
         -4   -1    0    0    0  501 -0.00000000000E+00 -0.00000000000E+00  0.23794223471E+00  0.14397973840E+01  0.14200000000E+01 0.  1.
         11    1    1    2    0    0 -0.83246468468E+00  0.60348710313E+00  0.12985641872E+01  0.16563403468E+01  0.51100000000E-03 0. -1.
         22    1    1    2    0    0 -0.30909475504E+00  0.22327118728E+00  0.48129487294E+00  0.61403122509E+00  0.00000000000E+00 0. -1.
         -4    1    1    2    0  501  0.11415594397E+01 -0.82675829042E+00  0.24580831270E+01  0.31694257973E+01  0.14200000000E+01 0. -1.
<mgrwt>
<rscale>  0 0.20007717E+01</rscale>
<asrwt>0</asrwt>
<pdfrwt beam="1">  1       11 0.10000000E+01 0.14094995E+01</pdfrwt>
<pdfrwt beam="2">  1       -4 0.99813911E+00 0.20007717E+01</pdfrwt>
<totfact> 0.45990991E-10</totfact>
</mgrwt>
</event>
<event>
 5    1  0.2021837E-012  0.2001192E+01  0.7818608E-02  0.3997588E+00
         11   -1    0    0    0    0  0.00000000000E+00  0.00000000000E+00  0.39999999586E+01  0.39999999912E+01  0.51100000000E-03 0. -1.
         -4   -1    0    0    0  501 -0.00000000000E+00 -0.00000000000E+00  0.23685416930E+00  0.14396179693E+01  0.14200000000E+01 0.  1.
         11    1    1    2    0    0  0.11382671393E+01 -0.80042916678E+00  0.17212148743E+01  0.22133503645E+01  0.51100000000E-03 0. -1.
         22    1    1    2    0    0  0.15027970133E-01 -0.10916103168E-01  0.18808665140E-01  0.26434202826E-01  0.00000000000E+00 0.  1.
         -4    1    1    2    0  501 -0.11532951095E+01  0.81134526995E+00  0.24968305884E+01  0.31998333932E+01  0.14200000000E+01 0.  1.
<mgrwt>
<rscale>  0 0.20011923E+01</rscale>
<asrwt>0</asrwt>
<pdfrwt beam="1">  1       11 0.10000000E+01 0.14103032E+01</pdfrwt>
<pdfrwt beam="2">  1       -4 0.99876292E+00 0.20011923E+01</pdfrwt>
<totfact> 0.31527200E-10</totfact>
</mgrwt>
</event>
<event>
 5    1  0.2021837E-012  0.2000016E+01  0.7818608E-02  0.3999079E+00
         11   -1    0    0    0    0  0.00000000000E+00  0.00000000000E+00  0.39999999552E+01  0.39999999879E+01  0.51100000000E-03 0. -1.
          4   -1    0    0  501    0 -0.00000000000E+00 -0.00000000000E+00  0.23810776602E+00  0.14398247491E+01  0.14200000000E+01 0.  1.
         11    1    1    2    0    0 -0.35877126526E+00 -0.11881217532E+01  0.16070413229E+01  0.20305004791E+01  0.51100000000E-03 0. -1.
         22    1    1    2    0    0 -0.31568477817E-01 -0.16513267501E+00  0.20930764643E+00  0.26846798692E+00  0.00000000000E+00 0. -1.
          4    1    1    2  501    0  0.39033974308E+00  0.13532544282E+01  0.24217587520E+01  0.31408562710E+01  0.14200000000E+01 0.  1.
<mgrwt>
<rscale>  0 0.20000157E+01</rscale>
<asrwt>0</asrwt>
<pdfrwt beam="1">  1       11 0.10000000E+01 0.14093021E+01</pdfrwt>
<pdfrwt beam="2">  1        4 0.99804425E+00 0.20000157E+01</pdfrwt>
<totfact> 0.48071234E-10</totfact>
</mgrwt>
</event>
<event>
 5    1  0.2021837E-012  0.2001155E+01  0.7818608E-02  0.3997635E+00
         11   -1    0    0    0    0  0.00000000000E+00  0.00000000000E+00  0.39999999683E+01  0.40000000010E+01  0.51100000000E-03 0.  1.
          4   -1    0    0  501    0 -0.00000000000E+00 -0.00000000000E+00  0.23611160154E+00  0.14394959841E+01  0.14200000000E+01 0.  1.
         11    1    1    2    0    0 -0.18684136406E+00 -0.11466651153E+01  0.14042319981E+01  0.18225307535E+01  0.51100000000E-03 0.  1.
         22    1    1    2    0    0 -0.22101156749E-01 -0.24781081808E+00  0.32587890481E+00  0.40999478446E+00  0.00000000000E+00 0. -1.
          4    1    1    2  501    0  0.20894252081E+00  0.13944759334E+01  0.25060006670E+01  0.32069704471E+01  0.14200000000E+01 0.  1.
<mgrwt>
<rscale>  0 0.20011547E+01</rscale>
<asrwt>0</asrwt>
<pdfrwt beam="1">  1       11 0.10000000E+01 0.14109885E+01</pdfrwt>
<pdfrwt beam="2">  1        4 0.99918896E+00 0.20011547E+01</pdfrwt>
<totfact> 0.21098466E-10</totfact>
</mgrwt>
</event>
<event>
 5    1  0.2021837E-012  0.2000853E+01  0.7818608E-02  0.3998018E+00
         11   -1    0    0    0    0  0.00000000000E+00  0.00000000000E+00  0.39999999664E+01  0.39999999990E+01  0.51100000000E-03 0. -1.
          4   -1    0    0  501    0 -0.00000000000E+00 -0.00000000000E+00  0.23741644478E+00  0.14397105849E+01  0.14200000000E+01 0. -1.
         11    1    1    2    0    0 -0.71406006402E+00  0.11973745638E+01  0.17751448331E+01  0.22571502078E+01  0.51100000000E-03 0. -1.
         22    1    1    2    0    0 -0.86620268278E-02  0.12866943590E-01  0.20882509269E-01  0.26012845662E-01  0.00000000000E+00 0.  1.
          4    1    1    2  501    0  0.72272209085E+00 -0.12102415074E+01  0.24413890688E+01  0.31565475305E+01  0.14200000000E+01 0. -1.
<mgrwt>
<rscale>  0 0.20008527E+01</rscale>
<asrwt>0</asrwt>
<pdfrwt beam="1">  1       11 0.10000000E+01 0.14096522E+01</pdfrwt>
<pdfrwt beam="2">  1        4 0.99844049E+00 0.20008527E+01</pdfrwt>
<totfact> 0.39113175E-10</totfact>
</mgrwt>
</event>
<event>
 5    1  0.2021837E-012  0.2000604E+01  0.7818608E-02  0.3998333E+00
         11   -1    0    0    0    0  0.00000000000E+00  0.00000000000E+00  0.39999999617E+01  0.39999999943E+01  0.51100000000E-03 0. -1.
          4   -1    0    0  501    0 -0.00000000000E+00 -0.00000000000E+00  0.23851496324E+00  0.14398921445E+01  0.14200000000E+01 0. -1.
         11    1    1    2    0    0  0.12180592235E+01  0.68179991266E+00  0.17236633448E+01  0.22180024752E+01  0.51100000000E-03 0. -1.
         22    1    1    2    0    0  0.11602880979E-01  0.66388185617E-02  0.16259235069E-01  0.21049073232E-01  0.00000000000E+00 0. -1.
          4    1    1    2  501    0 -0.12296621045E+01 -0.68843873123E+00  0.24985923451E+01  0.32008405903E+01  0.14200000000E+01 0. -1.
<mgrwt>
<rscale>  0 0.20006041E+01</rscale>
<asrwt>0</asrwt>
<pdfrwt beam="1">  1       11 0.10000000E+01 0.14092634E+01</pdfrwt>
<pdfrwt beam="2">  1        4 0.99781097E+00 0.20006041E+01</pdfrwt>
<totfact> 0.53236355E-10</totfact>
</mgrwt>
</event>
<event>
 5    1  0.2021837E-012  0.2000320E+01  0.7818608E-02  0.3998693E+00
         11   -1    0    0    0    0  0.00000000000E+00  0.00000000000E+00  0.39999999493E+01  0.39999999819E+01  0.51100000000E-03 0.  1.
         -4   -1    0    0    0  501 -0.00000000000E+00 -0.00000000000E+00  0.23894329880E+00  0.14399631593E+01  0.14200000000E+01 0.  1.
         11    1    1    2    0    0 -0.92564638133E+00  0.99863204080E+00  0.17256792669E+01  0.21981938881E+01  0.51100000000E-03 0.  1.
         22    1    1    2    0    0 -0.32683529001E-01  0.34075747007E-01  0.61065947313E-01  0.77190799473E-01  0.00000000000E+00 0.  1.
         -4    1    1    2    0  501  0.95832991033E+00 -0.10327077878E+01  0.24521980339E+01  0.31645784537E+01  0.14200000000E+01 0. -1.
<mgrwt>
<rscale>  0 0.20003204E+01</rscale>
<asrwt>0</asrwt>
<pdfrwt beam="1">  1       11 0.10000000E+01 0.14088708E+01</pdfrwt>
<pdfrwt beam="2">  1       -4 0.99756566E+00 0.20003204E+01</pdfrwt>
<totfact> 0.58482869E-10</totfact>
</mgrwt>
</event>
<event>
 5    1  0.2021837E-012  0.2000486E+01  0.7818608E-02  0.3998483E+00
         11   -1    0    0    0    0  0.00000000000E+00  0.00000000000E+00  0.39999999523E+01  0.39999999849E+01  0.51100000000E-03 0. -1.
          4   -1    0    0  501    0 -0.00000000000E+00 -0.00000000000E+00  0.23826755777E+00  0.14398511830E+01  0.14200000000E+01 0. -1.
         11    1    1    2    0    0  0.28768495140E+00 -0.12119543975E+01  0.15179193594E+01  0.19635874148E+01  0.51100000000E-03 0. -1.
         22    1    1    2    0    0  0.46486127319E-01 -0.15694074143E+00  0.19638673202E+00  0.25565426824E+00  0.00000000000E+00 0. -1.
          4    1    1    2  501    0 -0.33417107872E+00  0.13688951389E+01  0.25239614186E+01  0.32206094848E+01  0.14200000000E+01 0. -1.
<mgrwt>
<rscale>  0 0.20004860E+01</rscale>
<asrwt>0</asrwt>
<pdfrwt beam="1">  1       11 0.10000000E+01 0.14093226E+01</pdfrwt>
<pdfrwt beam="2">  1        4 0.99795270E+00 0.20004860E+01</pdfrwt>
<totfact> 0.50126144E-10</totfact>
</mgrwt>
</event>
<event>
 5    1  0.2021837E-012  0.2000342E+01  0.7818608E-02  0.3998665E+00
         11   -1    0    0    0    0  0.00000000000E+00  0.00000000000E+00  0.39999999584E+01  0.39999999910E+01  0.51100000000E-03 0.  1.
         -4   -1    0    0    0  501 -0.00000000000E+00 -0.00000000000E+00  0.23823748681E+00  0.14398462071E+01  0.14200000000E+01 0.  1.
         11    1    1    2    0    0  0.13146496130E+01  0.43336569931E+00  0.16607961396E+01  0.21620253266E+01  0.51100000000E-03 0.  1.
         22    1    1    2    0    0  0.23540550063E-01  0.73349620450E-02  0.28477737089E-01  0.37668828959E-01  0.00000000000E+00 0.  1.
         -4    1    1    2    0  501 -0.13381901631E+01 -0.44070066136E+00  0.25489635686E+01  0.32401520426E+01  0.14200000000E+01 0.  1.
<mgrwt>
<rscale>  0 0.20003425E+01</rscale>
<asrwt>0</asrwt>
<pdfrwt beam="1">  1       11 0.10000000E+01 0.14089039E+01</pdfrwt>
<pdfrwt beam="2">  1       -4 0.99796993E+00 0.20003425E+01</pdfrwt>
<totfact> 0.49737552E-10</totfact>
</mgrwt>
</event>
<event>
 5    1  0.2021837E-012  0.2000542E+01  0.7818608E-02  0.3998411E+00
         11   -1    0    0    0    0  0.00000000000E+00  0.00000000000E+00  0.39999999577E+01  0.39999999903E+01  0.51100000000E-03 0.  1.
         -4   -1    0    0    0  501 -0.00000000000E+00 -0.00000000000E+00  0.23824130450E+00  0.14398468388E+01  0.14200000000E+01 0.  1.
         11    1    1    2    0    0  0.63241570342E+00  0.11284566882E+01  0.16018246555E+01  0.20589333664E+01  0.51100000000E-03 0.  1.
         22    1    1    2    0    0  0.65202448759E-01  0.95920173480E-01  0.13933321732E+00  0.18128922873E+00  0.00000000000E+00 0.  1.
         -4    1    1    2    0  501 -0.69761815218E+00 -0.12243768616E+01  0.24970833894E+01  0.31996242340E+01  0.14200000000E+01 0.  1.
<mgrwt>
<rscale>  0 0.20005424E+01</rscale>
<asrwt>0</asrwt>
<pdfrwt beam="1">  1       11 0.10000000E+01 0.14095987E+01</pdfrwt>
<pdfrwt beam="2">  1       -4 0.99796774E+00 0.20005424E+01</pdfrwt>
<totfact> 0.49797405E-10</totfact>
</mgrwt>
</event>
<event>
 5    1  0.2021837E-012  0.2001074E+01  0.7818608E-02  0.3997738E+00
         11   -1    0    0    0    0  0.00000000000E+00  0.00000000000E+00  0.39999999589E+01  0.39999999915E+01  0.51100000000E-03 0. -1.
         -4   -1    0    0    0  501 -0.00000000000E+00 -0.00000000000E+00  0.23555347870E+00  0.14394045440E+01  0.14200000000E+01 0. -1.
         11    1    1    2    0    0 -0.12707931750E+01 -0.63923908724E-01  0.16650147482E+01  0.20955371466E+01  0.51100000000E-03 0. -1.
         22    1    1    2    0    0 -0.13751944342E+00 -0.35458457003E-02  0.16466730371E+00  0.21456815060E+00  0.00000000000E+00 0. -1.
         -4    1    1    2    0  501  0.14083126184E+01  0.67469754424E-01  0.24058713857E+01  0.31292992384E+01  0.14200000000E+01 0. -1.
<mgrwt>
<rscale>  0 0.20010739E+01</rscale>
<asrwt>0</asrwt>
<pdfrwt beam="1">  1       11 0.10000000E+01 0.14102660E+01</pdfrwt>
<pdfrwt beam="2">  1       -4 0.99950935E+00 0.20010739E+01</pdfrwt>
<totfact> 0.12961423E-10</totfact>
</mgrwt>
</event>
<event>
 5    1  0.2021837E-012  0.2000618E+01  0.7818608E-02  0.3998315E+00
         11   -1    0    0    0    0  0.00000000000E+00  0.00000000000E+00  0.39999999606E+01  0.39999999932E+01  0.51100000000E-03 0. -1.
          4   -1    0    0  501    0 -0.00000000000E+00 -0.00000000000E+00  0.23613703339E+00  0.14395001558E+01  0.14200000000E+01 0.  1.
         11    1    1    2    0    0 -0.11565015484E+01 -0.21399332149E+00  0.15390243570E+01  0.19369783700E+01  0.51100000000E-03 0. -1.
         22    1    1    2    0    0 -0.22859218773E+00 -0.45983113403E-01  0.31034231335E+00  0.38817674643E+00  0.00000000000E+00 0. -1.
          4    1    1    2  501    0  0.13850937361E+01  0.25997643489E+00  0.23867703235E+01  0.31143450326E+01  0.14200000000E+01 0.  1.
<mgrwt>
<rscale>  0 0.20006180E+01</rscale>
<asrwt>0</asrwt>
<pdfrwt beam="1">  1       11 0.10000000E+01 0.14093223E+01</pdfrwt>
<pdfrwt beam="2">  1        4 0.99917437E+00 0.20006180E+01</pdfrwt>
<totfact> 0.21449186E-10</totfact>
</mgrwt>
</event>
<event>
 5    1  0.2021837E-012  0.2000157E+01  0.7818608E-02  0.3998901E+00
         11   -1    0    0    0    0  0.00000000000E+00  0.00000000000E+00  0.39999999512E+01  0.39999999838E+01  0.51100000000E-03 0.  1.
         -4   -1    0    0    0  501 -0.00000000000E+00 -0.00000000000E+00  0.23770862252E+00  0.14397587955E+01  0.14200000000E+01 0.  1.
         11    1    1    2    0    0  0.30267288444E+00  0.25814469111E+00  0.54972801025E+00  0.67856517955E+00  0.51100000000E-03 0.  1.
         22    1    1    2    0    0  0.79650436591E+00  0.62278402450E+00  0.12496324052E+01  0.16074390484E+01  0.00000000000E+00 0.  1.
         -4    1    1    2    0  501 -0.10991772504E+01 -0.88092871561E+00  0.24383481582E+01  0.31537545514E+01  0.14200000000E+01 0.  1.
<mgrwt>
<rscale>  0 0.20001565E+01</rscale>
<asrwt>0</asrwt>
<pdfrwt beam="1">  1       11 0.10000000E+01 0.14100062E+01</pdfrwt>
<pdfrwt beam="2">  1       -4 0.99827300E+00 0.20001565E+01</pdfrwt>
<totfact> 0.42928903E-10</totfact>
</mgrwt>
</event>
<event>
 5    1  0.2021837E-012  0.2000093E+01  0.7818608E-02  0.3998981E+00
         11   -1    0    0    0    0  0.00000000000E+00  0.00000000000E+00  0.39999999496E+01  0.39999999823E+01  0.51100000000E-03 0.  1.
          4   -1    0    0  501    0 -0.00000000000E+00 -0.00000000000E+00  0.23931988951E+00  0.14400256975E+01  0.14200000000E+01 0.  1.
         11    1    1    2    0    0  0.13352411422E+01  0.28818354653E+00  0.16553646204E+01  0.21461945280E+01  0.51100000000E-03 0.  1.
         22    1    1    2    0    0  0.41673280801E-01  0.85954604955E-02  0.51469598738E-01  0.66780714792E-01  0.00000000000E+00 0. -1.
          4    1    1    2  501    0 -0.13769144230E+01 -0.29677900703E+00  0.25324856200E+01  0.32270504370E+01  0.14200000000E+01 0.  1.
<mgrwt>
<rscale>  0 0.20000928E+01</rscale>
<asrwt>0</asrwt>
<pdfrwt beam="1">  1       11 0.10000000E+01 0.14085377E+01</pdfrwt>
<pdfrwt beam="2">  1        4 0.99735006E+00 0.20000928E+01</pdfrwt>
<totfact> 0.62983788E-10</totfact>
</mgrwt>
</event>
<event>
 5    1  0.2021837E-012  0.2000232E+01  0.7818608E-02  0.3998805E+00
         11   -1    0    0    0    0  0.00000000000E+00  0.00000000000E+00  0.39999999548E+01  0.39999999875E+01  0.51100000000E-03 0. -1.
         -4   -1    0    0    0  501 -0.00000000000E+00 -0.00000000000E+00  0.23904642725E+00  0.14399802757E+01  0.14200000000E+01 0. -1.
         11    1    1    2    0    0  0.40760475562E-01  0.96324924550E-01  0.13413184510E+00  0.17009268194E+00  0.51100000000E-03 0. -1.
         22    1    1    2    0    0  0.52339296397E+00  0.11945116411E+01  0.16589617390E+01  0.21102019588E+01  0.00000000000E+00 0. -1.
         -4    1    1    2    0  501 -0.56415343953E+00 -0.12908365657E+01  0.24459527980E+01  0.31596856224E+01  0.14200000000E+01 0.  1.
<mgrwt>
<rscale>  0 0.20002320E+01</rscale>
<asrwt>0</asrwt>
<pdfrwt beam="1">  1       11 0.10000000E+01 0.14087438E+01</pdfrwt>
<pdfrwt beam="2">  1       -4 0.99750661E+00 0.20002320E+01</pdfrwt>
<totfact> 0.59724071E-10</totfact>
</mgrwt>
</event>
<event>
 5    1  0.2021837E-012  0.2000216E+01  0.7818608E-02  0.3998825E+00
         11   -1    0    0    0    0  0.00000000000E+00  0.00000000000E+00  0.39999999674E+01  0.40000000000E+01  0.51100000000E-03 0. -1.
          4   -1    0    0  501    0 -0.00000000000E+00 -0.00000000000E+00  0.23636302423E+00  0.14395372448E+01  0.14200000000E+01 0. -1.
         11    1    1    2    0    0 -0.10847322778E+01  0.86328346490E+00  0.16113529946E+01  0.21256437118E+01  0.51100000000E-03 0. -1.
         22    1    1    2    0    0 -0.17291710981E-01  0.14218133765E-01  0.26224808250E-01  0.34480417111E-01  0.00000000000E+00 0. -1.
          4    1    1    2  501    0  0.11020239888E+01 -0.87750159867E+00  0.25987851887E+01  0.32794131159E+01  0.14200000000E+01 0. -1.
<mgrwt>
<rscale>  0 0.20002165E+01</rscale>
<asrwt>0</asrwt>
<pdfrwt beam="1">  1       11 0.10000000E+01 0.14087147E+01</pdfrwt>
<pdfrwt beam="2">  1        4 0.99904468E+00 0.20002165E+01</pdfrwt>
<totfact> 0.24651437E-10</totfact>
</mgrwt>
</event>
<event>
 5    1  0.2021837E-012  0.2001012E+01  0.7818608E-02  0.3997816E+00
         11   -1    0    0    0    0  0.00000000000E+00  0.00000000000E+00  0.39999999614E+01  0.39999999940E+01  0.51100000000E-03 0. -1.
         -4   -1    0    0    0  501 -0.00000000000E+00 -0.00000000000E+00  0.23705618123E+00  0.14396512192E+01  0.14200000000E+01 0. -1.
         11    1    1    2    0    0  0.36355528275E+00 -0.61062774509E+00  0.90721377325E+00  0.11524217015E+01  0.51100000000E-03 0. -1.
         22    1    1    2    0    0  0.35937988786E+00 -0.59975014952E+00  0.88879784368E+00  0.11308473604E+01  0.00000000000E+00 0. -1.
         -4    1    1    2    0  501 -0.72293517061E+00  0.12103778946E+01  0.24410445257E+01  0.31563821513E+01  0.14200000000E+01 0. -1.
<mgrwt>
<rscale>  0 0.20010122E+01</rscale>
<asrwt>0</asrwt>
<pdfrwt beam="1">  1       11 0.10000000E+01 0.14098439E+01</pdfrwt>
<pdfrwt beam="2">  1       -4 0.99864706E+00 0.20010122E+01</pdfrwt>
<totfact> 0.34279770E-10</totfact>
</mgrwt>
</event>
<event>
 5    1  0.2021837E-012  0.2000271E+01  0.7818608E-02  0.3998755E+00
         11   -1    0    0    0    0  0.00000000000E+00  0.00000000000E+00  0.39999999565E+01  0.39999999891E+01  0.51100000000E-03 0. -1.
          4   -1    0    0  501    0 -0.00000000000E+00 -0.00000000000E+00  0.23795277421E+00  0.14397991258E+01  0.14200000000E+01 0. -1.
         11    1    1    2    0    0  0.12532142929E+01  0.55763299071E+00  0.16407584401E+01  0.21385951314E+01  0.51100000000E-03 0. -1.
         22    1    1    2    0    0  0.33893929235E-01  0.15112471990E-01  0.56493326608E-01  0.67592020238E-01  0.00000000000E+00 0. -1.
          4    1    1    2  501    0 -0.12871082222E+01 -0.57274546270E+00  0.25407009640E+01  0.32336119633E+01  0.14200000000E+01 0. -1.
<mgrwt>
<rscale>  0 0.20002712E+01</rscale>
<asrwt>0</asrwt>
<pdfrwt beam="1">  1       11 0.10000000E+01 0.14094680E+01</pdfrwt>
<pdfrwt beam="2">  1        4 0.99813307E+00 0.20002712E+01</pdfrwt>
<totfact> 0.46099831E-10</totfact>
</mgrwt>
</event>
<event>
 5    1  0.2021837E-012  0.2001361E+01  0.7818608E-02  0.3997375E+00
         11   -1    0    0    0    0  0.00000000000E+00  0.00000000000E+00  0.39999999478E+01  0.39999999804E+01  0.51100000000E-03 0. -1.
         -4   -1    0    0    0  501 -0.00000000000E+00 -0.00000000000E+00  0.23597444140E+00  0.14394734930E+01  0.14200000000E+01 0. -1.
         11    1    1    2    0    0  0.10105433136E+01 -0.96566724387E+00  0.16829813009E+01  0.21877242364E+01  0.51100000000E-03 0. -1.
         22    1    1    2    0    0  0.93922624742E-02 -0.83838257078E-02  0.14697242703E-01  0.19352314356E-01  0.00000000000E+00 0.  1.
         -4    1    1    2    0  501 -0.10199355761E+01  0.97405106958E+00  0.25382958456E+01  0.32323969226E+01  0.14200000000E+01 0. -1.
<mgrwt>
<rscale>  0 0.20013606E+01</rscale>
<asrwt>0</asrwt>
<pdfrwt beam="1">  1       11 0.10000000E+01 0.14103462E+01</pdfrwt>
<pdfrwt beam="2">  1       -4 0.99926768E+00 0.20013606E+01</pdfrwt>
<totfact> 0.19127956E-10</totfact>
</mgrwt>
</event>
<event>
 5    1  0.2021837E-012  0.2001578E+01  0.7818608E-02  0.3997100E+00
         11   -1    0    0    0    0  0.00000000000E+00  0.00000000000E+00  0.39999999531E+01  0.39999999858E+01  0.51100000000E-03 0.  1.
          4   -1    0    0  501    0 -0.00000000000E+00 -0.00000000000E+00  0.23603658771E+00  0.14394836820E+01  0.14200000000E+01 0.  1.
         11    1    1    2    0    0 -0.12163296758E+01  0.69382625346E+00  0.17182881309E+01  0.22166116287E+01  0.51100000000E-03 0.  1.
         22    1    1    2    0    0 -0.88611742224E-02  0.53308420273E-02  0.12323693743E-01  0.16087626077E-01  0.00000000000E+00 0. -1.
          4    1    1    2  501    0  0.12251908501E+01 -0.69915709549E+00  0.25054247162E+01  0.32067844130E+01  0.14200000000E+01 0.  1.
<mgrwt>
<rscale>  0 0.20015777E+01</rscale>
<asrwt>0</asrwt>
<pdfrwt beam="1">  1       11 0.10000000E+01 0.14106490E+01</pdfrwt>
<pdfrwt beam="2">  1        4 0.99923201E+00 0.20015777E+01</pdfrwt>
<totfact> 0.20030347E-10</totfact>
</mgrwt>
</event>
<event>
 5    1  0.2021837E-012  0.2000161E+01  0.7818608E-02  0.3998895E+00
         11   -1    0    0    0    0  0.00000000000E+00  0.00000000000E+00  0.39999999657E+01  0.39999999983E+01  0.51100000000E-03 0. -1.
         -4   -1    0    0    0  501 -0.00000000000E+00 -0.00000000000E+00  0.23872892562E+00  0.14399276023E+01  0.14200000000E+01 0. -1.
         11    1    1    2    0    0  0.62476473814E+00  0.12228426342E+01  0.16482867168E+01  0.21453494932E+01  0.51100000000E-03 0. -1.
         22    1    1    2    0    0  0.16414402936E-01  0.31402806418E-01  0.42094681481E-01  0.55023005040E-01  0.00000000000E+00 0.  1.
         -4    1    1    2    0  501 -0.64117914108E+00 -0.12542454406E+01  0.25483474930E+01  0.32395551024E+01  0.14200000000E+01 0. -1.
<mgrwt>
<rscale>  0 0.20001606E+01</rscale>
<asrwt>0</asrwt>
<pdfrwt beam="1">  1       11 0.10000000E+01 0.14086347E+01</pdfrwt>
<pdfrwt beam="2">  1       -4 0.99768843E+00 0.20001606E+01</pdfrwt>
<totfact> 0.55854998E-10</totfact>
</mgrwt>
</event>
<event>
 5    1  0.2021837E-012  0.2000250E+01  0.7818608E-02  0.3998783E+00
         11   -1    0    0    0    0  0.00000000000E+00  0.00000000000E+00  0.39999999672E+01  0.39999999998E+01  0.51100000000E-03 0.  1.
         -4   -1    0    0    0  501 -0.00000000000E+00 -0.00000000000E+00  0.23940271478E+00  0.14400394647E+01  0.14200000000E+01 0. -1.
         11    1    1    2    0    0 -0.59360065085E+00  0.12392149602E+01  0.17175529629E+01  0.21995462923E+01  0.51100000000E-03 0.  1.
         22    1    1    2    0    0 -0.15260617505E-01  0.31173376256E-01  0.43848567044E-01  0.55922827769E-01  0.00000000000E+00 0. -1.
         -4    1    1    2    0  501  0.60886126835E+00 -0.12703883365E+01  0.24780011520E+01  0.31845703445E+01  0.14200000000E+01 0. -1.
<mgrwt>
<rscale>  0 0.20002496E+01</rscale>
<asrwt>0</asrwt>
<pdfrwt beam="1">  1       11 0.10000000E+01 0.14087603E+01</pdfrwt>
<pdfrwt beam="2">  1       -4 0.99730265E+00 0.20002496E+01</pdfrwt>
<totfact> 0.63974609E-10</totfact>
</mgrwt>
</event>
<event>
 5    1  0.2021837E-012  0.2000189E+01  0.7818608E-02  0.3998860E+00
         11   -1    0    0    0    0  0.00000000000E+00  0.00000000000E+00  0.39999999544E+01  0.39999999871E+01  0.51100000000E-03 0.  1.
         -4   -1    0    0    0  501 -0.00000000000E+00 -0.00000000000E+00  0.23816817344E+00  0.14398347401E+01  0.14200000000E+01 0. -1.
         11    1    1    2    0    0  0.60538300252E+00  0.10117732888E+01  0.15293276254E+01  0.19310662895E+01  0.51100000000E-03 0.  1.
         22    1    1    2    0    0  0.11791479374E+00  0.19702580582E+00  0.29851028842E+00  0.37660517659E+00  0.00000000000E+00 0.  1.
         -4    1    1    2    0  501 -0.72329779626E+00 -0.12087990946E+01  0.24103302141E+01  0.31321632611E+01  0.14200000000E+01 0. -1.
<mgrwt>
<rscale>  0 0.20001887E+01</rscale>
<asrwt>0</asrwt>
<pdfrwt beam="1">  1       11 0.10000000E+01 0.14086718E+01</pdfrwt>
<pdfrwt beam="2">  1       -4 0.99800964E+00 0.20001887E+01</pdfrwt>
<totfact> 0.48849826E-10</totfact>
</mgrwt>
</event>
<event>
 5    1  0.2021837E-012  0.2000858E+01  0.7818608E-02  0.3998012E+00
         11   -1    0    0    0    0  0.00000000000E+00  0.00000000000E+00  0.39999999584E+01  0.39999999911E+01  0.51100000000E-03 0. -1.
          4   -1    0    0  501    0 -0.00000000000E+00 -0.00000000000E+00  0.23669014835E+00  0.14395909927E+01  0.14200000000E+01 0. -1.
         11    1    1    2    0    0 -0.71599014693E+00  0.11823375361E+01  0.17873336144E+01  0.22594525112E+01  0.51100000000E-03 0. -1.
         22    1    1    2    0    0 -0.13662120216E-01  0.23746910443E-01  0.35082688728E-01  0.44512518832E-01  0.00000000000E+00 0.  1.
          4    1    1    2  501    0  0.72965226715E+00 -0.12060844466E+01  0.24142738036E+01  0.31356259538E+01  0.14200000000E+01 0. -1.
<mgrwt>
<rscale>  0 0.20008578E+01</rscale>
<asrwt>0</asrwt>
<pdfrwt beam="1">  1       11 0.10000000E+01 0.14096289E+01</pdfrwt>
<pdfrwt beam="2">  1        4 0.99885700E+00 0.20008578E+01</pdfrwt>
<totfact> 0.29250648E-10</totfact>
</mgrwt>
</event>
<event>
 5    1  0.2021837E-012  0.2000345E+01  0.7818608E-02  0.3998662E+00
         11   -1    0    0    0    0  0.00000000000E+00  0.00000000000E+00  0.39999999510E+01  0.39999999836E+01  0.51100000000E-03 0.  1.
         -4   -1    0    0    0  501 -0.00000000000E+00 -0.00000000000E+00  0.23841862128E+00  0.14398761888E+01  0.14200000000E+01 0.  1.
         11    1    1    2    0    0 -0.25697896143E+00 -0.13712287233E+01  0.16791737805E+01  0.21831012905E+01  0.51100000000E-03 0.  1.
         22    1    1    2    0    0 -0.23078654257E-02 -0.13599848745E-01  0.16276698852E-01  0.21335722491E-01  0.00000000000E+00 0. -1.
         -4    1    1    2    0  501  0.25928682686E+00  0.13848285721E+01  0.25429680929E+01  0.32354391594E+01  0.14200000000E+01 0.  1.
<mgrwt>
<rscale>  0 0.20003449E+01</rscale>
<asrwt>0</asrwt>
<pdfrwt beam="1">  1       11 0.10000000E+01 0.14088975E+01</pdfrwt>
<pdfrwt beam="2">  1       -4 0.99786616E+00 0.20003449E+01</pdfrwt>
<totfact> 0.52017784E-10</totfact>
</mgrwt>
</event>
<event>
 5    1  0.2021837E-012  0.2000583E+01  0.7818608E-02  0.3998359E+00
         11   -1    0    0    0    0  0.00000000000E+00  0.00000000000E+00  0.39999999536E+01  0.39999999863E+01  0.51100000000E-03 0.  1.
         -4   -1    0    0    0  501 -0.00000000000E+00 -0.00000000000E+00  0.23836317708E+00  0.14398670092E+01  0.14200000000E+01 0. -1.
         11    1    1    2    0    0  0.91506651615E+00  0.10108447826E+01  0.16648079598E+01  0.21519153579E+01  0.51100000000E-03 0.  1.
         22    1    1    2    0    0  0.30938965884E-01  0.33668149186E-01  0.55646644836E-01  0.72023002999E-01  0.00000000000E+00 0. -1.
         -4    1    1    2    0  501 -0.94600548204E+00 -0.10445129318E+01  0.25179085261E+01  0.32159286346E+01  0.14200000000E+01 0. -1.
<mgrwt>
<rscale>  0 0.20005833E+01</rscale>
<asrwt>0</asrwt>
<pdfrwt beam="1">  1       11 0.10000000E+01 0.14092338E+01</pdfrwt>
<pdfrwt beam="2">  1       -4 0.99789792E+00 0.20005833E+01</pdfrwt>
<totfact> 0.51336626E-10</totfact>
</mgrwt>
</event>
<event>
 5    1  0.2021837E-012  0.2000865E+01  0.7818608E-02  0.3998003E+00
         11   -1    0    0    0    0  0.00000000000E+00  0.00000000000E+00  0.39999999599E+01  0.39999999926E+01  0.51100000000E-03 0.  1.
         -4   -1    0    0    0  501 -0.00000000000E+00 -0.00000000000E+00  0.23777300960E+00  0.14397694274E+01  0.14200000000E+01 0.  1.
         11    1    1    2    0    0  0.11084481930E+01 -0.83187305737E+00  0.17255544829E+01  0.22131897150E+01  0.51100000000E-03 0.  1.
         22    1    1    2    0    0  0.20424828030E-01 -0.12345672313E-01  0.30714414894E-01  0.38896844437E-01  0.00000000000E+00 0.  1.
         -4    1    1    2    0  501 -0.11288730210E+01  0.84421872968E+00  0.24815040717E+01  0.31876828605E+01  0.14200000000E+01 0.  1.
<mgrwt>
<rscale>  0 0.20008647E+01</rscale>
<asrwt>0</asrwt>
<pdfrwt beam="1">  1       11 0.10000000E+01 0.14097565E+01</pdfrwt>
<pdfrwt beam="2">  1       -4 0.99823609E+00 0.20008647E+01</pdfrwt>
<totfact> 0.43804196E-10</totfact>
</mgrwt>
</event>
<event>
 5    1  0.2021837E-012  0.2000722E+01  0.7818608E-02  0.3998184E+00
         11   -1    0    0    0    0  0.00000000000E+00  0.00000000000E+00  0.39999999646E+01  0.39999999973E+01  0.51100000000E-03 0. -1.
          4   -1    0    0  501    0 -0.00000000000E+00 -0.00000000000E+00  0.23664355066E+00  0.14395833321E+01  0.14200000000E+01 0. -1.
         11    1    1    2    0    0  0.77056334370E+00 -0.20088676592E+00  0.95131340597E+00  0.12406130811E+01  0.51100000000E-03 0. -1.
         22    1    1    2    0    0  0.59098909927E+00 -0.16334351135E+00  0.72024085799E+00  0.94588377282E+00  0.00000000000E+00 0. -1.
          4    1    1    2  501    0 -0.13615524430E+01  0.36423027727E+00  0.25650892513E+01  0.32530864755E+01  0.14200000000E+01 0. -1.
<mgrwt>
<rscale>  0 0.20007221E+01</rscale>
<asrwt>0</asrwt>
<pdfrwt beam="1">  1       11 0.10000000E+01 0.14094952E+01</pdfrwt>
<pdfrwt beam="2">  1        4 0.99888373E+00 0.20007221E+01</pdfrwt>
<totfact> 0.28598837E-10</totfact>
</mgrwt>
</event>
<event>
 5    1  0.2021837E-012  0.2000563E+01  0.7818608E-02  0.3998385E+00
         11   -1    0    0    0    0  0.00000000000E+00  0.00000000000E+00  0.39999999595E+01  0.39999999921E+01  0.51100000000E-03 0.  1.
         -4   -1    0    0    0  501 -0.00000000000E+00 -0.00000000000E+00  0.23693426306E+00  0.14396311489E+01  0.14200000000E+01 0.  1.
         11    1    1    2    0    0  0.40824691240E+00  0.39416654444E+00  0.70558880542E+00  0.90547701776E+00  0.51100000000E-03 0.  1.
         22    1    1    2    0    0  0.54661978851E+00  0.64221295430E+00  0.10606584801E+01  0.13550745674E+01  0.00000000000E+00 0.  1.
         -4    1    1    2    0  501 -0.95486670091E+00 -0.10363794987E+01  0.24706869370E+01  0.31790795559E+01  0.14200000000E+01 0.  1.
<mgrwt>
<rscale>  0 0.20005631E+01</rscale>
<asrwt>0</asrwt>
<pdfrwt beam="1">  1       11 0.10000000E+01 0.14108380E+01</pdfrwt>
<pdfrwt beam="2">  1       -4 0.99871698E+00 0.20005631E+01</pdfrwt>
<totfact> 0.32600951E-10</totfact>
</mgrwt>
</event>
<event>
 5    1  0.2021837E-012  0.2000038E+01  0.7818608E-02  0.3999051E+00
         11   -1    0    0    0    0  0.00000000000E+00  0.00000000000E+00  0.39999999596E+01  0.39999999922E+01  0.51100000000E-03 0. -1.
          4   -1    0    0  501    0 -0.00000000000E+00 -0.00000000000E+00  0.23921102326E+00  0.14400076089E+01  0.14200000000E+01 0. -1.
         11    1    1    2    0    0 -0.11839378646E+01  0.59075300251E+00  0.16968485808E+01  0.21517419326E+01  0.51100000000E-03 0. -1.
         22    1    1    2    0    0 -0.76345963739E-01  0.38085470627E-01  0.11014537746E+00  0.13932413082E+00  0.00000000000E+00 0. -1.
          4    1    1    2  501    0  0.12602838283E+01 -0.62883847313E+00  0.24322170246E+01  0.31489415377E+01  0.14200000000E+01 0. -1.
<mgrwt>
<rscale>  0 0.20000383E+01</rscale>
<asrwt>0</asrwt>
<pdfrwt beam="1">  1       11 0.10000000E+01 0.14084589E+01</pdfrwt>
<pdfrwt beam="2">  1        4 0.99741238E+00 0.20000383E+01</pdfrwt>
<totfact> 0.61684920E-10</totfact>
</mgrwt>
</event>
<event>
 5    1  0.2021837E-012  0.2000671E+01  0.7818608E-02  0.3998248E+00
         11   -1    0    0    0    0  0.00000000000E+00  0.00000000000E+00  0.39999999555E+01  0.39999999882E+01  0.51100000000E-03 0. -1.
          4   -1    0    0  501    0 -0.00000000000E+00 -0.00000000000E+00  0.23824876450E+00  0.14398480732E+01  0.14200000000E+01 0. -1.
         11    1    1    2    0    0  0.47301186390E+00  0.65463105944E+00  0.99211696101E+00  0.12792882290E+01  0.51100000000E-03 0. -1.
         22    1    1    2    0    0  0.35770993681E+00  0.48387070266E+00  0.76340426770E+00  0.97204595145E+00  0.00000000000E+00 0. -1.
          4    1    1    2  501    0 -0.83072180071E+00 -0.11385017621E+01  0.24827274913E+01  0.31885138809E+01  0.14200000000E+01 0. -1.
<mgrwt>
<rscale>  0 0.20006711E+01</rscale>
<asrwt>0</asrwt>
<pdfrwt beam="1">  1       11 0.10000000E+01 0.14094860E+01</pdfrwt>
<pdfrwt beam="2">  1        4 0.99796347E+00 0.20006711E+01</pdfrwt>
<totfact> 0.49899250E-10</totfact>
</mgrwt>
</event>
<event>
 5    1  0.2021837E-012  0.2001177E+01  0.7818608E-02  0.3997608E+00
         11   -1    0    0    0    0  0.00000000000E+00  0.00000000000E+00  0.39999999504E+01  0.39999999830E+01  0.51100000000E-03 0.  1.
         -4   -1    0    0    0  501 -0.00000000000E+00 -0.00000000000E+00  0.23589735318E+00  0.14394608578E+01  0.14200000000E+01 0.  1.
         11    1    1    2    0    0  0.73685416316E+00  0.11817921531E+01  0.18001388378E+01  0.22759804145E+01  0.51100000000E-03 0.  1.
         22    1    1    2    0    0  0.92982391630E-02  0.14687799917E-01  0.22484402018E-01  0.28420715193E-01  0.00000000000E+00 0.  1.
         -4    1    1    2    0  501 -0.74615240232E+00 -0.11964799530E+01  0.24132740637E+01  0.31350597111E+01  0.14200000000E+01 0. -1.
<mgrwt>
<rscale>  0 0.20011766E+01</rscale>
<asrwt>0</asrwt>
<pdfrwt beam="1">  1       11 0.10000000E+01 0.14100741E+01</pdfrwt>
<pdfrwt beam="2">  1       -4 0.99931193E+00 0.20011766E+01</pdfrwt>
<totfact> 0.18006601E-10</totfact>
</mgrwt>
</event>
<event>
 5    1  0.2021837E-012  0.2000734E+01  0.7818608E-02  0.3998168E+00
         11   -1    0    0    0    0  0.00000000000E+00  0.00000000000E+00  0.39999999584E+01  0.39999999910E+01  0.51100000000E-03 0. -1.
         -4   -1    0    0    0  501 -0.00000000000E+00 -0.00000000000E+00  0.23803918745E+00  0.14398134097E+01  0.14200000000E+01 0.  1.
         11    1    1    2    0    0  0.75985317757E+00  0.11295470310E+01  0.17122087747E+01  0.21874442841E+01  0.51100000000E-03 0. -1.
         22    1    1    2    0    0  0.25584402420E-01  0.40763027272E-01  0.63236261720E-01  0.79467042451E-01  0.00000000000E+00 0. -1.
         -4    1    1    2    0  501 -0.78543757999E+00 -0.11703100583E+01  0.24625941094E+01  0.31729020742E+01  0.14200000000E+01 0.  1.
<mgrwt>
<rscale>  0 0.20007343E+01</rscale>
<asrwt>0</asrwt>
<pdfrwt beam="1">  1       11 0.10000000E+01 0.14094970E+01</pdfrwt>
<pdfrwt beam="2">  1       -4 0.99808355E+00 0.20007343E+01</pdfrwt>
<totfact> 0.47234619E-10</totfact>
</mgrwt>
</event>
<event>
 5    1  0.2021837E-012  0.2000369E+01  0.7818608E-02  0.3998632E+00
         11   -1    0    0    0    0  0.00000000000E+00  0.00000000000E+00  0.39999999565E+01  0.39999999892E+01  0.51100000000E-03 0.  1.
         -4   -1    0    0    0  501 -0.00000000000E+00 -0.00000000000E+00  0.23738178497E+00  0.14397048697E+01  0.14200000000E+01 0. -1.
         11    1    1    2    0    0  0.18016972896E+00 -0.11315785789E+01  0.14899762303E+01  0.18796171524E+01  0.51100000000E-03 0.  1.
         22    1    1    2    0    0  0.40174292385E-01 -0.26001149410E+00  0.34616026134E+00  0.43479521313E+00  0.00000000000E+00 0. -1.
         -4    1    1    2    0  501 -0.22034402134E+00  0.13915900730E+01  0.24012452498E+01  0.31252924933E+01  0.14200000000E+01 0. -1.
<mgrwt>
<rscale>  0 0.20003686E+01</rscale>
<asrwt>0</asrwt>
<pdfrwt beam="1">  1       11 0.10000000E+01 0.14089384E+01</pdfrwt>
<pdfrwt beam="2">  1       -4 0.99846036E+00 0.20003686E+01</pdfrwt>
<totfact> 0.38629968E-10</totfact>
</mgrwt>
</event>
<event>
 5    1  0.2021837E-012  0.2000054E+01  0.7818608E-02  0.3999030E+00
         11   -1    0    0    0    0  0.00000000000E+00  0.00000000000E+00  0.39999999634E+01  0.39999999960E+01  0.51100000000E-03 0.  1.
         -4   -1    0    0    0  501 -0.00000000000E+00 -0.00000000000E+00  0.23637195100E+00  0.14395387106E+01  0.14200000000E+01 0.  1.
         11    1    1    2    0    0 -0.45285680159E+00  0.12680490487E+01  0.17619703913E+01  0.22175589268E+01  0.51100000000E-03 0.  1.
         22    1    1    2    0    0 -0.14983142141E-01  0.60462722693E-01  0.95557556061E-01  0.11406788288E+00  0.00000000000E+00 0.  1.
         -4    1    1    2    0  501  0.46783994373E+00 -0.13285117714E+01  0.23788439670E+01  0.31079118969E+01  0.14200000000E+01 0.  1.
<mgrwt>
<rscale>  0 0.20000544E+01</rscale>
<asrwt>0</asrwt>
<pdfrwt beam="1">  1       11 0.10000000E+01 0.14092812E+01</pdfrwt>
<pdfrwt beam="2">  1       -4 0.99903956E+00 0.20000544E+01</pdfrwt>
<totfact> 0.24772678E-10</totfact>
</mgrwt>
</event>
<event>
 5    1  0.2021837E-012  0.2001160E+01  0.7818608E-02  0.3997629E+00
         11   -1    0    0    0    0  0.00000000000E+00  0.00000000000E+00  0.39999999635E+01  0.39999999961E+01  0.51100000000E-03 0. -1.
          4   -1    0    0  501    0 -0.00000000000E+00 -0.00000000000E+00  0.23646990279E+00  0.14395547975E+01  0.14200000000E+01 0. -1.
         11    1    1    2    0    0  0.88751335444E+00 -0.18492275256E+00  0.11006910899E+01  0.14259724805E+01  0.51100000000E-03 0. -1.
         22    1    1    2    0    0  0.49619144318E+00 -0.86372149745E-01  0.65685067642E+00  0.82771909948E+00  0.00000000000E+00 0. -1.
          4    1    1    2  501    0 -0.13837047976E+01  0.27129490231E+00  0.24789281000E+01  0.31858632136E+01  0.14200000000E+01 0. -1.
<mgrwt>
<rscale>  0 0.20011596E+01</rscale>
<asrwt>0</asrwt>
<pdfrwt beam="1">  1       11 0.10000000E+01 0.14107348E+01</pdfrwt>
<pdfrwt beam="2">  1        4 0.99898336E+00 0.20011596E+01</pdfrwt>
<totfact> 0.26185910E-10</totfact>
</mgrwt>
</event>
<event>
 5    1  0.2021837E-012  0.2001746E+01  0.7818608E-02  0.3996886E+00
         11   -1    0    0    0    0  0.00000000000E+00  0.00000000000E+00  0.39999999524E+01  0.39999999851E+01  0.51100000000E-03 0. -1.
         -4   -1    0    0    0  501 -0.00000000000E+00 -0.00000000000E+00  0.23552321845E+00  0.14393995923E+01  0.14200000000E+01 0. -1.
         11    1    1    2    0    0 -0.55252458621E+00  0.12526918167E+01  0.16914080213E+01  0.21760931878E+01  0.51100000000E-03 0. -1.
         22    1    1    2    0    0 -0.17629599180E-01  0.37855310912E-01  0.46081747834E-01  0.62188060067E-01  0.00000000000E+00 0. -1.
         -4    1    1    2    0  501  0.57015418539E+00 -0.12905471277E+01  0.24980334017E+01  0.32011183296E+01  0.14200000000E+01 0. -1.
<mgrwt>
<rscale>  0 0.20017462E+01</rscale>
<asrwt>0</asrwt>
<pdfrwt beam="1">  1       11 0.10000000E+01 0.14110401E+01</pdfrwt>
<pdfrwt beam="2">  1       -4 0.99952672E+00 0.20017462E+01</pdfrwt>
<totfact> 0.12523185E-10</totfact>
</mgrwt>
</event>
<event>
 5    1  0.2021837E-012  0.2000608E+01  0.7818608E-02  0.3998329E+00
         11   -1    0    0    0    0  0.00000000000E+00  0.00000000000E+00  0.39999999613E+01  0.39999999940E+01  0.51100000000E-03 0.  1.
          4   -1    0    0  501    0 -0.00000000000E+00 -0.00000000000E+00  0.23850240836E+00  0.14398900648E+01  0.14200000000E+01 0.  1.
         11    1    1    2    0    0  0.11775171758E+01 -0.44739936311E+00  0.15550653099E+01  0.20012349359E+01  0.51100000000E-03 0.  1.
         22    1    1    2    0    0  0.13956704599E+00 -0.53918433915E-01  0.18428696138E+00  0.23737700389E+00  0.00000000000E+00 0. -1.
          4    1    1    2  501    0 -0.13170842218E+01  0.50131779702E+00  0.24991500984E+01  0.32012781190E+01  0.14200000000E+01 0.  1.
<mgrwt>
<rscale>  0 0.20006075E+01</rscale>
<asrwt>0</asrwt>
<pdfrwt beam="1">  1       11 0.10000000E+01 0.14092690E+01</pdfrwt>
<pdfrwt beam="2">  1        4 0.99781816E+00 0.20006075E+01</pdfrwt>
<totfact> 0.53080181E-10</totfact>
</mgrwt>
</event>
<event>
 5    1  0.2021837E-012  0.2000545E+01  0.7818608E-02  0.3998408E+00
         11   -1    0    0    0    0  0.00000000000E+00  0.00000000000E+00  0.39999999726E+01  0.40000000053E+01  0.51100000000E-03 0.  1.
         -4   -1    0    0    0  501 -0.00000000000E+00 -0.00000000000E+00  0.23715425017E+00  0.14396673707E+01  0.14200000000E+01 0.  1.
         11    1    1    2    0    0  0.13347868456E+01  0.30153337320E+00  0.16239160082E+01  0.21236011304E+01  0.51100000000E-03 0.  1.
         22    1    1    2    0    0  0.39390656488E-01  0.10581833747E-01  0.48731240563E-01  0.63547878256E-01  0.00000000000E+00 0.  1.
         -4    1    1    2    0  501 -0.13741775021E+01 -0.31211520695E+00  0.25645069741E+01  0.32525183673E+01  0.14200000000E+01 0.  1.
<mgrwt>
<rscale>  0 0.20005449E+01</rscale>
<asrwt>0</asrwt>
<pdfrwt beam="1">  1       11 0.10000000E+01 0.14092104E+01</pdfrwt>
<pdfrwt beam="2">  1       -4 0.99859082E+00 0.20005449E+01</pdfrwt>
<totfact> 0.35587887E-10</totfact>
</mgrwt>
</event>
<event>
 5    1  0.2021837E-012  0.2000385E+01  0.7818608E-02  0.3998611E+00
         11   -1    0    0    0    0  0.00000000000E+00  0.00000000000E+00  0.39999999567E+01  0.39999999893E+01  0.51100000000E-03 0.  1.
          4   -1    0    0  501    0 -0.00000000000E+00 -0.00000000000E+00  0.23707280952E+00  0.14396539574E+01  0.14200000000E+01 0.  1.
         11    1    1    2    0    0 -0.12780179393E+01 -0.32552692366E+00  0.15677519005E+01  0.20486932210E+01  0.51100000000E-03 0.  1.
         22    1    1    2    0    0 -0.89568242272E-01 -0.13364890530E-01  0.12783692884E+00  0.15666323978E+00  0.00000000000E+00 0.  1.
          4    1    1    2  501    0  0.13675861816E+01  0.33889181419E+00  0.25414839369E+01  0.32342974859E+01  0.14200000000E+01 0.  1.
<mgrwt>
<rscale>  0 0.20003849E+01</rscale>
<asrwt>0</asrwt>
<pdfrwt beam="1">  1       11 0.10000000E+01 0.14101694E+01</pdfrwt>
<pdfrwt beam="2">  1        4 0.99863752E+00 0.20003849E+01</pdfrwt>
<totfact> 0.34479824E-10</totfact>
</mgrwt>
</event>
<event>
 5    1  0.2021837E-012  0.2000125E+01  0.7818608E-02  0.3998941E+00
         11   -1    0    0    0    0  0.00000000000E+00  0.00000000000E+00  0.39999999572E+01  0.39999999899E+01  0.51100000000E-03 0. -1.
         -4   -1    0    0    0  501 -0.00000000000E+00 -0.00000000000E+00  0.23885549516E+00  0.14399485920E+01  0.14200000000E+01 0. -1.
         11    1    1    2    0    0 -0.63817968762E+00  0.87197424891E+00  0.12999783804E+01  0.16904308490E+01  0.51100000000E-03 0. -1.
         22    1    1    2    0    0 -0.19507266965E+00  0.26371507132E+00  0.39188299524E+00  0.51104918280E+00  0.00000000000E+00 0.  1.
         -4    1    1    2    0  501  0.83325235727E+00 -0.11356893202E+01  0.25469940767E+01  0.32384685501E+01  0.14200000000E+01 0. -1.
<mgrwt>
<rscale>  0 0.20001249E+01</rscale>
<asrwt>0</asrwt>
<pdfrwt beam="1">  1       11 0.10000000E+01 0.14085884E+01</pdfrwt>
<pdfrwt beam="2">  1       -4 0.99761594E+00 0.20001249E+01</pdfrwt>
<totfact> 0.57401957E-10</totfact>
</mgrwt>
</event>
<event>
 5    1  0.2021837E-012  0.2000728E+01  0.7818608E-02  0.3998176E+00
         11   -1    0    0    0    0  0.00000000000E+00  0.00000000000E+00  0.39999999659E+01  0.39999999986E+01  0.51100000000E-03 0. -1.
          4   -1    0    0  501    0 -0.00000000000E+00 -0.00000000000E+00  0.23530952344E+00  0.14393646417E+01  0.14200000000E+01 0. -1.
         11    1    1    2    0    0  0.69608818496E+00  0.40571394494E+00  0.10625589820E+01  0.13334820650E+01  0.51100000000E-03 0. -1.
         22    1    1    2    0    0  0.52099422526E+00  0.30507660494E+00  0.79841521161E+00  0.10009862975E+01  0.00000000000E+00 0. -1.
          4    1    1    2  501    0 -0.12170824102E+01 -0.71079054987E+00  0.23743352957E+01  0.31048962778E+01  0.14200000000E+01 0. -1.
<mgrwt>
<rscale>  0 0.20007281E+01</rscale>
<asrwt>0</asrwt>
<pdfrwt beam="1">  1       11 0.10000000E+01 0.14094387E+01</pdfrwt>
<pdfrwt beam="2">  1        4 0.99964944E+00 0.20007281E+01</pdfrwt>
<totfact> 0.93195054E-11</totfact>
</mgrwt>
</event>
<event>
 5    1  0.2021837E-012  0.2001113E+01  0.7818608E-02  0.3997688E+00
         11   -1    0    0    0    0  0.00000000000E+00  0.00000000000E+00  0.39999999491E+01  0.39999999817E+01  0.51100000000E-03 0.  1.
         -4   -1    0    0    0  501 -0.00000000000E+00 -0.00000000000E+00  0.23703848004E+00  0.14396483046E+01  0.14200000000E+01 0. -1.
         11    1    1    2    0    0  0.78692345136E+00  0.11552130887E+01  0.17231488271E+01  0.22187852397E+01  0.51100000000E-03 0.  1.
         22    1    1    2    0    0  0.70134218291E-02  0.99983731537E-02  0.19112318243E-01  0.22681187361E-01  0.00000000000E+00 0. -1.
         -4    1    1    2    0  501 -0.79393687319E+00 -0.11652114618E+01  0.24947772838E+01  0.31981818593E+01  0.14200000000E+01 0. -1.
<mgrwt>
<rscale>  0 0.20011131E+01</rscale>
<asrwt>0</asrwt>
<pdfrwt beam="1">  1       11 0.10000000E+01 0.14102127E+01</pdfrwt>
<pdfrwt beam="2">  1       -4 0.99865721E+00 0.20011131E+01</pdfrwt>
<totfact> 0.34043413E-10</totfact>
</mgrwt>
</event>
<event>
 5    1  0.2021837E-012  0.2000733E+01  0.7818608E-02  0.3998170E+00
         11   -1    0    0    0    0  0.00000000000E+00  0.00000000000E+00  0.39999999641E+01  0.39999999967E+01  0.51100000000E-03 0.  1.
         -4   -1    0    0    0  501 -0.00000000000E+00 -0.00000000000E+00  0.23729282997E+00  0.14396902053E+01  0.14200000000E+01 0.  1.
         11    1    1    2    0    0 -0.86118928620E+00  0.10414282298E+01  0.17388372083E+01  0.22022204346E+01  0.51100000000E-03 0.  1.
         22    1    1    2    0    0 -0.37139234617E-01  0.44637598604E-01  0.74821373986E-01  0.94710484965E-01  0.00000000000E+00 0.  1.
         -4    1    1    2    0  501  0.89832852082E+00 -0.10860658284E+01  0.24236342118E+01  0.31427592824E+01  0.14200000000E+01 0. -1.
<mgrwt>
<rscale>  0 0.20007331E+01</rscale>
<asrwt>0</asrwt>
<pdfrwt beam="1">  1       11 0.10000000E+01 0.14094446E+01</pdfrwt>
<pdfrwt beam="2">  1       -4 0.99851136E+00 0.20007331E+01</pdfrwt>
<totfact> 0.37458715E-10</totfact>
</mgrwt>
</event>
<event>
 5    1  0.2021837E-012  0.2001650E+01  0.7818608E-02  0.3997008E+00
         11   -1    0    0    0    0  0.00000000000E+00  0.00000000000E+00  0.39999999717E+01  0.40000000044E+01  0.51100000000E-03 0. -1.
          4   -1    0    0  501    0 -0.00000000000E+00 -0.00000000000E+00  0.23592486543E+00  0.14394653668E+01  0.14200000000E+01 0. -1.
         11    1    1    2    0    0  0.10559103855E+01 -0.15296396269E+00  0.13159018227E+01  0.16940904888E+01  0.51100000000E-03 0. -1.
         22    1    1    2    0    0  0.34022541264E+00 -0.49540243501E-01  0.42240197718E+00  0.54463840983E+00  0.00000000000E+00 0.  1.
          4    1    1    2  501    0 -0.13961357982E+01  0.20250420619E+00  0.24976210373E+01  0.32007364725E+01  0.14200000000E+01 0. -1.
<mgrwt>
<rscale>  0 0.20016501E+01</rscale>
<asrwt>0</asrwt>
<pdfrwt beam="1">  1       11 0.10000000E+01 0.14107477E+01</pdfrwt>
<pdfrwt beam="2">  1        4 0.99929614E+00 0.20016501E+01</pdfrwt>
<totfact> 0.18416276E-10</totfact>
</mgrwt>
</event>
<event>
 5    1  0.2021837E-012  0.2000400E+01  0.7818608E-02  0.3998592E+00
         11   -1    0    0    0    0  0.00000000000E+00  0.00000000000E+00  0.39999999637E+01  0.39999999964E+01  0.51100000000E-03 0. -1.
         -4   -1    0    0    0  501 -0.00000000000E+00 -0.00000000000E+00  0.23832336718E+00  0.14398604194E+01  0.14200000000E+01 0. -1.
         11    1    1    2    0    0  0.71285117997E+00 -0.63666449767E+00  0.11916519183E+01  0.15275906005E+01  0.51100000000E-03 0. -1.
         22    1    1    2    0    0  0.33425037807E+00 -0.30608647677E+00  0.59925264565E+00  0.75134278450E+00  0.00000000000E+00 0. -1.
         -4    1    1    2    0  501 -0.10471015580E+01  0.94275097444E+00  0.24474187670E+01  0.31609270307E+01  0.14200000000E+01 0. -1.
<mgrwt>
<rscale>  0 0.20004002E+01</rscale>
<asrwt>0</asrwt>
<pdfrwt beam="1">  1       11 0.10000000E+01 0.14093254E+01</pdfrwt>
<pdfrwt beam="2">  1       -4 0.99792073E+00 0.20004002E+01</pdfrwt>
<totfact> 0.50825025E-10</totfact>
</mgrwt>
</event>
<event>
 5    1  0.2021837E-012  0.2000241E+01  0.7818608E-02  0.3998793E+00
         11   -1    0    0    0    0  0.00000000000E+00  0.00000000000E+00  0.39999999583E+01  0.39999999909E+01  0.51100000000E-03 0.  1.
         -4   -1    0    0    0  501 -0.00000000000E+00 -0.00000000000E+00  0.23927762476E+00  0.14400186741E+01  0.14200000000E+01 0. -1.
         11    1    1    2    0    0 -0.13879787443E+01 -0.16975317305E+00  0.17586609703E+01  0.22468177060E+01  0.51100000000E-03 0.  1.
         22    1    1    2    0    0 -0.10373426831E-01 -0.10589751236E-02  0.14879448730E-01  0.18169408549E-01  0.00000000000E+00 0. -1.
         -4    1    1    2    0  501  0.13983521711E+01  0.17081214818E+00  0.24657371641E+01  0.31750315505E+01  0.14200000000E+01 0.  1.
<mgrwt>
<rscale>  0 0.20002414E+01</rscale>
<asrwt>0</asrwt>
<pdfrwt beam="1">  1       11 0.10000000E+01 0.14088013E+01</pdfrwt>
<pdfrwt beam="2">  1       -4 0.99737425E+00 0.20002414E+01</pdfrwt>
<totfact> 0.62492550E-10</totfact>
</mgrwt>
</event>
<event>
 5    1  0.2021837E-012  0.2001725E+01  0.7818608E-02  0.3996914E+00
         11   -1    0    0    0    0  0.00000000000E+00  0.00000000000E+00  0.39999999689E+01  0.40000000015E+01  0.51100000000E-03 0.  1.
          4   -1    0    0  501    0 -0.00000000000E+00 -0.00000000000E+00  0.23562105313E+00  0.14394156039E+01  0.14200000000E+01 0.  1.
         11    1    1    2    0    0  0.45296192069E-01 -0.65821129722E+00  0.80787973611E+00  0.10430550254E+01  0.51100000000E-03 0.  1.
         22    1    1    2    0    0  0.52036009628E-01 -0.74927852384E+00  0.91751108527E+00  0.11857287397E+01  0.00000000000E+00 0.  1.
          4    1    1    2  501    0 -0.97332201697E-01  0.14074898211E+01  0.25102302006E+01  0.32106318403E+01  0.14200000000E+01 0.  1.
<mgrwt>
<rscale>  0 0.20017245E+01</rscale>
<asrwt>0</asrwt>
<pdfrwt beam="1">  1       11 0.10000000E+01 0.14108528E+01</pdfrwt>
<pdfrwt beam="2">  1        4 0.99947055E+00 0.20017245E+01</pdfrwt>
<totfact> 0.13971213E-10</totfact>
</mgrwt>
</event>
<event>
 5    1  0.2021837E-012  0.2000663E+01  0.7818608E-02  0.3998259E+00
         11   -1    0    0    0    0  0.00000000000E+00  0.00000000000E+00  0.39999999624E+01  0.39999999950E+01  0.51100000000E-03 0.  1.
         -4   -1    0    0    0  501 -0.00000000000E+00 -0.00000000000E+00  0.23672638343E+00  0.14395969508E+01  0.14200000000E+01 0.  1.
         11    1    1    2    0    0 -0.82382288535E+00  0.11242676679E+01  0.16491334693E+01  0.21592367625E+01  0.51100000000E-03 0.  1.
         22    1    1    2    0    0 -0.93950401614E-02  0.12393558436E-01  0.20259421116E-01  0.25540383989E-01  0.00000000000E+00 0.  1.
         -4    1    1    2    0  501  0.83321792551E+00 -0.11366612264E+01  0.25673334554E+01  0.32548197993E+01  0.14200000000E+01 0.  1.
<mgrwt>
<rscale>  0 0.20006626E+01</rscale>
<asrwt>0</asrwt>
<pdfrwt beam="1">  1       11 0.10000000E+01 0.14093901E+01</pdfrwt>
<pdfrwt beam="2">  1       -4 0.99883622E+00 0.20006626E+01</pdfrwt>
<totfact> 0.29745717E-10</totfact>
</mgrwt>
</event>
<event>
 5    1  0.2021837E-012  0.2000613E+01  0.7818608E-02  0.3998322E+00
         11   -1    0    0    0    0  0.00000000000E+00  0.00000000000E+00  0.39999999530E+01  0.39999999856E+01  0.51100000000E-03 0.  1.
         -4   -1    0    0    0  501 -0.00000000000E+00 -0.00000000000E+00  0.23852779338E+00  0.14398942698E+01  0.14200000000E+01 0.  1.
         11    1    1    2    0    0  0.88645666436E+00  0.10614885070E+01  0.17195473802E+01  0.22066732251E+01  0.51100000000E-03 0.  1.
         22    1    1    2    0    0  0.16963842013E-01  0.20123318014E-01  0.32647713229E-01  0.41935582062E-01  0.00000000000E+00 0. -1.
         -4    1    1    2    0  501 -0.90342050637E+00 -0.10816118251E+01  0.24863326529E+01  0.31912854483E+01  0.14200000000E+01 0.  1.
<mgrwt>
<rscale>  0 0.20006131E+01</rscale>
<asrwt>0</asrwt>
<pdfrwt beam="1">  1       11 0.10000000E+01 0.14092743E+01</pdfrwt>
<pdfrwt beam="2">  1       -4 0.99780362E+00 0.20006131E+01</pdfrwt>
<totfact> 0.53396637E-10</totfact>
</mgrwt>
</event>
<event>
 5    1  0.2021837E-012  0.2000066E+01  0.7818608E-02  0.3999015E+00
         11   -1    0    0    0    0  0.00000000000E+00  0.00000000000E+00  0.39999999561E+01  0.39999999887E+01  0.51100000000E-03 0.  1.
          4   -1    0    0  501    0 -0.00000000000E+00 -0.00000000000E+00  0.23980333517E+00  0.14401061209E+01  0.14200000000E+01 0.  1.
         11    1    1    2    0    0  0.82647500417E+00  0.89300831917E+00  0.15238204624E+01  0.19500138085E+01  0.51100000000E-03 0.  1.
         22    1    1    2    0    0  0.12708880819E+00  0.14361104544E+00  0.24038494692E+00  0.30750710601E+00  0.00000000000E+00 0.  1.
          4    1    1    2  501    0 -0.95356381235E+00 -0.10366193646E+01  0.24755978819E+01  0.31825851951E+01  0.14200000000E+01 0.  1.
<mgrwt>
<rscale>  0 0.20000659E+01</rscale>
<asrwt>0</asrwt>
<pdfrwt beam="1">  1       11 0.10000000E+01 0.14085382E+01</pdfrwt>
<pdfrwt beam="2">  1        4 0.99707338E+00 0.20000659E+01</pdfrwt>
<totfact> 0.68630264E-10</totfact>
</mgrwt>
</event>
<event>
 5    1  0.2021837E-012  0.2000714E+01  0.7818608E-02  0.3998194E+00
         11   -1    0    0    0    0  0.00000000000E+00  0.00000000000E+00  0.39999999566E+01  0.39999999892E+01  0.51100000000E-03 0.  1.
         -4   -1    0    0    0  501 -0.00000000000E+00 -0.00000000000E+00  0.23786669124E+00  0.14397849016E+01  0.14200000000E+01 0.  1.
         11    1    1    2    0    0  0.58234356383E+00  0.73241601736E+00  0.11916662931E+01  0.15151323586E+01  0.51100000000E-03 0.  1.
         22    1    1    2    0    0  0.29469844982E+00  0.37087612117E+00  0.60108052530E+00  0.76530652126E+00  0.00000000000E+00 0. -1.
         -4    1    1    2    0  501 -0.87704201365E+00 -0.11032921385E+01  0.24451198294E+01  0.31593460110E+01  0.14200000000E+01 0.  1.
<mgrwt>
<rscale>  0 0.20007139E+01</rscale>
<asrwt>0</asrwt>
<pdfrwt beam="1">  1       11 0.10000000E+01 0.14094184E+01</pdfrwt>
<pdfrwt beam="2">  1       -4 0.99818240E+00 0.20007139E+01</pdfrwt>
<totfact> 0.45012335E-10</totfact>
</mgrwt>
</event>
<event>
 5    1  0.2021837E-012  0.2000168E+01  0.7818608E-02  0.3998886E+00
         11   -1    0    0    0    0  0.00000000000E+00  0.00000000000E+00  0.39999999599E+01  0.39999999925E+01  0.51100000000E-03 0. -1.
          4   -1    0    0  501    0 -0.00000000000E+00 -0.00000000000E+00  0.23951082835E+00  0.14400574422E+01  0.14200000000E+01 0. -1.
         11    1    1    2    0    0 -0.12552927987E+01 -0.53417538389E+00  0.17145149179E+01  0.21910419932E+01  0.51100000000E-03 0. -1.
         22    1    1    2    0    0 -0.40742388666E-01 -0.17697776200E-01  0.57807710599E-01  0.72903257275E-01  0.00000000000E+00 0. -1.
          4    1    1    2  501    0  0.12960351873E+01  0.55187316009E+00  0.24671881598E+01  0.31761121843E+01  0.14200000000E+01 0. -1.
<mgrwt>
<rscale>  0 0.20001678E+01</rscale>
<asrwt>0</asrwt>
<pdfrwt beam="1">  1       11 0.10000000E+01 0.14086591E+01</pdfrwt>
<pdfrwt beam="2">  1        4 0.99724077E+00 0.20001678E+01</pdfrwt>
<totfact> 0.65240039E-10</totfact>
</mgrwt>
</event>
<event>
 5    1  0.2021837E-012  0.2000314E+01  0.7818608E-02  0.3998701E+00
         11   -1    0    0    0    0  0.00000000000E+00  0.00000000000E+00  0.39999999626E+01  0.39999999952E+01  0.51100000000E-03 0. -1.
         -4   -1    0    0    0  501 -0.00000000000E+00 -0.00000000000E+00  0.23907427300E+00  0.14399848985E+01  0.14200000000E+01 0. -1.
         11    1    1    2    0    0 -0.11561122648E+00 -0.12992271656E+01  0.16376941737E+01  0.20936570042E+01  0.51100000000E-03 0. -1.
         22    1    1    2    0    0 -0.10709107955E-01 -0.10394786569E+00  0.13698596052E+00  0.17229334623E+00  0.00000000000E+00 0. -1.
         -4    1    1    2    0  501  0.12632033444E+00  0.14031750313E+01  0.24643941014E+01  0.31740345433E+01  0.14200000000E+01 0. -1.
<mgrwt>
<rscale>  0 0.20003142E+01</rscale>
<asrwt>0</asrwt>
<pdfrwt beam="1">  1       11 0.10000000E+01 0.14089150E+01</pdfrwt>
<pdfrwt beam="2">  1       -4 0.99749067E+00 0.20003142E+01</pdfrwt>
<totfact> 0.60065077E-10</totfact>
</mgrwt>
</event>
<event>
 5    1  0.2021837E-012  0.2000083E+01  0.7818608E-02  0.3998993E+00
         11   -1    0    0    0    0  0.00000000000E+00  0.00000000000E+00  0.39999999619E+01  0.39999999945E+01  0.51100000000E-03 0. -1.
         -4   -1    0    0    0  501 -0.00000000000E+00 -0.00000000000E+00  0.23949601909E+00  0.14400549792E+01  0.14200000000E+01 0. -1.
         11    1    1    2    0    0 -0.98093564553E+00 -0.93115684888E+00  0.17095075296E+01  0.21798403778E+01  0.51100000000E-03 0. -1.
         22    1    1    2    0    0 -0.38526161028E-01 -0.40764541868E-01  0.64543444746E-01  0.85509468581E-01  0.00000000000E+00 0.  1.
         -4    1    1    2    0  501  0.10194618066E+01  0.97192139075E+00  0.24654450066E+01  0.31747051273E+01  0.14200000000E+01 0. -1.
<mgrwt>
<rscale>  0 0.20000834E+01</rscale>
<asrwt>0</asrwt>
<pdfrwt beam="1">  1       11 0.10000000E+01 0.14087417E+01</pdfrwt>
<pdfrwt beam="2">  1       -4 0.99724925E+00 0.20000834E+01</pdfrwt>
<totfact> 0.65060174E-10</totfact>
</mgrwt>
</event>
<event>
 5    1  0.2021837E-012  0.2000954E+01  0.7818608E-02  0.3997890E+00
         11   -1    0    0    0    0  0.00000000000E+00  0.00000000000E+00  0.39999999586E+01  0.39999999913E+01  0.51100000000E-03 0.  1.
         -4   -1    0    0    0  501 -0.00000000000E+00 -0.00000000000E+00  0.23766102420E+00  0.14397509376E+01  0.14200000000E+01 0. -1.
         11    1    1    2    0    0 -0.74505529263E+00 -0.90241595350E+00  0.14513327293E+01  0.18643575018E+01  0.51100000000E-03 0.  1.
         22    1    1    2    0    0 -0.15435608172E+00 -0.18316056569E+00  0.30151103938E+00  0.38507466764E+00  0.00000000000E+00 0.  1.
         -4    1    1    2    0  501  0.89941137436E+00  0.10855765192E+01  0.24848172142E+01  0.31903187595E+01  0.14200000000E+01 0. -1.
<mgrwt>
<rscale>  0 0.20009541E+01</rscale>
<asrwt>0</asrwt>
<pdfrwt beam="1">  1       11 0.10000000E+01 0.14097815E+01</pdfrwt>
<pdfrwt beam="2">  1       -4 0.99830028E+00 0.20009541E+01</pdfrwt>
<totfact> 0.42346131E-10</totfact>
</mgrwt>
</event>
<event>
 5    1  0.2021837E-012  0.2001508E+01  0.7818608E-02  0.3997188E+00
         11   -1    0    0    0    0  0.00000000000E+00  0.00000000000E+00  0.39999999504E+01  0.39999999830E+01  0.51100000000E-03 0.  1.
          4   -1    0    0  501    0 -0.00000000000E+00 -0.00000000000E+00  0.23630594444E+00  0.14395278738E+01  0.14200000000E+01 0.  1.
         11    1    1    2    0    0  0.10299789588E+01 -0.94615093953E+00  0.17313297573E+01  0.22256597327E+01  0.51100000000E-03 0.  1.
         22    1    1    2    0    0  0.87687815289E-02 -0.81224856087E-02  0.15405578413E-01  0.19498670421E-01  0.00000000000E+00 0. -1.
          4    1    1    2  501    0 -0.10387477403E+01  0.95427342514E+00  0.24895705591E+01  0.31943694537E+01  0.14200000000E+01 0.  1.
<mgrwt>
<rscale>  0 0.20015081E+01</rscale>
<asrwt>0</asrwt>
<pdfrwt beam="1">  1       11 0.10000000E+01 0.14105509E+01</pdfrwt>
<pdfrwt beam="2">  1        4 0.99907743E+00 0.20015081E+01</pdfrwt>
<totfact> 0.23881068E-10</totfact>
</mgrwt>
</event>
<event>
 5    1  0.2021837E-012  0.2001556E+01  0.7818608E-02  0.3997127E+00
         11   -1    0    0    0    0  0.00000000000E+00  0.00000000000E+00  0.39999999653E+01  0.39999999979E+01  0.51100000000E-03 0.  1.
         -4   -1    0    0    0  501 -0.00000000000E+00 -0.00000000000E+00  0.23595277135E+00  0.14394699407E+01  0.14200000000E+01 0.  1.
         11    1    1    2    0    0 -0.24021475493E+00 -0.12272928353E+01  0.15246733902E+01  0.19719482853E+01  0.51100000000E-03 0.  1.
         22    1    1    2    0    0 -0.30455241138E-01 -0.15710724218E+00  0.19470534211E+00  0.25203249295E+00  0.00000000000E+00 0. -1.
         -4    1    1    2    0  501  0.27066999607E+00  0.13844000775E+01  0.25165740043E+01  0.32154891604E+01  0.14200000000E+01 0.  1.
<mgrwt>
<rscale>  0 0.20015559E+01</rscale>
<asrwt>0</asrwt>
<pdfrwt beam="1">  1       11 0.10000000E+01 0.14106131E+01</pdfrwt>
<pdfrwt beam="2">  1       -4 0.99928012E+00 0.20015559E+01</pdfrwt>
<totfact> 0.18818713E-10</totfact>
</mgrwt>
</event>
<event>
 5    1  0.2021837E-012  0.2000550E+01  0.7818608E-02  0.3998401E+00
         11   -1    0    0    0    0  0.00000000000E+00  0.00000000000E+00  0.39999999573E+01  0.39999999899E+01  0.51100000000E-03 0. -1.
          4   -1    0    0  501    0 -0.00000000000E+00 -0.00000000000E+00  0.23859906411E+00  0.14399060780E+01  0.14200000000E+01 0. -1.
         11    1    1    2    0    0  0.12767587049E+01  0.28484529023E+00  0.16416288794E+01  0.20990939162E+01  0.51100000000E-03 0. -1.
         22    1    1    2    0    0  0.99058436667E-01  0.19997985984E-01  0.12342245791E+00  0.15951675910E+00  0.00000000000E+00 0. -1.
          4    1    1    2  501    0 -0.13758171416E+01 -0.30484327622E+00  0.24735476841E+01  0.31812953927E+01  0.14200000000E+01 0.  1.
<mgrwt>
<rscale>  0 0.20005505E+01</rscale>
<asrwt>0</asrwt>
<pdfrwt beam="1">  1       11 0.10000000E+01 0.14092253E+01</pdfrwt>
<pdfrwt beam="2">  1        4 0.99776280E+00 0.20005505E+01</pdfrwt>
<totfact> 0.54277557E-10</totfact>
</mgrwt>
</event>
<event>
 5    1  0.2021837E-012  0.2000013E+01  0.7818608E-02  0.3999083E+00
         11   -1    0    0    0    0  0.00000000000E+00  0.00000000000E+00  0.39999999510E+01  0.39999999837E+01  0.51100000000E-03 0. -1.
          4   -1    0    0  501    0 -0.00000000000E+00 -0.00000000000E+00  0.23972328014E+00  0.14400927925E+01  0.14200000000E+01 0. -1.
         11    1    1    2    0    0  0.13788110963E+01 -0.20182733178E+00  0.17015551211E+01  0.21993509049E+01  0.51100000000E-03 0. -1.
         22    1    1    2    0    0  0.14752486127E-01 -0.22113631476E-02  0.17058805124E-01  0.22661173981E-01  0.00000000000E+00 0.  1.
          4    1    1    2  501    0 -0.13935635825E+01  0.20403869492E+00  0.25211093049E+01  0.32180806973E+01  0.14200000000E+01 0. -1.
<mgrwt>
<rscale>  0 0.20000128E+01</rscale>
<asrwt>0</asrwt>
<pdfrwt beam="1">  1       11 0.10000000E+01 0.14084409E+01</pdfrwt>
<pdfrwt beam="2">  1        4 0.99711918E+00 0.20000128E+01</pdfrwt>
<totfact> 0.67702340E-10</totfact>
</mgrwt>
</event>
<event>
 5    1  0.2021837E-012  0.2000761E+01  0.7818608E-02  0.3998134E+00
         11   -1    0    0    0    0  0.00000000000E+00  0.00000000000E+00  0.39999999515E+01  0.39999999841E+01  0.51100000000E-03 0.  1.
          4   -1    0    0  501    0 -0.00000000000E+00 -0.00000000000E+00  0.23806164560E+00  0.14398171228E+01  0.14200000000E+01 0.  1.
         11    1    1    2    0    0  0.40662168578E+00  0.13315005197E+01  0.17266798069E+01  0.22180302627E+01  0.51100000000E-03 0.  1.
         22    1    1    2    0    0  0.36967753051E-02  0.16937224339E-01  0.19781882237E-01  0.26303204763E-01  0.00000000000E+00 0. -1.
          4    1    1    2  501    0 -0.41031846108E+00 -0.13484377441E+01  0.24915999079E+01  0.31954836395E+01  0.14200000000E+01 0.  1.
<mgrwt>
<rscale>  0 0.20007613E+01</rscale>
<asrwt>0</asrwt>
<pdfrwt beam="1">  1       11 0.10000000E+01 0.14095766E+01</pdfrwt>
<pdfrwt beam="2">  1        4 0.99807068E+00 0.20007613E+01</pdfrwt>
<totfact> 0.47523663E-10</totfact>
</mgrwt>
</event>
<event>
 5    1  0.2021837E-012  0.2000166E+01  0.7818608E-02  0.3998889E+00
         11   -1    0    0    0    0  0.00000000000E+00  0.00000000000E+00  0.39999999539E+01  0.39999999865E+01  0.51100000000E-03 0.  1.
          4   -1    0    0  501    0 -0.00000000000E+00 -0.00000000000E+00  0.23678693058E+00  0.14396069083E+01  0.14200000000E+01 0. -1.
         11    1    1    2    0    0  0.15547363833E+00 -0.13747930314E+01  0.16157998051E+01  0.21272134831E+01  0.51100000000E-03 0.  1.
         22    1    1    2    0    0  0.16048872539E-02 -0.25060297366E-01  0.28150401118E-01  0.37723192472E-01  0.00000000000E+00 0.  1.
          4    1    1    2  501    0 -0.15707852558E+00  0.13998533287E+01  0.25928366783E+01  0.32746702193E+01  0.14200000000E+01 0. -1.
<mgrwt>
<rscale>  0 0.20001657E+01</rscale>
<asrwt>0</asrwt>
<pdfrwt beam="1">  1       11 0.10000000E+01 0.14086804E+01</pdfrwt>
<pdfrwt beam="2">  1        4 0.99880148E+00 0.20001657E+01</pdfrwt>
<totfact> 0.30563953E-10</totfact>
</mgrwt>
</event>
<event>
 5    1  0.2021837E-012  0.2000843E+01  0.7818608E-02  0.3998031E+00
         11   -1    0    0    0    0  0.00000000000E+00  0.00000000000E+00  0.39999999529E+01  0.39999999855E+01  0.51100000000E-03 0.  1.
          4   -1    0    0  501    0 -0.00000000000E+00 -0.00000000000E+00  0.23745375335E+00  0.14397167378E+01  0.14200000000E+01 0.  1.
         11    1    1    2    0    0 -0.16484151944E+00  0.81167757686E+00  0.10007317463E+01  0.12990217490E+01  0.51100000000E-03 0.  1.
         22    1    1    2    0    0 -0.11609509824E+00  0.56964262118E+00  0.70515985564E+00  0.91390437667E+00  0.00000000000E+00 0. -1.
          4    1    1    2  501    0  0.28093661769E+00 -0.13813201980E+01  0.25315621043E+01  0.32267905976E+01  0.14200000000E+01 0.  1.
<mgrwt>
<rscale>  0 0.20008425E+01</rscale>
<asrwt>0</asrwt>
<pdfrwt beam="1">  1       11 0.10000000E+01 0.14096020E+01</pdfrwt>
<pdfrwt beam="2">  1        4 0.99841910E+00 0.20008425E+01</pdfrwt>
<totfact> 0.39608161E-10</totfact>
</mgrwt>
</event>
<event>
 5    1  0.2021837E-012  0.2000091E+01  0.7818608E-02  0.3998984E+00
         11   -1    0    0    0    0  0.00000000000E+00  0.00000000000E+00  0.39999999498E+01  0.39999999824E+01  0.51100000000E-03 0.  1.
         -4   -1    0    0    0  501 -0.00000000000E+00 -0.00000000000E+00  0.23952157845E+00  0.14400592302E+01  0.14200000000E+01 0.  1.
         11    1    1    2    0    0 -0.12620991951E+01  0.58107952698E+00  0.17497117932E+01  0.22342872276E+01  0.51100000000E-03 0.  1.
         22    1    1    2    0    0 -0.18283300065E-01  0.59335845479E-02  0.21596543033E-01  0.28911886099E-01  0.00000000000E+00 0. -1.
         -4    1    1    2    0  501  0.12803824952E+01 -0.58701311153E+00  0.24682131921E+01  0.31768600990E+01  0.14200000000E+01 0.  1.
<mgrwt>
<rscale>  0 0.20000909E+01</rscale>
<asrwt>0</asrwt>
<pdfrwt beam="1">  1       11 0.10000000E+01 0.14087360E+01</pdfrwt>
<pdfrwt beam="2">  1       -4 0.99723461E+00 0.20000909E+01</pdfrwt>
<totfact> 0.65360366E-10</totfact>
</mgrwt>
</event>
<event>
 5    1  0.2021837E-012  0.2000781E+01  0.7818608E-02  0.3998110E+00
         11   -1    0    0    0    0  0.00000000000E+00  0.00000000000E+00  0.39999999612E+01  0.39999999939E+01  0.51100000000E-03 0. -1.
          4   -1    0    0  501    0 -0.00000000000E+00 -0.00000000000E+00  0.23810723624E+00  0.14398246615E+01  0.14200000000E+01 0. -1.
         11    1    1    2    0    0  0.13814535480E+01 -0.21764171179E+00  0.17381065039E+01  0.22308734388E+01  0.51100000000E-03 0. -1.
         22    1    1    2    0    0  0.10928220212E-01 -0.14373397133E-02  0.14138282343E-01  0.17927157334E-01  0.00000000000E+00 0. -1.
          4    1    1    2  501    0 -0.13923817682E+01  0.21907905150E+00  0.24858624113E+01  0.31910240593E+01  0.14200000000E+01 0. -1.
<mgrwt>
<rscale>  0 0.20007805E+01</rscale>
<asrwt>0</asrwt>
<pdfrwt beam="1">  1       11 0.10000000E+01 0.14095185E+01</pdfrwt>
<pdfrwt beam="2">  1        4 0.99804456E+00 0.20007805E+01</pdfrwt>
<totfact> 0.48107212E-10</totfact>
</mgrwt>
</event>
<event>
 5    1  0.2021837E-012  0.2000571E+01  0.7818608E-02  0.3998375E+00
         11   -1    0    0    0    0  0.00000000000E+00  0.00000000000E+00  0.39999999475E+01  0.39999999802E+01  0.51100000000E-03 0. -1.
          4   -1    0    0  501    0 -0.00000000000E+00 -0.00000000000E+00  0.23813954017E+00  0.14398300041E+01  0.14200000000E+01 0. -1.
         11    1    1    2    0    0 -0.42903547529E+00  0.30530644002E+00  0.63373474029E+00  0.82395597184E+00  0.51100000000E-03 0. -1.
         22    1    1    2    0    0 -0.71481826109E+00  0.51778719485E+00  0.10740204470E+01  0.13901757609E+01  0.00000000000E+00 0. -1.
          4    1    1    2  501    0  0.11438537364E+01 -0.82309363487E+00  0.25303843004E+01  0.32256982515E+01  0.14200000000E+01 0. -1.
<mgrwt>
<rscale>  0 0.20005710E+01</rscale>
<asrwt>0</asrwt>
<pdfrwt beam="1">  1       11 0.10000000E+01 0.14092386E+01</pdfrwt>
<pdfrwt beam="2">  1        4 0.99802605E+00 0.20005710E+01</pdfrwt>
<totfact> 0.48507280E-10</totfact>
</mgrwt>
</event>
<event>
 5    1  0.2021837E-012  0.2000896E+01  0.7818608E-02  0.3997963E+00
         11   -1    0    0    0    0  0.00000000000E+00  0.00000000000E+00  0.39999999636E+01  0.39999999962E+01  0.51100000000E-03 0.  1.
          4   -1    0    0  501    0 -0.00000000000E+00 -0.00000000000E+00  0.23781739286E+00  0.14397767578E+01  0.14200000000E+01 0. -1.
         11    1    1    2    0    0 -0.10019063342E+01 -0.90263041741E+00  0.16689906224E+01  0.21457138513E+01  0.51100000000E-03 0.  1.
         22    1    1    2    0    0 -0.45551190571E-01 -0.40777216104E-01  0.75980906083E-01  0.97523281347E-01  0.00000000000E+00 0. -1.
          4    1    1    2  501    0  0.10474575248E+01  0.94340763351E+00  0.24928458279E+01  0.31965396214E+01  0.14200000000E+01 0. -1.
<mgrwt>
<rscale>  0 0.20008961E+01</rscale>
<asrwt>0</asrwt>
<pdfrwt beam="1">  1       11 0.10000000E+01 0.14096770E+01</pdfrwt>
<pdfrwt beam="2">  1        4 0.99821066E+00 0.20008961E+01</pdfrwt>
<totfact> 0.44382771E-10</totfact>
</mgrwt>
</event>
<event>
 5    1  0.2021837E-012  0.2001674E+01  0.7818608E-02  0.3996978E+00
         11   -1    0    0    0    0  0.00000000000E+00  0.00000000000E+00  0.39999999524E+01  0.39999999850E+01  0.51100000000E-03 0. -1.
          4   -1    0    0  501    0 -0.00000000000E+00 -0.00000000000E+00  0.23508782443E+00  0.14393284146E+01  0.14200000000E+01 0.  1.
         11    1    1    2    0    0 -0.60364952465E+00  0.12109813432E+01  0.17370657188E+01  0.22018778655E+01  0.51100000000E-03 0. -1.
         22    1    1    2    0    0 -0.25134443716E-01  0.51924112277E-01  0.70244112772E-01  0.90896034433E-01  0.00000000000E+00 0.  1.
          4    1    1    2  501    0  0.62878396836E+00 -0.12629054554E+01  0.24277779452E+01  0.31465544997E+01  0.14200000000E+01 0.  1.
<mgrwt>
<rscale>  0 0.20016742E+01</rscale>
<asrwt>0</asrwt>
<pdfrwt beam="1">  1       11 0.10000000E+01 0.14108307E+01</pdfrwt>
<pdfrwt beam="2">  1        4 0.99977677E+00 0.20016742E+01</pdfrwt>
<totfact> 0.59779670E-11</totfact>
</mgrwt>
</event>
<event>
 5    1  0.2021837E-012  0.2000201E+01  0.7818608E-02  0.3998844E+00
         11   -1    0    0    0    0  0.00000000000E+00  0.00000000000E+00  0.39999999658E+01  0.39999999984E+01  0.51100000000E-03 0.  1.
          4   -1    0    0  501    0 -0.00000000000E+00 -0.00000000000E+00  0.23895203217E+00  0.14399646085E+01  0.14200000000E+01 0.  1.
         11    1    1    2    0    0  0.22269288585E+00 -0.10638857898E+01  0.13327161917E+01  0.17197609729E+01  0.51100000000E-03 0.  1.
         22    1    1    2    0    0  0.67153164565E-01 -0.31466156448E+00  0.37681095450E+00  0.49548758118E+00  0.00000000000E+00 0.  1.
          4    1    1    2  501    0 -0.28984605042E+00  0.13785473543E+01  0.25294248518E+01  0.32247160529E+01  0.14200000000E+01 0.  1.
<mgrwt>
<rscale>  0 0.20002009E+01</rscale>
<asrwt>0</asrwt>
<pdfrwt beam="1">  1       11 0.10000000E+01 0.14088453E+01</pdfrwt>
<pdfrwt beam="2">  1        4 0.99756066E+00 0.20002009E+01</pdfrwt>
<totfact> 0.58580718E-10</totfact>
</mgrwt>
</event>
<event>
 5    1  0.2021837E-012  0.2000235E+01  0.7818608E-02  0.3998801E+00
         11   -1    0    0    0    0  0.00000000000E+00  0.00000000000E+00  0.39999999629E+01  0.39999999955E+01  0.51100000000E-03 0.  1.
          4   -1    0    0  501    0 -0.00000000000E+00 -0.00000000000E+00  0.23858460411E+00  0.14399036820E+01  0.14200000000E+01 0.  1.
         11    1    1    2    0    0  0.91520441931E+00  0.10548834162E+01  0.17961616392E+01  0.22752087918E+01  0.51100000000E-03 0.  1.
         22    1    1    2    0    0  0.81868994688E-02  0.90186225679E-02  0.15655362824E-01  0.19835605891E-01  0.00000000000E+00 0.  1.
          4    1    1    2  501    0 -0.92339131877E+00 -0.10639020387E+01  0.24267675649E+01  0.31448592798E+01  0.14200000000E+01 0.  1.
<mgrwt>
<rscale>  0 0.20002348E+01</rscale>
<asrwt>0</asrwt>
<pdfrwt beam="1">  1       11 0.10000000E+01 0.14087398E+01</pdfrwt>
<pdfrwt beam="2">  1        4 0.99777108E+00 0.20002348E+01</pdfrwt>
<totfact> 0.54078660E-10</totfact>
</mgrwt>
</event>
<event>
 5    1  0.2021837E-012  0.2000683E+01  0.7818608E-02  0.3998234E+00
         11   -1    0    0    0    0  0.00000000000E+00  0.00000000000E+00  0.39999999573E+01  0.39999999899E+01  0.51100000000E-03 0.  1.
          4   -1    0    0  501    0 -0.00000000000E+00 -0.00000000000E+00  0.23740131756E+00  0.14397080904E+01  0.14200000000E+01 0.  1.
         11    1    1    2    0    0  0.12326231645E+01  0.49399803364E+00  0.17049035621E+01  0.21610391806E+01  0.51100000000E-03 0.  1.
         22    1    1    2    0    0  0.73369687117E-01  0.35826254930E-01  0.98005279898E-01  0.12756044221E+00  0.00000000000E+00 0. -1.
          4    1    1    2  501    0 -0.13059928517E+01 -0.52982428857E+00  0.24344924329E+01  0.31511084575E+01  0.14200000000E+01 0. -1.
<mgrwt>
<rscale>  0 0.20006827E+01</rscale>
<asrwt>0</asrwt>
<pdfrwt beam="1">  1       11 0.10000000E+01 0.14096836E+01</pdfrwt>
<pdfrwt beam="2">  1        4 0.99844916E+00 0.20006827E+01</pdfrwt>
<totfact> 0.38904248E-10</totfact>
</mgrwt>
</event>
<event>
 5    1  0.2021837E-012  0.2000561E+01  0.7818608E-02  0.3998387E+00
         11   -1    0    0    0    0  0.00000000000E+00  0.00000000000E+00  0.39999999520E+01  0.39999999847E+01  0.51100000000E-03 0.  1.
         -4   -1    0    0    0  501 -0.00000000000E+00 -0.00000000000E+00  0.23787377693E+00  0.14397860722E+01  0.14200000000E+01 0.  1.
         11    1    1    2    0    0  0.37654185120E+00 -0.13142400747E+01  0.16438448534E+01  0.21380451124E+01  0.51100000000E-03 0.  1.
         22    1    1    2    0    0  0.12370133464E-01 -0.40231283957E-01  0.51383507011E-01  0.66421692266E-01  0.00000000000E+00 0.  1.
         -4    1    1    2    0  501 -0.38891198466E+00  0.13544713587E+01  0.25426453686E+01  0.32353192522E+01  0.14200000000E+01 0.  1.
<mgrwt>
<rscale>  0 0.20005612E+01</rscale>
<asrwt>0</asrwt>
<pdfrwt beam="1">  1       11 0.10000000E+01 0.14092114E+01</pdfrwt>
<pdfrwt beam="2">  1       -4 0.99817834E+00 0.20005612E+01</pdfrwt>
<totfact> 0.45096003E-10</totfact>
</mgrwt>
</event>
<event>
 5    1  0.2021837E-012  0.2000161E+01  0.7818608E-02  0.3998895E+00
         11   -1    0    0    0    0  0.00000000000E+00  0.00000000000E+00  0.39999999482E+01  0.39999999809E+01  0.51100000000E-03 0.  1.
          4   -1    0    0  501    0 -0.00000000000E+00 -0.00000000000E+00  0.23962905491E+00  0.14400771104E+01  0.14200000000E+01 0.  1.
         11    1    1    2    0    0 -0.95619829268E+00 -0.93973240021E+00  0.16693304135E+01  0.21410456440E+01  0.51100000000E-03 0.  1.
         22    1    1    2    0    0 -0.47676353815E-01 -0.48437917896E-01  0.85949038615E-01  0.10957419332E+00  0.00000000000E+00 0.  1.
          4    1    1    2  501    0  0.10038746465E+01  0.98817031811E+00  0.24843495510E+01  0.31894572540E+01  0.14200000000E+01 0.  1.
<mgrwt>
<rscale>  0 0.20001612E+01</rscale>
<asrwt>0</asrwt>
<pdfrwt beam="1">  1       11 0.10000000E+01 0.14086461E+01</pdfrwt>
<pdfrwt beam="2">  1        4 0.99717310E+00 0.20001612E+01</pdfrwt>
<totfact> 0.66620320E-10</totfact>
</mgrwt>
</event>
<event>
 5    1  0.2021837E-012  0.2000704E+01  0.7818608E-02  0.3998207E+00
         11   -1    0    0    0    0  0.00000000000E+00  0.00000000000E+00  0.39999999511E+01  0.39999999837E+01  0.51100000000E-03 0. -1.
          4   -1    0    0  501    0 -0.00000000000E+00 -0.00000000000E+00  0.23826379073E+00  0.14398505596E+01  0.14200000000E+01 0.  1.
         11    1    1    2    0    0 -0.93622118208E+00  0.57360398247E+00  0.13733859819E+01  0.17583290213E+01  0.51100000000E-03 0. -1.
         22    1    1    2    0    0 -0.26573627372E+00  0.16240757978E+00  0.39105287824E+00  0.49991433538E+00  0.00000000000E+00 0. -1.
          4    1    1    2  501    0  0.12019574558E+01 -0.73601156225E+00  0.24738248816E+01  0.31816071867E+01  0.14200000000E+01 0.  1.
<mgrwt>
<rscale>  0 0.20007036E+01</rscale>
<asrwt>0</asrwt>
<pdfrwt beam="1">  1       11 0.10000000E+01 0.14094036E+01</pdfrwt>
<pdfrwt beam="2">  1        4 0.99795486E+00 0.20007036E+01</pdfrwt>
<totfact> 0.50091173E-10</totfact>
</mgrwt>
</event>
<event>
 5    1  0.2021837E-012  0.2000266E+01  0.7818608E-02  0.3998761E+00
         11   -1    0    0    0    0  0.00000000000E+00  0.00000000000E+00  0.39999999708E+01  0.40000000035E+01  0.51100000000E-03 0. -1.
         -4   -1    0    0    0  501 -0.00000000000E+00 -0.00000000000E+00  0.23938337328E+00  0.14400362493E+01  0.14200000000E+01 0. -1.
         11    1    1    2    0    0 -0.22500864153E+00  0.11540033017E+01  0.14611570564E+01  0.18754553350E+01  0.51100000000E-03 0. -1.
         22    1    1    2    0    0 -0.45255128163E-01  0.22861107186E+00  0.28867409219E+00  0.37100374702E+00  0.00000000000E+00 0. -1.
         -4    1    1    2    0  501  0.27026376969E+00 -0.13826143736E+01  0.24895521955E+01  0.31935771707E+01  0.14200000000E+01 0. -1.
<mgrwt>
<rscale>  0 0.20002662E+01</rscale>
<asrwt>0</asrwt>
<pdfrwt beam="1">  1       11 0.10000000E+01 0.14087836E+01</pdfrwt>
<pdfrwt beam="2">  1       -4 0.99731372E+00 0.20002662E+01</pdfrwt>
<totfact> 0.63747453E-10</totfact>
</mgrwt>
</event>
<event>
 5    1  0.2021837E-012  0.2001130E+01  0.7818608E-02  0.3997666E+00
         11   -1    0    0    0    0  0.00000000000E+00  0.00000000000E+00  0.39999999634E+01  0.39999999961E+01  0.51100000000E-03 0. -1.
         -4   -1    0    0    0  501 -0.00000000000E+00 -0.00000000000E+00  0.23704632958E+00  0.14396495971E+01  0.14200000000E+01 0. -1.
         11    1    1    2    0    0  0.74966721807E+00  0.62412836280E+00  0.11950973374E+01  0.15426584386E+01  0.51100000000E-03 0. -1.
         22    1    1    2    0    0  0.33289399118E+00  0.27930031097E+00  0.52797939454E+00  0.68380502640E+00  0.00000000000E+00 0. -1.
         -4    1    1    2    0  501 -0.10825612093E+01 -0.90342867376E+00  0.25139695610E+01  0.32131861282E+01  0.14200000000E+01 0. -1.
<mgrwt>
<rscale>  0 0.20011302E+01</rscale>
<asrwt>0</asrwt>
<pdfrwt beam="1">  1       11 0.10000000E+01 0.14100171E+01</pdfrwt>
<pdfrwt beam="2">  1       -4 0.99865271E+00 0.20011302E+01</pdfrwt>
<totfact> 0.34150723E-10</totfact>
</mgrwt>
</event>
<event>
 5    1  0.2021837E-012  0.2001625E+01  0.7818608E-02  0.3997040E+00
         11   -1    0    0    0    0  0.00000000000E+00  0.00000000000E+00  0.39999999602E+01  0.39999999928E+01  0.51100000000E-03 0. -1.
          4   -1    0    0  501    0 -0.00000000000E+00 -0.00000000000E+00  0.23596233426E+00  0.14394715083E+01  0.14200000000E+01 0.  1.
         11    1    1    2    0    0 -0.12277470568E+01  0.64889898975E+00  0.17372359166E+01  0.22240552209E+01  0.51100000000E-03 0. -1.
         22    1    1    2    0    0 -0.19201557903E-01  0.10813089901E-01  0.28536363992E-01  0.36054775121E-01  0.00000000000E+00 0. -1.
          4    1    1    2  501    0  0.12469486147E+01 -0.65971207965E+00  0.24701900138E+01  0.31793615051E+01  0.14200000000E+01 0.  1.
<mgrwt>
<rscale>  0 0.20016246E+01</rscale>
<asrwt>0</asrwt>
<pdfrwt beam="1">  1       11 0.10000000E+01 0.14107251E+01</pdfrwt>
<pdfrwt beam="2">  1        4 0.99927463E+00 0.20016246E+01</pdfrwt>
<totfact> 0.18958779E-10</totfact>
</mgrwt>
</event>
<event>
 5    1  0.2021837E-012  0.2000762E+01  0.7818608E-02  0.3998133E+00
         11   -1    0    0    0    0  0.00000000000E+00  0.00000000000E+00  0.39999999526E+01  0.39999999853E+01  0.51100000000E-03 0.  1.
         -4   -1    0    0    0  501 -0.00000000000E+00 -0.00000000000E+00  0.23807266101E+00  0.14398189441E+01  0.14200000000E+01 0.  1.
         11    1    1    2    0    0  0.11958542597E+01  0.71147980628E+00  0.17154271075E+01  0.22088371030E+01  0.51100000000E-03 0.  1.
         22    1    1    2    0    0  0.15359087954E-01  0.93614200912E-02  0.20657618895E-01  0.27391147974E-01  0.00000000000E+00 0. -1.
         -4    1    1    2    0  501 -0.12112133477E+01 -0.72084122637E+00  0.25019878872E+01  0.32035906784E+01  0.14200000000E+01 0.  1.
<mgrwt>
<rscale>  0 0.20007623E+01</rscale>
<asrwt>0</asrwt>
<pdfrwt beam="1">  1       11 0.10000000E+01 0.14095136E+01</pdfrwt>
<pdfrwt beam="2">  1       -4 0.99806437E+00 0.20007623E+01</pdfrwt>
<totfact> 0.47664607E-10</totfact>
</mgrwt>
</event>
<event>
 5    1  0.2021837E-012  0.2000240E+01  0.7818608E-02  0.3998795E+00
         11   -1    0    0    0    0  0.00000000000E+00  0.00000000000E+00  0.39999999646E+01  0.39999999972E+01  0.51100000000E-03 0.  1.
         -4   -1    0    0    0  501 -0.00000000000E+00 -0.00000000000E+00  0.23877741070E+00  0.14399356416E+01  0.14200000000E+01 0.  1.
         11    1    1    2    0    0  0.33238665255E+00 -0.22815786238E+00  0.49104978712E+00  0.63534797671E+00  0.51100000000E-03 0.  1.
         22    1    1    2    0    0  0.83216979587E+00 -0.56453933636E+00  0.12088810871E+01  0.15724518162E+01  0.00000000000E+00 0. -1.
         -4    1    1    2    0  501 -0.11645564484E+01  0.79269719874E+00  0.25388465011E+01  0.32321358459E+01  0.14200000000E+01 0.  1.
<mgrwt>
<rscale>  0 0.20002401E+01</rscale>
<asrwt>0</asrwt>
<pdfrwt beam="1">  1       11 0.10000000E+01 0.14087643E+01</pdfrwt>
<pdfrwt beam="2">  1       -4 0.99766066E+00 0.20002401E+01</pdfrwt>
<totfact> 0.56455026E-10</totfact>
</mgrwt>
</event>
<event>
 5    1  0.2021837E-012  0.2000412E+01  0.7818608E-02  0.3998577E+00
         11   -1    0    0    0    0  0.00000000000E+00  0.00000000000E+00  0.39999999542E+01  0.39999999869E+01  0.51100000000E-03 0. -1.
         -4   -1    0    0    0  501 -0.00000000000E+00 -0.00000000000E+00  0.23861740158E+00  0.14399091167E+01  0.14200000000E+01 0. -1.
         11    1    1    2    0    0 -0.10522042266E+01  0.72086652472E+00  0.15728031242E+01  0.20249672120E+01  0.51100000000E-03 0. -1.
         22    1    1    2    0    0 -0.10430669389E+00  0.83950730799E-01  0.16706165599E+00  0.21409625987E+00  0.00000000000E+00 0.  1.
         -4    1    1    2    0  501  0.11565109205E+01 -0.80481725552E+00  0.24987525756E+01  0.32008456317E+01  0.14200000000E+01 0. -1.
<mgrwt>
<rscale>  0 0.20004120E+01</rscale>
<asrwt>0</asrwt>
<pdfrwt beam="1">  1       11 0.10000000E+01 0.14093537E+01</pdfrwt>
<pdfrwt beam="2">  1       -4 0.99775230E+00 0.20004120E+01</pdfrwt>
<totfact> 0.54495931E-10</totfact>
</mgrwt>
</event>
<event>
 5    1  0.2021837E-012  0.2000055E+01  0.7818608E-02  0.3999029E+00
         11   -1    0    0    0    0  0.00000000000E+00  0.00000000000E+00  0.39999999552E+01  0.39999999879E+01  0.51100000000E-03 0.  1.
          4   -1    0    0  501    0 -0.00000000000E+00 -0.00000000000E+00  0.23928587469E+00  0.14400200449E+01  0.14200000000E+01 0.  1.
         11    1    1    2    0    0 -0.73161731110E-01  0.12830530794E+01  0.15902610047E+01  0.20446291028E+01  0.51100000000E-03 0.  1.
         22    1    1    2    0    0 -0.11937483344E-01  0.12285545015E+00  0.13721734568E+00  0.18456588281E+00  0.00000000000E+00 0.  1.
          4    1    1    2  501    0  0.85099214454E-01 -0.14059085296E+01  0.25118074795E+01  0.32108250472E+01  0.14200000000E+01 0.  1.
<mgrwt>
<rscale>  0 0.20000552E+01</rscale>
<asrwt>0</asrwt>
<pdfrwt beam="1">  1       11 0.10000000E+01 0.14089467E+01</pdfrwt>
<pdfrwt beam="2">  1        4 0.99736953E+00 0.20000552E+01</pdfrwt>
<totfact> 0.62577390E-10</totfact>
</mgrwt>
</event>
<event>
 5    1  0.2021837E-012  0.2000523E+01  0.7818608E-02  0.3998436E+00
         11   -1    0    0    0    0  0.00000000000E+00  0.00000000000E+00  0.39999999557E+01  0.39999999883E+01  0.51100000000E-03 0.  1.
          4   -1    0    0  501    0 -0.00000000000E+00 -0.00000000000E+00  0.23816656466E+00  0.14398344740E+01  0.14200000000E+01 0.  1.
         11    1    1    2    0    0  0.70992601511E-01  0.41614006077E+00  0.54035235293E+00  0.68570651600E+00  0.51100000000E-03 0.  1.
         22    1    1    2    0    0  0.17773718239E+00  0.97088020984E+00  0.12594167550E+01  0.16001029500E+01  0.00000000000E+00 0. -1.
          4    1    1    2  501    0 -0.24872978391E+00 -0.13870202706E+01  0.24383974124E+01  0.31540249963E+01  0.14200000000E+01 0.  1.
<mgrwt>
<rscale>  0 0.20005229E+01</rscale>
<asrwt>0</asrwt>
<pdfrwt beam="1">  1       11 0.10000000E+01 0.14091686E+01</pdfrwt>
<pdfrwt beam="2">  1        4 0.99801056E+00 0.20005229E+01</pdfrwt>
<totfact> 0.48848330E-10</totfact>
</mgrwt>
</event>
<event>
 5    1  0.2021837E-012  0.2000503E+01  0.7818608E-02  0.3998462E+00
         11   -1    0    0    0    0  0.00000000000E+00  0.00000000000E+00  0.39999999560E+01  0.39999999886E+01  0.51100000000E-03 0. -1.
          4   -1    0    0  501    0 -0.00000000000E+00 -0.00000000000E+00  0.23879518594E+00  0.14399385893E+01  0.14200000000E+01 0. -1.
         11    1    1    2    0    0  0.49315236483E+00  0.12522508013E+01  0.16773435668E+01  0.21505378459E+01  0.51100000000E-03 0. -1.
         22    1    1    2    0    0  0.22872802945E-01  0.58981214549E-01  0.78106278183E-01  0.10051138978E+00  0.00000000000E+00 0. -1.
          4    1    1    2  501    0 -0.51602516777E+00 -0.13112320159E+01  0.24833452970E+01  0.31888893423E+01  0.14200000000E+01 0. -1.
<mgrwt>
<rscale>  0 0.20005028E+01</rscale>
<asrwt>0</asrwt>
<pdfrwt beam="1">  1       11 0.10000000E+01 0.14091198E+01</pdfrwt>
<pdfrwt beam="2">  1        4 0.99765048E+00 0.20005028E+01</pdfrwt>
<totfact> 0.56689803E-10</totfact>
</mgrwt>
</event>
<event>
 5    1  0.2021837E-012  0.2000867E+01  0.7818608E-02  0.3997999E+00
         11   -1    0    0    0    0  0.00000000000E+00  0.00000000000E+00  0.39999999573E+01  0.39999999900E+01  0.51100000000E-03 0. -1.
          4   -1    0    0  501    0 -0.00000000000E+00 -0.00000000000E+00  0.23663271284E+00  0.14395815506E+01  0.14200000000E+01 0. -1.
         11    1    1    2    0    0 -0.11350072657E+01 -0.63418246229E-01  0.14697343258E+01  0.18580588302E+01  0.51100000000E-03 0. -1.
         22    1    1    2    0    0 -0.27232811599E+00 -0.17062741868E-01  0.35370754781E+00  0.44672448925E+00  0.00000000000E+00 0. -1.
          4    1    1    2  501    0  0.14073353817E+01  0.80480988097E-01  0.24131907966E+01  0.31347982211E+01  0.14200000000E+01 0. -1.
<mgrwt>
<rscale>  0 0.20008673E+01</rscale>
<asrwt>0</asrwt>
<pdfrwt beam="1">  1       11 0.10000000E+01 0.14096403E+01</pdfrwt>
<pdfrwt beam="2">  1        4 0.99888995E+00 0.20008673E+01</pdfrwt>
<totfact> 0.28453072E-10</totfact>
</mgrwt>
</event>
<event>
 5    1  0.2021837E-012  0.2000165E+01  0.7818608E-02  0.3998890E+00
         11   -1    0    0    0    0  0.00000000000E+00  0.00000000000E+00  0.39999999612E+01  0.39999999939E+01  0.51100000000E-03 0. -1.
          4   -1    0    0  501    0 -0.00000000000E+00 -0.00000000000E+00  0.23945998545E+00  0.14400489869E+01  0.14200000000E+01 0.  1.
         11    1    1    2    0    0  0.12416985143E+01  0.15007422489E+00  0.15311046674E+01  0.19770228216E+01  0.51100000000E-03 0. -1.
         22    1    1    2    0    0  0.15677420833E+00  0.18847169392E-01  0.19393451990E+00  0.25008791694E+00  0.00000000000E+00 0. -1.
          4    1    1    2  501    0 -0.13984727226E+01 -0.16892139428E+00  0.25144207594E+01  0.32129382422E+01  0.14200000000E+01 0. -1.
<mgrwt>
<rscale>  0 0.20001651E+01</rscale>
<asrwt>0</asrwt>
<pdfrwt beam="1">  1       11 0.10000000E+01 0.14086391E+01</pdfrwt>
<pdfrwt beam="2">  1        4 0.99726987E+00 0.20001651E+01</pdfrwt>
<totfact> 0.64643005E-10</totfact>
</mgrwt>
</event>
