<event>
 5    1  0.1537976E+002  0.1392430E+01  0.7818608E-02  0.3619084E+00
         11   -1    0    0    0    0  0.00000000000E+00  0.00000000000E+00  0.39999999674E+01  0.40000000000E+01  0.51100000000E-03 0. -1.
    9000002   -1    0    0    0    0 -0.00000000000E+00 -0.00000000000E+00  0.00000000000E+00  0.93800000000E+00  0.93800000000E+00 0. -1.
         11    1    1    2    0    0 -0.31939842310E+00  0.75378514129E+00  0.28644283015E+01  0.29791201968E+01  0.51100000000E-03 0. -1.
    9000002    1    1    2    0    0  0.21484454555E+00 -0.41919792346E+00  0.36322080802E+00  0.11107017751E+01  0.93800000000E+00 0. -1.
         22    1    1    2    0    0  0.10455387756E+00 -0.33458721783E+00  0.77235085788E+00  0.84817802808E+00  0.00000000000E+00 0. -1.
</event>
<event>
 5    1  0.1537976E+002  0.1598257E+01  0.7818608E-02  0.3355257E+00
         11   -1    0    0    0    0  0.00000000000E+00  0.00000000000E+00  0.39999999674E+01  0.40000000000E+01  0.51100000000E-03 0. -1.
    9000002   -1    0    0    0    0 -0.00000000000E+00 -0.00000000000E+00  0.00000000000E+00  0.93800000000E+00  0.93800000000E+00 0. -1.
         11    1    1    2    0    0 -0.37189020924E-01 -0.46636660664E-01  0.11539337544E+01  0.11554745225E+01  0.51100000000E-03 0. -1.
    9000002    1    1    2    0    0  0.22249570896E-01  0.25424224539E+00  0.44373842226E-01  0.97311212130E+00  0.93800000000E+00 0. -1.
         22    1    1    2    0    0  0.14939450027E-01 -0.20760558473E+00  0.28016923707E+01  0.28094133562E+01  0.00000000000E+00 0. -1.
</event>
<event>
 5    1  0.1537976E+002  0.1599663E+01  0.7818608E-02  0.3353729E+00
         11   -1    0    0    0    0  0.00000000000E+00  0.00000000000E+00  0.39999999674E+01  0.40000000000E+01  0.51100000000E-03 0.  1.
    9000002   -1    0    0    0    0 -0.00000000000E+00 -0.00000000000E+00  0.00000000000E+00  0.93800000000E+00  0.93800000000E+00 0. -1.
         11    1    1    2    0    0 -0.14997619757E-01  0.47714697479E-02  0.29885765294E+00  0.29927220613E+00  0.51100000000E-03 0.  1.
    9000002    1    1    2    0    0  0.22748157108E+00 -0.50801065348E-01  0.36055630040E-01  0.96719833637E+00  0.93800000000E+00 0. -1.
         22    1    1    2    0    0 -0.21248395132E+00  0.46029595601E-01  0.36650866844E+01  0.36715294575E+01  0.00000000000E+00 0.  1.
</event>
<event>
 5    1  0.1537976E+002  0.1599656E+01  0.7818608E-02  0.3353737E+00
         11   -1    0    0    0    0  0.00000000000E+00  0.00000000000E+00  0.39999999674E+01  0.40000000000E+01  0.51100000000E-03 0.  1.
    9000002   -1    0    0    0    0 -0.00000000000E+00 -0.00000000000E+00  0.00000000000E+00  0.93800000000E+00  0.93800000000E+00 0.  1.
         11    1    1    2    0    0  0.87546536386E-02  0.41634347837E-01  0.67726440025E+00  0.67859958138E+00  0.51100000000E-03 0.  1.
    9000002    1    1    2    0    0 -0.68530983082E-01 -0.26005953789E+00  0.48135459261E-01  0.97697926351E+00  0.93800000000E+00 0.  1.
         22    1    1    2    0    0  0.59776329444E-01  0.21842519005E+00  0.32746001079E+01  0.32824211551E+01  0.00000000000E+00 0.  1.
</event>
<event>
 5    1  0.1537976E+002  0.1599670E+01  0.7818608E-02  0.3353722E+00
         11   -1    0    0    0    0  0.00000000000E+00  0.00000000000E+00  0.39999999674E+01  0.40000000000E+01  0.51100000000E-03 0. -1.
    9000002   -1    0    0    0    0 -0.00000000000E+00 -0.00000000000E+00  0.00000000000E+00  0.93800000000E+00  0.93800000000E+00 0.  1.
         11    1    1    2    0    0  0.66770788562E-01 -0.30376389809E-01  0.68175313323E+00  0.68568845626E+00  0.51100000000E-03 0. -1.
    9000002    1    1    2    0    0 -0.38073447374E+00  0.18661145782E+00  0.12166041216E+00  0.10365461068E+01  0.93800000000E+00 0.  1.
         22    1    1    2    0    0  0.31396368518E+00 -0.15623506801E+00  0.31965864220E+01  0.32157654369E+01  0.00000000000E+00 0. -1.
</event>
<event>
 5    1  0.1537976E+002  0.1581467E+01  0.7818608E-02  0.3373727E+00
         11   -1    0    0    0    0  0.00000000000E+00  0.00000000000E+00  0.39999999674E+01  0.40000000000E+01  0.51100000000E-03 0. -1.
    9000002   -1    0    0    0    0 -0.00000000000E+00 -0.00000000000E+00  0.00000000000E+00  0.93800000000E+00  0.93800000000E+00 0.  1.
         11    1    1    2    0    0  0.14930602197E+00 -0.82465096187E-01  0.59039306656E+00  0.61453804963E+00  0.51100000000E-03 0. -1.
    9000002    1    1    2    0    0 -0.23704382971E+00  0.31881934115E+00  0.12170713200E+00  0.10259104130E+01  0.93800000000E+00 0.  1.
         22    1    1    2    0    0  0.87737807733E-01 -0.23635424496E+00  0.32878997688E+01  0.32975515374E+01  0.00000000000E+00 0. -1.
</event>
<event>
 5    1  0.1537976E+002  0.1521720E+01  0.7818608E-02  0.3442969E+00
         11   -1    0    0    0    0  0.00000000000E+00  0.00000000000E+00  0.39999999674E+01  0.40000000000E+01  0.51100000000E-03 0. -1.
    9000002   -1    0    0    0    0 -0.00000000000E+00 -0.00000000000E+00  0.00000000000E+00  0.93800000000E+00  0.93800000000E+00 0.  1.
         11    1    1    2    0    0  0.19360104176E+00 -0.22437793251E+00  0.13725070433E+01  0.14041376945E+01  0.51100000000E-03 0. -1.
    9000002    1    1    2    0    0  0.13347110993E+00  0.34840852234E-01  0.72282048850E-01  0.95084021621E+00  0.93800000000E+00 0.  1.
         22    1    1    2    0    0 -0.32707215168E+00  0.18953708028E+00  0.25552108752E+01  0.25830220893E+01  0.00000000000E+00 0. -1.
</event>
<event>
 5    1  0.1537976E+002  0.1599672E+01  0.7818608E-02  0.3353719E+00
         11   -1    0    0    0    0  0.00000000000E+00  0.00000000000E+00  0.39999999674E+01  0.40000000000E+01  0.51100000000E-03 0.  1.
    9000002   -1    0    0    0    0 -0.00000000000E+00 -0.00000000000E+00  0.00000000000E+00  0.93800000000E+00  0.93800000000E+00 0. -1.
         11    1    1    2    0    0  0.23841975140E-01 -0.17270493079E-02  0.34369451488E+00  0.34452518508E+00  0.51100000000E-03 0.  1.
    9000002    1    1    2    0    0 -0.26417414276E+00  0.32591422137E-01  0.47129046070E-01  0.97617381930E+00  0.93800000000E+00 0. -1.
         22    1    1    2    0    0  0.24033216762E+00 -0.30864372829E-01  0.36091764064E+01  0.36173009956E+01  0.00000000000E+00 0.  1.
</event>
<event>
 5    1  0.1537976E+002  0.1599676E+01  0.7818608E-02  0.3353715E+00
         11   -1    0    0    0    0  0.00000000000E+00  0.00000000000E+00  0.39999999674E+01  0.40000000000E+01  0.51100000000E-03 0.  1.
    9000002   -1    0    0    0    0 -0.00000000000E+00 -0.00000000000E+00  0.00000000000E+00  0.93800000000E+00  0.93800000000E+00 0.  1.
         11    1    1    2    0    0  0.34071164344E+00 -0.18167918398E+00  0.19730190949E+01  0.20104468060E+01  0.51100000000E-03 0.  1.
    9000002    1    1    2    0    0 -0.62945690713E+00  0.33424863499E+00  0.36427150335E+00  0.12330757787E+01  0.93800000000E+00 0.  1.
         22    1    1    2    0    0  0.28874526369E+00 -0.15256945101E+00  0.16627093691E+01  0.16944774153E+01  0.00000000000E+00 0.  1.
</event>
<event>
 5    1  0.1537976E+002  0.1599676E+01  0.7818608E-02  0.3353716E+00
         11   -1    0    0    0    0  0.00000000000E+00  0.00000000000E+00  0.39999999674E+01  0.40000000000E+01  0.51100000000E-03 0.  1.
    9000002   -1    0    0    0    0 -0.00000000000E+00 -0.00000000000E+00  0.00000000000E+00  0.93800000000E+00  0.93800000000E+00 0. -1.
         11    1    1    2    0    0 -0.21909949766E-01  0.13329116649E-01  0.39866195445E+00  0.39948632805E+00  0.51100000000E-03 0.  1.
    9000002    1    1    2    0    0  0.22206994961E+00 -0.12634084960E+00  0.43382463262E-01  0.97314084845E+00  0.93800000000E+00 0. -1.
         22    1    1    2    0    0 -0.20015999984E+00  0.11301173296E+00  0.35579555496E+01  0.35653728235E+01  0.00000000000E+00 0.  1.
</event>
<event>
 5    1  0.1537976E+002  0.1599655E+01  0.7818608E-02  0.3353738E+00
         11   -1    0    0    0    0  0.00000000000E+00  0.00000000000E+00  0.39999999674E+01  0.40000000000E+01  0.51100000000E-03 0. -1.
    9000002   -1    0    0    0    0 -0.00000000000E+00 -0.00000000000E+00  0.00000000000E+00  0.93800000000E+00  0.93800000000E+00 0. -1.
         11    1    1    2    0    0 -0.48879851594E+00 -0.14420626789E+00  0.22428192226E+01  0.22999908181E+01  0.51100000000E-03 0. -1.
    9000002    1    1    2    0    0  0.77508150481E+00  0.22862644531E+00  0.48239353731E+00  0.13287471225E+01  0.93800000000E+00 0. -1.
         22    1    1    2    0    0 -0.28628298886E+00 -0.84420177426E-01  0.12747872074E+01  0.13092620594E+01  0.00000000000E+00 0.  1.
</event>
<event>
 5    1  0.1537976E+002  0.1599621E+01  0.7818608E-02  0.3353774E+00
         11   -1    0    0    0    0  0.00000000000E+00  0.00000000000E+00  0.39999999674E+01  0.40000000000E+01  0.51100000000E-03 0. -1.
    9000002   -1    0    0    0    0 -0.00000000000E+00 -0.00000000000E+00  0.00000000000E+00  0.93800000000E+00  0.93800000000E+00 0.  1.
         11    1    1    2    0    0 -0.19569988496E-01 -0.17728584636E-01  0.45508086958E+00  0.45584662568E+00  0.51100000000E-03 0. -1.
    9000002    1    1    2    0    0  0.13146619963E+00  0.18529837827E+00  0.34275097358E-01  0.96573165679E+00  0.93800000000E+00 0.  1.
         22    1    1    2    0    0 -0.11189621113E+00 -0.16756979364E+00  0.35106440004E+01  0.35164217175E+01  0.00000000000E+00 0. -1.
</event>
<event>
 5    1  0.1537976E+002  0.1599599E+01  0.7818608E-02  0.3353799E+00
         11   -1    0    0    0    0  0.00000000000E+00  0.00000000000E+00  0.39999999674E+01  0.40000000000E+01  0.51100000000E-03 0.  1.
    9000002   -1    0    0    0    0 -0.00000000000E+00 -0.00000000000E+00  0.00000000000E+00  0.93800000000E+00  0.93800000000E+00 0.  1.
         11    1    1    2    0    0 -0.44420431847E-02 -0.78275615659E-01  0.10630783593E+01  0.10659656012E+01  0.51100000000E-03 0.  1.
    9000002    1    1    2    0    0 -0.17042403493E-01  0.28036956809E+00  0.52603867198E-01  0.98056550269E+00  0.93800000000E+00 0.  1.
         22    1    1    2    0    0  0.21484446678E-01 -0.20209395243E+00  0.28843177409E+01  0.28914688961E+01  0.00000000000E+00 0.  1.
</event>
<event>
 5    1  0.1537976E+002  0.1555196E+01  0.7818608E-02  0.3403475E+00
         11   -1    0    0    0    0  0.00000000000E+00  0.00000000000E+00  0.39999999674E+01  0.40000000000E+01  0.51100000000E-03 0. -1.
    9000002   -1    0    0    0    0 -0.00000000000E+00 -0.00000000000E+00  0.00000000000E+00  0.93800000000E+00  0.93800000000E+00 0.  1.
         11    1    1    2    0    0  0.18479072355E+00 -0.24744149193E+00  0.20187214358E+01  0.20422074821E+01  0.51100000000E-03 0. -1.
    9000002    1    1    2    0    0 -0.19483580768E-01  0.12445269124E+00  0.43846954413E-01  0.94743582246E+00  0.93800000000E+00 0.  1.
         22    1    1    2    0    0 -0.16530714278E+00  0.12298880069E+00  0.19374315772E+01  0.19483566954E+01  0.00000000000E+00 0. -1.
</event>
<event>
 5    1  0.1537976E+002  0.1581437E+01  0.7818608E-02  0.3373761E+00
         11   -1    0    0    0    0  0.00000000000E+00  0.00000000000E+00  0.39999999674E+01  0.40000000000E+01  0.51100000000E-03 0. -1.
    9000002   -1    0    0    0    0 -0.00000000000E+00 -0.00000000000E+00  0.00000000000E+00  0.93800000000E+00  0.93800000000E+00 0.  1.
         11    1    1    2    0    0  0.82770556028E-01  0.28144850869E-01  0.42349367685E+00  0.43242369619E+00  0.51100000000E-03 0. -1.
    9000002    1    1    2    0    0  0.10398612013E+00  0.74120059324E-01  0.24269128242E-01  0.94696350878E+00  0.93800000000E+00 0.  1.
         22    1    1    2    0    0 -0.18675667615E+00 -0.10226491019E+00  0.35522371623E+01  0.35586127950E+01  0.00000000000E+00 0. -1.
</event>
<event>
 5    1  0.1537976E+002  0.1599667E+01  0.7818608E-02  0.3353725E+00
         11   -1    0    0    0    0  0.00000000000E+00  0.00000000000E+00  0.39999999674E+01  0.40000000000E+01  0.51100000000E-03 0. -1.
    9000002   -1    0    0    0    0 -0.00000000000E+00 -0.00000000000E+00  0.00000000000E+00  0.93800000000E+00  0.93800000000E+00 0.  1.
         11    1    1    2    0    0  0.59725279483E-01 -0.16041533657E-01  0.60502160605E+00  0.60817418945E+00  0.51100000000E-03 0. -1.
    9000002    1    1    2    0    0 -0.36841147570E+00  0.97119054784E-01  0.97689164358E-01  0.10171264912E+01  0.93800000000E+00 0.  1.
         22    1    1    2    0    0  0.30868619622E+00 -0.81077521127E-01  0.32972891970E+01  0.33126993194E+01  0.00000000000E+00 0. -1.
</event>
<event>
 5    1  0.1537976E+002  0.1585312E+01  0.7818608E-02  0.3369461E+00
         11   -1    0    0    0    0  0.00000000000E+00  0.00000000000E+00  0.39999999674E+01  0.40000000000E+01  0.51100000000E-03 0. -1.
    9000002   -1    0    0    0    0 -0.00000000000E+00 -0.00000000000E+00  0.00000000000E+00  0.93800000000E+00  0.93800000000E+00 0. -1.
         11    1    1    2    0    0 -0.23840016667E-01 -0.11158855498E-01  0.34203257098E-01  0.43162372129E-01  0.51100000000E-03 0. -1.
    9000002    1    1    2    0    0 -0.29780021998E+00  0.14703555409E+00  0.85352185582E-01  0.99871588591E+00  0.93800000000E+00 0. -1.
         22    1    1    2    0    0  0.32164023665E+00 -0.13587669859E+00  0.38804445247E+01  0.38961217420E+01  0.00000000000E+00 0. -1.
</event>
<event>
 5    1  0.1537976E+002  0.1599244E+01  0.7818608E-02  0.3354184E+00
         11   -1    0    0    0    0  0.00000000000E+00  0.00000000000E+00  0.39999999674E+01  0.40000000000E+01  0.51100000000E-03 0. -1.
    9000002   -1    0    0    0    0 -0.00000000000E+00 -0.00000000000E+00  0.00000000000E+00  0.93800000000E+00  0.93800000000E+00 0. -1.
         11    1    1    2    0    0  0.36486869998E-01 -0.25908687662E-02  0.45686794911E+00  0.45833021756E+00  0.51100000000E-03 0. -1.
    9000002    1    1    2    0    0 -0.26011180558E+00  0.14926929379E+00  0.60337724974E-01  0.98662257957E+00  0.93800000000E+00 0. -1.
         22    1    1    2    0    0  0.22362493558E+00 -0.14667842502E+00  0.34827942933E+01  0.34930472029E+01  0.00000000000E+00 0. -1.
</event>
<event>
 5    1  0.1537976E+002  0.1559655E+01  0.7818608E-02  0.3398351E+00
         11   -1    0    0    0    0  0.00000000000E+00  0.00000000000E+00  0.39999999674E+01  0.40000000000E+01  0.51100000000E-03 0. -1.
    9000002   -1    0    0    0    0 -0.00000000000E+00 -0.00000000000E+00  0.00000000000E+00  0.93800000000E+00  0.93800000000E+00 0. -1.
         11    1    1    2    0    0  0.15968962956E+00  0.14961645068E+00  0.99543502218E+00  0.10192041035E+01  0.51100000000E-03 0. -1.
    9000002    1    1    2    0    0 -0.12956665746E+00  0.67333734076E-01  0.44185871102E-01  0.95032507158E+00  0.93800000000E+00 0. -1.
         22    1    1    2    0    0 -0.30122972103E-01 -0.21695018476E+00  0.29603790741E+01  0.29684708249E+01  0.00000000000E+00 0. -1.
</event>
<event>
 5    1  0.1537976E+002  0.1599675E+01  0.7818608E-02  0.3353717E+00
         11   -1    0    0    0    0  0.00000000000E+00  0.00000000000E+00  0.39999999674E+01  0.40000000000E+01  0.51100000000E-03 0.  1.
    9000002   -1    0    0    0    0 -0.00000000000E+00 -0.00000000000E+00  0.00000000000E+00  0.93800000000E+00  0.93800000000E+00 0.  1.
         11    1    1    2    0    0  0.17788441897E+00 -0.14612623570E+00  0.15084558972E+01  0.15259210983E+01  0.51100000000E-03 0.  1.
    9000002    1    1    2    0    0 -0.44716678470E+00  0.36153124865E+00  0.22951280645E+00  0.11239141895E+01  0.93800000000E+00 0.  1.
         22    1    1    2    0    0  0.26928236573E+00 -0.21540501295E+00  0.22620312637E+01  0.22881647122E+01  0.00000000000E+00 0.  1.
</event>
<event>
 5    1  0.1537976E+002  0.1599677E+01  0.7818608E-02  0.3353714E+00
         11   -1    0    0    0    0  0.00000000000E+00  0.00000000000E+00  0.39999999674E+01  0.40000000000E+01  0.51100000000E-03 0. -1.
    9000002   -1    0    0    0    0 -0.00000000000E+00 -0.00000000000E+00  0.00000000000E+00  0.93800000000E+00  0.93800000000E+00 0. -1.
         11    1    1    2    0    0 -0.31677097057E-01 -0.16789642528E+00  0.15457162305E+01  0.15551307258E+01  0.51100000000E-03 0.  1.
    9000002    1    1    2    0    0  0.79950921757E-01  0.42135807974E+00  0.12454792058E+00  0.10388892943E+01  0.93800000000E+00 0. -1.
         22    1    1    2    0    0 -0.48273824700E-01 -0.25346165445E+00  0.23297358163E+01  0.23439799799E+01  0.00000000000E+00 0. -1.
</event>
<event>
 5    1  0.1537976E+002  0.1480583E+01  0.7818608E-02  0.3494130E+00
         11   -1    0    0    0    0  0.00000000000E+00  0.00000000000E+00  0.39999999674E+01  0.40000000000E+01  0.51100000000E-03 0. -1.
    9000002   -1    0    0    0    0 -0.00000000000E+00 -0.00000000000E+00  0.00000000000E+00  0.93800000000E+00  0.93800000000E+00 0.  1.
         11    1    1    2    0    0  0.35890497344E+00  0.16249108771E+00  0.10166634993E+01  0.10903307139E+01  0.51100000000E-03 0. -1.
    9000002    1    1    2    0    0 -0.33331845570E+00  0.35084187926E+00  0.27461701369E+00  0.10906189625E+01  0.93800000000E+00 0.  1.
         22    1    1    2    0    0 -0.25586517741E-01 -0.51333296698E+00  0.27087194543E+01  0.27570503236E+01  0.00000000000E+00 0. -1.
</event>
<event>
 5    1  0.1537976E+002  0.1599664E+01  0.7818608E-02  0.3353728E+00
         11   -1    0    0    0    0  0.00000000000E+00  0.00000000000E+00  0.39999999674E+01  0.40000000000E+01  0.51100000000E-03 0. -1.
    9000002   -1    0    0    0    0 -0.00000000000E+00 -0.00000000000E+00  0.00000000000E+00  0.93800000000E+00  0.93800000000E+00 0.  1.
         11    1    1    2    0    0 -0.30573862651E-02  0.15969216215E-01  0.22021826150E+00  0.22081826757E+00  0.51100000000E-03 0. -1.
    9000002    1    1    2    0    0  0.46320261396E-01 -0.25332027385E+00  0.44089171305E-01  0.97370662049E+00  0.93800000000E+00 0.  1.
         22    1    1    2    0    0 -0.43262875131E-01  0.23735105763E+00  0.37356925346E+01  0.37434751119E+01  0.00000000000E+00 0. -1.
</event>
<event>
 5    1  0.1537976E+002  0.1599638E+01  0.7818608E-02  0.3353756E+00
         11   -1    0    0    0    0  0.00000000000E+00  0.00000000000E+00  0.39999999674E+01  0.40000000000E+01  0.51100000000E-03 0. -1.
    9000002   -1    0    0    0    0 -0.00000000000E+00 -0.00000000000E+00  0.00000000000E+00  0.93800000000E+00  0.93800000000E+00 0. -1.
         11    1    1    2    0    0  0.19606514644E-01 -0.14193086065E-01  0.48697855468E+00  0.48757997595E+00  0.51100000000E-03 0. -1.
    9000002    1    1    2    0    0 -0.19675789542E+00  0.13030563680E+00  0.36987536146E-01  0.96793868929E+00  0.93800000000E+00 0. -1.
         22    1    1    2    0    0  0.17715138078E+00 -0.11611255073E+00  0.34760338765E+01  0.34824813348E+01  0.00000000000E+00 0. -1.
</event>
<event>
 5    1  0.1537976E+002  0.1565136E+01  0.7818608E-02  0.3392095E+00
         11   -1    0    0    0    0  0.00000000000E+00  0.00000000000E+00  0.39999999674E+01  0.40000000000E+01  0.51100000000E-03 0. -1.
    9000002   -1    0    0    0    0 -0.00000000000E+00 -0.00000000000E+00  0.00000000000E+00  0.93800000000E+00  0.93800000000E+00 0. -1.
         11    1    1    2    0    0 -0.11916869399E+00 -0.14506429162E+00  0.61337136155E+00  0.64145889550E+00  0.51100000000E-03 0. -1.
    9000002    1    1    2    0    0 -0.26531559565E+00  0.63798654077E+00  0.37972109209E+00  0.12253372186E+01  0.93800000000E+00 0. -1.
         22    1    1    2    0    0  0.38448428964E+00 -0.49292224915E+00  0.30069075137E+01  0.30712038859E+01  0.00000000000E+00 0. -1.
</event>
<event>
 5    1  0.1537976E+002  0.1599651E+01  0.7818608E-02  0.3353742E+00
         11   -1    0    0    0    0  0.00000000000E+00  0.00000000000E+00  0.39999999674E+01  0.40000000000E+01  0.51100000000E-03 0. -1.
    9000002   -1    0    0    0    0 -0.00000000000E+00 -0.00000000000E+00  0.00000000000E+00  0.93800000000E+00  0.93800000000E+00 0. -1.
         11    1    1    2    0    0 -0.18689802457E-01  0.43819369485E-01  0.70289058780E+00  0.70450328984E+00  0.51100000000E-03 0. -1.
    9000002    1    1    2    0    0  0.12470622931E+00 -0.26300546003E+00  0.56493991664E-01  0.98374747101E+00  0.93800000000E+00 0. -1.
         22    1    1    2    0    0 -0.10601642686E+00  0.21918609054E+00  0.32406153879E+01  0.32497492391E+01  0.00000000000E+00 0. -1.
</event>
<event>
 5    1  0.1537976E+002  0.1599517E+01  0.7818608E-02  0.3353888E+00
         11   -1    0    0    0    0  0.00000000000E+00  0.00000000000E+00  0.39999999674E+01  0.40000000000E+01  0.51100000000E-03 0. -1.
    9000002   -1    0    0    0    0 -0.00000000000E+00 -0.00000000000E+00  0.00000000000E+00  0.93800000000E+00  0.93800000000E+00 0.  1.
         11    1    1    2    0    0 -0.33612542238E-01  0.11001865359E+00  0.11378750342E+01  0.11436755491E+01  0.51100000000E-03 0. -1.
    9000002    1    1    2    0    0  0.16200531604E+00 -0.37863030368E+00  0.11471414002E+00  0.10308297450E+01  0.93800000000E+00 0.  1.
         22    1    1    2    0    0 -0.12839277380E+00  0.26861165009E+00  0.27474107931E+01  0.27634947058E+01  0.00000000000E+00 0. -1.
</event>
<event>
 5    1  0.1537976E+002  0.1599314E+01  0.7818608E-02  0.3354108E+00
         11   -1    0    0    0    0  0.00000000000E+00  0.00000000000E+00  0.39999999674E+01  0.40000000000E+01  0.51100000000E-03 0.  1.
    9000002   -1    0    0    0    0 -0.00000000000E+00 -0.00000000000E+00  0.00000000000E+00  0.93800000000E+00  0.93800000000E+00 0. -1.
         11    1    1    2    0    0 -0.22373695551E+00 -0.18711540549E+00  0.16761787071E+01  0.17013658394E+01  0.51100000000E-03 0.  1.
    9000002    1    1    2    0    0  0.52990176704E+00  0.37777875572E+00  0.29928927141E+00  0.11802248680E+01  0.93800000000E+00 0. -1.
         22    1    1    2    0    0 -0.30616481153E+00 -0.19066335022E+00  0.20245319889E+01  0.20564092926E+01  0.00000000000E+00 0.  1.
</event>
<event>
 5    1  0.1537976E+002  0.1599676E+01  0.7818608E-02  0.3353715E+00
         11   -1    0    0    0    0  0.00000000000E+00  0.00000000000E+00  0.39999999674E+01  0.40000000000E+01  0.51100000000E-03 0.  1.
    9000002   -1    0    0    0    0 -0.00000000000E+00 -0.00000000000E+00  0.00000000000E+00  0.93800000000E+00  0.93800000000E+00 0. -1.
         11    1    1    2    0    0 -0.39834630850E-01 -0.29619548480E-01  0.50164168760E+00  0.50409201474E+00  0.51100000000E-03 0.  1.
    9000002    1    1    2    0    0  0.30964998514E+00  0.23562285812E+00  0.10198348343E+00  0.10206105405E+01  0.93800000000E+00 0. -1.
         22    1    1    2    0    0 -0.26981535429E+00 -0.20600330964E+00  0.33963747963E+01  0.34132974447E+01  0.00000000000E+00 0.  1.
</event>
<event>
 5    1  0.1537976E+002  0.1599677E+01  0.7818608E-02  0.3353714E+00
         11   -1    0    0    0    0  0.00000000000E+00  0.00000000000E+00  0.39999999674E+01  0.40000000000E+01  0.51100000000E-03 0. -1.
    9000002   -1    0    0    0    0 -0.00000000000E+00 -0.00000000000E+00  0.00000000000E+00  0.93800000000E+00  0.93800000000E+00 0.  1.
         11    1    1    2    0    0  0.27213702907E-01  0.20019737684E+00  0.18835480683E+01  0.18943529665E+01  0.51100000000E-03 0. -1.
    9000002    1    1    2    0    0 -0.55053862399E-01 -0.41319256780E+00  0.11746400340E+00  0.10331509173E+01  0.93800000000E+00 0.  1.
         22    1    1    2    0    0  0.27840159492E-01  0.21299519096E+00  0.19989878957E+01  0.20104961161E+01  0.00000000000E+00 0. -1.
</event>
<event>
 5    1  0.1537976E+002  0.1599620E+01  0.7818608E-02  0.3353776E+00
         11   -1    0    0    0    0  0.00000000000E+00  0.00000000000E+00  0.39999999674E+01  0.40000000000E+01  0.51100000000E-03 0. -1.
    9000002   -1    0    0    0    0 -0.00000000000E+00 -0.00000000000E+00  0.00000000000E+00  0.93800000000E+00  0.93800000000E+00 0.  1.
         11    1    1    2    0    0  0.18938471395E-01 -0.25591321582E+00  0.17912754803E+01  0.18095630265E+01  0.51100000000E-03 0. -1.
    9000002    1    1    2    0    0 -0.46001841040E-01  0.52553121732E+00  0.19147809958E+00  0.10930723180E+01  0.93800000000E+00 0.  1.
         22    1    1    2    0    0  0.27063369644E-01 -0.26961800151E+00  0.20172463875E+01  0.20353646555E+01  0.00000000000E+00 0. -1.
</event>
<event>
 5    1  0.1537976E+002  0.1596729E+01  0.7818608E-02  0.3356921E+00
         11   -1    0    0    0    0  0.00000000000E+00  0.00000000000E+00  0.39999999674E+01  0.40000000000E+01  0.51100000000E-03 0.  1.
    9000002   -1    0    0    0    0 -0.00000000000E+00 -0.00000000000E+00  0.00000000000E+00  0.93800000000E+00  0.93800000000E+00 0.  1.
         11    1    1    2    0    0  0.22413984357E-01  0.12052098616E+00  0.14872449021E+01  0.14922886298E+01  0.51100000000E-03 0.  1.
    9000002    1    1    2    0    0  0.96046050442E-01 -0.37701858829E+00  0.10439755324E+00  0.10208382383E+01  0.93800000000E+00 0.  1.
         22    1    1    2    0    0 -0.11846003480E+00  0.25649760213E+00  0.24083575120E+01  0.24248731318E+01  0.00000000000E+00 0.  1.
</event>
<event>
 5    1  0.1537976E+002  0.1599047E+01  0.7818608E-02  0.3354398E+00
         11   -1    0    0    0    0  0.00000000000E+00  0.00000000000E+00  0.39999999674E+01  0.40000000000E+01  0.51100000000E-03 0. -1.
    9000002   -1    0    0    0    0 -0.00000000000E+00 -0.00000000000E+00  0.00000000000E+00  0.93800000000E+00  0.93800000000E+00 0. -1.
         11    1    1    2    0    0  0.72607923440E-02 -0.43434224570E-01  0.35850623184E+00  0.36120109407E+00  0.51100000000E-03 0. -1.
    9000002    1    1    2    0    0 -0.35656989635E-01  0.29097226629E+00  0.57784594999E-01  0.98443859132E+00  0.93800000000E+00 0. -1.
         22    1    1    2    0    0  0.28396197291E-01 -0.24753804172E+00  0.35837091405E+01  0.35923603146E+01  0.00000000000E+00 0. -1.
</event>
<event>
 5    1  0.1537976E+002  0.1599677E+01  0.7818608E-02  0.3353714E+00
         11   -1    0    0    0    0  0.00000000000E+00  0.00000000000E+00  0.39999999674E+01  0.40000000000E+01  0.51100000000E-03 0.  1.
    9000002   -1    0    0    0    0 -0.00000000000E+00 -0.00000000000E+00  0.00000000000E+00  0.93800000000E+00  0.93800000000E+00 0.  1.
         11    1    1    2    0    0  0.35304607766E-01 -0.26466895578E-01  0.70761516660E+00  0.70898970163E+00  0.51100000000E-03 0.  1.
    9000002    1    1    2    0    0 -0.20013779440E+00  0.14882416899E+00  0.41319788962E-01  0.97147058369E+00  0.93800000000E+00 0.  1.
         22    1    1    2    0    0  0.16483318663E+00 -0.12235727341E+00  0.32510650118E+01  0.32575397147E+01  0.00000000000E+00 0.  1.
</event>
<event>
 5    1  0.1537976E+002  0.1599677E+01  0.7818608E-02  0.3353714E+00
         11   -1    0    0    0    0  0.00000000000E+00  0.00000000000E+00  0.39999999674E+01  0.40000000000E+01  0.51100000000E-03 0. -1.
    9000002   -1    0    0    0    0 -0.00000000000E+00 -0.00000000000E+00  0.00000000000E+00  0.93800000000E+00  0.93800000000E+00 0. -1.
         11    1    1    2    0    0 -0.76207213068E-01  0.45069708745E-01  0.10659635868E+01  0.10696342587E+01  0.51100000000E-03 0. -1.
    9000002    1    1    2    0    0  0.27990892756E+00 -0.16755599894E+00  0.71178772559E-01  0.99565779170E+00  0.93800000000E+00 0. -1.
         22    1    1    2    0    0 -0.20370171449E+00  0.12248629019E+00  0.28628576080E+01  0.28727079496E+01  0.00000000000E+00 0. -1.
</event>
<event>
 5    1  0.1537976E+002  0.1551189E+01  0.7818608E-02  0.3408107E+00
         11   -1    0    0    0    0  0.00000000000E+00  0.00000000000E+00  0.39999999674E+01  0.40000000000E+01  0.51100000000E-03 0.  1.
    9000002   -1    0    0    0    0 -0.00000000000E+00 -0.00000000000E+00  0.00000000000E+00  0.93800000000E+00  0.93800000000E+00 0.  1.
         11    1    1    2    0    0 -0.27731354380E-01 -0.13388857980E+00  0.27612217025E+00  0.30812155693E+00  0.51100000000E-03 0.  1.
    9000002    1    1    2    0    0  0.13631982560E+00 -0.45450965316E-01  0.50249410974E-01  0.95027253375E+00  0.93800000000E+00 0.  1.
         22    1    1    2    0    0 -0.10858847122E+00  0.17933954511E+00  0.36736283861E+01  0.36796059093E+01  0.00000000000E+00 0.  1.
</event>
<event>
 5    1  0.1537976E+002  0.1507435E+01  0.7818608E-02  0.3460394E+00
         11   -1    0    0    0    0  0.00000000000E+00  0.00000000000E+00  0.39999999674E+01  0.40000000000E+01  0.51100000000E-03 0. -1.
    9000002   -1    0    0    0    0 -0.00000000000E+00 -0.00000000000E+00  0.00000000000E+00  0.93800000000E+00  0.93800000000E+00 0. -1.
         11    1    1    2    0    0 -0.33374297946E-01 -0.35006921137E+00  0.53502233406E+00  0.64024327843E+00  0.51100000000E-03 0. -1.
    9000002    1    1    2    0    0  0.93008550667E-01  0.54359837940E+00  0.30329264954E+00  0.11295929443E+01  0.93800000000E+00 0. -1.
         22    1    1    2    0    0 -0.59634252720E-01 -0.19352916802E+00  0.31616849838E+01  0.31681637773E+01  0.00000000000E+00 0. -1.
</event>
<event>
 5    1  0.1537976E+002  0.1598456E+01  0.7818608E-02  0.3355041E+00
         11   -1    0    0    0    0  0.00000000000E+00  0.00000000000E+00  0.39999999674E+01  0.40000000000E+01  0.51100000000E-03 0. -1.
    9000002   -1    0    0    0    0 -0.00000000000E+00 -0.00000000000E+00  0.00000000000E+00  0.93800000000E+00  0.93800000000E+00 0.  1.
         11    1    1    2    0    0  0.61285517066E+00  0.80941399274E-02  0.25169552229E+01  0.25905059024E+01  0.51100000000E-03 0. -1.
    9000002    1    1    2    0    0 -0.88037086939E+00 -0.23674560776E-01  0.59066329169E+00  0.14157473209E+01  0.93800000000E+00 0.  1.
         22    1    1    2    0    0  0.26751569873E+00  0.15580420849E-01  0.89238145281E+00  0.93174677670E+00  0.00000000000E+00 0.  1.
</event>
<event>
 5    1  0.1537976E+002  0.1599676E+01  0.7818608E-02  0.3353715E+00
         11   -1    0    0    0    0  0.00000000000E+00  0.00000000000E+00  0.39999999674E+01  0.40000000000E+01  0.51100000000E-03 0. -1.
    9000002   -1    0    0    0    0 -0.00000000000E+00 -0.00000000000E+00  0.00000000000E+00  0.93800000000E+00  0.93800000000E+00 0. -1.
         11    1    1    2    0    0  0.16481515424E-02 -0.25005532720E-01  0.43664984477E+00  0.43736865586E+00  0.51100000000E-03 0. -1.
    9000002    1    1    2    0    0 -0.11024417332E-01  0.23194438238E+00  0.35772263903E-01  0.96697641603E+00  0.93800000000E+00 0. -1.
         22    1    1    2    0    0  0.93762657894E-02 -0.20693884966E+00  0.35275778587E+01  0.35336549281E+01  0.00000000000E+00 0. -1.
</event>
<event>
 5    1  0.1537976E+002  0.1518030E+01  0.7818608E-02  0.3447437E+00
         11   -1    0    0    0    0  0.00000000000E+00  0.00000000000E+00  0.39999999674E+01  0.40000000000E+01  0.51100000000E-03 0.  1.
    9000002   -1    0    0    0    0 -0.00000000000E+00 -0.00000000000E+00  0.00000000000E+00  0.93800000000E+00  0.93800000000E+00 0.  1.
         11    1    1    2    0    0 -0.22443972004E+00 -0.16047149981E+00  0.10808304087E+01  0.11154904409E+01  0.51100000000E-03 0.  1.
    9000002    1    1    2    0    0 -0.95203426299E-01 -0.64790024799E-01  0.71092712389E-01  0.94771283280E+00  0.93800000000E+00 0.  1.
         22    1    1    2    0    0  0.31964314634E+00  0.22526152461E+00  0.28480768462E+01  0.28747967263E+01  0.00000000000E+00 0.  1.
</event>
<event>
 5    1  0.1537976E+002  0.1599676E+01  0.7818608E-02  0.3353715E+00
         11   -1    0    0    0    0  0.00000000000E+00  0.00000000000E+00  0.39999999674E+01  0.40000000000E+01  0.51100000000E-03 0. -1.
    9000002   -1    0    0    0    0 -0.00000000000E+00 -0.00000000000E+00  0.00000000000E+00  0.93800000000E+00  0.93800000000E+00 0.  1.
         11    1    1    2    0    0  0.13420778695E+00 -0.36902219178E-01  0.12706180716E+01  0.12782190926E+01  0.51100000000E-03 0. -1.
    9000002    1    1    2    0    0 -0.40679891912E+00  0.11464612102E+00  0.12085213428E+00  0.10358949426E+01  0.93800000000E+00 0.  1.
         22    1    1    2    0    0  0.27259113218E+00 -0.77743901842E-01  0.26085297615E+01  0.26238859648E+01  0.00000000000E+00 0. -1.
</event>
<event>
 5    1  0.1537976E+002  0.1599674E+01  0.7818608E-02  0.3353717E+00
         11   -1    0    0    0    0  0.00000000000E+00  0.00000000000E+00  0.39999999674E+01  0.40000000000E+01  0.51100000000E-03 0.  1.
    9000002   -1    0    0    0    0 -0.00000000000E+00 -0.00000000000E+00  0.00000000000E+00  0.93800000000E+00  0.93800000000E+00 0.  1.
         11    1    1    2    0    0 -0.30090151249E-01 -0.30169904088E-01  0.59322070507E+00  0.59474928025E+00  0.51100000000E-03 0.  1.
    9000002    1    1    2    0    0  0.19183389464E+00  0.19582348369E+00  0.50018979575E-01  0.97851570157E+00  0.93800000000E+00 0.  1.
         22    1    1    2    0    0 -0.16174374339E+00 -0.16565357960E+00  0.33567602827E+01  0.33647350182E+01  0.00000000000E+00 0.  1.
</event>
<event>
 5    1  0.1537976E+002  0.1588002E+01  0.7818608E-02  0.3366489E+00
         11   -1    0    0    0    0  0.00000000000E+00  0.00000000000E+00  0.39999999674E+01  0.40000000000E+01  0.51100000000E-03 0.  1.
    9000002   -1    0    0    0    0 -0.00000000000E+00 -0.00000000000E+00  0.00000000000E+00  0.93800000000E+00  0.93800000000E+00 0. -1.
         11    1    1    2    0    0 -0.30425925996E-01  0.23225954468E-01  0.17039978954E+01  0.17044278426E+01  0.51100000000E-03 0.  1.
    9000002    1    1    2    0    0 -0.20151851239E+00 -0.17693084209E+00  0.56890909657E-01  0.97723835850E+00  0.93800000000E+00 0. -1.
         22    1    1    2    0    0  0.23194443839E+00  0.15370488762E+00  0.22391111623E+01  0.22563337989E+01  0.00000000000E+00 0. -1.
</event>
<event>
 5    1  0.1537976E+002  0.1567339E+01  0.7818608E-02  0.3389594E+00
         11   -1    0    0    0    0  0.00000000000E+00  0.00000000000E+00  0.39999999674E+01  0.40000000000E+01  0.51100000000E-03 0. -1.
    9000002   -1    0    0    0    0 -0.00000000000E+00 -0.00000000000E+00  0.00000000000E+00  0.93800000000E+00  0.93800000000E+00 0. -1.
         11    1    1    2    0    0  0.10582786574E+00  0.14952753536E+00  0.24438470050E+01  0.24507032595E+01  0.51100000000E-03 0. -1.
    9000002    1    1    2    0    0  0.10694307519E+00 -0.44659237956E-01  0.32921396663E-01  0.94570560283E+00  0.93800000000E+00 0. -1.
         22    1    1    2    0    0 -0.21277094093E+00 -0.10486829740E+00  0.15232315657E+01  0.15415911377E+01  0.00000000000E+00 0.  1.
</event>
<event>
 5    1  0.1537976E+002  0.1599664E+01  0.7818608E-02  0.3353728E+00
         11   -1    0    0    0    0  0.00000000000E+00  0.00000000000E+00  0.39999999674E+01  0.40000000000E+01  0.51100000000E-03 0. -1.
    9000002   -1    0    0    0    0 -0.00000000000E+00 -0.00000000000E+00  0.00000000000E+00  0.93800000000E+00  0.93800000000E+00 0.  1.
         11    1    1    2    0    0 -0.77087325774E-01 -0.14109862578E-01  0.10528756290E+01  0.10557882815E+01  0.51100000000E-03 0. -1.
    9000002    1    1    2    0    0  0.27655644016E+00  0.45494021832E-01  0.52321271948E-01  0.98037476820E+00  0.93800000000E+00 0.  1.
         22    1    1    2    0    0 -0.19946911438E+00 -0.31384159254E-01  0.28948030664E+01  0.29018369504E+01  0.00000000000E+00 0. -1.
</event>
<event>
 5    1  0.1537976E+002  0.1599258E+01  0.7818608E-02  0.3354169E+00
         11   -1    0    0    0    0  0.00000000000E+00  0.00000000000E+00  0.39999999674E+01  0.40000000000E+01  0.51100000000E-03 0.  1.
    9000002   -1    0    0    0    0 -0.00000000000E+00 -0.00000000000E+00  0.00000000000E+00  0.93800000000E+00  0.93800000000E+00 0. -1.
         11    1    1    2    0    0 -0.14246789570E+00  0.42786354853E+00  0.25524062143E+01  0.25919378969E+01  0.51100000000E-03 0.  1.
    9000002    1    1    2    0    0  0.22693191845E+00 -0.64024302865E+00  0.32842370223E+00  0.12037920749E+01  0.93800000000E+00 0. -1.
         22    1    1    2    0    0 -0.84464022746E-01  0.21237948011E+00  0.11191700509E+01  0.11422700283E+01  0.00000000000E+00 0.  1.
</event>
<event>
 5    1  0.1537976E+002  0.1588507E+01  0.7818608E-02  0.3365933E+00
         11   -1    0    0    0    0  0.00000000000E+00  0.00000000000E+00  0.39999999674E+01  0.40000000000E+01  0.51100000000E-03 0. -1.
    9000002   -1    0    0    0    0 -0.00000000000E+00 -0.00000000000E+00  0.00000000000E+00  0.93800000000E+00  0.93800000000E+00 0. -1.
         11    1    1    2    0    0  0.51716964032E-01  0.14736345600E+00  0.87096418688E+00  0.88485564273E+00  0.51100000000E-03 0. -1.
    9000002    1    1    2    0    0  0.81783251725E-01 -0.30430269410E+00  0.75198761437E-01  0.99236459208E+00  0.93800000000E+00 0. -1.
         22    1    1    2    0    0 -0.13350021576E+00  0.15693923810E+00  0.30538370190E+01  0.30607797652E+01  0.00000000000E+00 0. -1.
</event>
<event>
 5    1  0.1537976E+002  0.1599676E+01  0.7818608E-02  0.3353715E+00
         11   -1    0    0    0    0  0.00000000000E+00  0.00000000000E+00  0.39999999674E+01  0.40000000000E+01  0.51100000000E-03 0. -1.
    9000002   -1    0    0    0    0 -0.00000000000E+00 -0.00000000000E+00  0.00000000000E+00  0.93800000000E+00  0.93800000000E+00 0.  1.
         11    1    1    2    0    0 -0.16081574925E+00  0.13144417448E-01  0.12927561577E+01  0.13027867152E+01  0.51100000000E-03 0. -1.
    9000002    1    1    2    0    0  0.48084533959E+00 -0.39655545358E-01  0.15889713289E+00  0.10667132238E+01  0.93800000000E+00 0.  1.
         22    1    1    2    0    0 -0.32002959034E+00  0.26511127911E-01  0.25483466768E+01  0.25685000610E+01  0.00000000000E+00 0. -1.
</event>
<event>
 5    1  0.1537976E+002  0.1599665E+01  0.7818608E-02  0.3353727E+00
         11   -1    0    0    0    0  0.00000000000E+00  0.00000000000E+00  0.39999999674E+01  0.40000000000E+01  0.51100000000E-03 0.  1.
    9000002   -1    0    0    0    0 -0.00000000000E+00 -0.00000000000E+00  0.00000000000E+00  0.93800000000E+00  0.93800000000E+00 0. -1.
         11    1    1    2    0    0  0.61982447041E-02  0.10648268153E-01  0.13712954783E+00  0.13768288877E+00  0.51100000000E-03 0.  1.
    9000002    1    1    2    0    0 -0.18778766122E+00 -0.26484113933E+00  0.70495287584E-01  0.99509729191E+00  0.93800000000E+00 0. -1.
         22    1    1    2    0    0  0.18158941651E+00  0.25419287118E+00  0.37923751319E+01  0.38052198193E+01  0.00000000000E+00 0.  1.
</event>
<event>
 5    1  0.1537976E+002  0.1474582E+01  0.7818608E-02  0.3501852E+00
         11   -1    0    0    0    0  0.00000000000E+00  0.00000000000E+00  0.39999999674E+01  0.40000000000E+01  0.51100000000E-03 0.  1.
    9000002   -1    0    0    0    0 -0.00000000000E+00 -0.00000000000E+00  0.00000000000E+00  0.93800000000E+00  0.93800000000E+00 0.  1.
         11    1    1    2    0    0  0.51883861989E+00  0.67343041319E-01  0.11770227158E+01  0.12880649569E+01  0.51100000000E-03 0.  1.
    9000002    1    1    2    0    0 -0.17225801018E+00  0.73690711556E-01  0.17100318751E+00  0.97169400182E+00  0.93800000000E+00 0.  1.
         22    1    1    2    0    0 -0.34658060971E+00 -0.14103375287E+00  0.26519740641E+01  0.26782410413E+01  0.00000000000E+00 0.  1.
</event>
<event>
 5    1  0.1537976E+002  0.1599665E+01  0.7818608E-02  0.3353727E+00
         11   -1    0    0    0    0  0.00000000000E+00  0.00000000000E+00  0.39999999674E+01  0.40000000000E+01  0.51100000000E-03 0. -1.
    9000002   -1    0    0    0    0 -0.00000000000E+00 -0.00000000000E+00  0.00000000000E+00  0.93800000000E+00  0.93800000000E+00 0. -1.
         11    1    1    2    0    0 -0.33172077992E+00 -0.15129806012E+00  0.19650001137E+01  0.19985383375E+01  0.51100000000E-03 0. -1.
    9000002    1    1    2    0    0  0.62241284663E+00  0.27550029167E+00  0.32943932308E+00  0.12048536965E+01  0.93800000000E+00 0. -1.
         22    1    1    2    0    0 -0.29069206671E+00 -0.12420223155E+00  0.17055605306E+01  0.17346079660E+01  0.00000000000E+00 0. -1.
</event>
<event>
 5    1  0.1537976E+002  0.1538971E+01  0.7818608E-02  0.3422387E+00
         11   -1    0    0    0    0  0.00000000000E+00  0.00000000000E+00  0.39999999674E+01  0.40000000000E+01  0.51100000000E-03 0. -1.
    9000002   -1    0    0    0    0 -0.00000000000E+00 -0.00000000000E+00  0.00000000000E+00  0.93800000000E+00  0.93800000000E+00 0.  1.
         11    1    1    2    0    0 -0.22157939071E-01  0.10761774821E+00  0.12844635617E+00  0.16903041599E+00  0.51100000000E-03 0. -1.
    9000002    1    1    2    0    0  0.95135928532E-01  0.93076111836E-01  0.57709473941E-01  0.94915140566E+00  0.93800000000E+00 0.  1.
         22    1    1    2    0    0 -0.72977989461E-01 -0.20069386005E+00  0.38138441373E+01  0.38198181784E+01  0.00000000000E+00 0. -1.
</event>
<event>
 5    1  0.1537976E+002  0.1599677E+01  0.7818608E-02  0.3353714E+00
         11   -1    0    0    0    0  0.00000000000E+00  0.00000000000E+00  0.39999999674E+01  0.40000000000E+01  0.51100000000E-03 0. -1.
    9000002   -1    0    0    0    0 -0.00000000000E+00 -0.00000000000E+00  0.00000000000E+00  0.93800000000E+00  0.93800000000E+00 0. -1.
         11    1    1    2    0    0 -0.16622639608E-01  0.43865031851E-01  0.57051789488E+00  0.57244334451E+00  0.51100000000E-03 0.  1.
    9000002    1    1    2    0    0  0.11669711772E+00 -0.30031776038E+00  0.69401564579E-01  0.99421806041E+00  0.93800000000E+00 0. -1.
         22    1    1    2    0    0 -0.10007447811E+00  0.25645272853E+00  0.33600805079E+01  0.33713385951E+01  0.00000000000E+00 0. -1.
</event>
<event>
 5    1  0.1537976E+002  0.1564527E+01  0.7818608E-02  0.3392788E+00
         11   -1    0    0    0    0  0.00000000000E+00  0.00000000000E+00  0.39999999674E+01  0.40000000000E+01  0.51100000000E-03 0.  1.
    9000002   -1    0    0    0    0 -0.00000000000E+00 -0.00000000000E+00  0.00000000000E+00  0.93800000000E+00  0.93800000000E+00 0. -1.
         11    1    1    2    0    0 -0.24816745834E+00  0.72515997230E-02  0.19116747710E+01  0.19277293286E+01  0.51100000000E-03 0.  1.
    9000002    1    1    2    0    0  0.53995698587E-01 -0.95000860486E-01  0.34032179230E-01  0.94495655359E+00  0.93800000000E+00 0. -1.
         22    1    1    2    0    0  0.19417175975E+00  0.87749260763E-01  0.20542930171E+01  0.20653141178E+01  0.00000000000E+00 0.  1.
</event>
<event>
 5    1  0.1537976E+002  0.1599604E+01  0.7818608E-02  0.3353793E+00
         11   -1    0    0    0    0  0.00000000000E+00  0.00000000000E+00  0.39999999674E+01  0.40000000000E+01  0.51100000000E-03 0. -1.
    9000002   -1    0    0    0    0 -0.00000000000E+00 -0.00000000000E+00  0.00000000000E+00  0.93800000000E+00  0.93800000000E+00 0.  1.
         11    1    1    2    0    0 -0.17872254862E-01 -0.17485640201E+00  0.90328468799E+00  0.92022696521E+00  0.51100000000E-03 0. -1.
    9000002    1    1    2    0    0  0.95535623151E-01  0.68117836514E+00  0.33712647201E+00  0.12110447054E+01  0.93800000000E+00 0.  1.
         22    1    1    2    0    0 -0.77663368289E-01 -0.50632196313E+00  0.27595888074E+01  0.28067283294E+01  0.00000000000E+00 0. -1.
</event>
<event>
 5    1  0.1537976E+002  0.1475402E+01  0.7818608E-02  0.3500792E+00
         11   -1    0    0    0    0  0.00000000000E+00  0.00000000000E+00  0.39999999674E+01  0.40000000000E+01  0.51100000000E-03 0.  1.
    9000002   -1    0    0    0    0 -0.00000000000E+00 -0.00000000000E+00  0.00000000000E+00  0.93800000000E+00  0.93800000000E+00 0. -1.
         11    1    1    2    0    0  0.22428571772E-01 -0.26451411040E+00  0.23714049631E+00  0.35595874978E+00  0.51100000000E-03 0.  1.
    9000002    1    1    2    0    0 -0.16372847389E+00  0.46496153914E+00  0.28737978781E+00  0.10979195729E+01  0.93800000000E+00 0. -1.
         22    1    1    2    0    0  0.14129990211E+00 -0.20044742874E+00  0.34754796832E+01  0.34841216774E+01  0.00000000000E+00 0.  1.
</event>
<event>
 5    1  0.1537976E+002  0.1599676E+01  0.7818608E-02  0.3353715E+00
         11   -1    0    0    0    0  0.00000000000E+00  0.00000000000E+00  0.39999999674E+01  0.40000000000E+01  0.51100000000E-03 0.  1.
    9000002   -1    0    0    0    0 -0.00000000000E+00 -0.00000000000E+00  0.00000000000E+00  0.93800000000E+00  0.93800000000E+00 0. -1.
         11    1    1    2    0    0  0.16701251669E+00 -0.33290297548E-01  0.16019758450E+01  0.16110022637E+01  0.51100000000E-03 0.  1.
    9000002    1    1    2    0    0 -0.40367299855E+00  0.82853147805E-01  0.11472627609E+00  0.10309329039E+01  0.93800000000E+00 0. -1.
         22    1    1    2    0    0  0.23666048187E+00 -0.49562850257E-01  0.22832978463E+01  0.22960648324E+01  0.00000000000E+00 0.  1.
</event>
<event>
 5    1  0.1537976E+002  0.1560256E+01  0.7818608E-02  0.3397663E+00
         11   -1    0    0    0    0  0.00000000000E+00  0.00000000000E+00  0.39999999674E+01  0.40000000000E+01  0.51100000000E-03 0.  1.
    9000002   -1    0    0    0    0 -0.00000000000E+00 -0.00000000000E+00  0.00000000000E+00  0.93800000000E+00  0.93800000000E+00 0.  1.
         11    1    1    2    0    0 -0.28734702461E-01  0.22017132714E+00  0.11634405669E+01  0.11844388166E+01  0.51100000000E-03 0.  1.
    9000002    1    1    2    0    0  0.86346820879E-01 -0.78621521697E-02  0.34240463110E-01  0.94262081254E+00  0.93800000000E+00 0.  1.
         22    1    1    2    0    0 -0.57612118418E-01 -0.21230917497E+00  0.28023189373E+01  0.28109403708E+01  0.00000000000E+00 0.  1.
</event>
<event>
 5    1  0.1537976E+002  0.1570210E+01  0.7818608E-02  0.3386345E+00
         11   -1    0    0    0    0  0.00000000000E+00  0.00000000000E+00  0.39999999674E+01  0.40000000000E+01  0.51100000000E-03 0.  1.
    9000002   -1    0    0    0    0 -0.00000000000E+00 -0.00000000000E+00  0.00000000000E+00  0.93800000000E+00  0.93800000000E+00 0. -1.
         11    1    1    2    0    0 -0.16564952555E+00 -0.42428556674E-01  0.10730553781E+01  0.10865947051E+01  0.51100000000E-03 0.  1.
    9000002    1    1    2    0    0 -0.19394782451E-01 -0.91155570098E-01  0.27527892558E-01  0.94302029693E+00  0.93800000000E+00 0. -1.
         22    1    1    2    0    0  0.18504430800E+00  0.13358412677E+00  0.28994166967E+01  0.29083849979E+01  0.00000000000E+00 0.  1.
</event>
<event>
 5    1  0.1537976E+002  0.1599669E+01  0.7818608E-02  0.3353723E+00
         11   -1    0    0    0    0  0.00000000000E+00  0.00000000000E+00  0.39999999674E+01  0.40000000000E+01  0.51100000000E-03 0. -1.
    9000002   -1    0    0    0    0 -0.00000000000E+00 -0.00000000000E+00  0.00000000000E+00  0.93800000000E+00  0.93800000000E+00 0.  1.
         11    1    1    2    0    0 -0.21058851878E-01 -0.16125477053E-01  0.24072309826E+00  0.24218046455E+00  0.51100000000E-03 0. -1.
    9000002    1    1    2    0    0  0.32945463451E+00  0.28286475949E+00  0.12777750883E+00  0.10415008018E+01  0.93800000000E+00 0.  1.
         22    1    1    2    0    0 -0.30839578263E+00 -0.26673928244E+00  0.36314993603E+01  0.36543187337E+01  0.00000000000E+00 0. -1.
</event>
<event>
 5    1  0.1537976E+002  0.1599164E+01  0.7818608E-02  0.3354272E+00
         11   -1    0    0    0    0  0.00000000000E+00  0.00000000000E+00  0.39999999674E+01  0.40000000000E+01  0.51100000000E-03 0.  1.
    9000002   -1    0    0    0    0 -0.00000000000E+00 -0.00000000000E+00  0.00000000000E+00  0.93800000000E+00  0.93800000000E+00 0.  1.
         11    1    1    2    0    0  0.87487404380E-01 -0.52277859013E-01  0.98058635564E+00  0.98586859290E+00  0.51100000000E-03 0.  1.
    9000002    1    1    2    0    0 -0.25690074223E+00  0.19496401586E+00  0.69943930595E-01  0.99435663233E+00  0.93800000000E+00 0.  1.
         22    1    1    2    0    0  0.16941333785E+00 -0.14268615685E+00  0.29494696811E+01  0.29577747748E+01  0.00000000000E+00 0.  1.
</event>
<event>
 5    1  0.1537976E+002  0.1599577E+01  0.7818608E-02  0.3353823E+00
         11   -1    0    0    0    0  0.00000000000E+00  0.00000000000E+00  0.39999999674E+01  0.40000000000E+01  0.51100000000E-03 0.  1.
    9000002   -1    0    0    0    0 -0.00000000000E+00 -0.00000000000E+00  0.00000000000E+00  0.93800000000E+00  0.93800000000E+00 0. -1.
         11    1    1    2    0    0 -0.54933395712E-01 -0.35008870907E-01  0.79368100364E+00  0.79634985758E+00  0.51100000000E-03 0.  1.
    9000002    1    1    2    0    0  0.22500211777E+00  0.17606388993E+00  0.54460134315E-01  0.98205618605E+00  0.93800000000E+00 0. -1.
         22    1    1    2    0    0 -0.17006872205E+00 -0.14105501902E+00  0.31518588294E+01  0.31595939564E+01  0.00000000000E+00 0.  1.
</event>
<event>
 5    1  0.1537976E+002  0.1596672E+01  0.7818608E-02  0.3356983E+00
         11   -1    0    0    0    0  0.00000000000E+00  0.00000000000E+00  0.39999999674E+01  0.40000000000E+01  0.51100000000E-03 0. -1.
    9000002   -1    0    0    0    0 -0.00000000000E+00 -0.00000000000E+00  0.00000000000E+00  0.93800000000E+00  0.93800000000E+00 0. -1.
         11    1    1    2    0    0  0.73026073615E-04  0.93233270589E-02  0.14922936560E-01  0.17603548416E-01  0.51100000000E-03 0. -1.
    9000002    1    1    2    0    0 -0.26342198006E+00 -0.22388754406E+00  0.82516779074E-01  0.10030801517E+01  0.93800000000E+00 0. -1.
         22    1    1    2    0    0  0.26334895398E+00  0.21456421700E+00  0.39025602517E+01  0.39173162999E+01  0.00000000000E+00 0. -1.
</event>
<event>
 5    1  0.1537976E+002  0.1599674E+01  0.7818608E-02  0.3353717E+00
         11   -1    0    0    0    0  0.00000000000E+00  0.00000000000E+00  0.39999999674E+01  0.40000000000E+01  0.51100000000E-03 0. -1.
    9000002   -1    0    0    0    0 -0.00000000000E+00 -0.00000000000E+00  0.00000000000E+00  0.93800000000E+00  0.93800000000E+00 0. -1.
         11    1    1    2    0    0  0.31647921652E-03  0.14482716133E+00  0.81189831544E+00  0.82471458248E+00  0.51100000000E-03 0. -1.
    9000002    1    1    2    0    0 -0.24267103765E-02 -0.66500023871E+00  0.31320783937E+00  0.11917106851E+01  0.93800000000E+00 0. -1.
         22    1    1    2    0    0  0.21102311600E-02  0.52017307738E+00  0.28748938125E+01  0.29215747324E+01  0.00000000000E+00 0. -1.
</event>
<event>
 5    1  0.1537976E+002  0.1599507E+01  0.7818608E-02  0.3353899E+00
         11   -1    0    0    0    0  0.00000000000E+00  0.00000000000E+00  0.39999999674E+01  0.40000000000E+01  0.51100000000E-03 0.  1.
    9000002   -1    0    0    0    0 -0.00000000000E+00 -0.00000000000E+00  0.00000000000E+00  0.93800000000E+00  0.93800000000E+00 0. -1.
         11    1    1    2    0    0  0.19829477664E-01  0.11689367453E-01  0.21607964432E+00  0.21730283778E+00  0.51100000000E-03 0.  1.
    9000002    1    1    2    0    0 -0.23256848316E+00 -0.19339005046E+00  0.61179938446E-01  0.98745875653E+00  0.93800000000E+00 0. -1.
         22    1    1    2    0    0  0.21273900550E+00  0.18170068300E+00  0.37227403846E+01  0.37332384057E+01  0.00000000000E+00 0.  1.
</event>
<event>
 5    1  0.1537976E+002  0.1468028E+01  0.7818608E-02  0.3510362E+00
         11   -1    0    0    0    0  0.00000000000E+00  0.00000000000E+00  0.39999999674E+01  0.40000000000E+01  0.51100000000E-03 0. -1.
    9000002   -1    0    0    0    0 -0.00000000000E+00 -0.00000000000E+00  0.00000000000E+00  0.93800000000E+00  0.93800000000E+00 0. -1.
         11    1    1    2    0    0  0.27409685946E-01  0.18069532291E+00  0.15198166716E+00  0.23769892486E+00  0.51100000000E-03 0. -1.
    9000002    1    1    2    0    0  0.99179016569E-04  0.13660511052E+00  0.11628470734E+00  0.95500109907E+00  0.93800000000E+00 0. -1.
         22    1    1    2    0    0 -0.27508864963E-01 -0.31730043343E+00  0.37317335929E+01  0.37452999761E+01  0.00000000000E+00 0. -1.
</event>
<event>
 5    1  0.1537976E+002  0.1584737E+01  0.7818608E-02  0.3370098E+00
         11   -1    0    0    0    0  0.00000000000E+00  0.00000000000E+00  0.39999999674E+01  0.40000000000E+01  0.51100000000E-03 0. -1.
    9000002   -1    0    0    0    0 -0.00000000000E+00 -0.00000000000E+00  0.00000000000E+00  0.93800000000E+00  0.93800000000E+00 0.  1.
         11    1    1    2    0    0  0.14138432612E+00  0.31537612332E-01  0.22424421892E+01  0.22471162368E+01  0.51100000000E-03 0. -1.
    9000002    1    1    2    0    0 -0.22213792269E+00  0.19892976271E+00  0.71083837392E-01  0.98682076342E+00  0.93800000000E+00 0.  1.
         22    1    1    2    0    0  0.80753596570E-01 -0.23046737504E+00  0.16864739408E+01  0.17040629998E+01  0.00000000000E+00 0. -1.
</event>
<event>
 5    1  0.1598562E+002  0.1552315E+01  0.7818608E-02  0.3406803E+00
         11   -1    0    0    0    0  0.00000000000E+00  0.00000000000E+00  0.39999999674E+01  0.40000000000E+01  0.51100000000E-03 0.  1.
    9000002   -1    0    0    0    0 -0.00000000000E+00 -0.00000000000E+00  0.00000000000E+00  0.93800000000E+00  0.93800000000E+00 0.  1.
         11    1    1    2    0    0 -0.24306204987E+00 -0.75338186863E-01  0.12788256103E+01  0.13038980808E+01  0.51100000000E-03 0.  1.
    9000002    1    1    2    0    0  0.12672527357E-01  0.62737831583E-01  0.37920173525E-01  0.94094557123E+00  0.93800000000E+00 0.  1.
         22    1    1    2    0    0  0.23038952251E+00  0.12600355281E-01  0.26832541836E+01  0.26931563480E+01  0.00000000000E+00 0.  1.
</event>
<event>
 5    1  0.1537976E+002  0.1599675E+01  0.7818608E-02  0.3353716E+00
         11   -1    0    0    0    0  0.00000000000E+00  0.00000000000E+00  0.39999999674E+01  0.40000000000E+01  0.51100000000E-03 0.  1.
    9000002   -1    0    0    0    0 -0.00000000000E+00 -0.00000000000E+00  0.00000000000E+00  0.93800000000E+00  0.93800000000E+00 0. -1.
         11    1    1    2    0    0  0.31345556003E+00  0.14068898809E+00  0.20793052804E+01  0.21075005314E+01  0.51100000000E-03 0.  1.
    9000002    1    1    2    0    0 -0.56396408754E+00 -0.25540721434E+00  0.26854082812E+00  0.11555286727E+01  0.93800000000E+00 0. -1.
         22    1    1    2    0    0  0.25050852751E+00  0.11471822625E+00  0.16521538588E+01  0.16749707959E+01  0.00000000000E+00 0.  1.
</event>
<event>
 5    1  0.1537976E+002  0.1539951E+01  0.7818608E-02  0.3421233E+00
         11   -1    0    0    0    0  0.00000000000E+00  0.00000000000E+00  0.39999999674E+01  0.40000000000E+01  0.51100000000E-03 0. -1.
    9000002   -1    0    0    0    0 -0.00000000000E+00 -0.00000000000E+00  0.00000000000E+00  0.93800000000E+00  0.93800000000E+00 0. -1.
         11    1    1    2    0    0  0.15458909268E+00 -0.92218979933E-01  0.47603503979E+00  0.50893196801E+00  0.51100000000E-03 0. -1.
    9000002    1    1    2    0    0  0.60387872542E-01 -0.11490752468E+00  0.56336818976E-01  0.94861386852E+00  0.93800000000E+00 0. -1.
         22    1    1    2    0    0 -0.21497696522E+00  0.20712650461E+00  0.34676281086E+01  0.34804541635E+01  0.00000000000E+00 0. -1.
</event>
<event>
 5    1  0.1537976E+002  0.1599320E+01  0.7818608E-02  0.3354101E+00
         11   -1    0    0    0    0  0.00000000000E+00  0.00000000000E+00  0.39999999674E+01  0.40000000000E+01  0.51100000000E-03 0. -1.
    9000002   -1    0    0    0    0 -0.00000000000E+00 -0.00000000000E+00  0.00000000000E+00  0.93800000000E+00  0.93800000000E+00 0.  1.
         11    1    1    2    0    0 -0.30368894755E-01 -0.10025979040E-01  0.35170958122E+00  0.35316098406E+00  0.51100000000E-03 0. -1.
    9000002    1    1    2    0    0  0.30522656533E+00 -0.28618023287E-01  0.63015570634E-01  0.98883629059E+00  0.93800000000E+00 0.  1.
         22    1    1    2    0    0 -0.27485767058E+00  0.38644002327E-01  0.35852748155E+01  0.35960027253E+01  0.00000000000E+00 0. -1.
</event>
<event>
 5    1  0.1537976E+002  0.1599400E+01  0.7818608E-02  0.3354015E+00
         11   -1    0    0    0    0  0.00000000000E+00  0.00000000000E+00  0.39999999674E+01  0.40000000000E+01  0.51100000000E-03 0.  1.
    9000002   -1    0    0    0    0 -0.00000000000E+00 -0.00000000000E+00  0.00000000000E+00  0.93800000000E+00  0.93800000000E+00 0.  1.
         11    1    1    2    0    0 -0.16114035022E-01 -0.28566034641E-01  0.31884245762E+00  0.32052527881E+00  0.51100000000E-03 0.  1.
    9000002    1    1    2    0    0  0.14410403150E+00  0.23019957100E+00  0.49295516753E-01  0.97776881846E+00  0.93800000000E+00 0.  1.
         22    1    1    2    0    0 -0.12798999648E+00 -0.20163353636E+00  0.36318619930E+01  0.36397059027E+01  0.00000000000E+00 0.  1.
</event>
<event>
 5    1  0.1948779E+002  0.1551486E+01  0.7818608E-02  0.3407763E+00
         11   -1    0    0    0    0  0.00000000000E+00  0.00000000000E+00  0.39999999674E+01  0.40000000000E+01  0.51100000000E-03 0. -1.
    9000002   -1    0    0    0    0 -0.00000000000E+00 -0.00000000000E+00  0.00000000000E+00  0.93800000000E+00  0.93800000000E+00 0. -1.
         11    1    1    2    0    0  0.12147666479E+00  0.62142241767E-01  0.29455540873E+00  0.32462499632E+00  0.51100000000E-03 0. -1.
    9000002    1    1    2    0    0  0.66713846501E-01  0.12119626596E-01  0.38898607219E-01  0.94125167958E+00  0.93800000000E+00 0. -1.
         22    1    1    2    0    0 -0.18819051129E+00 -0.74261868363E-01  0.36665459514E+01  0.36721233241E+01  0.00000000000E+00 0. -1.
</event>
<event>
 5    1  0.1537976E+002  0.1599652E+01  0.7818608E-02  0.3353741E+00
         11   -1    0    0    0    0  0.00000000000E+00  0.00000000000E+00  0.39999999674E+01  0.40000000000E+01  0.51100000000E-03 0.  1.
    9000002   -1    0    0    0    0 -0.00000000000E+00 -0.00000000000E+00  0.00000000000E+00  0.93800000000E+00  0.93800000000E+00 0. -1.
         11    1    1    2    0    0 -0.45526095539E-02 -0.52616086800E-01  0.73706549586E+00  0.73895533366E+00  0.51100000000E-03 0.  1.
    9000002    1    1    2    0    0 -0.53680505169E-03  0.28302648914E+00  0.53375985021E-01  0.98122233846E+00  0.93800000000E+00 0. -1.
         22    1    1    2    0    0  0.50894146056E-02 -0.23041040234E+00  0.32095584865E+01  0.32178223279E+01  0.00000000000E+00 0.  1.
</event>
<event>
 5    1  0.1537976E+002  0.1596403E+01  0.7818608E-02  0.3357276E+00
         11   -1    0    0    0    0  0.00000000000E+00  0.00000000000E+00  0.39999999674E+01  0.40000000000E+01  0.51100000000E-03 0. -1.
    9000002   -1    0    0    0    0 -0.00000000000E+00 -0.00000000000E+00  0.00000000000E+00  0.93800000000E+00  0.93800000000E+00 0. -1.
         11    1    1    2    0    0  0.11106862483E+00  0.20368955838E+00  0.14276384926E+01  0.14463670358E+01  0.51100000000E-03 0. -1.
    9000002    1    1    2    0    0 -0.38730836407E+00 -0.38940982191E+00  0.21141133320E+00  0.11073330710E+01  0.93800000000E+00 0. -1.
         22    1    1    2    0    0  0.27623973924E+00  0.18572026353E+00  0.23609501415E+01  0.23842998932E+01  0.00000000000E+00 0. -1.
</event>
<event>
 5    1  0.1537976E+002  0.1598844E+01  0.7818608E-02  0.3354619E+00
         11   -1    0    0    0    0  0.00000000000E+00  0.00000000000E+00  0.39999999674E+01  0.40000000000E+01  0.51100000000E-03 0. -1.
    9000002   -1    0    0    0    0 -0.00000000000E+00 -0.00000000000E+00  0.00000000000E+00  0.93800000000E+00  0.93800000000E+00 0. -1.
         11    1    1    2    0    0 -0.49977460879E-02  0.10882350217E-01  0.56550399202E-01  0.57806675939E-01  0.51100000000E-03 0. -1.
    9000002    1    1    2    0    0  0.36463278455E+00 -0.17428013654E+00  0.11092429983E+00  0.10273649954E+01  0.93800000000E+00 0. -1.
         22    1    1    2    0    0 -0.35963503846E+00  0.16339778633E+00  0.38325252683E+01  0.38528283286E+01  0.00000000000E+00 0. -1.
</event>
<event>
 5    1  0.1537976E+002  0.1591055E+01  0.7818608E-02  0.3363130E+00
         11   -1    0    0    0    0  0.00000000000E+00  0.00000000000E+00  0.39999999674E+01  0.40000000000E+01  0.51100000000E-03 0. -1.
    9000002   -1    0    0    0    0 -0.00000000000E+00 -0.00000000000E+00  0.00000000000E+00  0.93800000000E+00  0.93800000000E+00 0.  1.
         11    1    1    2    0    0  0.52935944357E-01  0.38692567145E-01  0.86492151592E+00  0.86740349248E+00  0.51100000000E-03 0. -1.
    9000002    1    1    2    0    0  0.33079721594E-01  0.14333725867E+00  0.20672641549E-01  0.94969005250E+00  0.93800000000E+00 0.  1.
         22    1    1    2    0    0 -0.86015665951E-01 -0.18202982582E+00  0.31144058099E+01  0.31209064550E+01  0.00000000000E+00 0. -1.
</event>
<event>
 5    1  0.1537976E+002  0.1595698E+01  0.7818608E-02  0.3358046E+00
         11   -1    0    0    0    0  0.00000000000E+00  0.00000000000E+00  0.39999999674E+01  0.40000000000E+01  0.51100000000E-03 0.  1.
    9000002   -1    0    0    0    0 -0.00000000000E+00 -0.00000000000E+00  0.00000000000E+00  0.93800000000E+00  0.93800000000E+00 0.  1.
         11    1    1    2    0    0  0.78331137784E-02 -0.15998824668E-01  0.40921945550E-01  0.44633919958E-01  0.51100000000E-03 0.  1.
    9000002    1    1    2    0    0 -0.22016398969E+00  0.12003243713E+00  0.44820637863E-01  0.97197369198E+00  0.93800000000E+00 0.  1.
         22    1    1    2    0    0  0.21233087591E+00 -0.10403361247E+00  0.39142573839E+01  0.39213923881E+01  0.00000000000E+00 0.  1.
</event>
<event>
 5    1  0.1537976E+002  0.1599669E+01  0.7818608E-02  0.3353723E+00
         11   -1    0    0    0    0  0.00000000000E+00  0.00000000000E+00  0.39999999674E+01  0.40000000000E+01  0.51100000000E-03 0.  1.
    9000002   -1    0    0    0    0 -0.00000000000E+00 -0.00000000000E+00  0.00000000000E+00  0.93800000000E+00  0.93800000000E+00 0. -1.
         11    1    1    2    0    0  0.83782742487E-01  0.12040308562E-01  0.76311231714E+00  0.76779241118E+00  0.51100000000E-03 0.  1.
    9000002    1    1    2    0    0 -0.41410116132E+00 -0.68617199522E-01  0.11915980708E+00  0.10345197685E+01  0.93800000000E+00 0. -1.
         22    1    1    2    0    0  0.33031841883E+00  0.56576890959E-01  0.31177278431E+01  0.31356878203E+01  0.00000000000E+00 0.  1.
</event>
<event>
 5    1  0.1537976E+002  0.1599412E+01  0.7818608E-02  0.3354002E+00
         11   -1    0    0    0    0  0.00000000000E+00  0.00000000000E+00  0.39999999674E+01  0.40000000000E+01  0.51100000000E-03 0.  1.
    9000002   -1    0    0    0    0 -0.00000000000E+00 -0.00000000000E+00  0.00000000000E+00  0.93800000000E+00  0.93800000000E+00 0.  1.
         11    1    1    2    0    0  0.15103568498E+00  0.24116308984E+00  0.17881165372E+01  0.18106165871E+01  0.51100000000E-03 0.  1.
    9000002    1    1    2    0    0 -0.27707692028E+00 -0.50548719715E+00  0.23096182549E+00  0.11249339052E+01  0.93800000000E+00 0.  1.
         22    1    1    2    0    0  0.12604123530E+00  0.26432410731E+00  0.19809216047E+01  0.20024495077E+01  0.00000000000E+00 0.  1.
</event>
<event>
 5    1  0.1537976E+002  0.1599469E+01  0.7818608E-02  0.3353940E+00
         11   -1    0    0    0    0  0.00000000000E+00  0.00000000000E+00  0.39999999674E+01  0.40000000000E+01  0.51100000000E-03 0. -1.
    9000002   -1    0    0    0    0 -0.00000000000E+00 -0.00000000000E+00  0.00000000000E+00  0.93800000000E+00  0.93800000000E+00 0. -1.
         11    1    1    2    0    0  0.57593759771E-01  0.14568940591E+00  0.76070423631E+00  0.77666829498E+00  0.51100000000E-03 0. -1.
    9000002    1    1    2    0    0 -0.28724713624E+00 -0.63231034268E+00  0.34443189133E+00  0.12168831556E+01  0.93800000000E+00 0. -1.
         22    1    1    2    0    0  0.22965337647E+00  0.48662093677E+00  0.28948638397E+01  0.29444485494E+01  0.00000000000E+00 0. -1.
</event>
<event>
 5    1  0.1537976E+002  0.1599628E+01  0.7818608E-02  0.3353767E+00
         11   -1    0    0    0    0  0.00000000000E+00  0.00000000000E+00  0.39999999674E+01  0.40000000000E+01  0.51100000000E-03 0. -1.
    9000002   -1    0    0    0    0 -0.00000000000E+00 -0.00000000000E+00  0.00000000000E+00  0.93800000000E+00  0.93800000000E+00 0. -1.
         11    1    1    2    0    0  0.17353007489E-01 -0.25007728518E-01  0.45163290517E+00  0.45265776864E+00  0.51100000000E-03 0. -1.
    9000002    1    1    2    0    0 -0.16064677857E+00  0.17352694800E+00  0.37145962583E-01  0.96806136773E+00  0.93800000000E+00 0. -1.
         22    1    1    2    0    0  0.14329377108E+00 -0.14851921948E+00  0.35112210996E+01  0.35172808636E+01  0.00000000000E+00 0. -1.
</event>
<event>
 5    1  0.1537976E+002  0.1598499E+01  0.7818608E-02  0.3354994E+00
         11   -1    0    0    0    0  0.00000000000E+00  0.00000000000E+00  0.39999999674E+01  0.40000000000E+01  0.51100000000E-03 0.  1.
    9000002   -1    0    0    0    0 -0.00000000000E+00 -0.00000000000E+00  0.00000000000E+00  0.93800000000E+00  0.93800000000E+00 0. -1.
         11    1    1    2    0    0  0.68506025978E-02  0.92172188002E-02  0.24683428637E+00  0.24710182906E+00  0.51100000000E-03 0.  1.
    9000002    1    1    2    0    0  0.81737565578E-01 -0.39986718726E+00  0.11346295622E+00  0.10292194321E+01  0.93800000000E+00 0. -1.
         22    1    1    2    0    0 -0.88588168176E-01  0.39064996846E+00  0.36397027248E+01  0.36616787388E+01  0.00000000000E+00 0.  1.
</event>
<event>
 5    1  0.1537976E+002  0.1599677E+01  0.7818608E-02  0.3353714E+00
         11   -1    0    0    0    0  0.00000000000E+00  0.00000000000E+00  0.39999999674E+01  0.40000000000E+01  0.51100000000E-03 0. -1.
    9000002   -1    0    0    0    0 -0.00000000000E+00 -0.00000000000E+00  0.00000000000E+00  0.93800000000E+00  0.93800000000E+00 0.  1.
         11    1    1    2    0    0 -0.11683613860E+00 -0.10735529022E+00  0.16857931177E+01  0.16932437918E+01  0.51100000000E-03 0. -1.
    9000002    1    1    2    0    0  0.27013771222E+00  0.24988333450E+00  0.90983558225E-01  0.10117005843E+01  0.93800000000E+00 0.  1.
         22    1    1    2    0    0 -0.15330157361E+00 -0.14252804428E+00  0.22232232914E+01  0.22330556239E+01  0.00000000000E+00 0. -1.
</event>
<event>
 5    1  0.1537976E+002  0.1599671E+01  0.7818608E-02  0.3353721E+00
         11   -1    0    0    0    0  0.00000000000E+00  0.00000000000E+00  0.39999999674E+01  0.40000000000E+01  0.51100000000E-03 0.  1.
    9000002   -1    0    0    0    0 -0.00000000000E+00 -0.00000000000E+00  0.00000000000E+00  0.93800000000E+00  0.93800000000E+00 0.  1.
         11    1    1    2    0    0 -0.25928022189E+00  0.19682248141E+00  0.21414691718E+01  0.21660692042E+01  0.51100000000E-03 0.  1.
    9000002    1    1    2    0    0  0.45945604414E+00 -0.34231458213E+00  0.22776665643E+00  0.11224975632E+01  0.93800000000E+00 0.  1.
         22    1    1    2    0    0 -0.20017582225E+00  0.14549210072E+00  0.16307641392E+01  0.16494332326E+01  0.00000000000E+00 0.  1.
</event>
<event>
 5    1  0.1537976E+002  0.1598529E+01  0.7818608E-02  0.3354962E+00
         11   -1    0    0    0    0  0.00000000000E+00  0.00000000000E+00  0.39999999674E+01  0.40000000000E+01  0.51100000000E-03 0.  1.
    9000002   -1    0    0    0    0 -0.00000000000E+00 -0.00000000000E+00  0.00000000000E+00  0.93800000000E+00  0.93800000000E+00 0. -1.
         11    1    1    2    0    0 -0.14084902677E+00 -0.16590224201E-01  0.11710622472E+01  0.11796188926E+01  0.51100000000E-03 0.  1.
    9000002    1    1    2    0    0  0.34575954731E+00  0.61771867884E-01  0.83654919264E-01  0.10050908286E+01  0.93800000000E+00 0. -1.
         22    1    1    2    0    0 -0.20491052053E+00 -0.45181643683E-01  0.27452828009E+01  0.27532902788E+01  0.00000000000E+00 0.  1.
</event>
<event>
 5    1  0.1537976E+002  0.1570460E+01  0.7818608E-02  0.3386062E+00
         11   -1    0    0    0    0  0.00000000000E+00  0.00000000000E+00  0.39999999674E+01  0.40000000000E+01  0.51100000000E-03 0.  1.
    9000002   -1    0    0    0    0 -0.00000000000E+00 -0.00000000000E+00  0.00000000000E+00  0.93800000000E+00  0.93800000000E+00 0. -1.
         11    1    1    2    0    0 -0.71929474883E-01  0.15813217452E+00  0.13146601868E+01  0.13260887232E+01  0.51100000000E-03 0.  1.
    9000002    1    1    2    0    0 -0.65955686696E-01  0.33929928911E-01  0.25179541744E-01  0.94126478847E+00  0.93800000000E+00 0. -1.
         22    1    1    2    0    0  0.13788516158E+00 -0.19206210344E+00  0.26601602388E+01  0.26706464883E+01  0.00000000000E+00 0.  1.
</event>
<event>
 5    1  0.1537976E+002  0.1599676E+01  0.7818608E-02  0.3353716E+00
         11   -1    0    0    0    0  0.00000000000E+00  0.00000000000E+00  0.39999999674E+01  0.40000000000E+01  0.51100000000E-03 0.  1.
    9000002   -1    0    0    0    0 -0.00000000000E+00 -0.00000000000E+00  0.00000000000E+00  0.93800000000E+00  0.93800000000E+00 0. -1.
         11    1    1    2    0    0 -0.25381719632E+00 -0.80208575530E-01  0.20225080737E+01  0.20399499391E+01  0.51100000000E-03 0.  1.
    9000002    1    1    2    0    0  0.48139582795E+00  0.15401865615E+00  0.17504117981E+00  0.10797903057E+01  0.93800000000E+00 0. -1.
         22    1    1    2    0    0 -0.22757863164E+00 -0.73810080620E-01  0.18024507138E+01  0.18182597552E+01  0.00000000000E+00 0.  1.
</event>
<event>
 5    1  0.1537976E+002  0.1596743E+01  0.7818608E-02  0.3356906E+00
         11   -1    0    0    0    0  0.00000000000E+00  0.00000000000E+00  0.39999999674E+01  0.40000000000E+01  0.51100000000E-03 0. -1.
    9000002   -1    0    0    0    0 -0.00000000000E+00 -0.00000000000E+00  0.00000000000E+00  0.93800000000E+00  0.93800000000E+00 0. -1.
         11    1    1    2    0    0 -0.20472642361E-01 -0.97191431538E-02  0.13439964858E+00  0.13629789979E+00  0.51100000000E-03 0. -1.
    9000002    1    1    2    0    0 -0.91308205000E-01  0.22810260747E+00  0.42329992550E-01  0.97056881060E+00  0.93800000000E+00 0. -1.
         22    1    1    2    0    0  0.11178084736E+00 -0.21838346431E+00  0.38232703262E+01  0.38311332896E+01  0.00000000000E+00 0. -1.
</event>
<event>
 5    1  0.1537976E+002  0.1594342E+01  0.7818608E-02  0.3359527E+00
         11   -1    0    0    0    0  0.00000000000E+00  0.00000000000E+00  0.39999999674E+01  0.40000000000E+01  0.51100000000E-03 0. -1.
    9000002   -1    0    0    0    0 -0.00000000000E+00 -0.00000000000E+00  0.00000000000E+00  0.93800000000E+00  0.93800000000E+00 0.  1.
         11    1    1    2    0    0  0.36933410928E-01 -0.96859238490E-01  0.20036098460E+01  0.20062897261E+01  0.51100000000E-03 0. -1.
    9000002    1    1    2    0    0  0.73731966384E-01  0.28268813771E+00  0.61066374567E-01  0.98433840125E+00  0.93800000000E+00 0.  1.
         22    1    1    2    0    0 -0.11066537731E+00 -0.18582889922E+00  0.19353237468E+01  0.19473718727E+01  0.00000000000E+00 0. -1.
</event>
<event>
 5    1  0.1537976E+002  0.1599401E+01  0.7818608E-02  0.3354014E+00
         11   -1    0    0    0    0  0.00000000000E+00  0.00000000000E+00  0.39999999674E+01  0.40000000000E+01  0.51100000000E-03 0.  1.
    9000002   -1    0    0    0    0 -0.00000000000E+00 -0.00000000000E+00  0.00000000000E+00  0.93800000000E+00  0.93800000000E+00 0.  1.
         11    1    1    2    0    0  0.19116046365E+00  0.15276539906E+00  0.21462831985E+01  0.21601878204E+01  0.51100000000E-03 0.  1.
    9000002    1    1    2    0    0 -0.37864716563E+00 -0.26965725448E+00  0.14733367946E+00  0.10571849053E+01  0.93800000000E+00 0.  1.
         22    1    1    2    0    0  0.18748670198E+00  0.11689185542E+00  0.17063830894E+01  0.17206272743E+01  0.00000000000E+00 0. -1.
</event>
<event>
 5    1  0.1537976E+002  0.1599220E+01  0.7818608E-02  0.3354210E+00
         11   -1    0    0    0    0  0.00000000000E+00  0.00000000000E+00  0.39999999674E+01  0.40000000000E+01  0.51100000000E-03 0. -1.
    9000002   -1    0    0    0    0 -0.00000000000E+00 -0.00000000000E+00  0.00000000000E+00  0.93800000000E+00  0.93800000000E+00 0.  1.
         11    1    1    2    0    0  0.14989441856E-01 -0.29195459929E-02  0.11476655818E+00  0.11577923438E+00  0.51100000000E-03 0. -1.
    9000002    1    1    2    0    0 -0.21940655347E+00  0.12221234377E+00  0.42253044670E-01  0.97195905904E+00  0.93800000000E+00 0.  1.
         22    1    1    2    0    0  0.20441711161E+00 -0.11929279778E+00  0.38429803645E+01  0.38502617066E+01  0.00000000000E+00 0. -1.
</event>
<event>
 5    1  0.1537976E+002  0.1594881E+01  0.7818608E-02  0.3358939E+00
         11   -1    0    0    0    0  0.00000000000E+00  0.00000000000E+00  0.39999999674E+01  0.40000000000E+01  0.51100000000E-03 0. -1.
    9000002   -1    0    0    0    0 -0.00000000000E+00 -0.00000000000E+00  0.00000000000E+00  0.93800000000E+00  0.93800000000E+00 0.  1.
         11    1    1    2    0    0  0.92564019000E-02  0.12288384152E-01  0.24636976611E-01  0.29050423383E-01  0.51100000000E-03 0. -1.
    9000002    1    1    2    0    0 -0.10975505916E+00 -0.23473459533E+00  0.48325826332E-01  0.97433356134E+00  0.93800000000E+00 0.  1.
         22    1    1    2    0    0  0.10049865726E+00  0.22244621118E+00  0.39270371644E+01  0.39346160153E+01  0.00000000000E+00 0. -1.
</event>
<event>
 5    1  0.1537976E+002  0.1599672E+01  0.7818608E-02  0.3353719E+00
         11   -1    0    0    0    0  0.00000000000E+00  0.00000000000E+00  0.39999999674E+01  0.40000000000E+01  0.51100000000E-03 0. -1.
    9000002   -1    0    0    0    0 -0.00000000000E+00 -0.00000000000E+00  0.00000000000E+00  0.93800000000E+00  0.93800000000E+00 0. -1.
         11    1    1    2    0    0 -0.61109505832E-02 -0.17968446312E-01  0.27061988983E+00  0.27128508008E+00  0.51100000000E-03 0. -1.
    9000002    1    1    2    0    0  0.93864936141E-01  0.24455474240E+00  0.45628579562E-01  0.97495826349E+00  0.93800000000E+00 0. -1.
         22    1    1    2    0    0 -0.87753985558E-01 -0.22658629609E+00  0.36837514980E+01  0.36917566564E+01  0.00000000000E+00 0. -1.
</event>
<event>
 5    1  0.1537976E+002  0.1599676E+01  0.7818608E-02  0.3353715E+00
         11   -1    0    0    0    0  0.00000000000E+00  0.00000000000E+00  0.39999999674E+01  0.40000000000E+01  0.51100000000E-03 0. -1.
    9000002   -1    0    0    0    0 -0.00000000000E+00 -0.00000000000E+00  0.00000000000E+00  0.93800000000E+00  0.93800000000E+00 0.  1.
         11    1    1    2    0    0  0.34137595402E-01  0.29394830480E-01  0.65726160152E+00  0.65880384442E+00  0.51100000000E-03 0. -1.
    9000002    1    1    2    0    0 -0.20225529731E+00 -0.18002906835E+00  0.48785809577E-01  0.97751814610E+00  0.93800000000E+00 0.  1.
         22    1    1    2    0    0  0.16811770191E+00  0.15063423787E+00  0.32939525563E+01  0.33016780095E+01  0.00000000000E+00 0. -1.
</event>
<event>
 5    1  0.1537976E+002  0.1498210E+01  0.7818608E-02  0.3471837E+00
         11   -1    0    0    0    0  0.00000000000E+00  0.00000000000E+00  0.39999999674E+01  0.40000000000E+01  0.51100000000E-03 0.  1.
    9000002   -1    0    0    0    0 -0.00000000000E+00 -0.00000000000E+00  0.00000000000E+00  0.93800000000E+00  0.93800000000E+00 0. -1.
         11    1    1    2    0    0  0.34809179259E-01 -0.26840775707E+00  0.14814178272E+01  0.15059393888E+01  0.51100000000E-03 0.  1.
    9000002    1    1    2    0    0  0.21323044455E+00 -0.22326312062E+00  0.14821176405E+00  0.99856115011E+00  0.93800000000E+00 0. -1.
         22    1    1    2    0    0 -0.24803962381E+00  0.49167087769E+00  0.23703703762E+01  0.24334994611E+01  0.00000000000E+00 0.  1.
</event>
<event>
 5    1  0.1537976E+002  0.1599675E+01  0.7818608E-02  0.3353716E+00
         11   -1    0    0    0    0  0.00000000000E+00  0.00000000000E+00  0.39999999674E+01  0.40000000000E+01  0.51100000000E-03 0.  1.
    9000002   -1    0    0    0    0 -0.00000000000E+00 -0.00000000000E+00  0.00000000000E+00  0.93800000000E+00  0.93800000000E+00 0.  1.
         11    1    1    2    0    0  0.13885449855E-01 -0.28664452274E-04  0.19285692001E+00  0.19335681849E+00  0.51100000000E-03 0. -1.
    9000002    1    1    2    0    0 -0.29116744383E+00  0.61012782241E-02  0.56537336309E-01  0.98379681659E+00  0.93800000000E+00 0.  1.
         22    1    1    2    0    0  0.27728199397E+00 -0.60726137718E-02  0.37506057110E+01  0.37608463649E+01  0.00000000000E+00 0.  1.
</event>
<event>
 5    1  0.1537976E+002  0.1599640E+01  0.7818608E-02  0.3353754E+00
         11   -1    0    0    0    0  0.00000000000E+00  0.00000000000E+00  0.39999999674E+01  0.40000000000E+01  0.51100000000E-03 0.  1.
    9000002   -1    0    0    0    0 -0.00000000000E+00 -0.00000000000E+00  0.00000000000E+00  0.93800000000E+00  0.93800000000E+00 0.  1.
         11    1    1    2    0    0  0.20073669645E+00  0.91406450968E-01  0.20139557642E+01  0.20259981347E+01  0.51100000000E-03 0.  1.
    9000002    1    1    2    0    0 -0.39540290314E+00 -0.18594643214E+00  0.12945574836E+00  0.10428433834E+01  0.93800000000E+00 0.  1.
         22    1    1    2    0    0  0.19466620669E+00  0.94539981174E-01  0.18565884548E+01  0.18691584819E+01  0.00000000000E+00 0.  1.
</event>
<event>
 5    1  0.1537976E+002  0.1458946E+01  0.7818608E-02  0.3522293E+00
         11   -1    0    0    0    0  0.00000000000E+00  0.00000000000E+00  0.39999999674E+01  0.40000000000E+01  0.51100000000E-03 0. -1.
    9000002   -1    0    0    0    0 -0.00000000000E+00 -0.00000000000E+00  0.00000000000E+00  0.93800000000E+00  0.93800000000E+00 0. -1.
         11    1    1    2    0    0 -0.13009759920E-01  0.73882497427E-01 -0.46570994519E-01  0.88300599832E-01  0.51100000000E-03 0. -1.
    9000002    1    1    2    0    0 -0.29125566942E+00 -0.46424713044E+00  0.38157204240E+00  0.11514323630E+01  0.93800000000E+00 0. -1.
         22    1    1    2    0    0  0.30426542934E+00  0.39036463301E+00  0.36649989195E+01  0.36982670371E+01  0.00000000000E+00 0. -1.
</event>
<event>
 5    1  0.1537976E+002  0.1599561E+01  0.7818608E-02  0.3353840E+00
         11   -1    0    0    0    0  0.00000000000E+00  0.00000000000E+00  0.39999999674E+01  0.40000000000E+01  0.51100000000E-03 0.  1.
    9000002   -1    0    0    0    0 -0.00000000000E+00 -0.00000000000E+00  0.00000000000E+00  0.93800000000E+00  0.93800000000E+00 0. -1.
         11    1    1    2    0    0  0.36151955358E-01 -0.22079537867E-01  0.39839744619E+00  0.40064355245E+00  0.51100000000E-03 0.  1.
    9000002    1    1    2    0    0 -0.34464571681E+00  0.14022927491E+00  0.93157867477E-01  0.10133939550E+01  0.93800000000E+00 0. -1.
         22    1    1    2    0    0  0.30849376145E+00 -0.11814973704E+00  0.35084446537E+01  0.35239624926E+01  0.00000000000E+00 0.  1.
</event>
<event>
 5    1  0.1537976E+002  0.1571978E+01  0.7818608E-02  0.3384350E+00
         11   -1    0    0    0    0  0.00000000000E+00  0.00000000000E+00  0.39999999674E+01  0.40000000000E+01  0.51100000000E-03 0. -1.
    9000002   -1    0    0    0    0 -0.00000000000E+00 -0.00000000000E+00  0.00000000000E+00  0.93800000000E+00  0.93800000000E+00 0.  1.
         11    1    1    2    0    0 -0.26605721001E+00 -0.53753765758E-01  0.17376172288E+01  0.17586897968E+01  0.51100000000E-03 0. -1.
    9000002    1    1    2    0    0  0.48261073770E+00 -0.30542928175E+00  0.25345594126E+00  0.11270688020E+01  0.93800000000E+00 0.  1.
         22    1    1    2    0    0 -0.21655352770E+00  0.35918304751E+00  0.20089267973E+01  0.20522414012E+01  0.00000000000E+00 0. -1.
</event>
<event>
 5    1  0.1616561E+002  0.1590318E+01  0.7818608E-02  0.3363940E+00
         11   -1    0    0    0    0  0.00000000000E+00  0.00000000000E+00  0.39999999674E+01  0.40000000000E+01  0.51100000000E-03 0.  1.
    9000002   -1    0    0    0    0 -0.00000000000E+00 -0.00000000000E+00  0.00000000000E+00  0.93800000000E+00  0.93800000000E+00 0.  1.
         11    1    1    2    0    0  0.46147481450E-01 -0.26244671512E-01  0.34908148284E+00  0.35309561822E+00  0.51100000000E-03 0.  1.
    9000002    1    1    2    0    0  0.14242296058E+00 -0.44520576701E-01  0.21639998534E-01  0.95004140488E+00  0.93800000000E+00 0.  1.
         22    1    1    2    0    0 -0.18857044203E+00  0.70765248213E-01  0.36292784860E+01  0.36348629769E+01  0.00000000000E+00 0.  1.
</event>
<event>
 5    1  0.1537976E+002  0.1599372E+01  0.7818608E-02  0.3354045E+00
         11   -1    0    0    0    0  0.00000000000E+00  0.00000000000E+00  0.39999999674E+01  0.40000000000E+01  0.51100000000E-03 0. -1.
    9000002   -1    0    0    0    0 -0.00000000000E+00 -0.00000000000E+00  0.00000000000E+00  0.93800000000E+00  0.93800000000E+00 0.  1.
         11    1    1    2    0    0  0.61711134114E-01  0.13588463080E-01  0.85437397371E+00  0.85670768555E+00  0.51100000000E-03 0. -1.
    9000002    1    1    2    0    0 -0.24913257509E+00 -0.13421549738E+00  0.53577797660E-01  0.98122139199E+00  0.93800000000E+00 0.  1.
         22    1    1    2    0    0  0.18742144097E+00  0.12062703430E+00  0.30920481960E+01  0.31000709225E+01  0.00000000000E+00 0. -1.
</event>
<event>
 5    1  0.1537976E+002  0.1599519E+01  0.7818608E-02  0.3353886E+00
         11   -1    0    0    0    0  0.00000000000E+00  0.00000000000E+00  0.39999999674E+01  0.40000000000E+01  0.51100000000E-03 0.  1.
    9000002   -1    0    0    0    0 -0.00000000000E+00 -0.00000000000E+00  0.00000000000E+00  0.93800000000E+00  0.93800000000E+00 0. -1.
         11    1    1    2    0    0 -0.77808795539E-01  0.12062747424E+00  0.13743176741E+01  0.13817939523E+01  0.51100000000E-03 0.  1.
    9000002    1    1    2    0    0  0.19992902432E+00 -0.37625817795E+00  0.12301417900E+00  0.10375540080E+01  0.93800000000E+00 0. -1.
         22    1    1    2    0    0 -0.12212022878E+00  0.25563070370E+00  0.25026681143E+01  0.25186520397E+01  0.00000000000E+00 0.  1.
</event>
<event>
 5    1  0.1537976E+002  0.1599509E+01  0.7818608E-02  0.3353896E+00
         11   -1    0    0    0    0  0.00000000000E+00  0.00000000000E+00  0.39999999674E+01  0.40000000000E+01  0.51100000000E-03 0. -1.
    9000002   -1    0    0    0    0 -0.00000000000E+00 -0.00000000000E+00  0.00000000000E+00  0.93800000000E+00  0.93800000000E+00 0.  1.
         11    1    1    2    0    0  0.12177286569E-03  0.21266255807E-01  0.23268255171E+00  0.23365294661E+00  0.51100000000E-03 0. -1.
    9000002    1    1    2    0    0  0.11982174697E+00 -0.33639429207E+00  0.85705735318E-01  0.10073270789E+01  0.93800000000E+00 0.  1.
         22    1    1    2    0    0 -0.11994351984E+00  0.31512803627E+00  0.36816116803E+01  0.36970199745E+01  0.00000000000E+00 0. -1.
</event>
<event>
 5    1  0.1537976E+002  0.1599666E+01  0.7818608E-02  0.3353726E+00
         11   -1    0    0    0    0  0.00000000000E+00  0.00000000000E+00  0.39999999674E+01  0.40000000000E+01  0.51100000000E-03 0.  1.
    9000002   -1    0    0    0    0 -0.00000000000E+00 -0.00000000000E+00  0.00000000000E+00  0.93800000000E+00  0.93800000000E+00 0. -1.
         11    1    1    2    0    0 -0.11784289812E-01  0.44326699847E-01  0.61156708609E+00  0.61328483408E+00  0.51100000000E-03 0.  1.
    9000002    1    1    2    0    0  0.82368049526E-01 -0.26892842666E+00  0.52692663608E-01  0.98067706767E+00  0.93800000000E+00 0. -1.
         22    1    1    2    0    0 -0.70583759714E-01  0.22460172682E+00  0.33357402177E+01  0.33440380983E+01  0.00000000000E+00 0.  1.
</event>
<event>
 5    1  0.1537976E+002  0.1599674E+01  0.7818608E-02  0.3353718E+00
         11   -1    0    0    0    0  0.00000000000E+00  0.00000000000E+00  0.39999999674E+01  0.40000000000E+01  0.51100000000E-03 0.  1.
    9000002   -1    0    0    0    0 -0.00000000000E+00 -0.00000000000E+00  0.00000000000E+00  0.93800000000E+00  0.93800000000E+00 0. -1.
         11    1    1    2    0    0  0.79423874998E-02 -0.55985420280E-01  0.74585336402E+00  0.74799395088E+00  0.51100000000E-03 0.  1.
    9000002    1    1    2    0    0 -0.46988930454E-01  0.28832903175E+00  0.56894019031E-01  0.98408460995E+00  0.93800000000E+00 0. -1.
         22    1    1    2    0    0  0.39046542954E-01 -0.23234361147E+00  0.31972525843E+01  0.32059214392E+01  0.00000000000E+00 0.  1.
</event>
<event>
 5    1  0.1537976E+002  0.1591058E+01  0.7818608E-02  0.3363126E+00
         11   -1    0    0    0    0  0.00000000000E+00  0.00000000000E+00  0.39999999674E+01  0.40000000000E+01  0.51100000000E-03 0. -1.
    9000002   -1    0    0    0    0 -0.00000000000E+00 -0.00000000000E+00  0.00000000000E+00  0.93800000000E+00  0.93800000000E+00 0. -1.
         11    1    1    2    0    0  0.72383895675E+00  0.13746313341E+00  0.13523137114E+01  0.15399972674E+01  0.51100000000E-03 0. -1.
    9000002    1    1    2    0    0 -0.11706889373E+01 -0.22224631406E+00  0.13770512502E+01  0.20484189410E+01  0.93800000000E+00 0. -1.
         22    1    1    2    0    0  0.44684998056E+00  0.84783180647E-01  0.12706350058E+01  0.13495837917E+01  0.00000000000E+00 0. -1.
</event>
<event>
 5    1  0.1537976E+002  0.1599656E+01  0.7818608E-02  0.3353736E+00
         11   -1    0    0    0    0  0.00000000000E+00  0.00000000000E+00  0.39999999674E+01  0.40000000000E+01  0.51100000000E-03 0. -1.
    9000002   -1    0    0    0    0 -0.00000000000E+00 -0.00000000000E+00  0.00000000000E+00  0.93800000000E+00  0.93800000000E+00 0.  1.
         11    1    1    2    0    0 -0.27159686785E-01  0.10031804512E-01  0.35504971801E+00  0.35622864718E+00  0.51100000000E-03 0. -1.
    9000002    1    1    2    0    0  0.32560450057E+00 -0.87843980223E-01  0.76171811875E-01  0.99969045238E+00  0.93800000000E+00 0.  1.
         22    1    1    2    0    0 -0.29844481378E+00  0.77812175711E-01  0.35687784375E+01  0.35820809004E+01  0.00000000000E+00 0. -1.
</event>
<event>
 5    1  0.1537976E+002  0.1599677E+01  0.7818608E-02  0.3353714E+00
         11   -1    0    0    0    0  0.00000000000E+00  0.00000000000E+00  0.39999999674E+01  0.40000000000E+01  0.51100000000E-03 0. -1.
    9000002   -1    0    0    0    0 -0.00000000000E+00 -0.00000000000E+00  0.00000000000E+00  0.93800000000E+00  0.93800000000E+00 0. -1.
         11    1    1    2    0    0  0.21588313397E-01 -0.10684868019E+00  0.13644917059E+01  0.13688391331E+01  0.51100000000E-03 0. -1.
    9000002    1    1    2    0    0 -0.62137813149E-01  0.30730328968E+00  0.65659396708E-01  0.99118695313E+00  0.93800000000E+00 0. -1.
         22    1    1    2    0    0  0.40549499752E-01 -0.20045460949E+00  0.25698488647E+01  0.25779739138E+01  0.00000000000E+00 0.  1.
</event>
<event>
 5    1  0.1537976E+002  0.1549851E+01  0.7818608E-02  0.3409659E+00
         11   -1    0    0    0    0  0.00000000000E+00  0.00000000000E+00  0.39999999674E+01  0.40000000000E+01  0.51100000000E-03 0.  1.
    9000002   -1    0    0    0    0 -0.00000000000E+00 -0.00000000000E+00  0.00000000000E+00  0.93800000000E+00  0.93800000000E+00 0.  1.
         11    1    1    2    0    0 -0.16966315833E+00 -0.20457419092E+00  0.12436655505E+01  0.12717470069E+01  0.51100000000E-03 0.  1.
    9000002    1    1    2    0    0  0.74095932995E-01  0.65918729765E-02  0.40794692151E-01  0.94182900093E+00  0.93800000000E+00 0.  1.
         22    1    1    2    0    0  0.95567225335E-01  0.19798231795E+00  0.27155397247E+01  0.27244239922E+01  0.00000000000E+00 0.  1.
</event>
<event>
 5    1  0.1537976E+002  0.1599635E+01  0.7818608E-02  0.3353759E+00
         11   -1    0    0    0    0  0.00000000000E+00  0.00000000000E+00  0.39999999674E+01  0.40000000000E+01  0.51100000000E-03 0.  1.
    9000002   -1    0    0    0    0 -0.00000000000E+00 -0.00000000000E+00  0.00000000000E+00  0.93800000000E+00  0.93800000000E+00 0. -1.
         11    1    1    2    0    0  0.34035199472E-01  0.99568784140E-01  0.13267697165E+01  0.13309359411E+01  0.51100000000E-03 0.  1.
    9000002    1    1    2    0    0 -0.10623963802E+00 -0.31569536365E+00  0.74291702956E-01  0.99815513847E+00  0.93800000000E+00 0. -1.
         22    1    1    2    0    0  0.72204438550E-01  0.21612657951E+00  0.25989385479E+01  0.26089089205E+01  0.00000000000E+00 0.  1.
</event>
<event>
 5    1  0.1537976E+002  0.1599370E+01  0.7818608E-02  0.3354048E+00
         11   -1    0    0    0    0  0.00000000000E+00  0.00000000000E+00  0.39999999674E+01  0.40000000000E+01  0.51100000000E-03 0. -1.
    9000002   -1    0    0    0    0 -0.00000000000E+00 -0.00000000000E+00  0.00000000000E+00  0.93800000000E+00  0.93800000000E+00 0.  1.
         11    1    1    2    0    0  0.73418619780E-01 -0.33985075732E+00  0.23464576890E+01  0.23720777345E+01  0.51100000000E-03 0. -1.
    9000002    1    1    2    0    0 -0.15058950025E+00  0.55164713472E+00  0.22711288760E+00  0.11217914345E+01  0.93800000000E+00 0.  1.
         22    1    1    2    0    0  0.77170880473E-01 -0.21179637740E+00  0.14264293907E+01  0.14441308310E+01  0.00000000000E+00 0. -1.
</event>
<event>
 5    1  0.1537976E+002  0.1595555E+01  0.7818608E-02  0.3358202E+00
         11   -1    0    0    0    0  0.00000000000E+00  0.00000000000E+00  0.39999999674E+01  0.40000000000E+01  0.51100000000E-03 0. -1.
    9000002   -1    0    0    0    0 -0.00000000000E+00 -0.00000000000E+00  0.00000000000E+00  0.93800000000E+00  0.93800000000E+00 0.  1.
         11    1    1    2    0    0 -0.20851686377E-02 -0.17529198321E-01  0.14631910445E+01  0.14632976165E+01  0.51100000000E-03 0. -1.
    9000002    1    1    2    0    0 -0.19170401345E+00  0.91846719990E-01  0.33046838538E-01  0.96235250417E+00  0.93800000000E+00 0.  1.
         22    1    1    2    0    0  0.19378918209E+00 -0.74317521670E-01  0.25037620843E+01  0.25123498793E+01  0.00000000000E+00 0. -1.
</event>
<event>
 5    1  0.1537976E+002  0.1563245E+01  0.7818608E-02  0.3394249E+00
         11   -1    0    0    0    0  0.00000000000E+00  0.00000000000E+00  0.39999999674E+01  0.40000000000E+01  0.51100000000E-03 0. -1.
    9000002   -1    0    0    0    0 -0.00000000000E+00 -0.00000000000E+00  0.00000000000E+00  0.93800000000E+00  0.93800000000E+00 0.  1.
         11    1    1    2    0    0  0.32377950469E-02  0.17078752202E+00  0.76461234279E+00  0.78346101171E+00  0.51100000000E-03 0. -1.
    9000002    1    1    2    0    0  0.11208498281E+00  0.47927878866E-01  0.37003204543E-01  0.94661151593E+00  0.93800000000E+00 0.  1.
         22    1    1    2    0    0 -0.11532277786E+00 -0.21871540089E+00  0.31983844200E+01  0.32079274724E+01  0.00000000000E+00 0. -1.
</event>
<event>
 5    1  0.1537976E+002  0.1599090E+01  0.7818608E-02  0.3354352E+00
         11   -1    0    0    0    0  0.00000000000E+00  0.00000000000E+00  0.39999999674E+01  0.40000000000E+01  0.51100000000E-03 0.  1.
    9000002   -1    0    0    0    0 -0.00000000000E+00 -0.00000000000E+00  0.00000000000E+00  0.93800000000E+00  0.93800000000E+00 0. -1.
         11    1    1    2    0    0 -0.10663937949E+00  0.15291510486E+00  0.10378144992E+01  0.10544259967E+01  0.51100000000E-03 0.  1.
    9000002    1    1    2    0    0  0.28971523009E+00 -0.54195598139E+00  0.26491381868E+00  0.11522476000E+01  0.93800000000E+00 0. -1.
         22    1    1    2    0    0 -0.18307585060E+00  0.38904087652E+00  0.26972716495E+01  0.27313264034E+01  0.00000000000E+00 0.  1.
</event>
<event>
 5    1  0.1537976E+002  0.1599676E+01  0.7818608E-02  0.3353715E+00
         11   -1    0    0    0    0  0.00000000000E+00  0.00000000000E+00  0.39999999674E+01  0.40000000000E+01  0.51100000000E-03 0.  1.
    9000002   -1    0    0    0    0 -0.00000000000E+00 -0.00000000000E+00  0.00000000000E+00  0.93800000000E+00  0.93800000000E+00 0.  1.
         11    1    1    2    0    0  0.14193677233E+00  0.27400687148E+00  0.19119108663E+01  0.19366541340E+01  0.51100000000E-03 0.  1.
    9000002    1    1    2    0    0 -0.27892222925E+00 -0.53876911959E+00  0.25717314237E+00  0.11463209844E+01  0.93800000000E+00 0.  1.
         22    1    1    2    0    0  0.13698545692E+00  0.26476224811E+00  0.18309159587E+01  0.18550248816E+01  0.00000000000E+00 0.  1.
</event>
<event>
 5    1  0.1537976E+002  0.1596660E+01  0.7818608E-02  0.3356996E+00
         11   -1    0    0    0    0  0.00000000000E+00  0.00000000000E+00  0.39999999674E+01  0.40000000000E+01  0.51100000000E-03 0.  1.
    9000002   -1    0    0    0    0 -0.00000000000E+00 -0.00000000000E+00  0.00000000000E+00  0.93800000000E+00  0.93800000000E+00 0. -1.
         11    1    1    2    0    0  0.12630523920E+00  0.16671781885E+00  0.15850274740E+01  0.15987683381E+01  0.51100000000E-03 0.  1.
    9000002    1    1    2    0    0 -0.34093118016E+00 -0.25182582614E+00  0.12412024916E+00  0.10367739158E+01  0.93800000000E+00 0. -1.
         22    1    1    2    0    0  0.21462594096E+00  0.85108007292E-01  0.22908522442E+01  0.23024577460E+01  0.00000000000E+00 0. -1.
</event>
<event>
 5    1  0.1537976E+002  0.1563583E+01  0.7818608E-02  0.3393863E+00
         11   -1    0    0    0    0  0.00000000000E+00  0.00000000000E+00  0.39999999674E+01  0.40000000000E+01  0.51100000000E-03 0.  1.
    9000002   -1    0    0    0    0 -0.00000000000E+00 -0.00000000000E+00  0.00000000000E+00  0.93800000000E+00  0.93800000000E+00 0. -1.
         11    1    1    2    0    0  0.11009612119E+00  0.17052979239E+00  0.11919347534E+01  0.12090948199E+01  0.51100000000E-03 0.  1.
    9000002    1    1    2    0    0 -0.15582247313E+00  0.98684745850E-01  0.49908587675E-01  0.95726390787E+00  0.93800000000E+00 0. -1.
         22    1    1    2    0    0  0.45726351937E-01 -0.26921453824E+00  0.27581566263E+01  0.27716412722E+01  0.00000000000E+00 0.  1.
</event>
<event>
 5    1  0.1537976E+002  0.1567396E+01  0.7818608E-02  0.3389529E+00
         11   -1    0    0    0    0  0.00000000000E+00  0.00000000000E+00  0.39999999674E+01  0.40000000000E+01  0.51100000000E-03 0. -1.
    9000002   -1    0    0    0    0 -0.00000000000E+00 -0.00000000000E+00  0.00000000000E+00  0.93800000000E+00  0.93800000000E+00 0. -1.
         11    1    1    2    0    0 -0.41675625631E-01 -0.17522650437E+00  0.82811720036E+00  0.84747834442E+00  0.51100000000E-03 0. -1.
    9000002    1    1    2    0    0  0.20651549918E+00 -0.62442518479E-02  0.52923581793E-01  0.96194207081E+00  0.93800000000E+00 0. -1.
         22    1    1    2    0    0 -0.16483987355E+00  0.18147075621E+00  0.31189591852E+01  0.31285795848E+01  0.00000000000E+00 0. -1.
</event>
<event>
 5    1  0.1537976E+002  0.1591239E+01  0.7818608E-02  0.3362927E+00
         11   -1    0    0    0    0  0.00000000000E+00  0.00000000000E+00  0.39999999674E+01  0.40000000000E+01  0.51100000000E-03 0. -1.
    9000002   -1    0    0    0    0 -0.00000000000E+00 -0.00000000000E+00  0.00000000000E+00  0.93800000000E+00  0.93800000000E+00 0.  1.
         11    1    1    2    0    0  0.77841192843E-01 -0.95655989886E-02  0.16851499401E+01  0.16869740169E+01  0.51100000000E-03 0. -1.
    9000002    1    1    2    0    0 -0.12352649420E+00  0.27132563077E+00  0.65907263140E-01  0.98644014518E+00  0.93800000000E+00 0.  1.
         22    1    1    2    0    0  0.45685301357E-01 -0.26176003178E+00  0.22489427641E+01  0.22645858379E+01  0.00000000000E+00 0. -1.
</event>
<event>
 5    1  0.1537976E+002  0.1599670E+01  0.7818608E-02  0.3353721E+00
         11   -1    0    0    0    0  0.00000000000E+00  0.00000000000E+00  0.39999999674E+01  0.40000000000E+01  0.51100000000E-03 0.  1.
    9000002   -1    0    0    0    0 -0.00000000000E+00 -0.00000000000E+00  0.00000000000E+00  0.93800000000E+00  0.93800000000E+00 0.  1.
         11    1    1    2    0    0 -0.81123550133E-01  0.95609378397E-02  0.87596804529E+00  0.87976856014E+00  0.51100000000E-03 0.  1.
    9000002    1    1    2    0    0  0.36096249977E+00 -0.54123480679E-01  0.89484449944E-01  0.10104824314E+01  0.93800000000E+00 0.  1.
         22    1    1    2    0    0 -0.27983894963E+00  0.44562542840E-01  0.30345474721E+01  0.30477490085E+01  0.00000000000E+00 0.  1.
</event>
<event>
 5    1  0.1537976E+002  0.1464462E+01  0.7818608E-02  0.3515027E+00
         11   -1    0    0    0    0  0.00000000000E+00  0.00000000000E+00  0.39999999674E+01  0.40000000000E+01  0.51100000000E-03 0.  1.
    9000002   -1    0    0    0    0 -0.00000000000E+00 -0.00000000000E+00  0.00000000000E+00  0.93800000000E+00  0.93800000000E+00 0. -1.
         11    1    1    2    0    0 -0.87480394803E-01  0.44020037766E+00  0.15288305369E+01  0.15933462473E+01  0.51100000000E-03 0.  1.
    9000002    1    1    2    0    0 -0.11107175840E+00 -0.69858732421E-01  0.11822706328E+00  0.95448353391E+00  0.93800000000E+00 0. -1.
         22    1    1    2    0    0  0.19855215320E+00 -0.37034164524E+00  0.23529423672E+01  0.23901702188E+01  0.00000000000E+00 0.  1.
</event>
<event>
 5    1  0.1537976E+002  0.1596443E+01  0.7818608E-02  0.3357233E+00
         11   -1    0    0    0    0  0.00000000000E+00  0.00000000000E+00  0.39999999674E+01  0.40000000000E+01  0.51100000000E-03 0. -1.
    9000002   -1    0    0    0    0 -0.00000000000E+00 -0.00000000000E+00  0.00000000000E+00  0.93800000000E+00  0.93800000000E+00 0.  1.
         11    1    1    2    0    0  0.73323525347E+00 -0.23256042466E+00  0.23135986221E+01  0.24381257419E+01  0.51100000000E-03 0. -1.
    9000002    1    1    2    0    0 -0.10243927028E+01  0.33840705612E+00  0.99363419694E+00  0.17409918617E+01  0.93800000000E+00 0.  1.
         22    1    1    2    0    0  0.29115744937E+00 -0.10584663147E+00  0.69276714829E+00  0.75888239634E+00  0.00000000000E+00 0. -1.
</event>
<event>
 5    1  0.1537976E+002  0.1599191E+01  0.7818608E-02  0.3354242E+00
         11   -1    0    0    0    0  0.00000000000E+00  0.00000000000E+00  0.39999999674E+01  0.40000000000E+01  0.51100000000E-03 0.  1.
    9000002   -1    0    0    0    0 -0.00000000000E+00 -0.00000000000E+00  0.00000000000E+00  0.93800000000E+00  0.93800000000E+00 0.  1.
         11    1    1    2    0    0 -0.27202797686E-01 -0.47186449784E-01  0.10892626599E+01  0.10906236549E+01  0.51100000000E-03 0.  1.
    9000002    1    1    2    0    0  0.63722630566E-01  0.24999155511E+00  0.44612763503E-01  0.97385350538E+00  0.93800000000E+00 0.  1.
         22    1    1    2    0    0 -0.36519832880E-01 -0.20280510533E+00  0.28661245440E+01  0.28735228398E+01  0.00000000000E+00 0.  1.
</event>
<event>
 5    1  0.1537976E+002  0.1598770E+01  0.7818608E-02  0.3354700E+00
         11   -1    0    0    0    0  0.00000000000E+00  0.00000000000E+00  0.39999999674E+01  0.40000000000E+01  0.51100000000E-03 0. -1.
    9000002   -1    0    0    0    0 -0.00000000000E+00 -0.00000000000E+00  0.00000000000E+00  0.93800000000E+00  0.93800000000E+00 0. -1.
         11    1    1    2    0    0  0.19352451099E+00  0.38494352305E+00  0.20818277665E+01  0.21259445813E+01  0.51100000000E-03 0. -1.
    9000002    1    1    2    0    0 -0.27413074247E+00 -0.67164653592E+00  0.37981405770E+00  0.12451343107E+01  0.93800000000E+00 0. -1.
         22    1    1    2    0    0  0.80606231474E-01  0.28670301287E+00  0.15383581432E+01  0.15669211080E+01  0.00000000000E+00 0.  1.
</event>
<event>
 5    1  0.1537976E+002  0.1599671E+01  0.7818608E-02  0.3353721E+00
         11   -1    0    0    0    0  0.00000000000E+00  0.00000000000E+00  0.39999999674E+01  0.40000000000E+01  0.51100000000E-03 0. -1.
    9000002   -1    0    0    0    0 -0.00000000000E+00 -0.00000000000E+00  0.00000000000E+00  0.93800000000E+00  0.93800000000E+00 0. -1.
         11    1    1    2    0    0  0.18636113964E+00  0.12347755637E+00  0.17752590118E+01  0.17892797437E+01  0.51100000000E-03 0. -1.
    9000002    1    1    2    0    0 -0.39911963865E+00 -0.26270644778E+00  0.15573224786E+00  0.10641464639E+01  0.93800000000E+00 0. -1.
         22    1    1    2    0    0  0.21275849901E+00  0.13922889142E+00  0.20690087077E+01  0.20845737924E+01  0.00000000000E+00 0. -1.
</event>
<event>
 5    1  0.1537976E+002  0.1531446E+01  0.7818608E-02  0.3431304E+00
         11   -1    0    0    0    0  0.00000000000E+00  0.00000000000E+00  0.39999999674E+01  0.40000000000E+01  0.51100000000E-03 0. -1.
    9000002   -1    0    0    0    0 -0.00000000000E+00 -0.00000000000E+00  0.00000000000E+00  0.93800000000E+00  0.93800000000E+00 0.  1.
         11    1    1    2    0    0 -0.22368136973E+00  0.92784757045E-01  0.78101699135E+00  0.81769809111E+00  0.51100000000E-03 0. -1.
    9000002    1    1    2    0    0 -0.68346106110E-01 -0.40493609838E-01  0.55557946789E-01  0.94299608064E+00  0.93800000000E+00 0.  1.
         22    1    1    2    0    0  0.29202747584E+00 -0.52291147207E-01  0.31634250292E+01  0.31773058282E+01  0.00000000000E+00 0. -1.
</event>
<event>
 5    1  0.1537976E+002  0.1599665E+01  0.7818608E-02  0.3353727E+00
         11   -1    0    0    0    0  0.00000000000E+00  0.00000000000E+00  0.39999999674E+01  0.40000000000E+01  0.51100000000E-03 0. -1.
    9000002   -1    0    0    0    0 -0.00000000000E+00 -0.00000000000E+00  0.00000000000E+00  0.93800000000E+00  0.93800000000E+00 0. -1.
         11    1    1    2    0    0  0.20917206373E-01  0.38088299567E-01  0.61637318987E+00  0.61790324356E+00  0.51100000000E-03 0. -1.
    9000002    1    1    2    0    0 -0.14462872990E+00 -0.25900281819E+00  0.58696619820E-01  0.98554006642E+00  0.93800000000E+00 0. -1.
         22    1    1    2    0    0  0.12371152353E+00  0.22091451862E+00  0.33249301577E+01  0.33345566900E+01  0.00000000000E+00 0. -1.
</event>
<event>
 5    1  0.1537976E+002  0.1598815E+01  0.7818608E-02  0.3354651E+00
         11   -1    0    0    0    0  0.00000000000E+00  0.00000000000E+00  0.39999999674E+01  0.40000000000E+01  0.51100000000E-03 0. -1.
    9000002   -1    0    0    0    0 -0.00000000000E+00 -0.00000000000E+00  0.00000000000E+00  0.93800000000E+00  0.93800000000E+00 0. -1.
         11    1    1    2    0    0  0.19661205533E+00 -0.10326120340E+00  0.15765346066E+01  0.15920994954E+01  0.51100000000E-03 0. -1.
    9000002    1    1    2    0    0 -0.40393754176E+00  0.21529118993E+00  0.14321344543E+00  0.10535036426E+01  0.93800000000E+00 0. -1.
         22    1    1    2    0    0  0.20732548642E+00 -0.11202998653E+00  0.22802519154E+01  0.22923968620E+01  0.00000000000E+00 0. -1.
</event>
<event>
 5    1  0.1537976E+002  0.1599673E+01  0.7818608E-02  0.3353719E+00
         11   -1    0    0    0    0  0.00000000000E+00  0.00000000000E+00  0.39999999674E+01  0.40000000000E+01  0.51100000000E-03 0.  1.
    9000002   -1    0    0    0    0 -0.00000000000E+00 -0.00000000000E+00  0.00000000000E+00  0.93800000000E+00  0.93800000000E+00 0. -1.
         11    1    1    2    0    0 -0.13893930953E-01 -0.85096450457E-01  0.10026974189E+01  0.10063979442E+01  0.51100000000E-03 0.  1.
    9000002    1    1    2    0    0  0.52333926114E-01  0.32504555481E+00  0.72521561911E-01  0.99674311107E+00  0.93800000000E+00 0. -1.
         22    1    1    2    0    0 -0.38439995162E-01 -0.23994910435E+00  0.29247809866E+01  0.29348589447E+01  0.00000000000E+00 0.  1.
</event>
<event>
 5    1  0.1537976E+002  0.1590542E+01  0.7818608E-02  0.3363694E+00
         11   -1    0    0    0    0  0.00000000000E+00  0.00000000000E+00  0.39999999674E+01  0.40000000000E+01  0.51100000000E-03 0.  1.
    9000002   -1    0    0    0    0 -0.00000000000E+00 -0.00000000000E+00  0.00000000000E+00  0.93800000000E+00  0.93800000000E+00 0. -1.
         11    1    1    2    0    0  0.45560068646E-01 -0.65625672974E-02  0.26621225180E+00  0.27016293467E+00  0.51100000000E-03 0.  1.
    9000002    1    1    2    0    0  0.17944371848E+00  0.70908124082E-01  0.31496224474E-01  0.95815657505E+00  0.93800000000E+00 0. -1.
         22    1    1    2    0    0 -0.22500378713E+00 -0.64345556784E-01  0.37022914911E+01  0.37096804903E+01  0.00000000000E+00 0.  1.
</event>
<event>
 5    1  0.1537976E+002  0.1599676E+01  0.7818608E-02  0.3353715E+00
         11   -1    0    0    0    0  0.00000000000E+00  0.00000000000E+00  0.39999999674E+01  0.40000000000E+01  0.51100000000E-03 0.  1.
    9000002   -1    0    0    0    0 -0.00000000000E+00 -0.00000000000E+00  0.00000000000E+00  0.93800000000E+00  0.93800000000E+00 0. -1.
         11    1    1    2    0    0 -0.63501606409E-01 -0.10126430207E+00  0.13358635133E+01  0.13412003952E+01  0.51100000000E-03 0.  1.
    9000002    1    1    2    0    0  0.18427170122E+00  0.29525237713E+00  0.81201942595E-01  0.10037767588E+01  0.93800000000E+00 0. -1.
         22    1    1    2    0    0 -0.12077009481E+00 -0.19398807506E+00  0.25829345115E+01  0.25930228460E+01  0.00000000000E+00 0.  1.
</event>
<event>
 5    1  0.1537976E+002  0.1599677E+01  0.7818608E-02  0.3353714E+00
         11   -1    0    0    0    0  0.00000000000E+00  0.00000000000E+00  0.39999999674E+01  0.40000000000E+01  0.51100000000E-03 0. -1.
    9000002   -1    0    0    0    0 -0.00000000000E+00 -0.00000000000E+00  0.00000000000E+00  0.93800000000E+00  0.93800000000E+00 0. -1.
         11    1    1    2    0    0 -0.45282848190E-01  0.32251693017E-01  0.80151606568E+00  0.80344195354E+00  0.51100000000E-03 0. -1.
    9000002    1    1    2    0    0  0.22485468743E+00 -0.15788433969E+00  0.50245689311E-01  0.97870103937E+00  0.93800000000E+00 0. -1.
         22    1    1    2    0    0 -0.17957183924E+00  0.12563264667E+00  0.31482382124E+01  0.31558570071E+01  0.00000000000E+00 0. -1.
</event>
<event>
 5    1  0.1537976E+002  0.1599669E+01  0.7818608E-02  0.3353723E+00
         11   -1    0    0    0    0  0.00000000000E+00  0.00000000000E+00  0.39999999674E+01  0.40000000000E+01  0.51100000000E-03 0.  1.
    9000002   -1    0    0    0    0 -0.00000000000E+00 -0.00000000000E+00  0.00000000000E+00  0.93800000000E+00  0.93800000000E+00 0.  1.
         11    1    1    2    0    0  0.59550605822E-02  0.28464964031E-01  0.41904550801E+00  0.42005370589E+00  0.51100000000E-03 0.  1.
    9000002    1    1    2    0    0 -0.68234391408E-01 -0.25324187387E+00  0.45745078292E-01  0.97505076331E+00  0.93800000000E+00 0.  1.
         22    1    1    2    0    0  0.62279330826E-01  0.22477690984E+00  0.35352093811E+01  0.35428955308E+01  0.00000000000E+00 0.  1.
</event>
<event>
 5    1  0.1537976E+002  0.1599661E+01  0.7818608E-02  0.3353731E+00
         11   -1    0    0    0    0  0.00000000000E+00  0.00000000000E+00  0.39999999674E+01  0.40000000000E+01  0.51100000000E-03 0.  1.
    9000002   -1    0    0    0    0 -0.00000000000E+00 -0.00000000000E+00  0.00000000000E+00  0.93800000000E+00  0.93800000000E+00 0. -1.
         11    1    1    2    0    0  0.16225869453E+00 -0.20029402479E-01  0.92113550872E+00  0.93553190617E+00  0.51100000000E-03 0.  1.
    9000002    1    1    2    0    0 -0.64226085767E+00  0.67408508262E-01  0.29400691625E+00  0.11761492180E+01  0.93800000000E+00 0. -1.
         22    1    1    2    0    0  0.48000216314E+00 -0.47379105784E-01  0.27848575424E+01  0.28263188758E+01  0.00000000000E+00 0.  1.
</event>
<event>
 5    1  0.1537976E+002  0.1587985E+01  0.7818608E-02  0.3366509E+00
         11   -1    0    0    0    0  0.00000000000E+00  0.00000000000E+00  0.39999999674E+01  0.40000000000E+01  0.51100000000E-03 0. -1.
    9000002   -1    0    0    0    0 -0.00000000000E+00 -0.00000000000E+00  0.00000000000E+00  0.93800000000E+00  0.93800000000E+00 0.  1.
         11    1    1    2    0    0  0.30513675671E-01  0.35637276447E-02  0.17911263913E+00  0.18172887271E+00  0.51100000000E-03 0. -1.
    9000002    1    1    2    0    0  0.52011240238E+00  0.21468085729E-03  0.19663147652E+00  0.10904241811E+01  0.93800000000E+00 0.  1.
         22    1    1    2    0    0 -0.55062607805E+00 -0.37784085020E-02  0.36242558517E+01  0.36658469462E+01  0.00000000000E+00 0. -1.
</event>
<event>
 5    1  0.1537976E+002  0.1565959E+01  0.7818608E-02  0.3391160E+00
         11   -1    0    0    0    0  0.00000000000E+00  0.00000000000E+00  0.39999999674E+01  0.40000000000E+01  0.51100000000E-03 0.  1.
    9000002   -1    0    0    0    0 -0.00000000000E+00 -0.00000000000E+00  0.00000000000E+00  0.93800000000E+00  0.93800000000E+00 0.  1.
         11    1    1    2    0    0  0.14601116883E+00  0.26286934652E+00  0.11357500268E+01  0.11748820959E+01  0.51100000000E-03 0.  1.
    9000002    1    1    2    0    0 -0.74417012008E+00 -0.24451310023E+00  0.49339156335E+00  0.13178979697E+01  0.93800000000E+00 0.  1.
         22    1    1    2    0    0  0.59815895125E+00 -0.18356246292E-01  0.23708583772E+01  0.24452199344E+01  0.00000000000E+00 0.  1.
</event>
<event>
 5    1  0.1537976E+002  0.1598339E+01  0.7818608E-02  0.3355168E+00
         11   -1    0    0    0    0  0.00000000000E+00  0.00000000000E+00  0.39999999674E+01  0.40000000000E+01  0.51100000000E-03 0.  1.
    9000002   -1    0    0    0    0 -0.00000000000E+00 -0.00000000000E+00  0.00000000000E+00  0.93800000000E+00  0.93800000000E+00 0.  1.
         11    1    1    2    0    0 -0.25266015130E-01  0.96800972323E-02  0.12329147520E+00  0.12622648209E+00  0.51100000000E-03 0.  1.
    9000002    1    1    2    0    0  0.40040968946E+00 -0.15524998574E-01  0.10943145715E+00  0.10258597315E+01  0.93800000000E+00 0.  1.
         22    1    1    2    0    0 -0.37514367433E+00  0.58449013417E-02  0.37672770350E+01  0.37859137864E+01  0.00000000000E+00 0.  1.
</event>
<event>
 5    1  0.1537976E+002  0.1581267E+01  0.7818608E-02  0.3373949E+00
         11   -1    0    0    0    0  0.00000000000E+00  0.00000000000E+00  0.39999999674E+01  0.40000000000E+01  0.51100000000E-03 0. -1.
    9000002   -1    0    0    0    0 -0.00000000000E+00 -0.00000000000E+00  0.00000000000E+00  0.93800000000E+00  0.93800000000E+00 0.  1.
         11    1    1    2    0    0 -0.14070419577E+00 -0.11724567442E+00  0.10616526371E+01  0.10773350463E+01  0.51100000000E-03 0. -1.
    9000002    1    1    2    0    0 -0.65244354273E-02  0.32525748873E+00  0.85533772291E-01  0.99649135894E+00  0.93800000000E+00 0.  1.
         22    1    1    2    0    0  0.14722863120E+00 -0.20801181431E+00  0.28528135579E+01  0.28641735948E+01  0.00000000000E+00 0.  1.
</event>
<event>
 5    1  0.1537976E+002  0.1599670E+01  0.7818608E-02  0.3353721E+00
         11   -1    0    0    0    0  0.00000000000E+00  0.00000000000E+00  0.39999999674E+01  0.40000000000E+01  0.51100000000E-03 0. -1.
    9000002   -1    0    0    0    0 -0.00000000000E+00 -0.00000000000E+00  0.00000000000E+00  0.93800000000E+00  0.93800000000E+00 0.  1.
         11    1    1    2    0    0 -0.13212012685E+00  0.97805375437E-01  0.15163072041E+01  0.15251916003E+01  0.51100000000E-03 0. -1.
    9000002    1    1    2    0    0  0.33099528863E+00 -0.24786801711E+00  0.11555053223E+00  0.10315969952E+01  0.93800000000E+00 0.  1.
         22    1    1    2    0    0 -0.19887516178E+00  0.15006264167E+00  0.23681422311E+01  0.23812114045E+01  0.00000000000E+00 0.  1.
</event>
<event>
 5    1  0.1537976E+002  0.1594330E+01  0.7818608E-02  0.3359541E+00
         11   -1    0    0    0    0  0.00000000000E+00  0.00000000000E+00  0.39999999674E+01  0.40000000000E+01  0.51100000000E-03 0.  1.
    9000002   -1    0    0    0    0 -0.00000000000E+00 -0.00000000000E+00  0.00000000000E+00  0.93800000000E+00  0.93800000000E+00 0. -1.
         11    1    1    2    0    0  0.18356030836E+00  0.31653284378E-01  0.16545487951E+01  0.16650009891E+01  0.51100000000E-03 0.  1.
    9000002    1    1    2    0    0 -0.59401878240E+00  0.18828811739E-01  0.25144079570E+00  0.11385426262E+01  0.93800000000E+00 0. -1.
         22    1    1    2    0    0  0.41045847404E+00 -0.50482096117E-01  0.20940103766E+01  0.21344563847E+01  0.00000000000E+00 0.  1.
</event>
<event>
 5    1  0.1537976E+002  0.1599665E+01  0.7818608E-02  0.3353727E+00
         11   -1    0    0    0    0  0.00000000000E+00  0.00000000000E+00  0.39999999674E+01  0.40000000000E+01  0.51100000000E-03 0. -1.
    9000002   -1    0    0    0    0 -0.00000000000E+00 -0.00000000000E+00  0.00000000000E+00  0.93800000000E+00  0.93800000000E+00 0.  1.
         11    1    1    2    0    0 -0.81440094755E-01  0.65424006765E-01  0.96380041734E+00  0.96944535445E+00  0.51100000000E-03 0. -1.
    9000002    1    1    2    0    0  0.32810107783E+00 -0.24901753995E+00  0.11462740343E+00  0.10308460089E+01  0.93800000000E+00 0.  1.
         22    1    1    2    0    0 -0.24666098307E+00  0.18359353319E+00  0.29215721466E+01  0.29377086366E+01  0.00000000000E+00 0. -1.
</event>
<event>
 5    1  0.1537976E+002  0.1597932E+01  0.7818608E-02  0.3355611E+00
         11   -1    0    0    0    0  0.00000000000E+00  0.00000000000E+00  0.39999999674E+01  0.40000000000E+01  0.51100000000E-03 0.  1.
    9000002   -1    0    0    0    0 -0.00000000000E+00 -0.00000000000E+00  0.00000000000E+00  0.93800000000E+00  0.93800000000E+00 0. -1.
         11    1    1    2    0    0 -0.73961685409E-01  0.13553056126E+00  0.10228400178E+01  0.10344277776E+01  0.51100000000E-03 0.  1.
    9000002    1    1    2    0    0  0.10957519329E+00 -0.51136772217E+00  0.18958028863E+00  0.10905449812E+01  0.93800000000E+00 0. -1.
         22    1    1    2    0    0 -0.35613507879E-01  0.37583716092E+00  0.27875796609E+01  0.28130272411E+01  0.00000000000E+00 0.  1.
</event>
<event>
 5    1  0.1537976E+002  0.1599677E+01  0.7818608E-02  0.3353715E+00
         11   -1    0    0    0    0  0.00000000000E+00  0.00000000000E+00  0.39999999674E+01  0.40000000000E+01  0.51100000000E-03 0.  1.
    9000002   -1    0    0    0    0 -0.00000000000E+00 -0.00000000000E+00  0.00000000000E+00  0.93800000000E+00  0.93800000000E+00 0.  1.
         11    1    1    2    0    0  0.24643921958E+00  0.63674866115E-01  0.27406715001E+00  0.37403187212E+00  0.51100000000E-03 0. -1.
    9000002    1    1    2    0    0 -0.12308115129E+01 -0.31987152405E+00  0.26342124138E+01  0.30718290664E+01  0.93800000000E+00 0.  1.
         22    1    1    2    0    0  0.98437229328E+00  0.25619665793E+00  0.10917204036E+01  0.14921390615E+01  0.00000000000E+00 0.  1.
</event>
<event>
 5    1  0.1537976E+002  0.1599644E+01  0.7818608E-02  0.3353750E+00
         11   -1    0    0    0    0  0.00000000000E+00  0.00000000000E+00  0.39999999674E+01  0.40000000000E+01  0.51100000000E-03 0. -1.
    9000002   -1    0    0    0    0 -0.00000000000E+00 -0.00000000000E+00  0.00000000000E+00  0.93800000000E+00  0.93800000000E+00 0. -1.
         11    1    1    2    0    0  0.41734150649E-02  0.93917234376E-02  0.13426727738E+00  0.13466099939E+00  0.51100000000E-03 0. -1.
    9000002    1    1    2    0    0 -0.18342715968E+00 -0.23750119394E+00  0.60101066474E-01  0.98666533243E+00  0.93800000000E+00 0. -1.
         22    1    1    2    0    0  0.17925374461E+00  0.22810947050E+00  0.38056316235E+01  0.38166736682E+01  0.00000000000E+00 0. -1.
</event>
<event>
 5    1  0.1537976E+002  0.1599677E+01  0.7818608E-02  0.3353714E+00
         11   -1    0    0    0    0  0.00000000000E+00  0.00000000000E+00  0.39999999674E+01  0.40000000000E+01  0.51100000000E-03 0.  1.
    9000002   -1    0    0    0    0 -0.00000000000E+00 -0.00000000000E+00  0.00000000000E+00  0.93800000000E+00  0.93800000000E+00 0.  1.
         11    1    1    2    0    0 -0.29579875236E+00  0.39816373908E-01  0.18177353044E+01  0.18420760417E+01  0.51100000000E-03 0.  1.
    9000002    1    1    2    0    0  0.60887817215E+00 -0.81776458388E-01  0.26414782542E+00  0.11519713935E+01  0.93800000000E+00 0.  1.
         22    1    1    2    0    0 -0.31307941979E+00  0.41960084481E-01  0.19181168376E+01  0.19439525649E+01  0.00000000000E+00 0. -1.
</event>
<event>
 5    1  0.1537976E+002  0.1599676E+01  0.7818608E-02  0.3353715E+00
         11   -1    0    0    0    0  0.00000000000E+00  0.00000000000E+00  0.39999999674E+01  0.40000000000E+01  0.51100000000E-03 0. -1.
    9000002   -1    0    0    0    0 -0.00000000000E+00 -0.00000000000E+00  0.00000000000E+00  0.93800000000E+00  0.93800000000E+00 0. -1.
         11    1    1    2    0    0  0.31419932741E+00 -0.84464444873E-01  0.17121876860E+01  0.17428259790E+01  0.51100000000E-03 0. -1.
    9000002    1    1    2    0    0 -0.66977956571E+00  0.18183445780E+00  0.34368757430E+00  0.12164019013E+01  0.93800000000E+00 0. -1.
         22    1    1    2    0    0  0.35558023830E+00 -0.97370012928E-01  0.19441247070E+01  0.19787721197E+01  0.00000000000E+00 0. -1.
</event>
<event>
 5    1  0.1537976E+002  0.1599673E+01  0.7818608E-02  0.3353719E+00
         11   -1    0    0    0    0  0.00000000000E+00  0.00000000000E+00  0.39999999674E+01  0.40000000000E+01  0.51100000000E-03 0. -1.
    9000002   -1    0    0    0    0 -0.00000000000E+00 -0.00000000000E+00  0.00000000000E+00  0.93800000000E+00  0.93800000000E+00 0. -1.
         11    1    1    2    0    0 -0.17527053036E+00 -0.50969716849E-01  0.16284241395E+01  0.16386223208E+01  0.51100000000E-03 0. -1.
    9000002    1    1    2    0    0  0.42132790725E+00  0.11755508521E+00  0.12971960032E+00  0.10430760175E+01  0.93800000000E+00 0. -1.
         22    1    1    2    0    0 -0.24605737690E+00 -0.66585368366E-01  0.22418562275E+01  0.22563016618E+01  0.00000000000E+00 0. -1.
</event>
<event>
 5    1  0.1537976E+002  0.1594462E+01  0.7818608E-02  0.3359396E+00
         11   -1    0    0    0    0  0.00000000000E+00  0.00000000000E+00  0.39999999674E+01  0.40000000000E+01  0.51100000000E-03 0. -1.
    9000002   -1    0    0    0    0 -0.00000000000E+00 -0.00000000000E+00  0.00000000000E+00  0.93800000000E+00  0.93800000000E+00 0. -1.
         11    1    1    2    0    0  0.10828965292E-01  0.10455458756E-02  0.16078978027E-01  0.19420461139E-01  0.51100000000E-03 0. -1.
    9000002    1    1    2    0    0  0.17470775614E+00 -0.22765058812E+00  0.58935454229E-01  0.98268254187E+00  0.93800000000E+00 0. -1.
         22    1    1    2    0    0 -0.18553672143E+00  0.22660504224E+00  0.39249855351E+01  0.39358969970E+01  0.00000000000E+00 0. -1.
</event>
<event>
 5    1  0.1537976E+002  0.1587235E+01  0.7818608E-02  0.3367336E+00
         11   -1    0    0    0    0  0.00000000000E+00  0.00000000000E+00  0.39999999674E+01  0.40000000000E+01  0.51100000000E-03 0. -1.
    9000002   -1    0    0    0    0 -0.00000000000E+00 -0.00000000000E+00  0.00000000000E+00  0.93800000000E+00  0.93800000000E+00 0.  1.
         11    1    1    2    0    0  0.34881689393E-01  0.72274564208E-01  0.79611086790E+00  0.80014568673E+00  0.51100000000E-03 0. -1.
    9000002    1    1    2    0    0  0.35106863749E+00 -0.26781270280E+00  0.14301314747E+00  0.10465512851E+01  0.93800000000E+00 0.  1.
         22    1    1    2    0    0 -0.38595032689E+00  0.19553813859E+00  0.30608759520E+01  0.30913030282E+01  0.00000000000E+00 0. -1.
</event>
<event>
 5    1  0.1537976E+002  0.1599677E+01  0.7818608E-02  0.3353714E+00
         11   -1    0    0    0    0  0.00000000000E+00  0.00000000000E+00  0.39999999674E+01  0.40000000000E+01  0.51100000000E-03 0. -1.
    9000002   -1    0    0    0    0 -0.00000000000E+00 -0.00000000000E+00  0.00000000000E+00  0.93800000000E+00  0.93800000000E+00 0.  1.
         11    1    1    2    0    0 -0.44303307760E-01 -0.60582788636E-01  0.89696825140E+00  0.90010297327E+00  0.51100000000E-03 0.  1.
    9000002    1    1    2    0    0  0.19498171290E+00  0.26595902373E+00  0.72762247659E-01  0.99694052749E+00  0.93800000000E+00 0.  1.
         22    1    1    2    0    0 -0.15067840514E+00 -0.20537623509E+00  0.30302694683E+01  0.30409564992E+01  0.00000000000E+00 0. -1.
</event>
<event>
 5    1  0.1537976E+002  0.1597847E+01  0.7818608E-02  0.3355704E+00
         11   -1    0    0    0    0  0.00000000000E+00  0.00000000000E+00  0.39999999674E+01  0.40000000000E+01  0.51100000000E-03 0.  1.
    9000002   -1    0    0    0    0 -0.00000000000E+00 -0.00000000000E+00  0.00000000000E+00  0.93800000000E+00  0.93800000000E+00 0. -1.
         11    1    1    2    0    0 -0.56756258607E-01  0.14273069873E-01  0.49492519446E+00  0.49837355734E+00  0.51100000000E-03 0.  1.
    9000002    1    1    2    0    0  0.19699353399E+00 -0.20829877359E+00  0.56191225932E-01  0.98244403677E+00  0.93800000000E+00 0. -1.
         22    1    1    2    0    0 -0.14023727538E+00  0.19402570372E+00  0.34488835470E+01  0.34571824059E+01  0.00000000000E+00 0.  1.
</event>
<event>
 5    1  0.1537976E+002  0.1518796E+01  0.7818608E-02  0.3446507E+00
         11   -1    0    0    0    0  0.00000000000E+00  0.00000000000E+00  0.39999999674E+01  0.40000000000E+01  0.51100000000E-03 0.  1.
    9000002   -1    0    0    0    0 -0.00000000000E+00 -0.00000000000E+00  0.00000000000E+00  0.93800000000E+00  0.93800000000E+00 0. -1.
         11    1    1    2    0    0  0.14019528026E+00  0.22181215260E+00  0.20156895842E+01  0.20326977416E+01  0.51100000000E-03 0.  1.
    9000002    1    1    2    0    0  0.86377899200E-01  0.12948203298E+00  0.78361068772E-01  0.95404989148E+00  0.93800000000E+00 0. -1.
         22    1    1    2    0    0 -0.22657317946E+00 -0.35129418558E+00  0.19059493144E+01  0.19512523669E+01  0.00000000000E+00 0.  1.
</event>
<event>
 5    1  0.1537976E+002  0.1599646E+01  0.7818608E-02  0.3353748E+00
         11   -1    0    0    0    0  0.00000000000E+00  0.00000000000E+00  0.39999999674E+01  0.40000000000E+01  0.51100000000E-03 0. -1.
    9000002   -1    0    0    0    0 -0.00000000000E+00 -0.00000000000E+00  0.00000000000E+00  0.93800000000E+00  0.93800000000E+00 0.  1.
         11    1    1    2    0    0  0.11037415570E-01  0.54701248493E-01  0.50474477590E+00  0.50782044174E+00  0.51100000000E-03 0. -1.
    9000002    1    1    2    0    0 -0.60839436433E-01 -0.44420002921E+00  0.13652021016E+00  0.10485689633E+01  0.93800000000E+00 0.  1.
         22    1    1    2    0    0  0.49802020863E-01  0.38949878072E+00  0.33587349813E+01  0.33816105950E+01  0.00000000000E+00 0. -1.
</event>
<event>
 5    1  0.1537976E+002  0.1599668E+01  0.7818608E-02  0.3353723E+00
         11   -1    0    0    0    0  0.00000000000E+00  0.00000000000E+00  0.39999999674E+01  0.40000000000E+01  0.51100000000E-03 0.  1.
    9000002   -1    0    0    0    0 -0.00000000000E+00 -0.00000000000E+00  0.00000000000E+00  0.93800000000E+00  0.93800000000E+00 0.  1.
         11    1    1    2    0    0  0.18095283370E-01  0.17934937135E+00  0.15397704704E+01  0.15502861023E+01  0.51100000000E-03 0.  1.
    9000002    1    1    2    0    0 -0.52349102309E-01 -0.44479936541E+00  0.13620021554E+00  0.10483231385E+01  0.93800000000E+00 0.  1.
         22    1    1    2    0    0  0.34253818939E-01  0.26544999405E+00  0.23240292814E+01  0.23393907592E+01  0.00000000000E+00 0.  1.
</event>
<event>
 5    1  0.1537976E+002  0.1599651E+01  0.7818608E-02  0.3353743E+00
         11   -1    0    0    0    0  0.00000000000E+00  0.00000000000E+00  0.39999999674E+01  0.40000000000E+01  0.51100000000E-03 0. -1.
    9000002   -1    0    0    0    0 -0.00000000000E+00 -0.00000000000E+00  0.00000000000E+00  0.93800000000E+00  0.93800000000E+00 0. -1.
         11    1    1    2    0    0 -0.91056125565E-01 -0.56670005854E-01  0.11237908837E+01  0.11288972136E+01  0.51100000000E-03 0. -1.
    9000002    1    1    2    0    0  0.30126938584E+00  0.18624953650E+00  0.84177409266E-01  0.10061719381E+01  0.93800000000E+00 0. -1.
         22    1    1    2    0    0 -0.21021326027E+00 -0.12957953065E+00  0.27920316744E+01  0.28029308483E+01  0.00000000000E+00 0. -1.
</event>
<event>
 5    1  0.1537976E+002  0.1599465E+01  0.7818608E-02  0.3353944E+00
         11   -1    0    0    0    0  0.00000000000E+00  0.00000000000E+00  0.39999999674E+01  0.40000000000E+01  0.51100000000E-03 0.  1.
    9000002   -1    0    0    0    0 -0.00000000000E+00 -0.00000000000E+00  0.00000000000E+00  0.93800000000E+00  0.93800000000E+00 0. -1.
         11    1    1    2    0    0 -0.93773610600E-01 -0.37273799641E+00  0.24341942748E+01  0.24643516658E+01  0.51100000000E-03 0.  1.
    9000002    1    1    2    0    0  0.16582490004E+00  0.58669366190E+00  0.26009602542E+00  0.11485648840E+01  0.93800000000E+00 0. -1.
         22    1    1    2    0    0 -0.72051289445E-01 -0.21395566550E+00  0.13057096671E+01  0.13250834501E+01  0.00000000000E+00 0.  1.
</event>
<event>
 5    1  0.1537976E+002  0.1599671E+01  0.7818608E-02  0.3353721E+00
         11   -1    0    0    0    0  0.00000000000E+00  0.00000000000E+00  0.39999999674E+01  0.40000000000E+01  0.51100000000E-03 0.  1.
    9000002   -1    0    0    0    0 -0.00000000000E+00 -0.00000000000E+00  0.00000000000E+00  0.93800000000E+00  0.93800000000E+00 0. -1.
         11    1    1    2    0    0 -0.48226845359E-01 -0.16575362874E+00  0.14132079700E+01  0.14237124435E+01  0.51100000000E-03 0.  1.
    9000002    1    1    2    0    0  0.12708917869E+00  0.44533070166E+00  0.14595783796E+00  0.10562285660E+01  0.93800000000E+00 0. -1.
         22    1    1    2    0    0 -0.78862333332E-01 -0.27957707292E+00  0.24408341594E+01  0.24580589905E+01  0.00000000000E+00 0.  1.
</event>
<event>
 5    1  0.1537976E+002  0.1556133E+01  0.7818608E-02  0.3402396E+00
         11   -1    0    0    0    0  0.00000000000E+00  0.00000000000E+00  0.39999999674E+01  0.40000000000E+01  0.51100000000E-03 0. -1.
    9000002   -1    0    0    0    0 -0.00000000000E+00 -0.00000000000E+00  0.00000000000E+00  0.93800000000E+00  0.93800000000E+00 0.  1.
         11    1    1    2    0    0 -0.14078145537E+00 -0.68102185801E-01  0.47244369521E+00  0.49765513375E+00  0.51100000000E-03 0. -1.
    9000002    1    1    2    0    0 -0.72555056249E-01  0.24700459556E-02  0.35825140190E-01  0.94148700362E+00  0.93800000000E+00 0.  1.
         22    1    1    2    0    0  0.21333651162E+00  0.65632139846E-01  0.34917311320E+01  0.34988578626E+01  0.00000000000E+00 0. -1.
</event>
<event>
 5    1  0.1537976E+002  0.1599673E+01  0.7818608E-02  0.3353718E+00
         11   -1    0    0    0    0  0.00000000000E+00  0.00000000000E+00  0.39999999674E+01  0.40000000000E+01  0.51100000000E-03 0.  1.
    9000002   -1    0    0    0    0 -0.00000000000E+00 -0.00000000000E+00  0.00000000000E+00  0.93800000000E+00  0.93800000000E+00 0.  1.
         11    1    1    2    0    0 -0.33127457567E-01  0.19182683127E-01  0.59248555174E+00  0.59372114154E+00  0.51100000000E-03 0.  1.
    9000002    1    1    2    0    0  0.21465881957E+00 -0.13690733694E+00  0.43078904764E-01  0.97289352951E+00  0.93800000000E+00 0.  1.
         22    1    1    2    0    0 -0.18153136200E+00  0.11772465382E+00  0.33644355109E+01  0.33713853289E+01  0.00000000000E+00 0.  1.
</event>
<event>
 5    1  0.1537976E+002  0.1598069E+01  0.7818608E-02  0.3355461E+00
         11   -1    0    0    0    0  0.00000000000E+00  0.00000000000E+00  0.39999999674E+01  0.40000000000E+01  0.51100000000E-03 0. -1.
    9000002   -1    0    0    0    0 -0.00000000000E+00 -0.00000000000E+00  0.00000000000E+00  0.93800000000E+00  0.93800000000E+00 0. -1.
         11    1    1    2    0    0 -0.28045829747E+00 -0.13299289299E+00  0.17963846747E+01  0.18230036003E+01  0.51100000000E-03 0. -1.
    9000002    1    1    2    0    0  0.48788006462E+00  0.27889796849E+00  0.22017135991E+00  0.11154059629E+01  0.93800000000E+00 0. -1.
         22    1    1    2    0    0 -0.20742176716E+00 -0.14590507550E+00  0.19834439327E+01  0.19995904368E+01  0.00000000000E+00 0.  1.
</event>
<event>
 5    1  0.1537976E+002  0.1547056E+01  0.7818608E-02  0.3412911E+00
         11   -1    0    0    0    0  0.00000000000E+00  0.00000000000E+00  0.39999999674E+01  0.40000000000E+01  0.51100000000E-03 0. -1.
    9000002   -1    0    0    0    0 -0.00000000000E+00 -0.00000000000E+00  0.00000000000E+00  0.93800000000E+00  0.93800000000E+00 0.  1.
         11    1    1    2    0    0  0.10391414620E-01 -0.15396475053E+00  0.25034272601E+00  0.29408309623E+00  0.51100000000E-03 0. -1.
    9000002    1    1    2    0    0  0.23483909739E+00  0.23065849843E+00  0.11559122926E+00  0.10007787352E+01  0.93800000000E+00 0.  1.
         22    1    1    2    0    0 -0.24523051201E+00 -0.76693747904E-01  0.36340660121E+01  0.36431381686E+01  0.00000000000E+00 0. -1.
</event>
<event>
 5    1  0.1537976E+002  0.1599536E+01  0.7818608E-02  0.3353867E+00
         11   -1    0    0    0    0  0.00000000000E+00  0.00000000000E+00  0.39999999674E+01  0.40000000000E+01  0.51100000000E-03 0. -1.
    9000002   -1    0    0    0    0 -0.00000000000E+00 -0.00000000000E+00  0.00000000000E+00  0.93800000000E+00  0.93800000000E+00 0. -1.
         11    1    1    2    0    0 -0.80728800283E-02  0.11009408150E+00  0.10745183621E+01  0.10801739905E+01  0.51100000000E-03 0. -1.
    9000002    1    1    2    0    0  0.15470614727E-01 -0.44060259052E+00  0.13195858760E+00  0.10448095767E+01  0.93800000000E+00 0. -1.
         22    1    1    2    0    0 -0.73977346985E-02  0.33050850901E+00  0.27935230177E+01  0.28130164328E+01  0.00000000000E+00 0. -1.
</event>
<event>
 5    1  0.1537976E+002  0.1577212E+01  0.7818608E-02  0.3378475E+00
         11   -1    0    0    0    0  0.00000000000E+00  0.00000000000E+00  0.39999999674E+01  0.40000000000E+01  0.51100000000E-03 0. -1.
    9000002   -1    0    0    0    0 -0.00000000000E+00 -0.00000000000E+00  0.00000000000E+00  0.93800000000E+00  0.93800000000E+00 0. -1.
         11    1    1    2    0    0 -0.83259176066E-01 -0.94331444656E-01  0.77481714116E+00  0.78496648031E+00  0.51100000000E-03 0. -1.
    9000002    1    1    2    0    0 -0.12944960083E+00  0.55612488438E-02  0.27759458659E-01  0.94731341920E+00  0.93800000000E+00 0. -1.
         22    1    1    2    0    0  0.21270877689E+00  0.88770195812E-01  0.31974233675E+01  0.32057201005E+01  0.00000000000E+00 0. -1.
</event>
<event>
 5    1  0.1537976E+002  0.1598603E+01  0.7818608E-02  0.3354881E+00
         11   -1    0    0    0    0  0.00000000000E+00  0.00000000000E+00  0.39999999674E+01  0.40000000000E+01  0.51100000000E-03 0.  1.
    9000002   -1    0    0    0    0 -0.00000000000E+00 -0.00000000000E+00  0.00000000000E+00  0.93800000000E+00  0.93800000000E+00 0.  1.
         11    1    1    2    0    0  0.47815387394E-01 -0.38797825624E-02  0.68497702723E+00  0.68665504654E+00  0.51100000000E-03 0.  1.
    9000002    1    1    2    0    0 -0.19940354522E+00  0.17671005431E+00  0.48045601220E-01  0.97628919739E+00  0.93800000000E+00 0.  1.
         22    1    1    2    0    0  0.15158815783E+00 -0.17283027175E+00  0.32669773389E+01  0.32750557561E+01  0.00000000000E+00 0.  1.
</event>
<event>
 5    1  0.1537976E+002  0.1595229E+01  0.7818608E-02  0.3358558E+00
         11   -1    0    0    0    0  0.00000000000E+00  0.00000000000E+00  0.39999999674E+01  0.40000000000E+01  0.51100000000E-03 0. -1.
    9000002   -1    0    0    0    0 -0.00000000000E+00 -0.00000000000E+00  0.00000000000E+00  0.93800000000E+00  0.93800000000E+00 0. -1.
         11    1    1    2    0    0  0.10172375350E-01  0.77803597605E-01  0.10026758056E+01  0.10057414724E+01  0.51100000000E-03 0. -1.
    9000002    1    1    2    0    0  0.20983674087E+00 -0.19139926841E+00  0.57196562173E-01  0.98172327287E+00  0.93800000000E+00 0. -1.
         22    1    1    2    0    0 -0.22000911622E+00  0.11359567081E+00  0.29401275996E+01  0.29505352548E+01  0.00000000000E+00 0. -1.
</event>
<event>
 5    1  0.1537976E+002  0.1599466E+01  0.7818608E-02  0.3353943E+00
         11   -1    0    0    0    0  0.00000000000E+00  0.00000000000E+00  0.39999999674E+01  0.40000000000E+01  0.51100000000E-03 0. -1.
    9000002   -1    0    0    0    0 -0.00000000000E+00 -0.00000000000E+00  0.00000000000E+00  0.93800000000E+00  0.93800000000E+00 0.  1.
         11    1    1    2    0    0 -0.78406907030E-01 -0.47704661693E-01  0.67202382917E+00  0.67826223978E+00  0.51100000000E-03 0. -1.
    9000002    1    1    2    0    0  0.40014649794E+00  0.21606279562E+00  0.14073734202E+00  0.10518799128E+01  0.93800000000E+00 0.  1.
         22    1    1    2    0    0 -0.32173959091E+00 -0.16835813393E+00  0.31872387962E+01  0.32078578474E+01  0.00000000000E+00 0. -1.
</event>
<event>
 5    1  0.1537976E+002  0.1578610E+01  0.7818608E-02  0.3376911E+00
         11   -1    0    0    0    0  0.00000000000E+00  0.00000000000E+00  0.39999999674E+01  0.40000000000E+01  0.51100000000E-03 0.  1.
    9000002   -1    0    0    0    0 -0.00000000000E+00 -0.00000000000E+00  0.00000000000E+00  0.93800000000E+00  0.93800000000E+00 0. -1.
         11    1    1    2    0    0 -0.22528020597E-01  0.28722529358E-01  0.27805611072E-01  0.45890179046E-01  0.51100000000E-03 0.  1.
    9000002    1    1    2    0    0  0.26083843971E+00 -0.18236391864E+00  0.84535419877E-01  0.99412450310E+00  0.93800000000E+00 0. -1.
         22    1    1    2    0    0 -0.23831041911E+00  0.15364138928E+00  0.38876589364E+01  0.38979853179E+01  0.00000000000E+00 0.  1.
</event>
<event>
 5    1  0.1537976E+002  0.1599634E+01  0.7818608E-02  0.3353761E+00
         11   -1    0    0    0    0  0.00000000000E+00  0.00000000000E+00  0.39999999674E+01  0.40000000000E+01  0.51100000000E-03 0. -1.
    9000002   -1    0    0    0    0 -0.00000000000E+00 -0.00000000000E+00  0.00000000000E+00  0.93800000000E+00  0.93800000000E+00 0.  1.
         11    1    1    2    0    0  0.20033330557E+00 -0.13326306530E+00  0.18363404904E+01  0.18520364834E+01  0.51100000000E-03 0. -1.
    9000002    1    1    2    0    0 -0.41618144365E+00  0.26189406917E+00  0.16533371058E+00  0.10719023898E+01  0.93800000000E+00 0.  1.
         22    1    1    2    0    0  0.21584813807E+00 -0.12863100387E+00  0.19983257664E+01  0.20140611268E+01  0.00000000000E+00 0. -1.
</event>
<event>
 5    1  0.1537976E+002  0.1599623E+01  0.7818608E-02  0.3353773E+00
         11   -1    0    0    0    0  0.00000000000E+00  0.00000000000E+00  0.39999999674E+01  0.40000000000E+01  0.51100000000E-03 0. -1.
    9000002   -1    0    0    0    0 -0.00000000000E+00 -0.00000000000E+00  0.00000000000E+00  0.93800000000E+00  0.93800000000E+00 0.  1.
         11    1    1    2    0    0  0.27151804284E-01 -0.13883432100E+00  0.14808246461E+01  0.14875664969E+01  0.51100000000E-03 0. -1.
    9000002    1    1    2    0    0 -0.85834512954E-01  0.38277997779E+00  0.10374358849E+00  0.10220052872E+01  0.93800000000E+00 0.  1.
         22    1    1    2    0    0  0.58682708670E-01 -0.24394565678E+00  0.24154317328E+01  0.24284282159E+01  0.00000000000E+00 0. -1.
</event>
<event>
 5    1  0.1537976E+002  0.1599450E+01  0.7818608E-02  0.3353960E+00
         11   -1    0    0    0    0  0.00000000000E+00  0.00000000000E+00  0.39999999674E+01  0.40000000000E+01  0.51100000000E-03 0.  1.
    9000002   -1    0    0    0    0 -0.00000000000E+00 -0.00000000000E+00  0.00000000000E+00  0.93800000000E+00  0.93800000000E+00 0. -1.
         11    1    1    2    0    0  0.35616687479E-01 -0.13593177363E-01  0.40963068898E+00  0.41140112466E+00  0.51100000000E-03 0.  1.
    9000002    1    1    2    0    0 -0.26845694436E+00  0.55123568775E-01  0.50165279394E-01  0.97850308843E+00  0.93800000000E+00 0. -1.
         22    1    1    2    0    0  0.23284025688E+00 -0.41530391412E-01  0.35402039990E+01  0.35480957869E+01  0.00000000000E+00 0.  1.
</event>
<event>
 5    1  0.1537976E+002  0.1599434E+01  0.7818608E-02  0.3353977E+00
         11   -1    0    0    0    0  0.00000000000E+00  0.00000000000E+00  0.39999999674E+01  0.40000000000E+01  0.51100000000E-03 0. -1.
    9000002   -1    0    0    0    0 -0.00000000000E+00 -0.00000000000E+00  0.00000000000E+00  0.93800000000E+00  0.93800000000E+00 0. -1.
         11    1    1    2    0    0  0.15388722018E+00  0.35937291600E-01  0.12730850220E+01  0.12828556036E+01  0.51100000000E-03 0. -1.
    9000002    1    1    2    0    0 -0.43165640644E+00 -0.69480860496E-01  0.12979632103E+00  0.10429985274E+01  0.93800000000E+00 0. -1.
         22    1    1    2    0    0  0.27776918626E+00  0.33543568896E-01  0.25971186243E+01  0.26121458690E+01  0.00000000000E+00 0. -1.
</event>
<event>
 5    1  0.1537976E+002  0.1599513E+01  0.7818608E-02  0.3353892E+00
         11   -1    0    0    0    0  0.00000000000E+00  0.00000000000E+00  0.39999999674E+01  0.40000000000E+01  0.51100000000E-03 0.  1.
    9000002   -1    0    0    0    0 -0.00000000000E+00 -0.00000000000E+00  0.00000000000E+00  0.93800000000E+00  0.93800000000E+00 0. -1.
         11    1    1    2    0    0  0.51813291440E-02 -0.28805038521E-02  0.12022721889E+00  0.12037436919E+00  0.51100000000E-03 0.  1.
    9000002    1    1    2    0    0 -0.24999896559E+00 -0.59507551750E-01  0.44019948143E-01  0.97356170187E+00  0.93800000000E+00 0. -1.
         22    1    1    2    0    0  0.24481763644E+00  0.62388055602E-01  0.38357528003E+01  0.38440639289E+01  0.00000000000E+00 0.  1.
</event>
<event>
 5    1  0.1537976E+002  0.1599391E+01  0.7818608E-02  0.3354024E+00
         11   -1    0    0    0    0  0.00000000000E+00  0.00000000000E+00  0.39999999674E+01  0.40000000000E+01  0.51100000000E-03 0.  1.
    9000002   -1    0    0    0    0 -0.00000000000E+00 -0.00000000000E+00  0.00000000000E+00  0.93800000000E+00  0.93800000000E+00 0.  1.
         11    1    1    2    0    0  0.29109084097E+00  0.31407516956E+00  0.21889489409E+01  0.22304427401E+01  0.51100000000E-03 0.  1.
    9000002    1    1    2    0    0 -0.48973822230E+00 -0.49127041606E+00  0.34363199338E+00  0.12161895802E+01  0.93800000000E+00 0.  1.
         22    1    1    2    0    0  0.19864738133E+00  0.17719524651E+00  0.14674190330E+01  0.14913676797E+01  0.00000000000E+00 0.  1.
</event>
<event>
 5    1  0.1537976E+002  0.1580138E+01  0.7818608E-02  0.3375207E+00
         11   -1    0    0    0    0  0.00000000000E+00  0.00000000000E+00  0.39999999674E+01  0.40000000000E+01  0.51100000000E-03 0.  1.
    9000002   -1    0    0    0    0 -0.00000000000E+00 -0.00000000000E+00  0.00000000000E+00  0.93800000000E+00  0.93800000000E+00 0.  1.
         11    1    1    2    0    0  0.47383349501E-01  0.43789060042E-01  0.25589479073E+01  0.25597611836E+01  0.51100000000E-03 0.  1.
    9000002    1    1    2    0    0  0.16601862118E+00 -0.13710936858E+00  0.45592296414E-01  0.96347486684E+00  0.93800000000E+00 0.  1.
         22    1    1    2    0    0 -0.21340197068E+00  0.93320308539E-01  0.13954597637E+01  0.14147639496E+01  0.00000000000E+00 0.  1.
</event>
<event>
 5    1  0.1537976E+002  0.1516088E+01  0.7818608E-02  0.3449798E+00
         11   -1    0    0    0    0  0.00000000000E+00  0.00000000000E+00  0.39999999674E+01  0.40000000000E+01  0.51100000000E-03 0.  1.
    9000002   -1    0    0    0    0 -0.00000000000E+00 -0.00000000000E+00  0.00000000000E+00  0.93800000000E+00  0.93800000000E+00 0. -1.
         11    1    1    2    0    0  0.26292056397E+00 -0.16911994945E+00  0.21376488202E+01  0.21603868912E+01  0.51100000000E-03 0.  1.
    9000002    1    1    2    0    0  0.96298682944E-01  0.45907091590E-01  0.71291591439E-01  0.94673512051E+00  0.93800000000E+00 0. -1.
         22    1    1    2    0    0 -0.35921924691E+00  0.12321285786E+00  0.17910595557E+01  0.18308779883E+01  0.00000000000E+00 0.  1.
</event>
<event>
 5    1  0.1537976E+002  0.1599677E+01  0.7818608E-02  0.3353714E+00
         11   -1    0    0    0    0  0.00000000000E+00  0.00000000000E+00  0.39999999674E+01  0.40000000000E+01  0.51100000000E-03 0. -1.
    9000002   -1    0    0    0    0 -0.00000000000E+00 -0.00000000000E+00  0.00000000000E+00  0.93800000000E+00  0.93800000000E+00 0. -1.
         11    1    1    2    0    0  0.12735255714E+00  0.65142266594E-01  0.15293979674E+01  0.15360731078E+01  0.51100000000E-03 0. -1.
    9000002    1    1    2    0    0 -0.32396887621E+00 -0.16689615718E+00  0.89195978085E-01  0.10102524846E+01  0.93800000000E+00 0. -1.
         22    1    1    2    0    0  0.19661631907E+00  0.10175389058E+00  0.23814060219E+01  0.23916744077E+01  0.00000000000E+00 0. -1.
</event>
<event>
 5    1  0.1537976E+002  0.1583372E+01  0.7818608E-02  0.3371611E+00
         11   -1    0    0    0    0  0.00000000000E+00  0.00000000000E+00  0.39999999674E+01  0.40000000000E+01  0.51100000000E-03 0.  1.
    9000002   -1    0    0    0    0 -0.00000000000E+00 -0.00000000000E+00  0.00000000000E+00  0.93800000000E+00  0.93800000000E+00 0.  1.
         11    1    1    2    0    0  0.16887332653E+00 -0.19752228448E-01  0.97490262864E+00  0.98961798054E+00  0.51100000000E-03 0.  1.
    9000002    1    1    2    0    0 -0.60143342084E+00  0.56539573594E+00  0.52878820924E+00  0.13567812897E+01  0.93800000000E+00 0.  1.
         22    1    1    2    0    0  0.43256009431E+00 -0.54564350749E+00  0.24963091295E+01  0.25916007297E+01  0.00000000000E+00 0.  1.
</event>
<event>
 5    1  0.1537976E+002  0.1542911E+01  0.7818608E-02  0.3417757E+00
         11   -1    0    0    0    0  0.00000000000E+00  0.00000000000E+00  0.39999999674E+01  0.40000000000E+01  0.51100000000E-03 0. -1.
    9000002   -1    0    0    0    0 -0.00000000000E+00 -0.00000000000E+00  0.00000000000E+00  0.93800000000E+00  0.93800000000E+00 0. -1.
         11    1    1    2    0    0 -0.16807542500E+00  0.37358794460E-01  0.43666995387E+00  0.46938889819E+00  0.51100000000E-03 0. -1.
    9000002    1    1    2    0    0 -0.93554514625E-01 -0.15984783950E-01  0.48546248129E-01  0.94403850490E+00  0.93800000000E+00 0. -1.
         22    1    1    2    0    0  0.26162993963E+00 -0.21374010509E-01  0.35147837654E+01  0.35245725969E+01  0.00000000000E+00 0. -1.
</event>
<event>
 5    1  0.1537976E+002  0.1558964E+01  0.7818608E-02  0.3399143E+00
         11   -1    0    0    0    0  0.00000000000E+00  0.00000000000E+00  0.39999999674E+01  0.40000000000E+01  0.51100000000E-03 0. -1.
    9000002   -1    0    0    0    0 -0.00000000000E+00 -0.00000000000E+00  0.00000000000E+00  0.93800000000E+00  0.93800000000E+00 0. -1.
         11    1    1    2    0    0 -0.72048614086E-01  0.12215368120E+00  0.48208780637E+00  0.50251511300E+00  0.51100000000E-03 0. -1.
    9000002    1    1    2    0    0 -0.90786870496E-01  0.11668954165E+00  0.45087352133E-01  0.95065007984E+00  0.93800000000E+00 0. -1.
         22    1    1    2    0    0  0.16283548458E+00 -0.23884322285E+00  0.34728248089E+01  0.34848348072E+01  0.00000000000E+00 0. -1.
</event>
<event>
 5    1  0.1537976E+002  0.1598949E+01  0.7818608E-02  0.3354505E+00
         11   -1    0    0    0    0  0.00000000000E+00  0.00000000000E+00  0.39999999674E+01  0.40000000000E+01  0.51100000000E-03 0. -1.
    9000002   -1    0    0    0    0 -0.00000000000E+00 -0.00000000000E+00  0.00000000000E+00  0.93800000000E+00  0.93800000000E+00 0. -1.
         11    1    1    2    0    0  0.84358412466E-01  0.24230769915E-01  0.91393763141E+00  0.91814254187E+00  0.51100000000E-03 0. -1.
    9000002    1    1    2    0    0 -0.25512572564E+00 -0.15148533473E+00  0.59281814619E-01  0.98559386974E+00  0.93800000000E+00 0. -1.
         22    1    1    2    0    0  0.17076731318E+00  0.12725456482E+00  0.30267805213E+01  0.30342635884E+01  0.00000000000E+00 0.  1.
</event>
<event>
 5    1  0.1560045E+002  0.1592792E+01  0.7818608E-02  0.3361225E+00
         11   -1    0    0    0    0  0.00000000000E+00  0.00000000000E+00  0.39999999674E+01  0.40000000000E+01  0.51100000000E-03 0.  1.
    9000002   -1    0    0    0    0 -0.00000000000E+00 -0.00000000000E+00  0.00000000000E+00  0.93800000000E+00  0.93800000000E+00 0.  1.
         11    1    1    2    0    0  0.40391131692E-01 -0.30078600958E-01  0.10165124266E+01  0.10177592742E+01  0.51100000000E-03 0.  1.
    9000002    1    1    2    0    0  0.25794521388E-01 -0.16927033976E+00  0.24507477850E-01  0.95381466844E+00  0.93800000000E+00 0.  1.
         22    1    1    2    0    0 -0.66185653080E-01  0.19934894072E+00  0.29589800629E+01  0.29664260573E+01  0.00000000000E+00 0.  1.
</event>
<event>
 5    1  0.1537976E+002  0.1558080E+01  0.7818608E-02  0.3400158E+00
         11   -1    0    0    0    0  0.00000000000E+00  0.00000000000E+00  0.39999999674E+01  0.40000000000E+01  0.51100000000E-03 0.  1.
    9000002   -1    0    0    0    0 -0.00000000000E+00 -0.00000000000E+00  0.00000000000E+00  0.93800000000E+00  0.93800000000E+00 0. -1.
         11    1    1    2    0    0  0.59869073764E+00  0.20120522108E+00  0.15403929286E+01  0.16648497758E+01  0.51100000000E-03 0.  1.
    9000002    1    1    2    0    0 -0.79668691889E+00 -0.26721643172E+00  0.58785105106E+00  0.13897940590E+01  0.93800000000E+00 0. -1.
         22    1    1    2    0    0  0.19799618125E+00  0.66011210634E-01  0.18717559877E+01  0.18833561652E+01  0.00000000000E+00 0.  1.
</event>
<event>
 5    1  0.1537976E+002  0.1576352E+01  0.7818608E-02  0.3379437E+00
         11   -1    0    0    0    0  0.00000000000E+00  0.00000000000E+00  0.39999999674E+01  0.40000000000E+01  0.51100000000E-03 0.  1.
    9000002   -1    0    0    0    0 -0.00000000000E+00 -0.00000000000E+00  0.00000000000E+00  0.93800000000E+00  0.93800000000E+00 0. -1.
         11    1    1    2    0    0 -0.58133072865E-01 -0.90726648223E-01  0.25864591388E+01  0.25887027478E+01  0.51100000000E-03 0.  1.
    9000002    1    1    2    0    0  0.26434039622E+00 -0.61753461044E-01  0.67256773502E-01  0.97880376410E+00  0.93800000000E+00 0. -1.
         22    1    1    2    0    0 -0.20620732336E+00  0.15248010927E+00  0.13462840550E+01  0.13704934881E+01  0.00000000000E+00 0.  1.
</event>
<event>
 5    1  0.1537976E+002  0.1597622E+01  0.7818608E-02  0.3355948E+00
         11   -1    0    0    0    0  0.00000000000E+00  0.00000000000E+00  0.39999999674E+01  0.40000000000E+01  0.51100000000E-03 0. -1.
    9000002   -1    0    0    0    0 -0.00000000000E+00 -0.00000000000E+00  0.00000000000E+00  0.93800000000E+00  0.93800000000E+00 0. -1.
         11    1    1    2    0    0 -0.36958731021E+00  0.13790574121E+00  0.22525528689E+01  0.22868335011E+01  0.51100000000E-03 0. -1.
    9000002    1    1    2    0    0  0.59057654939E+00 -0.14313596083E+00  0.26012745686E+00  0.11475098508E+01  0.93800000000E+00 0. -1.
         22    1    1    2    0    0 -0.22098923919E+00  0.52302196248E-02  0.14873196416E+01  0.15036566480E+01  0.00000000000E+00 0. -1.
</event>
<event>
 5    1  0.1537976E+002  0.1598442E+01  0.7818608E-02  0.3355056E+00
         11   -1    0    0    0    0  0.00000000000E+00  0.00000000000E+00  0.39999999674E+01  0.40000000000E+01  0.51100000000E-03 0. -1.
    9000002   -1    0    0    0    0 -0.00000000000E+00 -0.00000000000E+00  0.00000000000E+00  0.93800000000E+00  0.93800000000E+00 0. -1.
         11    1    1    2    0    0 -0.11209928980E+00 -0.66610150475E-01  0.17470042703E+01  0.17518639629E+01  0.51100000000E-03 0. -1.
    9000002    1    1    2    0    0  0.34223354898E+00  0.12542918729E+00  0.90231670481E-01  0.10103672785E+01  0.93800000000E+00 0. -1.
         22    1    1    2    0    0 -0.23013425917E+00 -0.58819036818E-01  0.21627640266E+01  0.21757687586E+01  0.00000000000E+00 0. -1.
</event>
<event>
 5    1  0.1537976E+002  0.1594463E+01  0.7818608E-02  0.3359395E+00
         11   -1    0    0    0    0  0.00000000000E+00  0.00000000000E+00  0.39999999674E+01  0.40000000000E+01  0.51100000000E-03 0. -1.
    9000002   -1    0    0    0    0 -0.00000000000E+00 -0.00000000000E+00  0.00000000000E+00  0.93800000000E+00  0.93800000000E+00 0. -1.
         11    1    1    2    0    0 -0.17392870813E-01  0.44464579351E-01  0.85669191956E+00  0.85802151310E+00  0.51100000000E-03 0. -1.
    9000002    1    1    2    0    0 -0.19558374909E+00 -0.23158110617E-01  0.29587705488E-01  0.95891018000E+00  0.93800000000E+00 0. -1.
         22    1    1    2    0    0  0.21297661990E+00 -0.21306468734E-01  0.31137203423E+01  0.31210683069E+01  0.00000000000E+00 0. -1.
</event>
<event>
 5    1  0.1537976E+002  0.1507397E+01  0.7818608E-02  0.3460441E+00
         11   -1    0    0    0    0  0.00000000000E+00  0.00000000000E+00  0.39999999674E+01  0.40000000000E+01  0.51100000000E-03 0.  1.
    9000002   -1    0    0    0    0 -0.00000000000E+00 -0.00000000000E+00  0.00000000000E+00  0.93800000000E+00  0.93800000000E+00 0.  1.
         11    1    1    2    0    0  0.20426500184E+00  0.14817845505E+00  0.28867906670E+00  0.38342784222E+00  0.51100000000E-03 0.  1.
    9000002    1    1    2    0    0 -0.33646173039E+00 -0.39044515694E+00  0.27214099473E+00  0.11043362883E+01  0.93800000000E+00 0.  1.
         22    1    1    2    0    0  0.13219672854E+00  0.24226670189E+00  0.34391799059E+01  0.34502358695E+01  0.00000000000E+00 0.  1.
</event>
<event>
 5    1  0.1537976E+002  0.1598367E+01  0.7818608E-02  0.3355138E+00
         11   -1    0    0    0    0  0.00000000000E+00  0.00000000000E+00  0.39999999674E+01  0.40000000000E+01  0.51100000000E-03 0. -1.
    9000002   -1    0    0    0    0 -0.00000000000E+00 -0.00000000000E+00  0.00000000000E+00  0.93800000000E+00  0.93800000000E+00 0. -1.
         11    1    1    2    0    0 -0.62855462962E-01  0.10432308048E+00  0.15951303238E+01  0.15997734606E+01  0.51100000000E-03 0. -1.
    9000002    1    1    2    0    0  0.24591555486E+00 -0.20385421435E+00  0.69230824699E-01  0.99331158652E+00  0.93800000000E+00 0. -1.
         22    1    1    2    0    0 -0.18306009190E+00  0.99531133875E-01  0.23356388189E+01  0.23449149529E+01  0.00000000000E+00 0. -1.
</event>
<event>
 5    1  0.1537976E+002  0.1599672E+01  0.7818608E-02  0.3353720E+00
         11   -1    0    0    0    0  0.00000000000E+00  0.00000000000E+00  0.39999999674E+01  0.40000000000E+01  0.51100000000E-03 0. -1.
    9000002   -1    0    0    0    0 -0.00000000000E+00 -0.00000000000E+00  0.00000000000E+00  0.93800000000E+00  0.93800000000E+00 0.  1.
         11    1    1    2    0    0 -0.16817629864E-01 -0.12683736664E-01  0.34697053076E+00  0.34760972395E+00  0.51100000000E-03 0. -1.
    9000002    1    1    2    0    0  0.20647221047E+00  0.13502940666E+00  0.40425209120E-01  0.97074296901E+00  0.93800000000E+00 0.  1.
         22    1    1    2    0    0 -0.18965458060E+00 -0.12234566999E+00  0.36126042275E+01  0.36196473070E+01  0.00000000000E+00 0. -1.
</event>
<event>
 5    1  0.1537976E+002  0.1599654E+01  0.7818608E-02  0.3353739E+00
         11   -1    0    0    0    0  0.00000000000E+00  0.00000000000E+00  0.39999999674E+01  0.40000000000E+01  0.51100000000E-03 0.  1.
    9000002   -1    0    0    0    0 -0.00000000000E+00 -0.00000000000E+00  0.00000000000E+00  0.93800000000E+00  0.93800000000E+00 0.  1.
         11    1    1    2    0    0  0.98795461788E-01 -0.29545679284E+00  0.20538892100E+01  0.20773821045E+01  0.51100000000E-03 0.  1.
    9000002    1    1    2    0    0 -0.17970186485E+00  0.55218040753E+00  0.23433573851E+00  0.11278090268E+01  0.93800000000E+00 0.  1.
         22    1    1    2    0    0  0.80906403064E-01 -0.25672361469E+00  0.17117750188E+01  0.17328088687E+01  0.00000000000E+00 0.  1.
</event>
<event>
 5    1  0.1537976E+002  0.1599647E+01  0.7818608E-02  0.3353746E+00
         11   -1    0    0    0    0  0.00000000000E+00  0.00000000000E+00  0.39999999674E+01  0.40000000000E+01  0.51100000000E-03 0.  1.
    9000002   -1    0    0    0    0 -0.00000000000E+00 -0.00000000000E+00  0.00000000000E+00  0.93800000000E+00  0.93800000000E+00 0.  1.
         11    1    1    2    0    0 -0.25635191734E-02 -0.67752030064E-02  0.32488478042E-01  0.33290198750E-01  0.51100000000E-03 0.  1.
    9000002    1    1    2    0    0  0.26781987851E+00  0.63631136491E+00  0.33978963158E+00  0.12132273629E+01  0.93800000000E+00 0.  1.
         22    1    1    2    0    0 -0.26525635933E+00 -0.62953616190E+00  0.36277218577E+01  0.36914824383E+01  0.00000000000E+00 0.  1.
</event>
<event>
 5    1  0.1537976E+002  0.1599676E+01  0.7818608E-02  0.3353715E+00
         11   -1    0    0    0    0  0.00000000000E+00  0.00000000000E+00  0.39999999674E+01  0.40000000000E+01  0.51100000000E-03 0.  1.
    9000002   -1    0    0    0    0 -0.00000000000E+00 -0.00000000000E+00  0.00000000000E+00  0.93800000000E+00  0.93800000000E+00 0.  1.
         11    1    1    2    0    0  0.48633533602E-01 -0.48025408429E-01  0.83766739708E+00  0.84045142018E+00  0.51100000000E-03 0.  1.
    9000002    1    1    2    0    0 -0.22936752586E+00  0.22952228150E+00  0.70408391088E-01  0.99503330656E+00  0.93800000000E+00 0.  1.
         22    1    1    2    0    0  0.18073399226E+00 -0.18149687307E+00  0.30919241792E+01  0.31025152733E+01  0.00000000000E+00 0.  1.
</event>
<event>
 5    1  0.1537976E+002  0.1599598E+01  0.7818608E-02  0.3353799E+00
         11   -1    0    0    0    0  0.00000000000E+00  0.00000000000E+00  0.39999999674E+01  0.40000000000E+01  0.51100000000E-03 0. -1.
    9000002   -1    0    0    0    0 -0.00000000000E+00 -0.00000000000E+00  0.00000000000E+00  0.93800000000E+00  0.93800000000E+00 0. -1.
         11    1    1    2    0    0  0.14694120322E-02  0.29591306894E-03  0.89913613201E-02  0.91297555089E-02  0.51100000000E-03 0.  1.
    9000002    1    1    2    0    0 -0.25476141981E+00 -0.12494608161E+00  0.53694748179E-01  0.98144894432E+00  0.93800000000E+00 0. -1.
         22    1    1    2    0    0  0.25329200777E+00  0.12465016854E+00  0.39373138579E+01  0.39474213002E+01  0.00000000000E+00 0. -1.
</event>
<event>
 5    1  0.1537976E+002  0.1599675E+01  0.7818608E-02  0.3353716E+00
         11   -1    0    0    0    0  0.00000000000E+00  0.00000000000E+00  0.39999999674E+01  0.40000000000E+01  0.51100000000E-03 0.  1.
    9000002   -1    0    0    0    0 -0.00000000000E+00 -0.00000000000E+00  0.00000000000E+00  0.93800000000E+00  0.93800000000E+00 0.  1.
         11    1    1    2    0    0  0.12190164622E+00 -0.83689071352E-01  0.13664638489E+01  0.13744408258E+01  0.51100000000E-03 0.  1.
    9000002    1    1    2    0    0 -0.34230897225E+00  0.23751368543E+00  0.11734641299E+00  0.10330548697E+01  0.93800000000E+00 0.  1.
         22    1    1    2    0    0  0.22040732602E+00 -0.15382461408E+00  0.25161897054E+01  0.25305043045E+01  0.00000000000E+00 0.  1.
</event>
<event>
 5    1  0.1537976E+002  0.1568271E+01  0.7818608E-02  0.3388538E+00
         11   -1    0    0    0    0  0.00000000000E+00  0.00000000000E+00  0.39999999674E+01  0.40000000000E+01  0.51100000000E-03 0.  1.
    9000002   -1    0    0    0    0 -0.00000000000E+00 -0.00000000000E+00  0.00000000000E+00  0.93800000000E+00  0.93800000000E+00 0. -1.
         11    1    1    2    0    0  0.11908826758E+00  0.69732429096E-01  0.28802433428E+01  0.28835475724E+01  0.51100000000E-03 0.  1.
    9000002    1    1    2    0    0 -0.21303460977E-01  0.12447774322E+00  0.33932703432E-01  0.94707126151E+00  0.93800000000E+00 0. -1.
         22    1    1    2    0    0 -0.97784806599E-01 -0.19421017232E+00  0.10858239211E+01  0.11073811661E+01  0.00000000000E+00 0. -1.
</event>
<event>
 5    1  0.1537976E+002  0.1599673E+01  0.7818608E-02  0.3353718E+00
         11   -1    0    0    0    0  0.00000000000E+00  0.00000000000E+00  0.39999999674E+01  0.40000000000E+01  0.51100000000E-03 0. -1.
    9000002   -1    0    0    0    0 -0.00000000000E+00 -0.00000000000E+00  0.00000000000E+00  0.93800000000E+00  0.93800000000E+00 0.  1.
         11    1    1    2    0    0 -0.26933891647E+00 -0.31292878049E-01  0.17249306404E+01  0.17461124453E+01  0.51100000000E-03 0. -1.
    9000002    1    1    2    0    0  0.58851024330E+00  0.72912440153E-01  0.24499376773E+00  0.11364534643E+01  0.93800000000E+00 0.  1.
         22    1    1    2    0    0 -0.31917132682E+00 -0.41619562104E-01  0.20300755592E+01  0.20554340904E+01  0.00000000000E+00 0. -1.
</event>
<event>
 5    1  0.1537976E+002  0.1576098E+01  0.7818608E-02  0.3379721E+00
         11   -1    0    0    0    0  0.00000000000E+00  0.00000000000E+00  0.39999999674E+01  0.40000000000E+01  0.51100000000E-03 0. -1.
    9000002   -1    0    0    0    0 -0.00000000000E+00 -0.00000000000E+00  0.00000000000E+00  0.93800000000E+00  0.93800000000E+00 0. -1.
         11    1    1    2    0    0  0.11695071283E+00  0.56921770204E-01  0.14613092303E+01  0.14670863931E+01  0.51100000000E-03 0. -1.
    9000002    1    1    2    0    0  0.16073844222E+00 -0.81072333478E-01  0.39194672306E-01  0.95592352853E+00  0.93800000000E+00 0. -1.
         22    1    1    2    0    0 -0.27768915505E+00  0.24150563274E-01  0.24994960648E+01  0.25149900784E+01  0.00000000000E+00 0. -1.
</event>
<event>
 5    1  0.1537976E+002  0.1599650E+01  0.7818608E-02  0.3353744E+00
         11   -1    0    0    0    0  0.00000000000E+00  0.00000000000E+00  0.39999999674E+01  0.40000000000E+01  0.51100000000E-03 0. -1.
    9000002   -1    0    0    0    0 -0.00000000000E+00 -0.00000000000E+00  0.00000000000E+00  0.93800000000E+00  0.93800000000E+00 0. -1.
         11    1    1    2    0    0 -0.49062190183E-01  0.93206464005E-02  0.28514257357E+00  0.28948319699E+00  0.51100000000E-03 0. -1.
    9000002    1    1    2    0    0  0.61342036608E+00 -0.15599694675E+00  0.28159283003E+00  0.11660866670E+01  0.93800000000E+00 0. -1.
         22    1    1    2    0    0 -0.56435817590E+00  0.14667630035E+00  0.34332645638E+01  0.34824301361E+01  0.00000000000E+00 0. -1.
</event>
<event>
 5    1  0.1537976E+002  0.1598690E+01  0.7818608E-02  0.3354787E+00
         11   -1    0    0    0    0  0.00000000000E+00  0.00000000000E+00  0.39999999674E+01  0.40000000000E+01  0.51100000000E-03 0.  1.
    9000002   -1    0    0    0    0 -0.00000000000E+00 -0.00000000000E+00  0.00000000000E+00  0.93800000000E+00  0.93800000000E+00 0.  1.
         11    1    1    2    0    0 -0.42895001650E-01 -0.15868028748E-01  0.68462632076E+00  0.68615248721E+00  0.51100000000E-03 0.  1.
    9000002    1    1    2    0    0  0.22630988443E+00 -0.72140265711E-01  0.38195540853E-01  0.96836113153E+00  0.93800000000E+00 0.  1.
         22    1    1    2    0    0 -0.18341488278E+00  0.88008294460E-01  0.32771781057E+01  0.32834863813E+01  0.00000000000E+00 0.  1.
</event>
<event>
 5    1  0.1537976E+002  0.1599676E+01  0.7818608E-02  0.3353715E+00
         11   -1    0    0    0    0  0.00000000000E+00  0.00000000000E+00  0.39999999674E+01  0.40000000000E+01  0.51100000000E-03 0.  1.
    9000002   -1    0    0    0    0 -0.00000000000E+00 -0.00000000000E+00  0.00000000000E+00  0.93800000000E+00  0.93800000000E+00 0.  1.
         11    1    1    2    0    0 -0.14378675124E-01 -0.23164374862E-01  0.46991404683E+00  0.47070458579E+00  0.51100000000E-03 0.  1.
    9000002    1    1    2    0    0  0.12620748790E+00  0.19680915401E+00  0.36268716435E-01  0.96737872258E+00  0.93800000000E+00 0.  1.
         22    1    1    2    0    0 -0.11182881277E+00 -0.17364477915E+00  0.34938172041E+01  0.34999166916E+01  0.00000000000E+00 0.  1.
</event>
<event>
 5    1  0.1537976E+002  0.1599668E+01  0.7818608E-02  0.3353724E+00
         11   -1    0    0    0    0  0.00000000000E+00  0.00000000000E+00  0.39999999674E+01  0.40000000000E+01  0.51100000000E-03 0.  1.
    9000002   -1    0    0    0    0 -0.00000000000E+00 -0.00000000000E+00  0.00000000000E+00  0.93800000000E+00  0.93800000000E+00 0. -1.
         11    1    1    2    0    0 -0.48784258845E-01  0.63323594147E-01  0.77544047841E+00  0.77954985612E+00  0.51100000000E-03 0.  1.
    9000002    1    1    2    0    0  0.23059597212E+00 -0.32014068210E+00  0.10493357245E+00  0.10229954122E+01  0.93800000000E+00 0. -1.
         22    1    1    2    0    0 -0.18181171327E+00  0.25681708795E+00  0.31196259165E+01  0.31354547317E+01  0.00000000000E+00 0.  1.
</event>
<event>
 5    1  0.1537976E+002  0.1599677E+01  0.7818608E-02  0.3353714E+00
         11   -1    0    0    0    0  0.00000000000E+00  0.00000000000E+00  0.39999999674E+01  0.40000000000E+01  0.51100000000E-03 0. -1.
    9000002   -1    0    0    0    0 -0.00000000000E+00 -0.00000000000E+00  0.00000000000E+00  0.93800000000E+00  0.93800000000E+00 0. -1.
         11    1    1    2    0    0 -0.64739040563E-01  0.25332906116E-01  0.69328217131E+00  0.69675916189E+00  0.51100000000E-03 0. -1.
    9000002    1    1    2    0    0  0.36363388096E+00 -0.14170745728E+00  0.10261024212E+00  0.10211187319E+01  0.93800000000E+00 0. -1.
         22    1    1    2    0    0 -0.29889484040E+00  0.11637455117E+00  0.32041075539E+01  0.32201221062E+01  0.00000000000E+00 0. -1.
</event>
<event>
 5    1  0.1537976E+002  0.1599622E+01  0.7818608E-02  0.3353773E+00
         11   -1    0    0    0    0  0.00000000000E+00  0.00000000000E+00  0.39999999674E+01  0.40000000000E+01  0.51100000000E-03 0.  1.
    9000002   -1    0    0    0    0 -0.00000000000E+00 -0.00000000000E+00  0.00000000000E+00  0.93800000000E+00  0.93800000000E+00 0. -1.
         11    1    1    2    0    0 -0.94434675458E-01 -0.55288438612E-01  0.13015974062E+01  0.13061894152E+01  0.51100000000E-03 0.  1.
    9000002    1    1    2    0    0  0.30864998426E+00  0.15959195626E+00  0.80975072417E-01  0.10035613422E+01  0.93800000000E+00 0. -1.
         22    1    1    2    0    0 -0.21421530880E+00 -0.10430351764E+00  0.26174274888E+01  0.26282492426E+01  0.00000000000E+00 0.  1.
</event>
<event>
 5    1  0.1537976E+002  0.1599523E+01  0.7818608E-02  0.3353881E+00
         11   -1    0    0    0    0  0.00000000000E+00  0.00000000000E+00  0.39999999674E+01  0.40000000000E+01  0.51100000000E-03 0.  1.
    9000002   -1    0    0    0    0 -0.00000000000E+00 -0.00000000000E+00  0.00000000000E+00  0.93800000000E+00  0.93800000000E+00 0. -1.
         11    1    1    2    0    0 -0.12164088045E+00 -0.83388450437E-01  0.17197826784E+01  0.17260946844E+01  0.51100000000E-03 0.  1.
    9000002    1    1    2    0    0  0.30746326474E+00  0.20299317871E+00  0.91330864085E-01  0.10118918996E+01  0.93800000000E+00 0. -1.
         22    1    1    2    0    0 -0.18582238429E+00 -0.11960472827E+00  0.21888864249E+01  0.22000134160E+01  0.00000000000E+00 0.  1.
</event>
<event>
 5    1  0.1537976E+002  0.1598522E+01  0.7818608E-02  0.3354969E+00
         11   -1    0    0    0    0  0.00000000000E+00  0.00000000000E+00  0.39999999674E+01  0.40000000000E+01  0.51100000000E-03 0. -1.
    9000002   -1    0    0    0    0 -0.00000000000E+00 -0.00000000000E+00  0.00000000000E+00  0.93800000000E+00  0.93800000000E+00 0.  1.
         11    1    1    2    0    0  0.73307332902E-03 -0.27274583091E+00  0.19088705785E+01  0.19282577557E+01  0.51100000000E-03 0. -1.
    9000002    1    1    2    0    0  0.29770265211E-01  0.47276083423E+00  0.15396965650E+00  0.10620450698E+01  0.93800000000E+00 0.  1.
         22    1    1    2    0    0 -0.30503338540E-01 -0.20001500332E+00  0.19371597323E+01  0.19476971745E+01  0.00000000000E+00 0. -1.
</event>
<event>
 5    1  0.1537976E+002  0.1596918E+01  0.7818608E-02  0.3356716E+00
         11   -1    0    0    0    0  0.00000000000E+00  0.00000000000E+00  0.39999999674E+01  0.40000000000E+01  0.51100000000E-03 0.  1.
    9000002   -1    0    0    0    0 -0.00000000000E+00 -0.00000000000E+00  0.00000000000E+00  0.93800000000E+00  0.93800000000E+00 0. -1.
         11    1    1    2    0    0 -0.15384222199E+00  0.83749325339E-01  0.18844163191E+01  0.18925396967E+01  0.51100000000E-03 0.  1.
    9000002    1    1    2    0    0  0.36718216640E+00 -0.51885574877E-01  0.94678684970E-01  0.10130759644E+01  0.93800000000E+00 0. -1.
         22    1    1    2    0    0 -0.21333994441E+00 -0.31863750462E-01  0.20209049633E+01  0.20323843389E+01  0.00000000000E+00 0. -1.
</event>
<event>
 5    1  0.1537976E+002  0.1599675E+01  0.7818608E-02  0.3353716E+00
         11   -1    0    0    0    0  0.00000000000E+00  0.00000000000E+00  0.39999999674E+01  0.40000000000E+01  0.51100000000E-03 0. -1.
    9000002   -1    0    0    0    0 -0.00000000000E+00 -0.00000000000E+00  0.00000000000E+00  0.93800000000E+00  0.93800000000E+00 0.  1.
         11    1    1    2    0    0  0.22577465470E+00  0.43460081527E-01  0.19680966383E+01  0.19814811662E+01  0.51100000000E-03 0. -1.
    9000002    1    1    2    0    0 -0.44531754762E+00 -0.82678367525E-01  0.13939250415E+00  0.10509127941E+01  0.93800000000E+00 0.  1.
         22    1    1    2    0    0  0.21954289292E+00  0.39218285998E-01  0.18925108249E+01  0.19056060396E+01  0.00000000000E+00 0.  1.
</event>
<event>
 5    1  0.1537976E+002  0.1599677E+01  0.7818608E-02  0.3353714E+00
         11   -1    0    0    0    0  0.00000000000E+00  0.00000000000E+00  0.39999999674E+01  0.40000000000E+01  0.51100000000E-03 0. -1.
    9000002   -1    0    0    0    0 -0.00000000000E+00 -0.00000000000E+00  0.00000000000E+00  0.93800000000E+00  0.93800000000E+00 0.  1.
         11    1    1    2    0    0  0.60182488742E-01 -0.10352971156E-01  0.78573309802E+00  0.78810270804E+00  0.51100000000E-03 0. -1.
    9000002    1    1    2    0    0 -0.30180818157E+00  0.49432481668E-01  0.62430665588E-01  0.98857136147E+00  0.93800000000E+00 0.  1.
         22    1    1    2    0    0  0.24162569283E+00 -0.39079510512E-01  0.31518362037E+01  0.31613259305E+01  0.00000000000E+00 0.  1.
</event>
<event>
 5    1  0.1537976E+002  0.1591082E+01  0.7818608E-02  0.3363100E+00
         11   -1    0    0    0    0  0.00000000000E+00  0.00000000000E+00  0.39999999674E+01  0.40000000000E+01  0.51100000000E-03 0. -1.
    9000002   -1    0    0    0    0 -0.00000000000E+00 -0.00000000000E+00  0.00000000000E+00  0.93800000000E+00  0.93800000000E+00 0. -1.
         11    1    1    2    0    0  0.13067755607E+00 -0.25978144635E-01  0.53797691844E+00  0.55423001863E+00  0.51100000000E-03 0. -1.
    9000002    1    1    2    0    0 -0.43792587872E+00 -0.68516326405E-01  0.14073150526E+00  0.10469588907E+01  0.93800000000E+00 0. -1.
         22    1    1    2    0    0  0.30724832265E+00  0.94494471040E-01  0.33212915437E+01  0.33368110907E+01  0.00000000000E+00 0. -1.
</event>
<event>
 5    1  0.1537976E+002  0.1597822E+01  0.7818608E-02  0.3355731E+00
         11   -1    0    0    0    0  0.00000000000E+00  0.00000000000E+00  0.39999999674E+01  0.40000000000E+01  0.51100000000E-03 0. -1.
    9000002   -1    0    0    0    0 -0.00000000000E+00 -0.00000000000E+00  0.00000000000E+00  0.93800000000E+00  0.93800000000E+00 0. -1.
         11    1    1    2    0    0 -0.11252265414E-01  0.15427199978E-03  0.28757121052E+00  0.28779176416E+00  0.51100000000E-03 0. -1.
    9000002    1    1    2    0    0 -0.17257709534E-01  0.32481738164E+00  0.72230789624E-01  0.99542224554E+00  0.93800000000E+00 0. -1.
         22    1    1    2    0    0  0.28509974948E-01 -0.32497165364E+00  0.36401979672E+01  0.36547859903E+01  0.00000000000E+00 0. -1.
</event>
<event>
 5    1  0.1537976E+002  0.1593856E+01  0.7818608E-02  0.3360058E+00
         11   -1    0    0    0    0  0.00000000000E+00  0.00000000000E+00  0.39999999674E+01  0.40000000000E+01  0.51100000000E-03 0.  1.
    9000002   -1    0    0    0    0 -0.00000000000E+00 -0.00000000000E+00  0.00000000000E+00  0.93800000000E+00  0.93800000000E+00 0.  1.
         11    1    1    2    0    0  0.75114582312E-01 -0.29019087532E+00  0.19415819934E+01  0.19645849035E+01  0.51100000000E-03 0.  1.
    9000002    1    1    2    0    0 -0.28328179739E+00  0.45086181054E+00  0.20061497105E+00  0.10970940322E+01  0.93800000000E+00 0.  1.
         22    1    1    2    0    0  0.20816721508E+00 -0.16067093522E+00  0.18578030029E+01  0.18763210643E+01  0.00000000000E+00 0. -1.
</event>
<event>
 5    1  0.1537976E+002  0.1594925E+01  0.7818608E-02  0.3358891E+00
         11   -1    0    0    0    0  0.00000000000E+00  0.00000000000E+00  0.39999999674E+01  0.40000000000E+01  0.51100000000E-03 0. -1.
    9000002   -1    0    0    0    0 -0.00000000000E+00 -0.00000000000E+00  0.00000000000E+00  0.93800000000E+00  0.93800000000E+00 0.  1.
         11    1    1    2    0    0  0.35079141440E-01  0.31140728039E-01  0.79953487796E+00  0.80090984093E+00  0.51100000000E-03 0. -1.
    9000002    1    1    2    0    0 -0.15287061031E-01 -0.43728514112E+00  0.13387253566E+00  0.10436559992E+01  0.93800000000E+00 0.  1.
         22    1    1    2    0    0 -0.19792080409E-01  0.40614441308E+00  0.30665925537E+01  0.30934341599E+01  0.00000000000E+00 0. -1.
</event>
<event>
 5    1  0.1537976E+002  0.1595146E+01  0.7818608E-02  0.3358648E+00
         11   -1    0    0    0    0  0.00000000000E+00  0.00000000000E+00  0.39999999674E+01  0.40000000000E+01  0.51100000000E-03 0. -1.
    9000002   -1    0    0    0    0 -0.00000000000E+00 -0.00000000000E+00  0.00000000000E+00  0.93800000000E+00  0.93800000000E+00 0. -1.
         11    1    1    2    0    0 -0.16779923270E+00 -0.12160223087E+00  0.18982100793E+01  0.19094882695E+01  0.51100000000E-03 0. -1.
    9000002    1    1    2    0    0  0.24769795904E+00  0.38272701181E+00  0.14522310696E+00  0.10529805294E+01  0.93800000000E+00 0. -1.
         22    1    1    2    0    0 -0.79898726340E-01 -0.26112478094E+00  0.19565667811E+01  0.19755312011E+01  0.00000000000E+00 0. -1.
</event>
<event>
 5    1  0.1537976E+002  0.1513512E+01  0.7818608E-02  0.3452938E+00
         11   -1    0    0    0    0  0.00000000000E+00  0.00000000000E+00  0.39999999674E+01  0.40000000000E+01  0.51100000000E-03 0.  1.
    9000002   -1    0    0    0    0 -0.00000000000E+00 -0.00000000000E+00  0.00000000000E+00  0.93800000000E+00  0.93800000000E+00 0.  1.
         11    1    1    2    0    0  0.41941381759E-01  0.22691084923E+00  0.40063320487E+00  0.46233628343E+00  0.51100000000E-03 0.  1.
    9000002    1    1    2    0    0 -0.31129480317E+00 -0.49465546984E-01  0.13778813780E+00  0.99909001884E+00  0.93800000000E+00 0.  1.
         22    1    1    2    0    0  0.26935342141E+00 -0.17744530225E+00  0.34615786247E+01  0.34765736977E+01  0.00000000000E+00 0.  1.
</event>
<event>
 5    1  0.1537976E+002  0.1594477E+01  0.7818608E-02  0.3359380E+00
         11   -1    0    0    0    0  0.00000000000E+00  0.00000000000E+00  0.39999999674E+01  0.40000000000E+01  0.51100000000E-03 0.  1.
    9000002   -1    0    0    0    0 -0.00000000000E+00 -0.00000000000E+00  0.00000000000E+00  0.93800000000E+00  0.93800000000E+00 0. -1.
         11    1    1    2    0    0  0.32094905020E-01 -0.91191544470E-01  0.91524445034E+00  0.92033615908E+00  0.51100000000E-03 0.  1.
    9000002    1    1    2    0    0  0.14385922683E+00  0.25103153608E+00  0.59849768863E-01  0.98343190109E+00  0.93800000000E+00 0. -1.
         22    1    1    2    0    0 -0.17595413185E+00 -0.15983999161E+00  0.30249057482E+01  0.30342319398E+01  0.00000000000E+00 0.  1.
</event>
<event>
 5    1  0.1537976E+002  0.1599440E+01  0.7818608E-02  0.3353971E+00
         11   -1    0    0    0    0  0.00000000000E+00  0.00000000000E+00  0.39999999674E+01  0.40000000000E+01  0.51100000000E-03 0. -1.
    9000002   -1    0    0    0    0 -0.00000000000E+00 -0.00000000000E+00  0.00000000000E+00  0.93800000000E+00  0.93800000000E+00 0. -1.
         11    1    1    2    0    0  0.25935655695E+00 -0.22833134103E+00  0.19427248683E+01  0.19732159537E+01  0.51100000000E-03 0. -1.
    9000002    1    1    2    0    0 -0.50526501593E+00  0.40181430012E+00  0.29401379237E+00  0.11760253306E+01  0.93800000000E+00 0. -1.
         22    1    1    2    0    0  0.24590845898E+00 -0.17348295910E+00  0.17632613067E+01  0.17887587157E+01  0.00000000000E+00 0. -1.
</event>
<event>
 5    1  0.1537976E+002  0.1599676E+01  0.7818608E-02  0.3353716E+00
         11   -1    0    0    0    0  0.00000000000E+00  0.00000000000E+00  0.39999999674E+01  0.40000000000E+01  0.51100000000E-03 0.  1.
    9000002   -1    0    0    0    0 -0.00000000000E+00 -0.00000000000E+00  0.00000000000E+00  0.93800000000E+00  0.93800000000E+00 0.  1.
         11    1    1    2    0    0  0.25095044690E-02 -0.34806288374E-01  0.55857173266E+00  0.55966098396E+00  0.51100000000E-03 0.  1.
    9000002    1    1    2    0    0 -0.22582318865E-01  0.24234097019E+00  0.39333394261E-01  0.96986092965E+00  0.93800000000E+00 0.  1.
         22    1    1    2    0    0  0.20072814396E-01 -0.20753468182E+00  0.34020948404E+01  0.34084780864E+01  0.00000000000E+00 0. -1.
</event>
<event>
 5    1  0.1537976E+002  0.1599450E+01  0.7818608E-02  0.3353961E+00
         11   -1    0    0    0    0  0.00000000000E+00  0.00000000000E+00  0.39999999674E+01  0.40000000000E+01  0.51100000000E-03 0. -1.
    9000002   -1    0    0    0    0 -0.00000000000E+00 -0.00000000000E+00  0.00000000000E+00  0.93800000000E+00  0.93800000000E+00 0. -1.
         11    1    1    2    0    0 -0.43383719066E-01  0.11577663999E-01  0.44964260472E+00  0.45187932292E+00  0.51100000000E-03 0. -1.
    9000002    1    1    2    0    0  0.46772287731E+00 -0.72304904313E-01  0.15287203405E+00  0.10616998389E+01  0.93800000000E+00 0. -1.
         22    1    1    2    0    0 -0.42433915824E+00  0.60727240314E-01  0.33974853286E+01  0.34244208382E+01  0.00000000000E+00 0. -1.
</event>
<event>
 5    1  0.1537976E+002  0.1599645E+01  0.7818608E-02  0.3353748E+00
         11   -1    0    0    0    0  0.00000000000E+00  0.00000000000E+00  0.39999999674E+01  0.40000000000E+01  0.51100000000E-03 0.  1.
    9000002   -1    0    0    0    0 -0.00000000000E+00 -0.00000000000E+00  0.00000000000E+00  0.93800000000E+00  0.93800000000E+00 0. -1.
         11    1    1    2    0    0  0.13418899832E+00  0.48513469126E-01  0.14395002583E+01  0.14465550452E+01  0.51100000000E-03 0.  1.
    9000002    1    1    2    0    0 -0.36602459752E+00 -0.14873372845E+00  0.10525011562E+00  0.10232386402E+01  0.93800000000E+00 0. -1.
         22    1    1    2    0    0  0.23183559920E+00  0.10022025932E+00  0.24552495934E+01  0.24682063146E+01  0.00000000000E+00 0.  1.
</event>
<event>
 5    1  0.1537976E+002  0.1599051E+01  0.7818608E-02  0.3354394E+00
         11   -1    0    0    0    0  0.00000000000E+00  0.00000000000E+00  0.39999999674E+01  0.40000000000E+01  0.51100000000E-03 0.  1.
    9000002   -1    0    0    0    0 -0.00000000000E+00 -0.00000000000E+00  0.00000000000E+00  0.93800000000E+00  0.93800000000E+00 0. -1.
         11    1    1    2    0    0  0.32282336269E-02  0.80233522757E-01  0.65745387868E+00  0.66233956803E+00  0.51100000000E-03 0.  1.
    9000002    1    1    2    0    0  0.51101404708E-01 -0.36262096583E+00  0.90592978929E-01  0.10110175104E+01  0.93800000000E+00 0. -1.
         22    1    1    2    0    0 -0.54329638335E-01  0.28238744307E+00  0.32519531097E+01  0.32646429216E+01  0.00000000000E+00 0.  1.
</event>
<event>
 5    1  0.1537976E+002  0.1599677E+01  0.7818608E-02  0.3353714E+00
         11   -1    0    0    0    0  0.00000000000E+00  0.00000000000E+00  0.39999999674E+01  0.40000000000E+01  0.51100000000E-03 0.  1.
    9000002   -1    0    0    0    0 -0.00000000000E+00 -0.00000000000E+00  0.00000000000E+00  0.93800000000E+00  0.93800000000E+00 0. -1.
         11    1    1    2    0    0 -0.79852319515E-01 -0.15962548281E-01  0.10201774359E+01  0.10234224238E+01  0.51100000000E-03 0. -1.
    9000002    1    1    2    0    0  0.30876418204E+00  0.62148829115E-01  0.66270839471E-01  0.99168221787E+00  0.93800000000E+00 0. -1.
         22    1    1    2    0    0 -0.22891186253E+00 -0.46186280834E-01  0.29135516920E+01  0.29228953583E+01  0.00000000000E+00 0.  1.
</event>
<event>
 5    1  0.1537976E+002  0.1515659E+01  0.7818608E-02  0.3450320E+00
         11   -1    0    0    0    0  0.00000000000E+00  0.00000000000E+00  0.39999999674E+01  0.40000000000E+01  0.51100000000E-03 0.  1.
    9000002   -1    0    0    0    0 -0.00000000000E+00 -0.00000000000E+00  0.00000000000E+00  0.93800000000E+00  0.93800000000E+00 0. -1.
         11    1    1    2    0    0 -0.35249970516E+00  0.10647193759E+00  0.18984499626E+01  0.19338316466E+01  0.51100000000E-03 0.  1.
    9000002    1    1    2    0    0  0.12381487351E+00  0.17186388782E+00  0.95860004790E-01  0.96638525411E+00  0.93800000000E+00 0. -1.
         22    1    1    2    0    0  0.22868483165E+00 -0.27833582540E+00  0.20056900000E+01  0.20377830993E+01  0.00000000000E+00 0. -1.
</event>
<event>
 5    1  0.1537976E+002  0.1521364E+01  0.7818608E-02  0.3443400E+00
         11   -1    0    0    0    0  0.00000000000E+00  0.00000000000E+00  0.39999999674E+01  0.40000000000E+01  0.51100000000E-03 0.  1.
    9000002   -1    0    0    0    0 -0.00000000000E+00 -0.00000000000E+00  0.00000000000E+00  0.93800000000E+00  0.93800000000E+00 0. -1.
         11    1    1    2    0    0 -0.94409970100E-01  0.18971189042E+00  0.18195880388E+01  0.18318855684E+01  0.51100000000E-03 0.  1.
    9000002    1    1    2    0    0 -0.46138105890E-01  0.26968742751E+00  0.11298213836E+00  0.98360001879E+00  0.93800000000E+00 0. -1.
         22    1    1    2    0    0  0.14054807599E+00 -0.45939931793E+00  0.20674297902E+01  0.21225144128E+01  0.00000000000E+00 0.  1.
</event>
<event>
 5    1  0.1537976E+002  0.1597092E+01  0.7818608E-02  0.3356525E+00
         11   -1    0    0    0    0  0.00000000000E+00  0.00000000000E+00  0.39999999674E+01  0.40000000000E+01  0.51100000000E-03 0.  1.
    9000002   -1    0    0    0    0 -0.00000000000E+00 -0.00000000000E+00  0.00000000000E+00  0.93800000000E+00  0.93800000000E+00 0.  1.
         11    1    1    2    0    0 -0.70344453285E-02 -0.10796891910E-02  0.77334542050E+00  0.77337833541E+00  0.51100000000E-03 0.  1.
    9000002    1    1    2    0    0 -0.15009318820E+00 -0.15938098748E+00  0.33721830461E-01  0.96380051160E+00  0.93800000000E+00 0.  1.
         22    1    1    2    0    0  0.15712763353E+00  0.16046067667E+00  0.31929327164E+01  0.32008211530E+01  0.00000000000E+00 0.  1.
</event>
<event>
 5    1  0.1537976E+002  0.1599504E+01  0.7818608E-02  0.3353902E+00
         11   -1    0    0    0    0  0.00000000000E+00  0.00000000000E+00  0.39999999674E+01  0.40000000000E+01  0.51100000000E-03 0. -1.
    9000002   -1    0    0    0    0 -0.00000000000E+00 -0.00000000000E+00  0.00000000000E+00  0.93800000000E+00  0.93800000000E+00 0.  1.
         11    1    1    2    0    0 -0.21021168236E+00 -0.25807139600E+00  0.19453728955E+01  0.19736427642E+01  0.51100000000E-03 0. -1.
    9000002    1    1    2    0    0  0.37792947045E+00  0.47977834528E+00  0.26103421812E+00  0.11493479927E+01  0.93800000000E+00 0.  1.
         22    1    1    2    0    0 -0.16771778809E+00 -0.22170694928E+00  0.17935928537E+01  0.18150092431E+01  0.00000000000E+00 0. -1.
</event>
<event>
 5    1  0.1537976E+002  0.1517657E+01  0.7818608E-02  0.3447890E+00
         11   -1    0    0    0    0  0.00000000000E+00  0.00000000000E+00  0.39999999674E+01  0.40000000000E+01  0.51100000000E-03 0. -1.
    9000002   -1    0    0    0    0 -0.00000000000E+00 -0.00000000000E+00  0.00000000000E+00  0.93800000000E+00  0.93800000000E+00 0.  1.
         11    1    1    2    0    0 -0.30882655862E+00  0.12107228556E+00  0.16434448852E+01  0.16765869180E+01  0.51100000000E-03 0. -1.
    9000002    1    1    2    0    0  0.10143327347E-01  0.71756757146E-01  0.65646987204E-01  0.94308294769E+00  0.93800000000E+00 0.  1.
         22    1    1    2    0    0  0.29868323127E+00 -0.19282904271E+00  0.22909080949E+01  0.23183301343E+01  0.00000000000E+00 0. -1.
</event>
<event>
 5    1  0.1537976E+002  0.1599676E+01  0.7818608E-02  0.3353715E+00
         11   -1    0    0    0    0  0.00000000000E+00  0.00000000000E+00  0.39999999674E+01  0.40000000000E+01  0.51100000000E-03 0.  1.
    9000002   -1    0    0    0    0 -0.00000000000E+00 -0.00000000000E+00  0.00000000000E+00  0.93800000000E+00  0.93800000000E+00 0.  1.
         11    1    1    2    0    0 -0.11910555034E+00  0.15093589943E-02  0.10741246162E+01  0.10807091943E+01  0.51100000000E-03 0.  1.
    9000002    1    1    2    0    0  0.43069155974E+00 -0.87553378540E-02  0.12569054565E+00  0.10398144012E+01  0.93800000000E+00 0.  1.
         22    1    1    2    0    0 -0.31158600940E+00  0.72459788598E-02  0.28001848055E+01  0.28174764046E+01  0.00000000000E+00 0.  1.
</event>
<event>
 5    1  0.1537976E+002  0.1599676E+01  0.7818608E-02  0.3353716E+00
         11   -1    0    0    0    0  0.00000000000E+00  0.00000000000E+00  0.39999999674E+01  0.40000000000E+01  0.51100000000E-03 0.  1.
    9000002   -1    0    0    0    0 -0.00000000000E+00 -0.00000000000E+00  0.00000000000E+00  0.93800000000E+00  0.93800000000E+00 0.  1.
         11    1    1    2    0    0  0.39709109062E-01 -0.33140432400E-01  0.70845795464E+00  0.71034360433E+00  0.51100000000E-03 0.  1.
    9000002    1    1    2    0    0 -0.22683059987E+00  0.18501223960E+00  0.57122124941E-01  0.98427058627E+00  0.93800000000E+00 0.  1.
         22    1    1    2    0    0  0.18712149080E+00 -0.15187180720E+00  0.32344198878E+01  0.32433858094E+01  0.00000000000E+00 0.  1.
</event>
<event>
 5    1  0.1537976E+002  0.1598801E+01  0.7818608E-02  0.3354666E+00
         11   -1    0    0    0    0  0.00000000000E+00  0.00000000000E+00  0.39999999674E+01  0.40000000000E+01  0.51100000000E-03 0.  1.
    9000002   -1    0    0    0    0 -0.00000000000E+00 -0.00000000000E+00  0.00000000000E+00  0.93800000000E+00  0.93800000000E+00 0.  1.
         11    1    1    2    0    0  0.16475214283E-01  0.38324827817E-01  0.12052715844E+01  0.12059933990E+01  0.51100000000E-03 0.  1.
    9000002    1    1    2    0    0 -0.10097864302E+00 -0.22304197963E+00  0.40473440049E-01  0.97027135914E+00  0.93800000000E+00 0.  1.
         22    1    1    2    0    0  0.84503428739E-01  0.18471715182E+00  0.27542549429E+01  0.27617352419E+01  0.00000000000E+00 0.  1.
</event>
<event>
 5    1  0.1537976E+002  0.1599670E+01  0.7818608E-02  0.3353721E+00
         11   -1    0    0    0    0  0.00000000000E+00  0.00000000000E+00  0.39999999674E+01  0.40000000000E+01  0.51100000000E-03 0. -1.
    9000002   -1    0    0    0    0 -0.00000000000E+00 -0.00000000000E+00  0.00000000000E+00  0.93800000000E+00  0.93800000000E+00 0.  1.
         11    1    1    2    0    0  0.32787065718E-01 -0.17136125711E+00  0.91602001462E+00  0.93248731918E+00  0.51100000000E-03 0. -1.
    9000002    1    1    2    0    0 -0.12257463343E+00  0.67829654401E+00  0.33859129168E+00  0.12122701041E+01  0.93800000000E+00 0.  1.
         22    1    1    2    0    0  0.89787567715E-01 -0.50693528690E+00  0.27453886611E+01  0.27932425768E+01  0.00000000000E+00 0. -1.
</event>
<event>
 5    1  0.1537976E+002  0.1599674E+01  0.7818608E-02  0.3353718E+00
         11   -1    0    0    0    0  0.00000000000E+00  0.00000000000E+00  0.39999999674E+01  0.40000000000E+01  0.51100000000E-03 0.  1.
    9000002   -1    0    0    0    0 -0.00000000000E+00 -0.00000000000E+00  0.00000000000E+00  0.93800000000E+00  0.93800000000E+00 0. -1.
         11    1    1    2    0    0  0.29145673490E-01 -0.20013938448E-02  0.50661218519E+00  0.50745407985E+00  0.51100000000E-03 0.  1.
    9000002    1    1    2    0    0 -0.23830226023E+00  0.11826555773E-01  0.37786895161E-01  0.96860708448E+00  0.93800000000E+00 0. -1.
         22    1    1    2    0    0  0.20915658674E+00 -0.98251619286E-02  0.34556008870E+01  0.34619388357E+01  0.00000000000E+00 0.  1.
</event>
<event>
 5    1  0.1537976E+002  0.1586158E+01  0.7818608E-02  0.3368525E+00
         11   -1    0    0    0    0  0.00000000000E+00  0.00000000000E+00  0.39999999674E+01  0.40000000000E+01  0.51100000000E-03 0. -1.
    9000002   -1    0    0    0    0 -0.00000000000E+00 -0.00000000000E+00  0.00000000000E+00  0.93800000000E+00  0.93800000000E+00 0.  1.
         11    1    1    2    0    0  0.85937846859E-01 -0.25399434511E+00  0.14034926186E+01  0.14288772629E+01  0.51100000000E-03 0. -1.
    9000002    1    1    2    0    0 -0.30099788565E+00  0.33177380087E+00  0.14800485375E+00  0.10499633417E+01  0.93800000000E+00 0.  1.
         22    1    1    2    0    0  0.21506003879E+00 -0.77779455763E-01  0.24485024950E+01  0.24591593954E+01  0.00000000000E+00 0. -1.
</event>
<event>
 5    1  0.1537976E+002  0.1557510E+01  0.7818608E-02  0.3400813E+00
         11   -1    0    0    0    0  0.00000000000E+00  0.00000000000E+00  0.39999999674E+01  0.40000000000E+01  0.51100000000E-03 0. -1.
    9000002   -1    0    0    0    0 -0.00000000000E+00 -0.00000000000E+00  0.00000000000E+00  0.93800000000E+00  0.93800000000E+00 0. -1.
         11    1    1    2    0    0  0.15366664169E+00  0.17704939456E+00  0.90023098092E+00  0.93025588147E+00  0.51100000000E-03 0. -1.
    9000002    1    1    2    0    0 -0.26328568287E+00  0.43136651997E-01  0.80553053238E-01  0.97852588925E+00  0.93800000000E+00 0. -1.
         22    1    1    2    0    0  0.10961904117E+00 -0.22018604655E+00  0.30192159332E+01  0.30292182293E+01  0.00000000000E+00 0. -1.
</event>
<event>
 5    1  0.1537976E+002  0.1550803E+01  0.7818608E-02  0.3408554E+00
         11   -1    0    0    0    0  0.00000000000E+00  0.00000000000E+00  0.39999999674E+01  0.40000000000E+01  0.51100000000E-03 0. -1.
    9000002   -1    0    0    0    0 -0.00000000000E+00 -0.00000000000E+00  0.00000000000E+00  0.93800000000E+00  0.93800000000E+00 0. -1.
         11    1    1    2    0    0  0.84237065809E-01  0.19148489193E+00  0.24630251689E+01  0.24718931188E+01  0.51100000000E-03 0. -1.
    9000002    1    1    2    0    0 -0.11826735070E+00  0.10644175269E+00  0.53796274971E-01  0.95291922646E+00  0.93800000000E+00 0. -1.
         22    1    1    2    0    0  0.34030284888E-01 -0.29792664463E+00  0.14831785235E+01  0.15131876547E+01  0.00000000000E+00 0. -1.
</event>
<event>
 5    1  0.1537976E+002  0.1599615E+01  0.7818608E-02  0.3353782E+00
         11   -1    0    0    0    0  0.00000000000E+00  0.00000000000E+00  0.39999999674E+01  0.40000000000E+01  0.51100000000E-03 0.  1.
    9000002   -1    0    0    0    0 -0.00000000000E+00 -0.00000000000E+00  0.00000000000E+00  0.93800000000E+00  0.93800000000E+00 0.  1.
         11    1    1    2    0    0  0.81679323213E-01 -0.91884751697E-01  0.14645143275E+01  0.14696655389E+01  0.51100000000E-03 0.  1.
    9000002    1    1    2    0    0 -0.23819302283E+00  0.23090409888E+00  0.73696967767E-01  0.99766119603E+00  0.93800000000E+00 0.  1.
         22    1    1    2    0    0  0.15651369961E+00 -0.13901934719E+00  0.24617886721E+01  0.24706732651E+01  0.00000000000E+00 0.  1.
</event>
<event>
 5    1  0.1537976E+002  0.1599665E+01  0.7818608E-02  0.3353727E+00
         11   -1    0    0    0    0  0.00000000000E+00  0.00000000000E+00  0.39999999674E+01  0.40000000000E+01  0.51100000000E-03 0. -1.
    9000002   -1    0    0    0    0 -0.00000000000E+00 -0.00000000000E+00  0.00000000000E+00  0.93800000000E+00  0.93800000000E+00 0.  1.
         11    1    1    2    0    0  0.17435594951E+00 -0.49793002567E+00  0.22748164440E+01  0.23351925879E+01  0.51100000000E-03 0. -1.
    9000002    1    1    2    0    0 -0.27482352080E+00  0.76642429921E+00  0.49074460774E+00  0.13355180433E+01  0.93800000000E+00 0.  1.
         22    1    1    2    0    0  0.10046757129E+00 -0.26849427355E+00  0.12344389157E+01  0.12672893688E+01  0.00000000000E+00 0. -1.
</event>
<event>
 5    1  0.1537976E+002  0.1599673E+01  0.7818608E-02  0.3353718E+00
         11   -1    0    0    0    0  0.00000000000E+00  0.00000000000E+00  0.39999999674E+01  0.40000000000E+01  0.51100000000E-03 0.  1.
    9000002   -1    0    0    0    0 -0.00000000000E+00 -0.00000000000E+00  0.00000000000E+00  0.93800000000E+00  0.93800000000E+00 0.  1.
         11    1    1    2    0    0  0.36505915390E-01 -0.97246540902E-02  0.61563376816E+00  0.61679206251E+00  0.51100000000E-03 0.  1.
    9000002    1    1    2    0    0 -0.24007632591E+00  0.53637550785E-01  0.40189110268E-01  0.97055282891E+00  0.93800000000E+00 0.  1.
         22    1    1    2    0    0  0.20357041052E+00 -0.43912896695E-01  0.33441770889E+01  0.33506551086E+01  0.00000000000E+00 0.  1.
</event>
<event>
 5    1  0.1537976E+002  0.1584089E+01  0.7818608E-02  0.3370815E+00
         11   -1    0    0    0    0  0.00000000000E+00  0.00000000000E+00  0.39999999674E+01  0.40000000000E+01  0.51100000000E-03 0. -1.
    9000002   -1    0    0    0    0 -0.00000000000E+00 -0.00000000000E+00  0.00000000000E+00  0.93800000000E+00  0.93800000000E+00 0.  1.
         11    1    1    2    0    0  0.10745108316E+00 -0.45037572145E-01  0.15483553981E+01  0.15527326938E+01  0.51100000000E-03 0. -1.
    9000002    1    1    2    0    0 -0.13266202324E-01 -0.15366140739E+00  0.27317031126E-01  0.95098792865E+00  0.93800000000E+00 0.  1.
         22    1    1    2    0    0 -0.94184880834E-01  0.19869897954E+00  0.24243275381E+01  0.24342793776E+01  0.00000000000E+00 0. -1.
</event>
<event>
 5    1  0.1537976E+002  0.1595362E+01  0.7818608E-02  0.3358413E+00
         11   -1    0    0    0    0  0.00000000000E+00  0.00000000000E+00  0.39999999674E+01  0.40000000000E+01  0.51100000000E-03 0.  1.
    9000002   -1    0    0    0    0 -0.00000000000E+00 -0.00000000000E+00  0.00000000000E+00  0.93800000000E+00  0.93800000000E+00 0.  1.
         11    1    1    2    0    0 -0.45386697647E-03 -0.17041016762E-01  0.44185461008E+00  0.44218362681E+00  0.51100000000E-03 0.  1.
    9000002    1    1    2    0    0  0.10492260557E+00 -0.28128812372E+00  0.63514604090E-01  0.98691938204E+00  0.93800000000E+00 0.  1.
         22    1    1    2    0    0 -0.10446873859E+00  0.29832914048E+00  0.34946307532E+01  0.35088969912E+01  0.00000000000E+00 0.  1.
</event>
<event>
 5    1  0.1537976E+002  0.1597129E+01  0.7818608E-02  0.3356486E+00
         11   -1    0    0    0    0  0.00000000000E+00  0.00000000000E+00  0.39999999674E+01  0.40000000000E+01  0.51100000000E-03 0.  1.
    9000002   -1    0    0    0    0 -0.00000000000E+00 -0.00000000000E+00  0.00000000000E+00  0.93800000000E+00  0.93800000000E+00 0. -1.
         11    1    1    2    0    0 -0.84227858113E-03 -0.45694348943E-01  0.25514805881E+00  0.25920932853E+00  0.51100000000E-03 0.  1.
    9000002    1    1    2    0    0 -0.23208031550E-01  0.24445181415E+00  0.41986138121E-01  0.97051642849E+00  0.93800000000E+00 0. -1.
         22    1    1    2    0    0  0.24050310131E-01 -0.19875746521E+00  0.37028657704E+01  0.37082742430E+01  0.00000000000E+00 0.  1.
</event>
<event>
 5    1  0.1537976E+002  0.1595427E+01  0.7818608E-02  0.3358342E+00
         11   -1    0    0    0    0  0.00000000000E+00  0.00000000000E+00  0.39999999674E+01  0.40000000000E+01  0.51100000000E-03 0.  1.
    9000002   -1    0    0    0    0 -0.00000000000E+00 -0.00000000000E+00  0.00000000000E+00  0.93800000000E+00  0.93800000000E+00 0. -1.
         11    1    1    2    0    0 -0.11525102105E-01 -0.32226469398E-01  0.13515441332E+00  0.13942148281E+00  0.51100000000E-03 0.  1.
    9000002    1    1    2    0    0 -0.10217969351E+00  0.22534716564E+00  0.43912624866E-01  0.97107896355E+00  0.93800000000E+00 0. -1.
         22    1    1    2    0    0  0.11370479562E+00 -0.19312069624E+00  0.38209329292E+01  0.38274995536E+01  0.00000000000E+00 0.  1.
</event>
<event>
 5    1  0.1537976E+002  0.1599516E+01  0.7818608E-02  0.3353889E+00
         11   -1    0    0    0    0  0.00000000000E+00  0.00000000000E+00  0.39999999674E+01  0.40000000000E+01  0.51100000000E-03 0.  1.
    9000002   -1    0    0    0    0 -0.00000000000E+00 -0.00000000000E+00  0.00000000000E+00  0.93800000000E+00  0.93800000000E+00 0.  1.
         11    1    1    2    0    0  0.45632917967E-01 -0.15789520501E-01  0.40798979619E+00  0.41083768945E+00  0.51100000000E-03 0.  1.
    9000002    1    1    2    0    0 -0.40121371913E+00  0.23260972134E+00  0.14652168373E+00  0.10565946880E+01  0.93800000000E+00 0.  1.
         22    1    1    2    0    0  0.35558080116E+00 -0.21682020084E+00  0.34454884874E+01  0.34705676226E+01  0.00000000000E+00 0.  1.
</event>
<event>
 5    1  0.1537976E+002  0.1599593E+01  0.7818608E-02  0.3353805E+00
         11   -1    0    0    0    0  0.00000000000E+00  0.00000000000E+00  0.39999999674E+01  0.40000000000E+01  0.51100000000E-03 0.  1.
    9000002   -1    0    0    0    0 -0.00000000000E+00 -0.00000000000E+00  0.00000000000E+00  0.93800000000E+00  0.93800000000E+00 0. -1.
         11    1    1    2    0    0 -0.22834682914E+00  0.95942435637E-02  0.16854716619E+01  0.17008966189E+01  0.51100000000E-03 0.  1.
    9000002    1    1    2    0    0  0.49830015746E+00 -0.36093454276E-01  0.17093322108E+00  0.10764143953E+01  0.93800000000E+00 0. -1.
         22    1    1    2    0    0 -0.26995332833E+00  0.26499210712E-01  0.21435950844E+01  0.21606889858E+01  0.00000000000E+00 0.  1.
</event>
<event>
 5    1  0.1537976E+002  0.1599658E+01  0.7818608E-02  0.3353734E+00
         11   -1    0    0    0    0  0.00000000000E+00  0.00000000000E+00  0.39999999674E+01  0.40000000000E+01  0.51100000000E-03 0. -1.
    9000002   -1    0    0    0    0 -0.00000000000E+00 -0.00000000000E+00  0.00000000000E+00  0.93800000000E+00  0.93800000000E+00 0.  1.
         11    1    1    2    0    0 -0.36126688824E-01 -0.10267440109E+00  0.11749143072E+01  0.11799453635E+01  0.51100000000E-03 0. -1.
    9000002    1    1    2    0    0  0.10799584156E+00  0.33246151740E+00  0.81943309213E-01  0.10043667001E+01  0.93800000000E+00 0.  1.
         22    1    1    2    0    0 -0.71869152736E-01 -0.22978711630E+00  0.27431423509E+01  0.27536879364E+01  0.00000000000E+00 0. -1.
</event>
<event>
 5    1  0.1537976E+002  0.1583430E+01  0.7818608E-02  0.3371546E+00
         11   -1    0    0    0    0  0.00000000000E+00  0.00000000000E+00  0.39999999674E+01  0.40000000000E+01  0.51100000000E-03 0.  1.
    9000002   -1    0    0    0    0 -0.00000000000E+00 -0.00000000000E+00  0.00000000000E+00  0.93800000000E+00  0.93800000000E+00 0.  1.
         11    1    1    2    0    0 -0.97150127406E-01 -0.61024993176E-01  0.30355723212E+00  0.32451417741E+00  0.51100000000E-03 0.  1.
    9000002    1    1    2    0    0  0.53131102770E+00 -0.51391805480E-01  0.21146569391E+00  0.10997700967E+01  0.93800000000E+00 0.  1.
         22    1    1    2    0    0 -0.43416090030E+00  0.11241679866E+00  0.34849770413E+01  0.35137157259E+01  0.00000000000E+00 0.  1.
</event>
<event>
 5    1  0.1537976E+002  0.1599645E+01  0.7818608E-02  0.3353749E+00
         11   -1    0    0    0    0  0.00000000000E+00  0.00000000000E+00  0.39999999674E+01  0.40000000000E+01  0.51100000000E-03 0.  1.
    9000002   -1    0    0    0    0 -0.00000000000E+00 -0.00000000000E+00  0.00000000000E+00  0.93800000000E+00  0.93800000000E+00 0.  1.
         11    1    1    2    0    0 -0.14279021684E-02 -0.25431618005E-01  0.46364431361E+00  0.46434374849E+00  0.51100000000E-03 0.  1.
    9000002    1    1    2    0    0 -0.19613339605E-01  0.23715677290E+00  0.37608282044E-01  0.96844535256E+00  0.93800000000E+00 0.  1.
         22    1    1    2    0    0  0.21041241774E-01 -0.21172515490E+00  0.34987473717E+01  0.35052108989E+01  0.00000000000E+00 0.  1.
</event>
<event>
 5    1  0.1537976E+002  0.1599636E+01  0.7818608E-02  0.3353759E+00
         11   -1    0    0    0    0  0.00000000000E+00  0.00000000000E+00  0.39999999674E+01  0.40000000000E+01  0.51100000000E-03 0.  1.
    9000002   -1    0    0    0    0 -0.00000000000E+00 -0.00000000000E+00  0.00000000000E+00  0.93800000000E+00  0.93800000000E+00 0. -1.
         11    1    1    2    0    0  0.76417409518E-01 -0.13199572212E-01  0.98489414388E+00  0.98794260205E+00  0.51100000000E-03 0.  1.
    9000002    1    1    2    0    0 -0.30768749109E+00  0.79279372831E-01  0.67496908234E-01  0.99265132033E+00  0.93800000000E+00 0. -1.
         22    1    1    2    0    0  0.23127008157E+00 -0.66079800619E-01  0.29476089152E+01  0.29574060776E+01  0.00000000000E+00 0.  1.
</event>
<event>
 5    1  0.1537976E+002  0.1597167E+01  0.7818608E-02  0.3356444E+00
         11   -1    0    0    0    0  0.00000000000E+00  0.00000000000E+00  0.39999999674E+01  0.40000000000E+01  0.51100000000E-03 0. -1.
    9000002   -1    0    0    0    0 -0.00000000000E+00 -0.00000000000E+00  0.00000000000E+00  0.93800000000E+00  0.93800000000E+00 0.  1.
         11    1    1    2    0    0  0.24111346990E+00 -0.14125203716E+00  0.12808302586E+01  0.13109592884E+01  0.51100000000E-03 0. -1.
    9000002    1    1    2    0    0 -0.79331580363E+00  0.31304549488E+00  0.54966772194E+00  0.13817836483E+01  0.93800000000E+00 0.  1.
         22    1    1    2    0    0  0.55220233374E+00 -0.17179345772E+00  0.21695019868E+01  0.22452570633E+01  0.00000000000E+00 0. -1.
</event>
<event>
 5    1  0.1537976E+002  0.1598085E+01  0.7818608E-02  0.3355445E+00
         11   -1    0    0    0    0  0.00000000000E+00  0.00000000000E+00  0.39999999674E+01  0.40000000000E+01  0.51100000000E-03 0.  1.
    9000002   -1    0    0    0    0 -0.00000000000E+00 -0.00000000000E+00  0.00000000000E+00  0.93800000000E+00  0.93800000000E+00 0. -1.
         11    1    1    2    0    0  0.19607442776E-01  0.61410722862E-01  0.46147727251E+00  0.46595843469E+00  0.51100000000E-03 0.  1.
    9000002    1    1    2    0    0 -0.65363420626E-01 -0.28019665692E+00  0.56402898318E-01  0.98275522397E+00  0.93800000000E+00 0. -1.
         22    1    1    2    0    0  0.45755977850E-01  0.21878593406E+00  0.34821197965E+01  0.34892863413E+01  0.00000000000E+00 0.  1.
</event>
<event>
 5    1  0.1537976E+002  0.1599639E+01  0.7818608E-02  0.3353755E+00
         11   -1    0    0    0    0  0.00000000000E+00  0.00000000000E+00  0.39999999674E+01  0.40000000000E+01  0.51100000000E-03 0. -1.
    9000002   -1    0    0    0    0 -0.00000000000E+00 -0.00000000000E+00  0.00000000000E+00  0.93800000000E+00  0.93800000000E+00 0.  1.
         11    1    1    2    0    0 -0.31993877832E-01  0.29964728444E-01  0.63063180740E+00  0.63215364493E+00  0.51100000000E-03 0. -1.
    9000002    1    1    2    0    0  0.18865532576E+00 -0.15648212551E+00  0.39922894321E-01  0.97031712601E+00  0.93800000000E+00 0.  1.
         22    1    1    2    0    0 -0.15666144793E+00  0.12651739707E+00  0.33294452656E+01  0.33355292291E+01  0.00000000000E+00 0. -1.
</event>
<event>
 5    1  0.1537976E+002  0.1599673E+01  0.7818608E-02  0.3353718E+00
         11   -1    0    0    0    0  0.00000000000E+00  0.00000000000E+00  0.39999999674E+01  0.40000000000E+01  0.51100000000E-03 0.  1.
    9000002   -1    0    0    0    0 -0.00000000000E+00 -0.00000000000E+00  0.00000000000E+00  0.93800000000E+00  0.93800000000E+00 0. -1.
         11    1    1    2    0    0  0.35620397055E-01  0.32147776570E-01  0.59597429245E+00  0.59790292741E+00  0.51100000000E-03 0.  1.
    9000002    1    1    2    0    0 -0.22850700791E+00 -0.20335006296E+00  0.62457276337E-01  0.98859072024E+00  0.93800000000E+00 0. -1.
         22    1    1    2    0    0  0.19288661086E+00  0.17120228639E+00  0.33415683986E+01  0.33515063524E+01  0.00000000000E+00 0.  1.
</event>
<event>
 5    1  0.1537976E+002  0.1575635E+01  0.7818608E-02  0.3380240E+00
         11   -1    0    0    0    0  0.00000000000E+00  0.00000000000E+00  0.39999999674E+01  0.40000000000E+01  0.51100000000E-03 0. -1.
    9000002   -1    0    0    0    0 -0.00000000000E+00 -0.00000000000E+00  0.00000000000E+00  0.93800000000E+00  0.93800000000E+00 0.  1.
         11    1    1    2    0    0 -0.48241690983E-01 -0.12009305773E+00  0.17723234401E+01  0.17770425545E+01  0.51100000000E-03 0. -1.
    9000002    1    1    2    0    0  0.38231384031E-01 -0.14064525800E+00  0.31962559458E-01  0.94979383686E+00  0.93800000000E+00 0.  1.
         22    1    1    2    0    0  0.10010306952E-01  0.26073831573E+00  0.21957139678E+01  0.22111636086E+01  0.00000000000E+00 0. -1.
</event>
<event>
 5    1  0.1537976E+002  0.1599656E+01  0.7818608E-02  0.3353737E+00
         11   -1    0    0    0    0  0.00000000000E+00  0.00000000000E+00  0.39999999674E+01  0.40000000000E+01  0.51100000000E-03 0. -1.
    9000002   -1    0    0    0    0 -0.00000000000E+00 -0.00000000000E+00  0.00000000000E+00  0.93800000000E+00  0.93800000000E+00 0.  1.
         11    1    1    2    0    0 -0.34230452050E-02  0.48671838753E-02  0.81786140665E-01  0.82003906268E-01  0.51100000000E-03 0. -1.
    9000002    1    1    2    0    0  0.13850010258E+00 -0.16972329765E+00  0.31823294705E-01  0.96376604955E+00  0.93800000000E+00 0.  1.
         22    1    1    2    0    0 -0.13507705738E+00  0.16485611378E+00  0.38863905320E+01  0.38922300442E+01  0.00000000000E+00 0. -1.
</event>
<event>
 5    1  0.1537976E+002  0.1595752E+01  0.7818608E-02  0.3357987E+00
         11   -1    0    0    0    0  0.00000000000E+00  0.00000000000E+00  0.39999999674E+01  0.40000000000E+01  0.51100000000E-03 0.  1.
    9000002   -1    0    0    0    0 -0.00000000000E+00 -0.00000000000E+00  0.00000000000E+00  0.93800000000E+00  0.93800000000E+00 0.  1.
         11    1    1    2    0    0  0.14273456332E-01  0.73345976472E-02  0.56820409125E-01  0.59045303728E-01  0.51100000000E-03 0.  1.
    9000002    1    1    2    0    0 -0.11035567547E-02  0.26071734787E+00  0.48212762037E-01  0.97475290394E+00  0.93800000000E+00 0.  1.
         22    1    1    2    0    0 -0.13169899577E-01 -0.26805194552E+00  0.38949667962E+01  0.39042017923E+01  0.00000000000E+00 0.  1.
</event>
<event>
 5    1  0.1537976E+002  0.1597336E+01  0.7818608E-02  0.3356260E+00
         11   -1    0    0    0    0  0.00000000000E+00  0.00000000000E+00  0.39999999674E+01  0.40000000000E+01  0.51100000000E-03 0. -1.
    9000002   -1    0    0    0    0 -0.00000000000E+00 -0.00000000000E+00  0.00000000000E+00  0.93800000000E+00  0.93800000000E+00 0. -1.
         11    1    1    2    0    0  0.73413979030E-01 -0.62248886924E-01  0.18326208827E+01  0.18351468871E+01  0.51100000000E-03 0. -1.
    9000002    1    1    2    0    0 -0.28092328924E+00  0.15222698146E+00  0.70088390136E-01  0.99340189790E+00  0.93800000000E+00 0. -1.
         22    1    1    2    0    0  0.20750931021E+00 -0.89978094531E-01  0.20972906945E+01  0.21094512150E+01  0.00000000000E+00 0. -1.
</event>
<event>
 5    1  0.1537976E+002  0.1599537E+01  0.7818608E-02  0.3353866E+00
         11   -1    0    0    0    0  0.00000000000E+00  0.00000000000E+00  0.39999999674E+01  0.40000000000E+01  0.51100000000E-03 0. -1.
    9000002   -1    0    0    0    0 -0.00000000000E+00 -0.00000000000E+00  0.00000000000E+00  0.93800000000E+00  0.93800000000E+00 0. -1.
         11    1    1    2    0    0  0.14307569205E+00  0.88906482544E-01  0.78463600575E+00  0.80251413629E+00  0.51100000000E-03 0. -1.
    9000002    1    1    2    0    0 -0.61269910500E+00 -0.38361686292E+00  0.37599098874E+00  0.12424875510E+01  0.93800000000E+00 0. -1.
         22    1    1    2    0    0  0.46962341295E+00  0.29471038037E+00  0.28393729729E+01  0.28929983127E+01  0.00000000000E+00 0. -1.
</event>
<event>
 5    1  0.1537976E+002  0.1576778E+01  0.7818608E-02  0.3378960E+00
         11   -1    0    0    0    0  0.00000000000E+00  0.00000000000E+00  0.39999999674E+01  0.40000000000E+01  0.51100000000E-03 0. -1.
    9000002   -1    0    0    0    0 -0.00000000000E+00 -0.00000000000E+00  0.00000000000E+00  0.93800000000E+00  0.93800000000E+00 0. -1.
         11    1    1    2    0    0 -0.15046390663E+00 -0.14240585643E+00  0.94874476634E+00  0.97110025637E+00  0.51100000000E-03 0. -1.
    9000002    1    1    2    0    0 -0.76257309735E-02  0.42036087707E+00  0.13914761671E+00  0.10372885220E+01  0.93800000000E+00 0. -1.
         22    1    1    2    0    0  0.15808963760E+00 -0.27795502064E+00  0.29121075843E+01  0.29296112216E+01  0.00000000000E+00 0. -1.
</event>
<event>
 5    1  0.1537976E+002  0.1599677E+01  0.7818608E-02  0.3353714E+00
         11   -1    0    0    0    0  0.00000000000E+00  0.00000000000E+00  0.39999999674E+01  0.40000000000E+01  0.51100000000E-03 0. -1.
    9000002   -1    0    0    0    0 -0.00000000000E+00 -0.00000000000E+00  0.00000000000E+00  0.93800000000E+00  0.93800000000E+00 0. -1.
         11    1    1    2    0    0  0.40964670604E+00  0.38476242892E+00  0.25408219029E+01  0.26022353380E+01  0.51100000000E-03 0. -1.
    9000002    1    1    2    0    0 -0.57223564929E+00 -0.53755368003E+00  0.45182148142E+00  0.13039954940E+01  0.93800000000E+00 0. -1.
         22    1    1    2    0    0  0.16258894325E+00  0.15279125111E+00  0.10073565830E+01  0.10317691681E+01  0.00000000000E+00 0. -1.
</event>
<event>
 5    1  0.1537976E+002  0.1561139E+01  0.7818608E-02  0.3396653E+00
         11   -1    0    0    0    0  0.00000000000E+00  0.00000000000E+00  0.39999999674E+01  0.40000000000E+01  0.51100000000E-03 0.  1.
    9000002   -1    0    0    0    0 -0.00000000000E+00 -0.00000000000E+00  0.00000000000E+00  0.93800000000E+00  0.93800000000E+00 0.  1.
         11    1    1    2    0    0 -0.21977523676E+00  0.63565920210E-01  0.20896365450E+01  0.21021234341E+01  0.51100000000E-03 0.  1.
    9000002    1    1    2    0    0 -0.30397693726E-01 -0.12958686468E+00  0.40568786218E-01  0.94826504823E+00  0.93800000000E+00 0.  1.
         22    1    1    2    0    0  0.25017293049E+00  0.66020944470E-01  0.18697946362E+01  0.18876115177E+01  0.00000000000E+00 0.  1.
</event>
<event>
 5    1  0.1537976E+002  0.1559214E+01  0.7818608E-02  0.3398857E+00
         11   -1    0    0    0    0  0.00000000000E+00  0.00000000000E+00  0.39999999674E+01  0.40000000000E+01  0.51100000000E-03 0. -1.
    9000002   -1    0    0    0    0 -0.00000000000E+00 -0.00000000000E+00  0.00000000000E+00  0.93800000000E+00  0.93800000000E+00 0. -1.
         11    1    1    2    0    0  0.93532456245E-01  0.12717736098E-01  0.26632090690E+00  0.28255468100E+00  0.51100000000E-03 0. -1.
    9000002    1    1    2    0    0  0.42443779506E+00 -0.43866157564E-02  0.15702932536E+00  0.10414743844E+01  0.93800000000E+00 0. -1.
         22    1    1    2    0    0 -0.51797025130E+00 -0.83311203414E-02  0.35766497351E+01  0.36139709346E+01  0.00000000000E+00 0. -1.
</event>
<event>
 5    1  0.1537976E+002  0.1599620E+01  0.7818608E-02  0.3353776E+00
         11   -1    0    0    0    0  0.00000000000E+00  0.00000000000E+00  0.39999999674E+01  0.40000000000E+01  0.51100000000E-03 0. -1.
    9000002   -1    0    0    0    0 -0.00000000000E+00 -0.00000000000E+00  0.00000000000E+00  0.93800000000E+00  0.93800000000E+00 0. -1.
         11    1    1    2    0    0 -0.35409970138E-03  0.34287531271E-02  0.43997680086E-01  0.44135458630E-01  0.51100000000E-03 0. -1.
    9000002    1    1    2    0    0 -0.11119228584E+00 -0.22396624141E+00  0.41578557182E-01  0.97164673526E+00  0.93800000000E+00 0. -1.
         22    1    1    2    0    0  0.11154638554E+00  0.22053748828E+00  0.39144237301E+01  0.39222178061E+01  0.00000000000E+00 0. -1.
</event>
<event>
 5    1  0.1537976E+002  0.1599563E+01  0.7818608E-02  0.3353838E+00
         11   -1    0    0    0    0  0.00000000000E+00  0.00000000000E+00  0.39999999674E+01  0.40000000000E+01  0.51100000000E-03 0.  1.
    9000002   -1    0    0    0    0 -0.00000000000E+00 -0.00000000000E+00  0.00000000000E+00  0.93800000000E+00  0.93800000000E+00 0.  1.
         11    1    1    2    0    0  0.12482996294E-02 -0.58918485809E-02  0.15307033577E+00  0.15318962415E+00  0.51100000000E-03 0.  1.
    9000002    1    1    2    0    0  0.85828251636E-01  0.20180532422E+00  0.31963153845E-01  0.96382442429E+00  0.93800000000E+00 0.  1.
         22    1    1    2    0    0 -0.87076551265E-01 -0.19591347564E+00  0.38149664777E+01  0.38209859516E+01  0.00000000000E+00 0.  1.
</event>
<event>
 5    1  0.1537976E+002  0.1599649E+01  0.7818608E-02  0.3353745E+00
         11   -1    0    0    0    0  0.00000000000E+00  0.00000000000E+00  0.39999999674E+01  0.40000000000E+01  0.51100000000E-03 0.  1.
    9000002   -1    0    0    0    0 -0.00000000000E+00 -0.00000000000E+00  0.00000000000E+00  0.93800000000E+00  0.93800000000E+00 0.  1.
         11    1    1    2    0    0  0.23704724880E-01 -0.41923079433E-01  0.52615237154E+00  0.52835219103E+00  0.51100000000E-03 0.  1.
    9000002    1    1    2    0    0 -0.20820143685E+00  0.31031840723E+00  0.93910933053E-01  0.10140555288E+01  0.93800000000E+00 0.  1.
         22    1    1    2    0    0  0.18449671197E+00 -0.26839532780E+00  0.33799366628E+01  0.33955922802E+01  0.00000000000E+00 0.  1.
</event>
<event>
 5    1  0.1537976E+002  0.1599674E+01  0.7818608E-02  0.3353718E+00
         11   -1    0    0    0    0  0.00000000000E+00  0.00000000000E+00  0.39999999674E+01  0.40000000000E+01  0.51100000000E-03 0. -1.
    9000002   -1    0    0    0    0 -0.00000000000E+00 -0.00000000000E+00  0.00000000000E+00  0.93800000000E+00  0.93800000000E+00 0.  1.
         11    1    1    2    0    0  0.16718141264E+00  0.18530437715E-01  0.16545370894E+01  0.16630653154E+01  0.51100000000E-03 0. -1.
    9000002    1    1    2    0    0 -0.39036229900E+00 -0.47499582150E-01  0.10422018649E+00  0.10224210395E+01  0.93800000000E+00 0.  1.
         22    1    1    2    0    0  0.22318088635E+00  0.28969144435E-01  0.22412426915E+01  0.22525136451E+01  0.00000000000E+00 0.  1.
</event>
<event>
 5    1  0.1537976E+002  0.1599584E+01  0.7818608E-02  0.3353815E+00
         11   -1    0    0    0    0  0.00000000000E+00  0.00000000000E+00  0.39999999674E+01  0.40000000000E+01  0.51100000000E-03 0. -1.
    9000002   -1    0    0    0    0 -0.00000000000E+00 -0.00000000000E+00  0.00000000000E+00  0.93800000000E+00  0.93800000000E+00 0.  1.
         11    1    1    2    0    0  0.10838415984E-01  0.17186017635E+00  0.12890207738E+01  0.13004723018E+01  0.51100000000E-03 0. -1.
    9000002    1    1    2    0    0 -0.38262690447E-01 -0.53864132664E+00  0.20111717112E+00  0.11008590413E+01  0.93800000000E+00 0.  1.
         22    1    1    2    0    0  0.27424274464E-01  0.36678115029E+00  0.25098620225E+01  0.25366686569E+01  0.00000000000E+00 0. -1.
</event>
<event>
 5    1  0.1537976E+002  0.1573485E+01  0.7818608E-02  0.3382654E+00
         11   -1    0    0    0    0  0.00000000000E+00  0.00000000000E+00  0.39999999674E+01  0.40000000000E+01  0.51100000000E-03 0.  1.
    9000002   -1    0    0    0    0 -0.00000000000E+00 -0.00000000000E+00  0.00000000000E+00  0.93800000000E+00  0.93800000000E+00 0.  1.
         11    1    1    2    0    0 -0.92341114413E-01 -0.74157220210E-01  0.19011702621E+01  0.19048555854E+01  0.51100000000E-03 0.  1.
    9000002    1    1    2    0    0 -0.18506646467E+00  0.61784497419E-02  0.42470832544E-01  0.95704521377E+00  0.93800000000E+00 0.  1.
         22    1    1    2    0    0  0.27740757908E+00  0.67978770468E-01  0.20563588727E+01  0.20760992008E+01  0.00000000000E+00 0.  1.
</event>
<event>
 5    1  0.1537976E+002  0.1599675E+01  0.7818608E-02  0.3353716E+00
         11   -1    0    0    0    0  0.00000000000E+00  0.00000000000E+00  0.39999999674E+01  0.40000000000E+01  0.51100000000E-03 0. -1.
    9000002   -1    0    0    0    0 -0.00000000000E+00 -0.00000000000E+00  0.00000000000E+00  0.93800000000E+00  0.93800000000E+00 0.  1.
         11    1    1    2    0    0 -0.11312878301E+00  0.66012610209E-01  0.90528244879E+00  0.91470889329E+00  0.51100000000E-03 0.  1.
    9000002    1    1    2    0    0  0.47920827942E+00 -0.27522188031E+00  0.21103853657E+00  0.11089494679E+01  0.93800000000E+00 0.  1.
         22    1    1    2    0    0 -0.36607949640E+00  0.20920927010E+00  0.28836789820E+01  0.29143416388E+01  0.00000000000E+00 0. -1.
</event>
<event>
 5    1  0.1537976E+002  0.1599218E+01  0.7818608E-02  0.3354212E+00
         11   -1    0    0    0    0  0.00000000000E+00  0.00000000000E+00  0.39999999674E+01  0.40000000000E+01  0.51100000000E-03 0. -1.
    9000002   -1    0    0    0    0 -0.00000000000E+00 -0.00000000000E+00  0.00000000000E+00  0.93800000000E+00  0.93800000000E+00 0. -1.
         11    1    1    2    0    0  0.17999537698E+00  0.15199587054E-01  0.17103638382E+01  0.17198761825E+01  0.51100000000E-03 0. -1.
    9000002    1    1    2    0    0 -0.45592518900E+00 -0.46047633023E-02  0.14171806037E+00  0.10525288549E+01  0.93800000000E+00 0. -1.
         22    1    1    2    0    0  0.27592981203E+00 -0.10594823752E-01  0.21479180688E+01  0.21655949625E+01  0.00000000000E+00 0.  1.
</event>
<event>
 5    1  0.1537976E+002  0.1496390E+01  0.7818608E-02  0.3474113E+00
         11   -1    0    0    0    0  0.00000000000E+00  0.00000000000E+00  0.39999999674E+01  0.40000000000E+01  0.51100000000E-03 0. -1.
    9000002   -1    0    0    0    0 -0.00000000000E+00 -0.00000000000E+00  0.00000000000E+00  0.93800000000E+00  0.93800000000E+00 0.  1.
         11    1    1    2    0    0 -0.32019536474E+00  0.24175411444E+00  0.13319756649E+01  0.13910893417E+01  0.51100000000E-03 0. -1.
    9000002    1    1    2    0    0  0.70243968024E-01 -0.69440814428E-01  0.85999075303E-01  0.94709877136E+00  0.93800000000E+00 0.  1.
         22    1    1    2    0    0  0.24995139671E+00 -0.17231330001E+00  0.25820252271E+01  0.25998118870E+01  0.00000000000E+00 0. -1.
</event>
<event>
 5    1  0.1537976E+002  0.1599442E+01  0.7818608E-02  0.3353970E+00
         11   -1    0    0    0    0  0.00000000000E+00  0.00000000000E+00  0.39999999674E+01  0.40000000000E+01  0.51100000000E-03 0. -1.
    9000002   -1    0    0    0    0 -0.00000000000E+00 -0.00000000000E+00  0.00000000000E+00  0.93800000000E+00  0.93800000000E+00 0. -1.
         11    1    1    2    0    0 -0.65597657954E-01 -0.41389168111E-01  0.10405950600E+01  0.10434818905E+01  0.51100000000E-03 0. -1.
    9000002    1    1    2    0    0  0.25487856470E+00  0.21719717987E+00  0.75254880275E-01  0.99882180327E+00  0.93800000000E+00 0. -1.
         22    1    1    2    0    0 -0.18928090675E+00 -0.17580801176E+00  0.28841500271E+01  0.28956963062E+01  0.00000000000E+00 0. -1.
</event>
<event>
 5    1  0.1537976E+002  0.1568509E+01  0.7818608E-02  0.3388268E+00
         11   -1    0    0    0    0  0.00000000000E+00  0.00000000000E+00  0.39999999674E+01  0.40000000000E+01  0.51100000000E-03 0. -1.
    9000002   -1    0    0    0    0 -0.00000000000E+00 -0.00000000000E+00  0.00000000000E+00  0.93800000000E+00  0.93800000000E+00 0.  1.
         11    1    1    2    0    0  0.86063430126E-01 -0.20568762293E+00  0.16569094999E+01  0.16718443899E+01  0.51100000000E-03 0. -1.
    9000002    1    1    2    0    0  0.15482256000E+00  0.14350697511E+00  0.53350989923E-01  0.96294060311E+00  0.93800000000E+00 0.  1.
         22    1    1    2    0    0 -0.24088599013E+00  0.62180647826E-01  0.22897394776E+01  0.23032150070E+01  0.00000000000E+00 0.  1.
</event>
<event>
 5    1  0.2965655E+002  0.1561924E+01  0.7818608E-02  0.3395756E+00
         11   -1    0    0    0    0  0.00000000000E+00  0.00000000000E+00  0.39999999674E+01  0.40000000000E+01  0.51100000000E-03 0.  1.
    9000002   -1    0    0    0    0 -0.00000000000E+00 -0.00000000000E+00  0.00000000000E+00  0.93800000000E+00  0.93800000000E+00 0.  1.
         11    1    1    2    0    0 -0.33891047886E-01 -0.17361657506E+00  0.72437664964E+00  0.74566286613E+00  0.51100000000E-03 0.  1.
    9000002    1    1    2    0    0  0.52781782144E-01 -0.33294429664E-01  0.30498993353E-01  0.94056824535E+00  0.93800000000E+00 0.  1.
         22    1    1    2    0    0 -0.18890734258E-01  0.20691100472E+00  0.32451243244E+01  0.32517688885E+01  0.00000000000E+00 0.  1.
</event>
<event>
 5    1  0.1537976E+002  0.1591747E+01  0.7818608E-02  0.3362369E+00
         11   -1    0    0    0    0  0.00000000000E+00  0.00000000000E+00  0.39999999674E+01  0.40000000000E+01  0.51100000000E-03 0.  1.
    9000002   -1    0    0    0    0 -0.00000000000E+00 -0.00000000000E+00  0.00000000000E+00  0.93800000000E+00  0.93800000000E+00 0. -1.
         11    1    1    2    0    0  0.20298234408E-01  0.79221570982E-01  0.43188882962E+00  0.43956375863E+00  0.51100000000E-03 0.  1.
    9000002    1    1    2    0    0 -0.24794241336E+00 -0.11315942177E+00  0.55580464315E-01  0.97837297750E+00  0.93800000000E+00 0. -1.
         22    1    1    2    0    0  0.22764417896E+00  0.33937850791E-01  0.35125306734E+01  0.35200632639E+01  0.00000000000E+00 0. -1.
</event>
<event>
 5    1  0.1537976E+002  0.1599661E+01  0.7818608E-02  0.3353731E+00
         11   -1    0    0    0    0  0.00000000000E+00  0.00000000000E+00  0.39999999674E+01  0.40000000000E+01  0.51100000000E-03 0. -1.
    9000002   -1    0    0    0    0 -0.00000000000E+00 -0.00000000000E+00  0.00000000000E+00  0.93800000000E+00  0.93800000000E+00 0.  1.
         11    1    1    2    0    0 -0.32621179012E-01 -0.43371660294E-01  0.78669185744E+00  0.78856171726E+00  0.51100000000E-03 0. -1.
    9000002    1    1    2    0    0  0.14477510414E+00  0.21926045330E+00  0.45917497179E-01  0.97518582522E+00  0.93800000000E+00 0.  1.
         22    1    1    2    0    0 -0.11215392513E+00 -0.17588879301E+00  0.31673906127E+01  0.31742524575E+01  0.00000000000E+00 0. -1.
</event>
<event>
 5    1  0.1537976E+002  0.1599668E+01  0.7818608E-02  0.3353724E+00
         11   -1    0    0    0    0  0.00000000000E+00  0.00000000000E+00  0.39999999674E+01  0.40000000000E+01  0.51100000000E-03 0.  1.
    9000002   -1    0    0    0    0 -0.00000000000E+00 -0.00000000000E+00  0.00000000000E+00  0.93800000000E+00  0.93800000000E+00 0. -1.
         11    1    1    2    0    0 -0.53437377588E-01 -0.36910114906E-01  0.62551674239E+00  0.62887945271E+00  0.51100000000E-03 0.  1.
    9000002    1    1    2    0    0  0.31632039271E+00  0.23168629792E+00  0.10360243460E+00  0.10219171179E+01  0.93800000000E+00 0. -1.
         22    1    1    2    0    0 -0.26288301513E+00 -0.19477618301E+00  0.32708807904E+01  0.32872034293E+01  0.00000000000E+00 0.  1.
</event>
<event>
 5    1  0.1537976E+002  0.1599677E+01  0.7818608E-02  0.3353714E+00
         11   -1    0    0    0    0  0.00000000000E+00  0.00000000000E+00  0.39999999674E+01  0.40000000000E+01  0.51100000000E-03 0. -1.
    9000002   -1    0    0    0    0 -0.00000000000E+00 -0.00000000000E+00  0.00000000000E+00  0.93800000000E+00  0.93800000000E+00 0.  1.
         11    1    1    2    0    0  0.26550694108E+00 -0.46156826103E+00  0.25070823982E+01  0.25630063612E+01  0.51100000000E-03 0. -1.
    9000002    1    1    2    0    0 -0.37930041483E+00  0.65901925837E+00  0.42046818206E+00  0.12785979351E+01  0.93800000000E+00 0.  1.
         22    1    1    2    0    0  0.11379347374E+00 -0.19745099734E+00  0.10724493871E+01  0.10963957036E+01  0.00000000000E+00 0.  1.
</event>
<event>
 5    1  0.1537976E+002  0.1587454E+01  0.7818608E-02  0.3367094E+00
         11   -1    0    0    0    0  0.00000000000E+00  0.00000000000E+00  0.39999999674E+01  0.40000000000E+01  0.51100000000E-03 0. -1.
    9000002   -1    0    0    0    0 -0.00000000000E+00 -0.00000000000E+00  0.00000000000E+00  0.93800000000E+00  0.93800000000E+00 0. -1.
         11    1    1    2    0    0  0.43157700240E-01  0.57855190079E-01  0.16314335197E+01  0.16330295161E+01  0.51100000000E-03 0. -1.
    9000002    1    1    2    0    0  0.15803003179E+00 -0.31420092139E+00  0.92873010189E-01  0.10060641659E+01  0.93800000000E+00 0. -1.
         22    1    1    2    0    0 -0.20118773203E+00  0.25634573131E+00  0.22756934375E+01  0.22989063180E+01  0.00000000000E+00 0. -1.
</event>
<event>
 5    1  0.1537976E+002  0.1599676E+01  0.7818608E-02  0.3353715E+00
         11   -1    0    0    0    0  0.00000000000E+00  0.00000000000E+00  0.39999999674E+01  0.40000000000E+01  0.51100000000E-03 0.  1.
    9000002   -1    0    0    0    0 -0.00000000000E+00 -0.00000000000E+00  0.00000000000E+00  0.93800000000E+00  0.93800000000E+00 0.  1.
         11    1    1    2    0    0 -0.38767942747E-01 -0.12564046085E+00  0.14644362521E+01  0.14703272684E+01  0.51100000000E-03 0.  1.
    9000002    1    1    2    0    0  0.10144121563E+00  0.33565224138E+00  0.82447412837E-01  0.10047857101E+01  0.93800000000E+00 0.  1.
         22    1    1    2    0    0 -0.62673272878E-01 -0.21001178053E+00  0.24531163025E+01  0.24628870215E+01  0.00000000000E+00 0.  1.
</event>
<event>
 5    1  0.1537976E+002  0.1565872E+01  0.7818608E-02  0.3391259E+00
         11   -1    0    0    0    0  0.00000000000E+00  0.00000000000E+00  0.39999999674E+01  0.40000000000E+01  0.51100000000E-03 0.  1.
    9000002   -1    0    0    0    0 -0.00000000000E+00 -0.00000000000E+00  0.00000000000E+00  0.93800000000E+00  0.93800000000E+00 0. -1.
         11    1    1    2    0    0  0.39459943922E-01  0.24280241503E+00  0.14387544843E+01  0.14596317437E+01  0.51100000000E-03 0.  1.
    9000002    1    1    2    0    0 -0.16276362052E+00 -0.84002404549E-01  0.47816543590E-01  0.95691108363E+00  0.93800000000E+00 0. -1.
         22    1    1    2    0    0  0.12330367659E+00 -0.15880001048E+00  0.25134289395E+01  0.25214571727E+01  0.00000000000E+00 0.  1.
</event>
<event>
 5    1  0.1537976E+002  0.1599638E+01  0.7818608E-02  0.3353756E+00
         11   -1    0    0    0    0  0.00000000000E+00  0.00000000000E+00  0.39999999674E+01  0.40000000000E+01  0.51100000000E-03 0.  1.
    9000002   -1    0    0    0    0 -0.00000000000E+00 -0.00000000000E+00  0.00000000000E+00  0.93800000000E+00  0.93800000000E+00 0. -1.
         11    1    1    2    0    0  0.33591884537E+00 -0.19347890936E+00  0.24535121378E+01  0.24839479928E+01  0.51100000000E-03 0.  1.
    9000002    1    1    2    0    0 -0.52297944977E+00  0.30000084393E+00  0.25381671477E+00  0.11435798774E+01  0.93800000000E+00 0. -1.
         22    1    1    2    0    0  0.18706060441E+00 -0.10652193457E+00  0.12926711147E+01  0.13104721299E+01  0.00000000000E+00 0.  1.
</event>
<event>
 5    1  0.1537976E+002  0.1599659E+01  0.7818608E-02  0.3353734E+00
         11   -1    0    0    0    0  0.00000000000E+00  0.00000000000E+00  0.39999999674E+01  0.40000000000E+01  0.51100000000E-03 0. -1.
    9000002   -1    0    0    0    0 -0.00000000000E+00 -0.00000000000E+00  0.00000000000E+00  0.93800000000E+00  0.93800000000E+00 0. -1.
         11    1    1    2    0    0 -0.15277287725E+00 -0.26435033925E-01  0.15099410163E+01  0.15178802643E+01  0.51100000000E-03 0. -1.
    9000002    1    1    2    0    0  0.38843317249E+00  0.79862246920E-01  0.10604244119E+00  0.10238883276E+01  0.93800000000E+00 0. -1.
         22    1    1    2    0    0 -0.23566029524E+00 -0.53427212995E-01  0.23840165099E+01  0.23962314081E+01  0.00000000000E+00 0. -1.
</event>
<event>
 5    1  0.1537976E+002  0.1599677E+01  0.7818608E-02  0.3353714E+00
         11   -1    0    0    0    0  0.00000000000E+00  0.00000000000E+00  0.39999999674E+01  0.40000000000E+01  0.51100000000E-03 0.  1.
    9000002   -1    0    0    0    0 -0.00000000000E+00 -0.00000000000E+00  0.00000000000E+00  0.93800000000E+00  0.93800000000E+00 0. -1.
         11    1    1    2    0    0 -0.80992079408E-01 -0.25653588311E-01  0.11019036295E+01  0.11051740556E+01  0.51100000000E-03 0.  1.
    9000002    1    1    2    0    0  0.28842419423E+00  0.90340301065E-01  0.60953566272E-01  0.98737491514E+00  0.93800000000E+00 0. -1.
         22    1    1    2    0    0 -0.20743211482E+00 -0.64686712754E-01  0.28371427716E+01  0.28454510292E+01  0.00000000000E+00 0.  1.
</event>
<event>
 5    1  0.1537976E+002  0.1599675E+01  0.7818608E-02  0.3353717E+00
         11   -1    0    0    0    0  0.00000000000E+00  0.00000000000E+00  0.39999999674E+01  0.40000000000E+01  0.51100000000E-03 0. -1.
    9000002   -1    0    0    0    0 -0.00000000000E+00 -0.00000000000E+00  0.00000000000E+00  0.93800000000E+00  0.93800000000E+00 0. -1.
         11    1    1    2    0    0  0.55554313953E+00  0.31638093746E-02  0.24654286669E+01  0.25272469136E+01  0.51100000000E-03 0. -1.
    9000002    1    1    2    0    0 -0.79773876863E+00 -0.61317557601E-02  0.46845252187E+00  0.13174659414E+01  0.93800000000E+00 0. -1.
         22    1    1    2    0    0  0.24219562910E+00  0.29679463855E-02  0.10661187786E+01  0.10932871450E+01  0.00000000000E+00 0. -1.
</event>
<event>
 5    1  0.1537976E+002  0.1561103E+01  0.7818608E-02  0.3396694E+00
         11   -1    0    0    0    0  0.00000000000E+00  0.00000000000E+00  0.39999999674E+01  0.40000000000E+01  0.51100000000E-03 0. -1.
    9000002   -1    0    0    0    0 -0.00000000000E+00 -0.00000000000E+00  0.00000000000E+00  0.93800000000E+00  0.93800000000E+00 0. -1.
         11    1    1    2    0    0  0.61021229370E-01 -0.12137268144E+00  0.28536174969E+01  0.28568493132E+01  0.51100000000E-03 0. -1.
    9000002    1    1    2    0    0  0.17121758491E+00  0.29909466230E+00  0.11122578797E+00  0.10054791168E+01  0.93800000000E+00 0. -1.
         22    1    1    2    0    0 -0.23223881428E+00 -0.17772198087E+00  0.10351566825E+01  0.10756715700E+01  0.00000000000E+00 0. -1.
</event>
<event>
 5    1  0.1537976E+002  0.1599670E+01  0.7818608E-02  0.3353722E+00
         11   -1    0    0    0    0  0.00000000000E+00  0.00000000000E+00  0.39999999674E+01  0.40000000000E+01  0.51100000000E-03 0.  1.
    9000002   -1    0    0    0    0 -0.00000000000E+00 -0.00000000000E+00  0.00000000000E+00  0.93800000000E+00  0.93800000000E+00 0.  1.
         11    1    1    2    0    0  0.27239407376E+00  0.18296160444E-01  0.18530059296E+01  0.18730094814E+01  0.51100000000E-03 0.  1.
    9000002    1    1    2    0    0 -0.56208930848E+00 -0.38923855972E-01  0.21984541573E+00  0.11160804022E+01  0.93800000000E+00 0.  1.
         22    1    1    2    0    0  0.28969523472E+00  0.20627695528E-01  0.19271486220E+01  0.19489101165E+01  0.00000000000E+00 0.  1.
</event>
<event>
 5    1  0.1537976E+002  0.1589887E+01  0.7818608E-02  0.3364414E+00
         11   -1    0    0    0    0  0.00000000000E+00  0.00000000000E+00  0.39999999674E+01  0.40000000000E+01  0.51100000000E-03 0.  1.
    9000002   -1    0    0    0    0 -0.00000000000E+00 -0.00000000000E+00  0.00000000000E+00  0.93800000000E+00  0.93800000000E+00 0.  1.
         11    1    1    2    0    0  0.58610374163E-01  0.18146707699E+00  0.13767986529E+01  0.13899425411E+01  0.51100000000E-03 0.  1.
    9000002    1    1    2    0    0 -0.38184248553E+00 -0.27429793081E+00  0.15923374440E+00  0.10612456944E+01  0.93800000000E+00 0.  1.
         22    1    1    2    0    0  0.32323211137E+00  0.92830853825E-01  0.24639675701E+01  0.24868117644E+01  0.00000000000E+00 0.  1.
</event>
<event>
 5    1  0.1537976E+002  0.1525354E+01  0.7818608E-02  0.3438592E+00
         11   -1    0    0    0    0  0.00000000000E+00  0.00000000000E+00  0.39999999674E+01  0.40000000000E+01  0.51100000000E-03 0.  1.
    9000002   -1    0    0    0    0 -0.00000000000E+00 -0.00000000000E+00  0.00000000000E+00  0.93800000000E+00  0.93800000000E+00 0.  1.
         11    1    1    2    0    0 -0.11219686306E+00  0.61588129883E+00  0.86938584498E+00  0.10713215759E+01  0.51100000000E-03 0.  1.
    9000002    1    1    2    0    0  0.44806746156E+00 -0.95917019912E+00  0.11333538227E+01  0.18124863609E+01  0.93800000000E+00 0.  1.
         22    1    1    2    0    0 -0.33587059851E+00  0.34328890029E+00  0.19972602997E+01  0.20541920633E+01  0.00000000000E+00 0.  1.
</event>
<event>
 5    1  0.1537976E+002  0.1595568E+01  0.7818608E-02  0.3358188E+00
         11   -1    0    0    0    0  0.00000000000E+00  0.00000000000E+00  0.39999999674E+01  0.40000000000E+01  0.51100000000E-03 0.  1.
    9000002   -1    0    0    0    0 -0.00000000000E+00 -0.00000000000E+00  0.00000000000E+00  0.93800000000E+00  0.93800000000E+00 0.  1.
         11    1    1    2    0    0 -0.28743636240E+00 -0.64100757330E-01  0.15237744764E+01  0.15519721278E+01  0.51100000000E-03 0.  1.
    9000002    1    1    2    0    0  0.62284591390E+00 -0.11351416034E-01  0.27632278831E+00  0.11594240684E+01  0.93800000000E+00 0.  1.
         22    1    1    2    0    0 -0.33540955150E+00  0.75452173363E-01  0.21999027027E+01  0.22266038037E+01  0.00000000000E+00 0.  1.
</event>
<event>
 5    1  0.1537976E+002  0.1599518E+01  0.7818608E-02  0.3353887E+00
         11   -1    0    0    0    0  0.00000000000E+00  0.00000000000E+00  0.39999999674E+01  0.40000000000E+01  0.51100000000E-03 0.  1.
    9000002   -1    0    0    0    0 -0.00000000000E+00 -0.00000000000E+00  0.00000000000E+00  0.93800000000E+00  0.93800000000E+00 0. -1.
         11    1    1    2    0    0  0.45692611649E-01  0.17917937640E+00  0.13637024967E+01  0.13761823369E+01  0.51100000000E-03 0.  1.
    9000002    1    1    2    0    0 -0.15231327184E+00 -0.47027404050E+00  0.16726070935E+00  0.10733951513E+01  0.93800000000E+00 0. -1.
         22    1    1    2    0    0  0.10662066020E+00  0.29109466410E+00  0.24690367613E+01  0.24884225118E+01  0.00000000000E+00 0.  1.
</event>
<event>
 5    1  0.1537976E+002  0.1596813E+01  0.7818608E-02  0.3356829E+00
         11   -1    0    0    0    0  0.00000000000E+00  0.00000000000E+00  0.39999999674E+01  0.40000000000E+01  0.51100000000E-03 0.  1.
    9000002   -1    0    0    0    0 -0.00000000000E+00 -0.00000000000E+00  0.00000000000E+00  0.93800000000E+00  0.93800000000E+00 0.  1.
         11    1    1    2    0    0  0.12913536979E-01 -0.98542613228E-02  0.28541509640E+00  0.28587742877E+00  0.51100000000E-03 0.  1.
    9000002    1    1    2    0    0  0.27222757101E+00  0.38705437306E-01  0.52542286777E-01  0.97888234901E+00  0.93800000000E+00 0.  1.
         22    1    1    2    0    0 -0.28514110799E+00 -0.28851175983E-01  0.36620425842E+01  0.36732402222E+01  0.00000000000E+00 0.  1.
</event>
<event>
 5    1  0.1537976E+002  0.1598410E+01  0.7818608E-02  0.3355091E+00
         11   -1    0    0    0    0  0.00000000000E+00  0.00000000000E+00  0.39999999674E+01  0.40000000000E+01  0.51100000000E-03 0.  1.
    9000002   -1    0    0    0    0 -0.00000000000E+00 -0.00000000000E+00  0.00000000000E+00  0.93800000000E+00  0.93800000000E+00 0.  1.
         11    1    1    2    0    0 -0.22497863790E+00 -0.22686314914E+00  0.20661410506E+01  0.20906987775E+01  0.51100000000E-03 0.  1.
    9000002    1    1    2    0    0  0.40844553025E+00  0.48517973380E+00  0.28408712853E+00  0.11673802388E+01  0.93800000000E+00 0.  1.
         22    1    1    2    0    0 -0.18346689235E+00 -0.25831658466E+00  0.16497717882E+01  0.16799209837E+01  0.00000000000E+00 0. -1.
</event>
<event>
 5    1  0.1537976E+002  0.1599677E+01  0.7818608E-02  0.3353714E+00
         11   -1    0    0    0    0  0.00000000000E+00  0.00000000000E+00  0.39999999674E+01  0.40000000000E+01  0.51100000000E-03 0. -1.
    9000002   -1    0    0    0    0 -0.00000000000E+00 -0.00000000000E+00  0.00000000000E+00  0.93800000000E+00  0.93800000000E+00 0.  1.
         11    1    1    2    0    0 -0.45062489768E-01  0.66866360877E-01  0.11255768439E+01  0.11284614442E+01  0.51100000000E-03 0. -1.
    9000002    1    1    2    0    0  0.15955666436E+00 -0.23419929529E+00  0.53494036285E-01  0.98133238557E+00  0.93800000000E+00 0.  1.
         22    1    1    2    0    0 -0.11449417459E+00  0.16733293441E+00  0.28209290871E+01  0.28282061703E+01  0.00000000000E+00 0. -1.
</event>
<event>
 5    1  0.1537976E+002  0.1599676E+01  0.7818608E-02  0.3353715E+00
         11   -1    0    0    0    0  0.00000000000E+00  0.00000000000E+00  0.39999999674E+01  0.40000000000E+01  0.51100000000E-03 0.  1.
    9000002   -1    0    0    0    0 -0.00000000000E+00 -0.00000000000E+00  0.00000000000E+00  0.93800000000E+00  0.93800000000E+00 0. -1.
         11    1    1    2    0    0  0.95469180175E-01 -0.40611569160E-01  0.10182746513E+01  0.10235463793E+01  0.51100000000E-03 0.  1.
    9000002    1    1    2    0    0 -0.36809082142E+00  0.15426050973E+00  0.10743067872E+00  0.10250231746E+01  0.93800000000E+00 0. -1.
         22    1    1    2    0    0  0.27262164125E+00 -0.11364894057E+00  0.28742946373E+01  0.28894304461E+01  0.00000000000E+00 0.  1.
</event>
<event>
 5    1  0.1537976E+002  0.1599676E+01  0.7818608E-02  0.3353715E+00
         11   -1    0    0    0    0  0.00000000000E+00  0.00000000000E+00  0.39999999674E+01  0.40000000000E+01  0.51100000000E-03 0.  1.
    9000002   -1    0    0    0    0 -0.00000000000E+00 -0.00000000000E+00  0.00000000000E+00  0.93800000000E+00  0.93800000000E+00 0.  1.
         11    1    1    2    0    0  0.10681885112E+00 -0.19529471343E-01  0.10061381524E+01  0.10119811807E+01  0.51100000000E-03 0.  1.
    9000002    1    1    2    0    0 -0.41291886052E+00  0.72652013294E-01  0.11886952858E+00  0.10342892561E+01  0.93800000000E+00 0.  1.
         22    1    1    2    0    0  0.30610000940E+00 -0.53122541951E-01  0.28749922864E+01  0.28917295632E+01  0.00000000000E+00 0.  1.
</event>
<event>
 5    1  0.2064177E+002  0.1599671E+01  0.7818608E-02  0.3353721E+00
         11   -1    0    0    0    0  0.00000000000E+00  0.00000000000E+00  0.39999999674E+01  0.40000000000E+01  0.51100000000E-03 0.  1.
    9000002   -1    0    0    0    0 -0.00000000000E+00 -0.00000000000E+00  0.00000000000E+00  0.93800000000E+00  0.93800000000E+00 0. -1.
         11    1    1    2    0    0 -0.26769272403E+00  0.40868372441E+00  0.25966372881E+01  0.26421974279E+01  0.51100000000E-03 0.  1.
    9000002    1    1    2    0    0  0.38052183196E+00 -0.57790666830E+00  0.34143915022E+00  0.12145771590E+01  0.93800000000E+00 0. -1.
         22    1    1    2    0    0 -0.11282910793E+00  0.16922294389E+00  0.10619235291E+01  0.10812254131E+01  0.00000000000E+00 0.  1.
</event>
<event>
 5    1  0.1537976E+002  0.1599677E+01  0.7818608E-02  0.3353715E+00
         11   -1    0    0    0    0  0.00000000000E+00  0.00000000000E+00  0.39999999674E+01  0.40000000000E+01  0.51100000000E-03 0. -1.
    9000002   -1    0    0    0    0 -0.00000000000E+00 -0.00000000000E+00  0.00000000000E+00  0.93800000000E+00  0.93800000000E+00 0.  1.
         11    1    1    2    0    0  0.46611365625E-01 -0.68438440255E-01  0.99895787595E+00  0.10023839277E+01  0.51100000000E-03 0. -1.
    9000002    1    1    2    0    0 -0.18586892506E+00  0.26887421868E+00  0.71462211289E-01  0.99588726793E+00  0.93800000000E+00 0.  1.
         22    1    1    2    0    0  0.13925755943E+00 -0.20043577843E+00  0.29295798801E+01  0.29397288043E+01  0.00000000000E+00 0. -1.
</event>
<event>
 5    1  0.1537976E+002  0.1598690E+01  0.7818608E-02  0.3354786E+00
         11   -1    0    0    0    0  0.00000000000E+00  0.00000000000E+00  0.39999999674E+01  0.40000000000E+01  0.51100000000E-03 0. -1.
    9000002   -1    0    0    0    0 -0.00000000000E+00 -0.00000000000E+00  0.00000000000E+00  0.93800000000E+00  0.93800000000E+00 0. -1.
         11    1    1    2    0    0 -0.65792424444E-02  0.13514626451E-01  0.43309242304E+00  0.43335348109E+00  0.51100000000E-03 0. -1.
    9000002    1    1    2    0    0 -0.15550389584E+00 -0.13391416082E+00  0.28630635053E-01  0.96061343805E+00  0.93800000000E+00 0. -1.
         22    1    1    2    0    0  0.16208313828E+00  0.12039953437E+00  0.35382769093E+01  0.35440330809E+01  0.00000000000E+00 0. -1.
</event>
<event>
 5    1  0.1537976E+002  0.1599673E+01  0.7818608E-02  0.3353719E+00
         11   -1    0    0    0    0  0.00000000000E+00  0.00000000000E+00  0.39999999674E+01  0.40000000000E+01  0.51100000000E-03 0. -1.
    9000002   -1    0    0    0    0 -0.00000000000E+00 -0.00000000000E+00  0.00000000000E+00  0.93800000000E+00  0.93800000000E+00 0.  1.
         11    1    1    2    0    0  0.23946687028E-01 -0.97986407171E-01  0.12957436051E+01  0.12996640070E+01  0.51100000000E-03 0. -1.
    9000002    1    1    2    0    0 -0.69958904416E-01  0.30428476135E+00  0.65111594968E-01  0.99074062403E+00  0.93800000000E+00 0.  1.
         22    1    1    2    0    0  0.46012217388E-01 -0.20629835418E+00  0.26391447673E+01  0.26475953690E+01  0.00000000000E+00 0. -1.
</event>
<event>
 5    1  0.1537976E+002  0.1599655E+01  0.7818608E-02  0.3353738E+00
         11   -1    0    0    0    0  0.00000000000E+00  0.00000000000E+00  0.39999999674E+01  0.40000000000E+01  0.51100000000E-03 0. -1.
    9000002   -1    0    0    0    0 -0.00000000000E+00 -0.00000000000E+00  0.00000000000E+00  0.93800000000E+00  0.93800000000E+00 0.  1.
         11    1    1    2    0    0  0.11717756680E-01 -0.31198036015E+00  0.14639016674E+01  0.14968224356E+01  0.51100000000E-03 0. -1.
    9000002    1    1    2    0    0 -0.22985574474E-01  0.75230967240E+00  0.41102998699E+00  0.12709397429E+01  0.93800000000E+00 0.  1.
         22    1    1    2    0    0  0.11267817793E-01 -0.44032931224E+00  0.21250683130E+01  0.21702378215E+01  0.00000000000E+00 0. -1.
</event>
<event>
 5    1  0.1537976E+002  0.1599271E+01  0.7818608E-02  0.3354155E+00
         11   -1    0    0    0    0  0.00000000000E+00  0.00000000000E+00  0.39999999674E+01  0.40000000000E+01  0.51100000000E-03 0.  1.
    9000002   -1    0    0    0    0 -0.00000000000E+00 -0.00000000000E+00  0.00000000000E+00  0.93800000000E+00  0.93800000000E+00 0.  1.
         11    1    1    2    0    0  0.71207582561E-02  0.52762290268E-01  0.54251518060E+00  0.54512158898E+00  0.51100000000E-03 0.  1.
    9000002    1    1    2    0    0 -0.21110593099E-01 -0.26638142743E+00  0.47811159387E-01  0.97649097742E+00  0.93800000000E+00 0.  1.
         22    1    1    2    0    0  0.13989834843E-01  0.21361913716E+00  0.34096736274E+01  0.34163874336E+01  0.00000000000E+00 0.  1.
</event>
<event>
 5    1  0.1537976E+002  0.1599661E+01  0.7818608E-02  0.3353732E+00
         11   -1    0    0    0    0  0.00000000000E+00  0.00000000000E+00  0.39999999674E+01  0.40000000000E+01  0.51100000000E-03 0. -1.
    9000002   -1    0    0    0    0 -0.00000000000E+00 -0.00000000000E+00  0.00000000000E+00  0.93800000000E+00  0.93800000000E+00 0. -1.
         11    1    1    2    0    0 -0.23971104097E-01 -0.77986734991E-02  0.33371164250E+00  0.33466274756E+00  0.51100000000E-03 0. -1.
    9000002    1    1    2    0    0  0.25878830055E+00  0.73178283404E-01  0.48130770078E-01  0.97697851394E+00  0.93800000000E+00 0. -1.
         22    1    1    2    0    0 -0.23481719645E+00 -0.65379609905E-01  0.36181575548E+01  0.36263587385E+01  0.00000000000E+00 0. -1.
</event>
<event>
 5    1  0.1537976E+002  0.1599677E+01  0.7818608E-02  0.3353714E+00
         11   -1    0    0    0    0  0.00000000000E+00  0.00000000000E+00  0.39999999674E+01  0.40000000000E+01  0.51100000000E-03 0.  1.
    9000002   -1    0    0    0    0 -0.00000000000E+00 -0.00000000000E+00  0.00000000000E+00  0.93800000000E+00  0.93800000000E+00 0. -1.
         11    1    1    2    0    0 -0.14212776649E+00 -0.18314775201E+00  0.15199366536E+01  0.15375145830E+01  0.51100000000E-03 0.  1.
    9000002    1    1    2    0    0  0.35251076856E+00  0.45341179013E+00  0.22891090216E+00  0.11234279214E+01  0.93800000000E+00 0. -1.
         22    1    1    2    0    0 -0.21038300207E+00 -0.27026403811E+00  0.22511524116E+01  0.22770574956E+01  0.00000000000E+00 0.  1.
</event>
<event>
 5    1  0.1537976E+002  0.1599623E+01  0.7818608E-02  0.3353773E+00
         11   -1    0    0    0    0  0.00000000000E+00  0.00000000000E+00  0.39999999674E+01  0.40000000000E+01  0.51100000000E-03 0. -1.
    9000002   -1    0    0    0    0 -0.00000000000E+00 -0.00000000000E+00  0.00000000000E+00  0.93800000000E+00  0.93800000000E+00 0. -1.
         11    1    1    2    0    0  0.36564962353E-01  0.36153477682E-01  0.62871548176E+00  0.63081494001E+00  0.51100000000E-03 0. -1.
    9000002    1    1    2    0    0 -0.20772435300E+00 -0.19256467173E+00  0.53483867986E-01  0.98129255768E+00  0.93800000000E+00 0. -1.
         22    1    1    2    0    0  0.17115939065E+00  0.15641119405E+00  0.33178006176E+01  0.33258925023E+01  0.00000000000E+00 0. -1.
</event>
<event>
 5    1  0.1537976E+002  0.1599676E+01  0.7818608E-02  0.3353715E+00
         11   -1    0    0    0    0  0.00000000000E+00  0.00000000000E+00  0.39999999674E+01  0.40000000000E+01  0.51100000000E-03 0.  1.
    9000002   -1    0    0    0    0 -0.00000000000E+00 -0.00000000000E+00  0.00000000000E+00  0.93800000000E+00  0.93800000000E+00 0. -1.
         11    1    1    2    0    0 -0.55228367508E-01  0.49614416507E-01  0.84839279273E+00  0.85163510659E+00  0.51100000000E-03 0.  1.
    9000002    1    1    2    0    0  0.25801685270E+00 -0.22800948039E+00  0.79447544935E-01  0.10023556913E+01  0.93800000000E+00 0. -1.
         22    1    1    2    0    0 -0.20278848519E+00  0.17839506389E+00  0.30721596297E+01  0.30840092021E+01  0.00000000000E+00 0.  1.
</event>
<event>
 5    1  0.1537976E+002  0.1599450E+01  0.7818608E-02  0.3353960E+00
         11   -1    0    0    0    0  0.00000000000E+00  0.00000000000E+00  0.39999999674E+01  0.40000000000E+01  0.51100000000E-03 0.  1.
    9000002   -1    0    0    0    0 -0.00000000000E+00 -0.00000000000E+00  0.00000000000E+00  0.93800000000E+00  0.93800000000E+00 0. -1.
         11    1    1    2    0    0  0.17886645890E-01 -0.43831119573E-02  0.36550971782E+00  0.36597371314E+00  0.51100000000E-03 0.  1.
    9000002    1    1    2    0    0 -0.26166929809E+00  0.13743236864E+00  0.58431053940E-01  0.98519879495E+00  0.93800000000E+00 0. -1.
         22    1    1    2    0    0  0.24378265220E+00 -0.13304925669E+00  0.35760591956E+01  0.35868274919E+01  0.00000000000E+00 0.  1.
</event>
<event>
 5    1  0.1537976E+002  0.1599677E+01  0.7818608E-02  0.3353715E+00
         11   -1    0    0    0    0  0.00000000000E+00  0.00000000000E+00  0.39999999674E+01  0.40000000000E+01  0.51100000000E-03 0.  1.
    9000002   -1    0    0    0    0 -0.00000000000E+00 -0.00000000000E+00  0.00000000000E+00  0.93800000000E+00  0.93800000000E+00 0. -1.
         11    1    1    2    0    0  0.12074767258E+00  0.12985644093E+00  0.16073547789E+01  0.16171061629E+01  0.51100000000E-03 0.  1.
    9000002    1    1    2    0    0 -0.29111842600E+00 -0.31121731587E+00  0.12292505234E+00  0.10375744427E+01  0.93800000000E+00 0. -1.
         22    1    1    2    0    0  0.17037075342E+00  0.18136087493E+00  0.22697201362E+01  0.22833193944E+01  0.00000000000E+00 0.  1.
</event>
<event>
 5    1  0.1537976E+002  0.1599676E+01  0.7818608E-02  0.3353715E+00
         11   -1    0    0    0    0  0.00000000000E+00  0.00000000000E+00  0.39999999674E+01  0.40000000000E+01  0.51100000000E-03 0.  1.
    9000002   -1    0    0    0    0 -0.00000000000E+00 -0.00000000000E+00  0.00000000000E+00  0.93800000000E+00  0.93800000000E+00 0. -1.
         11    1    1    2    0    0  0.47443452129E-01  0.46018068967E+00  0.20634952027E+01  0.21147174423E+01  0.51100000000E-03 0.  1.
    9000002    1    1    2    0    0 -0.79554431870E-01 -0.78972099680E+00  0.46308387648E+00  0.13131179829E+01  0.93800000000E+00 0. -1.
         22    1    1    2    0    0  0.32110979741E-01  0.32954030713E+00  0.14734208882E+01  0.15101645747E+01  0.00000000000E+00 0.  1.
</event>
<event>
 5    1  0.1537976E+002  0.1581326E+01  0.7818608E-02  0.3373885E+00
         11   -1    0    0    0    0  0.00000000000E+00  0.00000000000E+00  0.39999999674E+01  0.40000000000E+01  0.51100000000E-03 0. -1.
    9000002   -1    0    0    0    0 -0.00000000000E+00 -0.00000000000E+00  0.00000000000E+00  0.93800000000E+00  0.93800000000E+00 0.  1.
         11    1    1    2    0    0  0.76438671630E-01 -0.56143672152E-01  0.71391973796E+00  0.72019208258E+00  0.51100000000E-03 0. -1.
    9000002    1    1    2    0    0 -0.10152272001E-01 -0.24762073356E+00  0.54937793914E-01  0.97174135320E+00  0.93800000000E+00 0.  1.
         22    1    1    2    0    0 -0.66286399629E-01  0.30376440571E+00  0.32311424355E+01  0.32460665642E+01  0.00000000000E+00 0. -1.
</event>
<event>
 5    1  0.1537976E+002  0.1599472E+01  0.7818608E-02  0.3353937E+00
         11   -1    0    0    0    0  0.00000000000E+00  0.00000000000E+00  0.39999999674E+01  0.40000000000E+01  0.51100000000E-03 0.  1.
    9000002   -1    0    0    0    0 -0.00000000000E+00 -0.00000000000E+00  0.00000000000E+00  0.93800000000E+00  0.93800000000E+00 0.  1.
         11    1    1    2    0    0  0.45762989286E-01  0.17810777016E+00  0.18474826430E+01  0.18566122390E+01  0.51100000000E-03 0.  1.
    9000002    1    1    2    0    0 -0.61046001867E-01 -0.38346339786E+00  0.10171721443E+00  0.10202750529E+01  0.93800000000E+00 0.  1.
         22    1    1    2    0    0  0.15283012580E-01  0.20535562770E+00  0.20508001100E+01  0.20611127081E+01  0.00000000000E+00 0.  1.
</event>
<event>
 5    1  0.1537976E+002  0.1599018E+01  0.7818608E-02  0.3354430E+00
         11   -1    0    0    0    0  0.00000000000E+00  0.00000000000E+00  0.39999999674E+01  0.40000000000E+01  0.51100000000E-03 0.  1.
    9000002   -1    0    0    0    0 -0.00000000000E+00 -0.00000000000E+00  0.00000000000E+00  0.93800000000E+00  0.93800000000E+00 0.  1.
         11    1    1    2    0    0 -0.16853163386E+00 -0.80431918226E-01  0.11025771429E+01  0.11182794025E+01  0.51100000000E-03 0.  1.
    9000002    1    1    2    0    0  0.49874286584E+00  0.33414602734E+00  0.25212278145E+00  0.11418440834E+01  0.93800000000E+00 0.  1.
         22    1    1    2    0    0 -0.33021123197E+00 -0.25371410911E+00  0.26453000431E+01  0.26778765141E+01  0.00000000000E+00 0.  1.
</event>
<event>
 5    1  0.1537976E+002  0.1594355E+01  0.7818608E-02  0.3359513E+00
         11   -1    0    0    0    0  0.00000000000E+00  0.00000000000E+00  0.39999999674E+01  0.40000000000E+01  0.51100000000E-03 0.  1.
    9000002   -1    0    0    0    0 -0.00000000000E+00 -0.00000000000E+00  0.00000000000E+00  0.93800000000E+00  0.93800000000E+00 0.  1.
         11    1    1    2    0    0 -0.45292799839E-01  0.78746125060E-02  0.21761856280E+00  0.22242200259E+00  0.51100000000E-03 0.  1.
    9000002    1    1    2    0    0  0.16230612341E+00  0.16936110993E+00  0.40563140782E-01  0.96773748075E+00  0.93800000000E+00 0.  1.
         22    1    1    2    0    0 -0.11701332357E+00 -0.17723572244E+00  0.37418182638E+01  0.37478405167E+01  0.00000000000E+00 0.  1.
</event>
<event>
 5    1  0.1537976E+002  0.1589957E+01  0.7818608E-02  0.3364337E+00
         11   -1    0    0    0    0  0.00000000000E+00  0.00000000000E+00  0.39999999674E+01  0.40000000000E+01  0.51100000000E-03 0.  1.
    9000002   -1    0    0    0    0 -0.00000000000E+00 -0.00000000000E+00  0.00000000000E+00  0.93800000000E+00  0.93800000000E+00 0. -1.
         11    1    1    2    0    0  0.43308049193E-01 -0.16281005411E-01  0.66426523435E+00  0.66587477873E+00  0.51100000000E-03 0.  1.
    9000002    1    1    2    0    0  0.26775008261E+00  0.14408880452E+00  0.69362595478E-01  0.98848715721E+00  0.93800000000E+00 0. -1.
         22    1    1    2    0    0 -0.31105813180E+00 -0.12780779911E+00  0.32663721375E+01  0.32836380641E+01  0.00000000000E+00 0.  1.
</event>
<event>
 5    1  0.1537976E+002  0.1598366E+01  0.7818608E-02  0.3355138E+00
         11   -1    0    0    0    0  0.00000000000E+00  0.00000000000E+00  0.39999999674E+01  0.40000000000E+01  0.51100000000E-03 0.  1.
    9000002   -1    0    0    0    0 -0.00000000000E+00 -0.00000000000E+00  0.00000000000E+00  0.93800000000E+00  0.93800000000E+00 0. -1.
         11    1    1    2    0    0 -0.29188533994E-01  0.48331310184E-01  0.73684124683E+00  0.73900146835E+00  0.51100000000E-03 0.  1.
    9000002    1    1    2    0    0  0.27039856380E+00 -0.11728182614E+00  0.58947944865E-01  0.98498186291E+00  0.93800000000E+00 0. -1.
         22    1    1    2    0    0 -0.24121002981E+00  0.68950515955E-01  0.32042107757E+01  0.32140166687E+01  0.00000000000E+00 0.  1.
</event>
<event>
 5    1  0.1537976E+002  0.1599667E+01  0.7818608E-02  0.3353724E+00
         11   -1    0    0    0    0  0.00000000000E+00  0.00000000000E+00  0.39999999674E+01  0.40000000000E+01  0.51100000000E-03 0. -1.
    9000002   -1    0    0    0    0 -0.00000000000E+00 -0.00000000000E+00  0.00000000000E+00  0.93800000000E+00  0.93800000000E+00 0. -1.
         11    1    1    2    0    0  0.43788515258E+00  0.36430955448E+00  0.21455313001E+01  0.22198580313E+01  0.51100000000E-03 0. -1.
    9000002    1    1    2    0    0 -0.69394397509E+00 -0.56994819762E+00  0.61671424544E+00  0.14375603114E+01  0.93800000000E+00 0. -1.
         22    1    1    2    0    0  0.25605882250E+00  0.20563864314E+00  0.12377544218E+01  0.12805816572E+01  0.00000000000E+00 0.  1.
</event>
<event>
 5    1  0.1537976E+002  0.1596853E+01  0.7818608E-02  0.3356786E+00
         11   -1    0    0    0    0  0.00000000000E+00  0.00000000000E+00  0.39999999674E+01  0.40000000000E+01  0.51100000000E-03 0.  1.
    9000002   -1    0    0    0    0 -0.00000000000E+00 -0.00000000000E+00  0.00000000000E+00  0.93800000000E+00  0.93800000000E+00 0. -1.
         11    1    1    2    0    0  0.27660678294E+00 -0.15889749189E+00  0.17718747431E+01  0.18003611004E+01  0.51100000000E-03 0.  1.
    9000002    1    1    2    0    0 -0.63856822501E+00  0.21391507179E+00  0.32495131273E+00  0.11995692525E+01  0.93800000000E+00 0. -1.
         22    1    1    2    0    0  0.36196144207E+00 -0.55017579905E-01  0.19031739115E+01  0.19380696471E+01  0.00000000000E+00 0.  1.
</event>
<event>
 5    1  0.1537976E+002  0.1599670E+01  0.7818608E-02  0.3353722E+00
         11   -1    0    0    0    0  0.00000000000E+00  0.00000000000E+00  0.39999999674E+01  0.40000000000E+01  0.51100000000E-03 0. -1.
    9000002   -1    0    0    0    0 -0.00000000000E+00 -0.00000000000E+00  0.00000000000E+00  0.93800000000E+00  0.93800000000E+00 0.  1.
         11    1    1    2    0    0 -0.82942862177E-01  0.17393006224E+00  0.18410513730E+01  0.18511082097E+01  0.51100000000E-03 0. -1.
    9000002    1    1    2    0    0  0.17889879039E+00 -0.36187153921E+00  0.10997490370E+00  0.10270804582E+01  0.93800000000E+00 0.  1.
         22    1    1    2    0    0 -0.95955928215E-01  0.18794147697E+00  0.20489736906E+01  0.20598113321E+01  0.00000000000E+00 0. -1.
</event>
<event>
 5    1  0.1537976E+002  0.1574495E+01  0.7818608E-02  0.3381520E+00
         11   -1    0    0    0    0  0.00000000000E+00  0.00000000000E+00  0.39999999674E+01  0.40000000000E+01  0.51100000000E-03 0. -1.
    9000002   -1    0    0    0    0 -0.00000000000E+00 -0.00000000000E+00  0.00000000000E+00  0.93800000000E+00  0.93800000000E+00 0. -1.
         11    1    1    2    0    0  0.65594640333E-01  0.25719413943E+00  0.15137117702E+01  0.15368067759E+01  0.51100000000E-03 0. -1.
    9000002    1    1    2    0    0  0.21372507484E+00 -0.37065010956E+00  0.14563934045E+00  0.10412083023E+01  0.93800000000E+00 0. -1.
         22    1    1    2    0    0 -0.27931971517E+00  0.11345597013E+00  0.23406488567E+01  0.23599849218E+01  0.00000000000E+00 0. -1.
</event>
<event>
 5    1  0.1537976E+002  0.1586469E+01  0.7818608E-02  0.3368182E+00
         11   -1    0    0    0    0  0.00000000000E+00  0.00000000000E+00  0.39999999674E+01  0.40000000000E+01  0.51100000000E-03 0.  1.
    9000002   -1    0    0    0    0 -0.00000000000E+00 -0.00000000000E+00  0.00000000000E+00  0.93800000000E+00  0.93800000000E+00 0.  1.
         11    1    1    2    0    0 -0.19535394862E+00  0.30018020109E-01  0.18914164173E+01  0.19017151658E+01  0.51100000000E-03 0.  1.
    9000002    1    1    2    0    0  0.28227568321E+00  0.19652973352E+00  0.89944191724E-01  0.10031138794E+01  0.93800000000E+00 0.  1.
         22    1    1    2    0    0 -0.86921734591E-01 -0.22654775363E+00  0.20186393583E+01  0.20331709548E+01  0.00000000000E+00 0.  1.
</event>
<event>
 5    1  0.1537976E+002  0.1588812E+01  0.7818608E-02  0.3365597E+00
         11   -1    0    0    0    0  0.00000000000E+00  0.00000000000E+00  0.39999999674E+01  0.40000000000E+01  0.51100000000E-03 0.  1.
    9000002   -1    0    0    0    0 -0.00000000000E+00 -0.00000000000E+00  0.00000000000E+00  0.93800000000E+00  0.93800000000E+00 0. -1.
         11    1    1    2    0    0  0.68320491605E-02 -0.29104914509E-01  0.17930934117E+01  0.17933426937E+01  0.51100000000E-03 0.  1.
    9000002    1    1    2    0    0  0.15546323769E+00 -0.15282416417E+00  0.39738476085E-01  0.96381906492E+00  0.93800000000E+00 0. -1.
         22    1    1    2    0    0 -0.16229528685E+00  0.18192907868E+00  0.21671680796E+01  0.21808382413E+01  0.00000000000E+00 0.  1.
</event>
<event>
 5    1  0.1537976E+002  0.1599667E+01  0.7818608E-02  0.3353725E+00
         11   -1    0    0    0    0  0.00000000000E+00  0.00000000000E+00  0.39999999674E+01  0.40000000000E+01  0.51100000000E-03 0.  1.
    9000002   -1    0    0    0    0 -0.00000000000E+00 -0.00000000000E+00  0.00000000000E+00  0.93800000000E+00  0.93800000000E+00 0.  1.
         11    1    1    2    0    0  0.12533645778E+00  0.13545405458E-01  0.11017636634E+01  0.11089527207E+01  0.51100000000E-03 0.  1.
    9000002    1    1    2    0    0 -0.44059251043E+00 -0.35553989151E-01  0.13255719557E+00  0.10453713486E+01  0.93800000000E+00 0.  1.
         22    1    1    2    0    0  0.31525605264E+00  0.22008583693E-01  0.27656791084E+01  0.27836759307E+01  0.00000000000E+00 0.  1.
</event>
<event>
 5    1  0.1537976E+002  0.1596226E+01  0.7818608E-02  0.3357470E+00
         11   -1    0    0    0    0  0.00000000000E+00  0.00000000000E+00  0.39999999674E+01  0.40000000000E+01  0.51100000000E-03 0. -1.
    9000002   -1    0    0    0    0 -0.00000000000E+00 -0.00000000000E+00  0.00000000000E+00  0.93800000000E+00  0.93800000000E+00 0. -1.
         11    1    1    2    0    0 -0.32718543253E-01 -0.20532328685E+00  0.14036555458E+01  0.14189705098E+01  0.51100000000E-03 0. -1.
    9000002    1    1    2    0    0 -0.57021503699E-01  0.44808829933E+00  0.14160251610E+00  0.10506806596E+01  0.93800000000E+00 0. -1.
         22    1    1    2    0    0  0.89740046952E-01 -0.24276501248E+00  0.24547419055E+01  0.24683488306E+01  0.00000000000E+00 0. -1.
</event>
<event>
 5    1  0.1537976E+002  0.1598197E+01  0.7818608E-02  0.3355323E+00
         11   -1    0    0    0    0  0.00000000000E+00  0.00000000000E+00  0.39999999674E+01  0.40000000000E+01  0.51100000000E-03 0. -1.
    9000002   -1    0    0    0    0 -0.00000000000E+00 -0.00000000000E+00  0.00000000000E+00  0.93800000000E+00  0.93800000000E+00 0.  1.
         11    1    1    2    0    0 -0.10779579986E+00 -0.55527296659E-02  0.98606953585E+00  0.99195975620E+00  0.51100000000E-03 0. -1.
    9000002    1    1    2    0    0  0.48926409809E+00  0.16143257488E+00  0.18353496570E+00  0.10858033512E+01  0.93800000000E+00 0.  1.
         22    1    1    2    0    0 -0.38146829823E+00 -0.15587984522E+00  0.28303954658E+01  0.28602368926E+01  0.00000000000E+00 0.  1.
</event>
<event>
 5    1  0.1537976E+002  0.1598498E+01  0.7818608E-02  0.3354995E+00
         11   -1    0    0    0    0  0.00000000000E+00  0.00000000000E+00  0.39999999674E+01  0.40000000000E+01  0.51100000000E-03 0. -1.
    9000002   -1    0    0    0    0 -0.00000000000E+00 -0.00000000000E+00  0.00000000000E+00  0.93800000000E+00  0.93800000000E+00 0.  1.
         11    1    1    2    0    0 -0.72310399223E-02  0.61913941129E-02  0.23122151058E-01  0.25010323668E-01  0.51100000000E-03 0. -1.
    9000002    1    1    2    0    0  0.37057782249E+00 -0.31348527650E+00  0.16194282259E+00  0.10684897842E+01  0.93800000000E+00 0.  1.
         22    1    1    2    0    0 -0.36334678257E+00  0.30729388238E+00  0.38149349937E+01  0.38444998922E+01  0.00000000000E+00 0. -1.
</event>
<event>
 5    1  0.1537976E+002  0.1525394E+01  0.7818608E-02  0.3438545E+00
         11   -1    0    0    0    0  0.00000000000E+00  0.00000000000E+00  0.39999999674E+01  0.40000000000E+01  0.51100000000E-03 0.  1.
    9000002   -1    0    0    0    0 -0.00000000000E+00 -0.00000000000E+00  0.00000000000E+00  0.93800000000E+00  0.93800000000E+00 0. -1.
         11    1    1    2    0    0  0.15710202102E+00  0.50253188245E-01  0.27755746284E+00  0.32286968615E+00  0.51100000000E-03 0.  1.
    9000002    1    1    2    0    0  0.77282993376E-01  0.12897820980E+00  0.71909613884E-01  0.95269251715E+00  0.93800000000E+00 0. -1.
         22    1    1    2    0    0 -0.23438501440E+00 -0.17923139805E+00  0.36505328906E+01  0.36624377967E+01  0.00000000000E+00 0.  1.
</event>
<event>
 5    1  0.1537976E+002  0.1599674E+01  0.7818608E-02  0.3353717E+00
         11   -1    0    0    0    0  0.00000000000E+00  0.00000000000E+00  0.39999999674E+01  0.40000000000E+01  0.51100000000E-03 0. -1.
    9000002   -1    0    0    0    0 -0.00000000000E+00 -0.00000000000E+00  0.00000000000E+00  0.93800000000E+00  0.93800000000E+00 0.  1.
         11    1    1    2    0    0 -0.43874594402E+00 -0.12902019266E+00  0.24241064697E+01  0.24668677815E+01  0.51100000000E-03 0. -1.
    9000002    1    1    2    0    0  0.65985800563E+00  0.19440633641E+00  0.33710819351E+00  0.12110707433E+01  0.93800000000E+00 0.  1.
         22    1    1    2    0    0 -0.22111206161E+00 -0.65386143749E-01  0.12387853041E+01  0.12600614752E+01  0.00000000000E+00 0. -1.
</event>
<event>
 5    1  0.1537976E+002  0.1597227E+01  0.7818608E-02  0.3356378E+00
         11   -1    0    0    0    0  0.00000000000E+00  0.00000000000E+00  0.39999999674E+01  0.40000000000E+01  0.51100000000E-03 0.  1.
    9000002   -1    0    0    0    0 -0.00000000000E+00 -0.00000000000E+00  0.00000000000E+00  0.93800000000E+00  0.93800000000E+00 0.  1.
         11    1    1    2    0    0  0.26613826385E-01 -0.50194773809E-01  0.53078953935E+00  0.53382169989E+00  0.51100000000E-03 0.  1.
    9000002    1    1    2    0    0  0.99938540429E-01  0.41929303661E+00  0.12793280671E+00  0.10401947728E+01  0.93800000000E+00 0.  1.
         22    1    1    2    0    0 -0.12655236681E+00 -0.36909826280E+00  0.33412776213E+01  0.33639835273E+01  0.00000000000E+00 0.  1.
</event>
<event>
 5    1  0.1537976E+002  0.1599268E+01  0.7818608E-02  0.3354158E+00
         11   -1    0    0    0    0  0.00000000000E+00  0.00000000000E+00  0.39999999674E+01  0.40000000000E+01  0.51100000000E-03 0.  1.
    9000002   -1    0    0    0    0 -0.00000000000E+00 -0.00000000000E+00  0.00000000000E+00  0.93800000000E+00  0.93800000000E+00 0.  1.
         11    1    1    2    0    0 -0.63455568288E-01 -0.19284656345E+00  0.18117291266E+01  0.18230685932E+01  0.51100000000E-03 0.  1.
    9000002    1    1    2    0    0  0.18421035892E+00  0.39392567445E+00  0.12850975760E+00  0.10418587482E+01  0.93800000000E+00 0.  1.
         22    1    1    2    0    0 -0.12075479064E+00 -0.20107911100E+00  0.20597610832E+01  0.20730726587E+01  0.00000000000E+00 0. -1.
</event>
<event>
 5    1  0.1537976E+002  0.1599676E+01  0.7818608E-02  0.3353715E+00
         11   -1    0    0    0    0  0.00000000000E+00  0.00000000000E+00  0.39999999674E+01  0.40000000000E+01  0.51100000000E-03 0. -1.
    9000002   -1    0    0    0    0 -0.00000000000E+00 -0.00000000000E+00  0.00000000000E+00  0.93800000000E+00  0.93800000000E+00 0. -1.
         11    1    1    2    0    0  0.15857369790E-01 -0.25750996629E-01  0.31596533583E+00  0.31740971090E+00  0.51100000000E-03 0.  1.
    9000002    1    1    2    0    0 -0.19838110824E+00  0.32155080343E+00  0.96023280461E-01  0.10157826803E+01  0.93800000000E+00 0. -1.
         22    1    1    2    0    0  0.18252373845E+00 -0.29579980680E+00  0.35880113511E+01  0.36048076088E+01  0.00000000000E+00 0. -1.
</event>
<event>
 5    1  0.1537976E+002  0.1599676E+01  0.7818608E-02  0.3353715E+00
         11   -1    0    0    0    0  0.00000000000E+00  0.00000000000E+00  0.39999999674E+01  0.40000000000E+01  0.51100000000E-03 0. -1.
    9000002   -1    0    0    0    0 -0.00000000000E+00 -0.00000000000E+00  0.00000000000E+00  0.93800000000E+00  0.93800000000E+00 0.  1.
         11    1    1    2    0    0  0.19028176686E-01 -0.70763388280E-01  0.92079984040E+00  0.92371106728E+00  0.51100000000E-03 0. -1.
    9000002    1    1    2    0    0 -0.84833588499E-01  0.30335602192E+00  0.66287527313E-01  0.99169534135E+00  0.93800000000E+00 0.  1.
         22    1    1    2    0    0  0.65805411813E-01 -0.23259263364E+00  0.30129125997E+01  0.30225935914E+01  0.00000000000E+00 0. -1.
</event>
<event>
 5    1  0.1537976E+002  0.1599677E+01  0.7818608E-02  0.3353714E+00
         11   -1    0    0    0    0  0.00000000000E+00  0.00000000000E+00  0.39999999674E+01  0.40000000000E+01  0.51100000000E-03 0. -1.
    9000002   -1    0    0    0    0 -0.00000000000E+00 -0.00000000000E+00  0.00000000000E+00  0.93800000000E+00  0.93800000000E+00 0. -1.
         11    1    1    2    0    0  0.43846474049E-01  0.46069107508E-01  0.95705102007E+00  0.95916202599E+00  0.51100000000E-03 0.  1.
    9000002    1    1    2    0    0 -0.18132216508E+00 -0.19193605922E+00  0.46363900943E-01  0.97555665632E+00  0.93800000000E+00 0. -1.
         22    1    1    2    0    0  0.13747569103E+00  0.14586695172E+00  0.29965850463E+01  0.30032813177E+01  0.00000000000E+00 0. -1.
</event>
<event>
 5    1  0.1537976E+002  0.1535720E+01  0.7818608E-02  0.3426229E+00
         11   -1    0    0    0    0  0.00000000000E+00  0.00000000000E+00  0.39999999674E+01  0.40000000000E+01  0.51100000000E-03 0. -1.
    9000002   -1    0    0    0    0 -0.00000000000E+00 -0.00000000000E+00  0.00000000000E+00  0.93800000000E+00  0.93800000000E+00 0.  1.
         11    1    1    2    0    0 -0.20876735973E+00  0.54278938700E-01  0.59894052599E+00  0.63660036795E+00  0.51100000000E-03 0. -1.
    9000002    1    1    2    0    0 -0.41290872511E-01 -0.38951700745E-01  0.50060188440E-01  0.94104845444E+00  0.93800000000E+00 0.  1.
         22    1    1    2    0    0  0.25005823224E+00 -0.15327237955E-01  0.33509992529E+01  0.33603511776E+01  0.00000000000E+00 0. -1.
</event>
<event>
 5    1  0.1537976E+002  0.1546655E+01  0.7818608E-02  0.3413379E+00
         11   -1    0    0    0    0  0.00000000000E+00  0.00000000000E+00  0.39999999674E+01  0.40000000000E+01  0.51100000000E-03 0. -1.
    9000002   -1    0    0    0    0 -0.00000000000E+00 -0.00000000000E+00  0.00000000000E+00  0.93800000000E+00  0.93800000000E+00 0. -1.
         11    1    1    2    0    0  0.86751533424E-01 -0.32801241928E+00  0.25405630664E+01  0.25631189850E+01  0.51100000000E-03 0. -1.
    9000002    1    1    2    0    0  0.20830098206E-01  0.12772986980E+00  0.51048456406E-01  0.94826091216E+00  0.93800000000E+00 0. -1.
         22    1    1    2    0    0 -0.10758163163E+00  0.20028254949E+00  0.14083884445E+01  0.14266201028E+01  0.00000000000E+00 0. -1.
</event>
<event>
 5    1  0.1537976E+002  0.1599677E+01  0.7818608E-02  0.3353714E+00
         11   -1    0    0    0    0  0.00000000000E+00  0.00000000000E+00  0.39999999674E+01  0.40000000000E+01  0.51100000000E-03 0. -1.
    9000002   -1    0    0    0    0 -0.00000000000E+00 -0.00000000000E+00  0.00000000000E+00  0.93800000000E+00  0.93800000000E+00 0. -1.
         11    1    1    2    0    0 -0.22595035056E-01  0.94238742056E-01  0.11614006439E+01  0.11654369107E+01  0.51100000000E-03 0.  1.
    9000002    1    1    2    0    0  0.75860187336E-01 -0.32081645689E+00  0.72712008839E-01  0.99689969569E+00  0.93800000000E+00 0. -1.
         22    1    1    2    0    0 -0.53265152280E-01  0.22657771483E+00  0.27658873146E+01  0.27756633936E+01  0.00000000000E+00 0. -1.
</event>
<event>
 5    1  0.1537976E+002  0.1581622E+01  0.7818608E-02  0.3373555E+00
         11   -1    0    0    0    0  0.00000000000E+00  0.00000000000E+00  0.39999999674E+01  0.40000000000E+01  0.51100000000E-03 0. -1.
    9000002   -1    0    0    0    0 -0.00000000000E+00 -0.00000000000E+00  0.00000000000E+00  0.93800000000E+00  0.93800000000E+00 0. -1.
         11    1    1    2    0    0  0.11049574732E+00  0.70219528905E-01  0.36419883135E+00  0.38701568741E+00  0.51100000000E-03 0. -1.
    9000002    1    1    2    0    0 -0.27722680584E+00 -0.25772813903E+00  0.11134202743E+00  0.10176048067E+01  0.93800000000E+00 0. -1.
         22    1    1    2    0    0  0.16673105852E+00  0.18750861013E+00  0.35244591086E+01  0.35333795059E+01  0.00000000000E+00 0. -1.
</event>
<event>
 5    1  0.1537976E+002  0.1597878E+01  0.7818608E-02  0.3355670E+00
         11   -1    0    0    0    0  0.00000000000E+00  0.00000000000E+00  0.39999999674E+01  0.40000000000E+01  0.51100000000E-03 0. -1.
    9000002   -1    0    0    0    0 -0.00000000000E+00 -0.00000000000E+00  0.00000000000E+00  0.93800000000E+00  0.93800000000E+00 0. -1.
         11    1    1    2    0    0  0.18682061542E+00 -0.53205506880E+00  0.21202097041E+01  0.21939174982E+01  0.51100000000E-03 0. -1.
    9000002    1    1    2    0    0 -0.27778517951E+00  0.79219978383E+00  0.52895883373E+00  0.13654254104E+01  0.93800000000E+00 0. -1.
         22    1    1    2    0    0  0.90964564090E-01 -0.26014471503E+00  0.13508314296E+01  0.13786570914E+01  0.00000000000E+00 0. -1.
</event>
<event>
 5    1  0.1537976E+002  0.1599317E+01  0.7818608E-02  0.3354105E+00
         11   -1    0    0    0    0  0.00000000000E+00  0.00000000000E+00  0.39999999674E+01  0.40000000000E+01  0.51100000000E-03 0.  1.
    9000002   -1    0    0    0    0 -0.00000000000E+00 -0.00000000000E+00  0.00000000000E+00  0.93800000000E+00  0.93800000000E+00 0.  1.
         11    1    1    2    0    0  0.56039880269E-02  0.17342853609E-02  0.17915423080E+00  0.17925097479E+00  0.51100000000E-03 0.  1.
    9000002    1    1    2    0    0 -0.80215226825E-01 -0.24308655822E+00  0.43823722222E-01  0.97328828002E+00  0.93800000000E+00 0.  1.
         22    1    1    2    0    0  0.74611238798E-01  0.24135227286E+00  0.37770220143E+01  0.37854607452E+01  0.00000000000E+00 0.  1.
</event>
<event>
 5    1  0.1537976E+002  0.1599675E+01  0.7818608E-02  0.3353716E+00
         11   -1    0    0    0    0  0.00000000000E+00  0.00000000000E+00  0.39999999674E+01  0.40000000000E+01  0.51100000000E-03 0.  1.
    9000002   -1    0    0    0    0 -0.00000000000E+00 -0.00000000000E+00  0.00000000000E+00  0.93800000000E+00  0.93800000000E+00 0. -1.
         11    1    1    2    0    0  0.16794976603E+00 -0.17320959585E+00  0.13949743279E+01  0.14156844014E+01  0.51100000000E-03 0.  1.
    9000002    1    1    2    0    0 -0.44578862923E+00  0.45703706071E+00  0.28684572577E+00  0.11703567179E+01  0.93800000000E+00 0. -1.
         22    1    1    2    0    0  0.27783886319E+00 -0.28382746485E+00  0.23181799137E+01  0.23519588806E+01  0.00000000000E+00 0.  1.
</event>
<event>
 5    1  0.1537976E+002  0.1599664E+01  0.7818608E-02  0.3353729E+00
         11   -1    0    0    0    0  0.00000000000E+00  0.00000000000E+00  0.39999999674E+01  0.40000000000E+01  0.51100000000E-03 0. -1.
    9000002   -1    0    0    0    0 -0.00000000000E+00 -0.00000000000E+00  0.00000000000E+00  0.93800000000E+00  0.93800000000E+00 0.  1.
         11    1    1    2    0    0 -0.12197344377E-01  0.45742551891E-02  0.14238331724E+00  0.14297891163E+00  0.51100000000E-03 0. -1.
    9000002    1    1    2    0    0  0.37372751116E+00 -0.10785583430E+00  0.10192742424E+00  0.10205578540E+01  0.93800000000E+00 0.  1.
         22    1    1    2    0    0 -0.36153016678E+00  0.10328157911E+00  0.37556892259E+01  0.37744632344E+01  0.00000000000E+00 0. -1.
</event>
<event>
 5    1  0.1537976E+002  0.1599452E+01  0.7818608E-02  0.3353958E+00
         11   -1    0    0    0    0  0.00000000000E+00  0.00000000000E+00  0.39999999674E+01  0.40000000000E+01  0.51100000000E-03 0.  1.
    9000002   -1    0    0    0    0 -0.00000000000E+00 -0.00000000000E+00  0.00000000000E+00  0.93800000000E+00  0.93800000000E+00 0.  1.
         11    1    1    2    0    0  0.47750556728E-01  0.12573966668E+00  0.11402221385E+01  0.11481277654E+01  0.51100000000E-03 0.  1.
    9000002    1    1    2    0    0 -0.16230774782E+00 -0.47760081603E+00  0.17451632285E+00  0.10792341226E+01  0.93800000000E+00 0.  1.
         22    1    1    2    0    0  0.11455719110E+00  0.35186114934E+00  0.26852615060E+01  0.27106381120E+01  0.00000000000E+00 0.  1.
</event>
<event>
 5    1  0.1537976E+002  0.1599654E+01  0.7818608E-02  0.3353739E+00
         11   -1    0    0    0    0  0.00000000000E+00  0.00000000000E+00  0.39999999674E+01  0.40000000000E+01  0.51100000000E-03 0. -1.
    9000002   -1    0    0    0    0 -0.00000000000E+00 -0.00000000000E+00  0.00000000000E+00  0.93800000000E+00  0.93800000000E+00 0. -1.
         11    1    1    2    0    0  0.10138865943E-01  0.25387089873E-02  0.81176810564E-01  0.81848502370E-01  0.51100000000E-03 0. -1.
    9000002    1    1    2    0    0 -0.41808680232E+00 -0.15993420807E+00  0.13606435284E+00  0.10482046715E+01  0.93800000000E+00 0. -1.
         22    1    1    2    0    0  0.40794793638E+00  0.15739549909E+00  0.37827588040E+01  0.38079468262E+01  0.00000000000E+00 0. -1.
</event>
<event>
 5    1  0.1537976E+002  0.1519346E+01  0.7818608E-02  0.3445840E+00
         11   -1    0    0    0    0  0.00000000000E+00  0.00000000000E+00  0.39999999674E+01  0.40000000000E+01  0.51100000000E-03 0. -1.
    9000002   -1    0    0    0    0 -0.00000000000E+00 -0.00000000000E+00  0.00000000000E+00  0.93800000000E+00  0.93800000000E+00 0. -1.
         11    1    1    2    0    0  0.16288069854E+00 -0.18332953270E+00  0.13320665009E+01  0.13544523851E+01  0.51100000000E-03 0. -1.
    9000002    1    1    2    0    0  0.23665556421E+00 -0.85859079183E-01  0.10628832605E+00  0.97699480337E+00  0.93800000000E+00 0. -1.
         22    1    1    2    0    0 -0.39953626275E+00  0.26918861189E+00  0.25616451404E+01  0.26065528116E+01  0.00000000000E+00 0. -1.
</event>
<event>
 5    1  0.1587755E+002  0.1577584E+01  0.7818608E-02  0.3378058E+00
         11   -1    0    0    0    0  0.00000000000E+00  0.00000000000E+00  0.39999999674E+01  0.40000000000E+01  0.51100000000E-03 0.  1.
    9000002   -1    0    0    0    0 -0.00000000000E+00 -0.00000000000E+00  0.00000000000E+00  0.93800000000E+00  0.93800000000E+00 0.  1.
         11    1    1    2    0    0  0.41436614746E-01  0.98136897950E-01  0.49280010469E+00  0.50418255432E+00  0.51100000000E-03 0.  1.
    9000002    1    1    2    0    0 -0.57112460123E-02  0.10361869744E+00  0.23416155489E-01  0.94401364880E+00  0.93800000000E+00 0.  1.
         22    1    1    2    0    0 -0.35725368734E-01 -0.20175559539E+00  0.34837837072E+01  0.34898037969E+01  0.00000000000E+00 0.  1.
</event>
<event>
 5    1  0.1537976E+002  0.1599633E+01  0.7818608E-02  0.3353761E+00
         11   -1    0    0    0    0  0.00000000000E+00  0.00000000000E+00  0.39999999674E+01  0.40000000000E+01  0.51100000000E-03 0.  1.
    9000002   -1    0    0    0    0 -0.00000000000E+00 -0.00000000000E+00  0.00000000000E+00  0.93800000000E+00  0.93800000000E+00 0.  1.
         11    1    1    2    0    0  0.17677348438E-01  0.73448861976E-02  0.26271104335E+00  0.26340802839E+00  0.51100000000E-03 0.  1.
    9000002    1    1    2    0    0 -0.31443442502E+00 -0.78555171708E-01  0.70272181163E-01  0.99489803602E+00  0.93800000000E+00 0.  1.
         22    1    1    2    0    0  0.29675707658E+00  0.71210285511E-01  0.36670167428E+01  0.36796939356E+01  0.00000000000E+00 0. -1.
</event>
<event>
 5    1  0.1537976E+002  0.1599656E+01  0.7818608E-02  0.3353737E+00
         11   -1    0    0    0    0  0.00000000000E+00  0.00000000000E+00  0.39999999674E+01  0.40000000000E+01  0.51100000000E-03 0. -1.
    9000002   -1    0    0    0    0 -0.00000000000E+00 -0.00000000000E+00  0.00000000000E+00  0.93800000000E+00  0.93800000000E+00 0.  1.
         11    1    1    2    0    0 -0.46263023485E-01 -0.18063132448E-01  0.38721632570E+00  0.39038863726E+00  0.51100000000E-03 0. -1.
    9000002    1    1    2    0    0  0.42791617125E+00  0.17384592784E+00  0.14517024542E+00  0.10555818568E+01  0.93800000000E+00 0.  1.
         22    1    1    2    0    0 -0.38165314776E+00 -0.15578279540E+00  0.34676133962E+01  0.34920295059E+01  0.00000000000E+00 0. -1.
</event>
<event>
 5    1  0.1537976E+002  0.1599677E+01  0.7818608E-02  0.3353714E+00
         11   -1    0    0    0    0  0.00000000000E+00  0.00000000000E+00  0.39999999674E+01  0.40000000000E+01  0.51100000000E-03 0.  1.
    9000002   -1    0    0    0    0 -0.00000000000E+00 -0.00000000000E+00  0.00000000000E+00  0.93800000000E+00  0.93800000000E+00 0. -1.
         11    1    1    2    0    0 -0.68151284582E-01 -0.74666482994E-01  0.12910400027E+01  0.12949919810E+01  0.51100000000E-03 0.  1.
    9000002    1    1    2    0    0  0.20690950420E+00  0.22722383397E+00  0.63047098100E-01  0.98907085198E+00  0.93800000000E+00 0. -1.
         22    1    1    2    0    0 -0.13875821961E+00 -0.15255735098E+00  0.26459128666E+01  0.26539371670E+01  0.00000000000E+00 0.  1.
</event>
<event>
 5    1  0.1537976E+002  0.1599675E+01  0.7818608E-02  0.3353717E+00
         11   -1    0    0    0    0  0.00000000000E+00  0.00000000000E+00  0.39999999674E+01  0.40000000000E+01  0.51100000000E-03 0. -1.
    9000002   -1    0    0    0    0 -0.00000000000E+00 -0.00000000000E+00  0.00000000000E+00  0.93800000000E+00  0.93800000000E+00 0. -1.
         11    1    1    2    0    0  0.97717894830E-02 -0.22227074884E-01  0.31615464204E+00  0.31708602860E+00  0.51100000000E-03 0.  1.
    9000002    1    1    2    0    0 -0.11217499499E+00  0.28325991674E+00  0.61949958164E-01  0.98818075636E+00  0.93800000000E+00 0. -1.
         22    1    1    2    0    0  0.10240320550E+00 -0.26103284185E+00  0.36218953672E+01  0.36327332150E+01  0.00000000000E+00 0. -1.
</event>
<event>
 5    1  0.1537976E+002  0.1599518E+01  0.7818608E-02  0.3353887E+00
         11   -1    0    0    0    0  0.00000000000E+00  0.00000000000E+00  0.39999999674E+01  0.40000000000E+01  0.51100000000E-03 0.  1.
    9000002   -1    0    0    0    0 -0.00000000000E+00 -0.00000000000E+00  0.00000000000E+00  0.93800000000E+00  0.93800000000E+00 0.  1.
         11    1    1    2    0    0  0.46735259303E+00  0.91512971779E-01  0.23487006224E+01  0.23964949291E+01  0.51100000000E-03 0.  1.
    9000002    1    1    2    0    0 -0.71978348188E+00 -0.11857349742E+00  0.38363193084E+00  0.12486654450E+01  0.93800000000E+00 0.  1.
         22    1    1    2    0    0  0.25243088884E+00  0.27060525644E-01  0.12676674141E+01  0.12928396259E+01  0.00000000000E+00 0. -1.
</event>
<event>
 5    1  0.1537976E+002  0.1561372E+01  0.7818608E-02  0.3396386E+00
         11   -1    0    0    0    0  0.00000000000E+00  0.00000000000E+00  0.39999999674E+01  0.40000000000E+01  0.51100000000E-03 0.  1.
    9000002   -1    0    0    0    0 -0.00000000000E+00 -0.00000000000E+00  0.00000000000E+00  0.93800000000E+00  0.93800000000E+00 0. -1.
         11    1    1    2    0    0  0.13714204482E-01 -0.21202853558E+00  0.18947839854E+01  0.19066595899E+01  0.51100000000E-03 0.  1.
    9000002    1    1    2    0    0 -0.50131438463E-01 -0.48185624240E-01  0.31558690427E-01  0.94110305836E+00  0.93800000000E+00 0. -1.
         22    1    1    2    0    0  0.36417233981E-01  0.26021415982E+00  0.20736572915E+01  0.20902373517E+01  0.00000000000E+00 0.  1.
</event>
<event>
 5    1  0.1537976E+002  0.1592717E+01  0.7818608E-02  0.3361307E+00
         11   -1    0    0    0    0  0.00000000000E+00  0.00000000000E+00  0.39999999674E+01  0.40000000000E+01  0.51100000000E-03 0.  1.
    9000002   -1    0    0    0    0 -0.00000000000E+00 -0.00000000000E+00  0.00000000000E+00  0.93800000000E+00  0.93800000000E+00 0. -1.
         11    1    1    2    0    0 -0.15770600411E-02  0.41827502185E-01  0.41587154409E+00  0.41797300076E+00  0.51100000000E-03 0.  1.
    9000002    1    1    2    0    0 -0.28841494349E+00  0.10330066350E+00  0.68134932401E-01  0.98911100273E+00  0.93800000000E+00 0. -1.
         22    1    1    2    0    0  0.28999200354E+00 -0.14512816568E+00  0.35159934909E+01  0.35309159965E+01  0.00000000000E+00 0.  1.
</event>
<event>
 5    1  0.1537976E+002  0.1575831E+01  0.7818608E-02  0.3380021E+00
         11   -1    0    0    0    0  0.00000000000E+00  0.00000000000E+00  0.39999999674E+01  0.40000000000E+01  0.51100000000E-03 0. -1.
    9000002   -1    0    0    0    0 -0.00000000000E+00 -0.00000000000E+00  0.00000000000E+00  0.93800000000E+00  0.93800000000E+00 0.  1.
         11    1    1    2    0    0  0.36496810417E-01  0.36234620462E-01  0.57199558244E-01  0.76922139043E-01  0.51100000000E-03 0. -1.
    9000002    1    1    2    0    0 -0.24156919689E+00 -0.49731077996E-01  0.58821008838E-01  0.97166494641E+00  0.93800000000E+00 0.  1.
         22    1    1    2    0    0  0.20507238647E+00  0.13496457534E-01  0.38839794003E+01  0.38894129145E+01  0.00000000000E+00 0. -1.
</event>
<event>
 5    1  0.1537976E+002  0.1564122E+01  0.7818608E-02  0.3393249E+00
         11   -1    0    0    0    0  0.00000000000E+00  0.00000000000E+00  0.39999999674E+01  0.40000000000E+01  0.51100000000E-03 0. -1.
    9000002   -1    0    0    0    0 -0.00000000000E+00 -0.00000000000E+00  0.00000000000E+00  0.93800000000E+00  0.93800000000E+00 0. -1.
         11    1    1    2    0    0  0.68252732172E-01  0.19036745994E+00  0.23104661220E+01  0.23192999305E+01  0.51100000000E-03 0. -1.
    9000002    1    1    2    0    0 -0.52975477915E-01  0.52220342160E-01  0.29961594521E-01  0.94142183029E+00  0.93800000000E+00 0. -1.
         22    1    1    2    0    0 -0.15277254257E-01 -0.24258780210E+00  0.16595722508E+01  0.16772782393E+01  0.00000000000E+00 0.  1.
</event>
<event>
 5    1  0.1537976E+002  0.1599677E+01  0.7818608E-02  0.3353714E+00
         11   -1    0    0    0    0  0.00000000000E+00  0.00000000000E+00  0.39999999674E+01  0.40000000000E+01  0.51100000000E-03 0. -1.
    9000002   -1    0    0    0    0 -0.00000000000E+00 -0.00000000000E+00  0.00000000000E+00  0.93800000000E+00  0.93800000000E+00 0.  1.
         11    1    1    2    0    0 -0.10325152424E+00  0.71110313207E-01  0.14222082415E+01  0.14277233966E+01  0.51100000000E-03 0. -1.
    9000002    1    1    2    0    0  0.28571612242E+00 -0.19537028052E+00  0.80295351306E-01  0.10030426674E+01  0.93800000000E+00 0.  1.
         22    1    1    2    0    0 -0.18246459817E+00  0.12425996731E+00  0.24974963746E+01  0.25072339361E+01  0.00000000000E+00 0.  1.
</event>
<event>
 5    1  0.1537976E+002  0.1597381E+01  0.7818608E-02  0.3356211E+00
         11   -1    0    0    0    0  0.00000000000E+00  0.00000000000E+00  0.39999999674E+01  0.40000000000E+01  0.51100000000E-03 0. -1.
    9000002   -1    0    0    0    0 -0.00000000000E+00 -0.00000000000E+00  0.00000000000E+00  0.93800000000E+00  0.93800000000E+00 0.  1.
         11    1    1    2    0    0  0.39987818035E-01 -0.31170168276E-01  0.89679404855E+00  0.89822626972E+00  0.51100000000E-03 0. -1.
    9000002    1    1    2    0    0 -0.37972247377E+00  0.88035138067E-01  0.10425317546E+00  0.10211033578E+01  0.93800000000E+00 0.  1.
         22    1    1    2    0    0  0.33973465574E+00 -0.56864969791E-01  0.29989527434E+01  0.30186703725E+01  0.00000000000E+00 0. -1.
</event>
<event>
 5    1  0.1537976E+002  0.1584309E+01  0.7818608E-02  0.3370572E+00
         11   -1    0    0    0    0  0.00000000000E+00  0.00000000000E+00  0.39999999674E+01  0.40000000000E+01  0.51100000000E-03 0. -1.
    9000002   -1    0    0    0    0 -0.00000000000E+00 -0.00000000000E+00  0.00000000000E+00  0.93800000000E+00  0.93800000000E+00 0.  1.
         11    1    1    2    0    0  0.24878655198E-01  0.64447243504E-01  0.10859822737E+01  0.10881774463E+01  0.51100000000E-03 0. -1.
    9000002    1    1    2    0    0 -0.25535998258E+00  0.21997606418E+00  0.88443712631E-01  0.10006320402E+01  0.93800000000E+00 0.  1.
         22    1    1    2    0    0  0.23048132739E+00 -0.28442330768E+00  0.28255739810E+01  0.28491905136E+01  0.00000000000E+00 0. -1.
</event>
<event>
 5    1  0.1537976E+002  0.1599395E+01  0.7818608E-02  0.3354020E+00
         11   -1    0    0    0    0  0.00000000000E+00  0.00000000000E+00  0.39999999674E+01  0.40000000000E+01  0.51100000000E-03 0. -1.
    9000002   -1    0    0    0    0 -0.00000000000E+00 -0.00000000000E+00  0.00000000000E+00  0.93800000000E+00  0.93800000000E+00 0. -1.
         11    1    1    2    0    0  0.11383310505E+00 -0.22877511215E-01  0.10928476907E+01  0.10989984952E+01  0.51100000000E-03 0. -1.
    9000002    1    1    2    0    0 -0.34337871062E+00  0.92064074380E-01  0.85022164948E-01  0.10067062636E+01  0.93800000000E+00 0. -1.
         22    1    1    2    0    0  0.22954560557E+00 -0.69186563165E-01  0.28221301117E+01  0.28322952411E+01  0.00000000000E+00 0. -1.
</event>
<event>
 5    1  0.1537976E+002  0.1599085E+01  0.7818608E-02  0.3354357E+00
         11   -1    0    0    0    0  0.00000000000E+00  0.00000000000E+00  0.39999999674E+01  0.40000000000E+01  0.51100000000E-03 0.  1.
    9000002   -1    0    0    0    0 -0.00000000000E+00 -0.00000000000E+00  0.00000000000E+00  0.93800000000E+00  0.93800000000E+00 0.  1.
         11    1    1    2    0    0  0.84521757219E-02  0.21076718530E-01  0.58521921844E+00  0.58565985187E+00  0.51100000000E-03 0.  1.
    9000002    1    1    2    0    0  0.64627177141E-01 -0.21326885215E+00  0.33371846804E-01  0.96468541789E+00  0.93800000000E+00 0.  1.
         22    1    1    2    0    0 -0.73079352862E-01  0.19219213362E+00  0.33814089021E+01  0.33876547302E+01  0.00000000000E+00 0.  1.
</event>
<event>
 5    1  0.1537976E+002  0.1599676E+01  0.7818608E-02  0.3353715E+00
         11   -1    0    0    0    0  0.00000000000E+00  0.00000000000E+00  0.39999999674E+01  0.40000000000E+01  0.51100000000E-03 0. -1.
    9000002   -1    0    0    0    0 -0.00000000000E+00 -0.00000000000E+00  0.00000000000E+00  0.93800000000E+00  0.93800000000E+00 0. -1.
         11    1    1    2    0    0  0.67972525085E-01 -0.28830354583E-01  0.10189984198E+01  0.10216699536E+01  0.51100000000E-03 0.  1.
    9000002    1    1    2    0    0 -0.26531172533E+00  0.10857882026E+00  0.54757382416E-01  0.98235535461E+00  0.93800000000E+00 0. -1.
         22    1    1    2    0    0  0.19733920024E+00 -0.79748465678E-01  0.29262441652E+01  0.29339746918E+01  0.00000000000E+00 0. -1.
</event>
<event>
 5    1  0.1537976E+002  0.1599677E+01  0.7818608E-02  0.3353714E+00
         11   -1    0    0    0    0  0.00000000000E+00  0.00000000000E+00  0.39999999674E+01  0.40000000000E+01  0.51100000000E-03 0. -1.
    9000002   -1    0    0    0    0 -0.00000000000E+00 -0.00000000000E+00  0.00000000000E+00  0.93800000000E+00  0.93800000000E+00 0. -1.
         11    1    1    2    0    0  0.13156899684E+00 -0.49998810957E-01  0.15949914327E+01  0.16011896245E+01  0.51100000000E-03 0. -1.
    9000002    1    1    2    0    0 -0.32398617156E+00  0.12336723569E+00  0.80557006553E-01  0.10032546763E+01  0.93800000000E+00 0. -1.
         22    1    1    2    0    0  0.19241717472E+00 -0.73368424728E-01  0.23244515281E+01  0.23335556992E+01  0.00000000000E+00 0. -1.
</event>
<event>
 5    1  0.1537976E+002  0.1599666E+01  0.7818608E-02  0.3353726E+00
         11   -1    0    0    0    0  0.00000000000E+00  0.00000000000E+00  0.39999999674E+01  0.40000000000E+01  0.51100000000E-03 0. -1.
    9000002   -1    0    0    0    0 -0.00000000000E+00 -0.00000000000E+00  0.00000000000E+00  0.93800000000E+00  0.93800000000E+00 0.  1.
         11    1    1    2    0    0  0.59363047221E-02  0.23889838643E-01  0.19741927934E+00  0.19894872978E+00  0.51100000000E-03 0. -1.
    9000002    1    1    2    0    0 -0.14654038685E+00 -0.45409717371E+00  0.15528853265E+00  0.10637842152E+01  0.93800000000E+00 0.  1.
         22    1    1    2    0    0  0.14060408212E+00  0.43020733507E+00  0.36472921554E+01  0.36752670550E+01  0.00000000000E+00 0. -1.
</event>
<event>
 5    1  0.1537976E+002  0.1579809E+01  0.7818608E-02  0.3375574E+00
         11   -1    0    0    0    0  0.00000000000E+00  0.00000000000E+00  0.39999999674E+01  0.40000000000E+01  0.51100000000E-03 0.  1.
    9000002   -1    0    0    0    0 -0.00000000000E+00 -0.00000000000E+00  0.00000000000E+00  0.93800000000E+00  0.93800000000E+00 0. -1.
         11    1    1    2    0    0  0.10320877481E+00  0.18826044570E-01  0.11019435094E+01  0.11069264791E+01  0.51100000000E-03 0.  1.
    9000002    1    1    2    0    0  0.17528305760E+00 -0.57171870216E-01  0.37444044784E-01  0.95668115353E+00  0.93800000000E+00 0. -1.
         22    1    1    2    0    0 -0.27849183241E+00  0.38345825646E-01  0.28606124132E+01  0.28743923673E+01  0.00000000000E+00 0.  1.
</event>
<event>
 5    1  0.1537976E+002  0.1598775E+01  0.7818608E-02  0.3354694E+00
         11   -1    0    0    0    0  0.00000000000E+00  0.00000000000E+00  0.39999999674E+01  0.40000000000E+01  0.51100000000E-03 0.  1.
    9000002   -1    0    0    0    0 -0.00000000000E+00 -0.00000000000E+00  0.00000000000E+00  0.93800000000E+00  0.93800000000E+00 0.  1.
         11    1    1    2    0    0 -0.10940214382E+00  0.38687003535E-01  0.18615193444E+01  0.18651327149E+01  0.51100000000E-03 0.  1.
    9000002    1    1    2    0    0  0.30750029740E+00 -0.82751925744E-01  0.68481656087E-01  0.99294413304E+00  0.93800000000E+00 0.  1.
         22    1    1    2    0    0 -0.19809815358E+00  0.44064922209E-01  0.20699989669E+01  0.20799231521E+01  0.00000000000E+00 0.  1.
</event>
<event>
 5    1  0.1537976E+002  0.1581822E+01  0.7818608E-02  0.3373333E+00
         11   -1    0    0    0    0  0.00000000000E+00  0.00000000000E+00  0.39999999674E+01  0.40000000000E+01  0.51100000000E-03 0. -1.
    9000002   -1    0    0    0    0 -0.00000000000E+00 -0.00000000000E+00  0.00000000000E+00  0.93800000000E+00  0.93800000000E+00 0.  1.
         11    1    1    2    0    0 -0.10999352070E+00 -0.14335457694E-01  0.12608074479E+01  0.12656775899E+01  0.51100000000E-03 0. -1.
    9000002    1    1    2    0    0  0.73863134573E+00 -0.78523791318E-01  0.42065823216E+00  0.12682821449E+01  0.93800000000E+00 0.  1.
         22    1    1    2    0    0 -0.62863782503E+00  0.92859249012E-01  0.23185342873E+01  0.24040402652E+01  0.00000000000E+00 0. -1.
</event>
<event>
 5    1  0.1537976E+002  0.1599667E+01  0.7818608E-02  0.3353724E+00
         11   -1    0    0    0    0  0.00000000000E+00  0.00000000000E+00  0.39999999674E+01  0.40000000000E+01  0.51100000000E-03 0.  1.
    9000002   -1    0    0    0    0 -0.00000000000E+00 -0.00000000000E+00  0.00000000000E+00  0.93800000000E+00  0.93800000000E+00 0.  1.
         11    1    1    2    0    0  0.48253657196E-02  0.14199265571E+00  0.13035672181E+01  0.13112867542E+01  0.51100000000E-03 0.  1.
    9000002    1    1    2    0    0 -0.83346011006E-02 -0.41440930162E+00  0.11611403692E+00  0.10320518419E+01  0.93800000000E+00 0.  1.
         22    1    1    2    0    0  0.35092353811E-02  0.27241664591E+00  0.25803187123E+01  0.25946614039E+01  0.00000000000E+00 0.  1.
</event>
<event>
 5    1  0.1537976E+002  0.1599672E+01  0.7818608E-02  0.3353720E+00
         11   -1    0    0    0    0  0.00000000000E+00  0.00000000000E+00  0.39999999674E+01  0.40000000000E+01  0.51100000000E-03 0. -1.
    9000002   -1    0    0    0    0 -0.00000000000E+00 -0.00000000000E+00  0.00000000000E+00  0.93800000000E+00  0.93800000000E+00 0. -1.
         11    1    1    2    0    0 -0.97373676732E-01 -0.80748449190E-01  0.12353827097E+01  0.12418424398E+01  0.51100000000E-03 0.  1.
    9000002    1    1    2    0    0  0.30841187444E+00  0.24646003625E+00  0.10506577685E+00  0.10231047118E+01  0.93800000000E+00 0. -1.
         22    1    1    2    0    0 -0.21103819770E+00 -0.16571158706E+00  0.26595514809E+01  0.26730528484E+01  0.00000000000E+00 0. -1.
</event>
<event>
 5    1  0.1537976E+002  0.1585895E+01  0.7818608E-02  0.3368816E+00
         11   -1    0    0    0    0  0.00000000000E+00  0.00000000000E+00  0.39999999674E+01  0.40000000000E+01  0.51100000000E-03 0.  1.
    9000002   -1    0    0    0    0 -0.00000000000E+00 -0.00000000000E+00  0.00000000000E+00  0.93800000000E+00  0.93800000000E+00 0.  1.
         11    1    1    2    0    0 -0.12755134529E+00  0.17949301369E+00  0.29207162801E+01  0.29290051106E+01  0.51100000000E-03 0.  1.
    9000002    1    1    2    0    0  0.33215408701E+00 -0.23646838196E+00  0.12386866300E+00  0.10302577730E+01  0.93800000000E+00 0.  1.
         22    1    1    2    0    0 -0.20460274172E+00  0.56975368276E-01  0.95541502422E+00  0.97873711640E+00  0.00000000000E+00 0.  1.
</event>
<event>
 5    1  0.1537976E+002  0.1582524E+01  0.7818608E-02  0.3372553E+00
         11   -1    0    0    0    0  0.00000000000E+00  0.00000000000E+00  0.39999999674E+01  0.40000000000E+01  0.51100000000E-03 0.  1.
    9000002   -1    0    0    0    0 -0.00000000000E+00 -0.00000000000E+00  0.00000000000E+00  0.93800000000E+00  0.93800000000E+00 0.  1.
         11    1    1    2    0    0 -0.19842885926E+00 -0.65039014473E-01  0.18389848564E+01  0.18508024338E+01  0.51100000000E-03 0.  1.
    9000002    1    1    2    0    0  0.41403996385E+00 -0.19344329349E+00  0.15704765961E+00  0.10551575081E+01  0.93800000000E+00 0.  1.
         22    1    1    2    0    0 -0.21561110459E+00  0.25848230797E+00  0.20039674513E+01  0.20320400581E+01  0.00000000000E+00 0.  1.
</event>
<event>
 5    1  0.1537976E+002  0.1599677E+01  0.7818608E-02  0.3353714E+00
         11   -1    0    0    0    0  0.00000000000E+00  0.00000000000E+00  0.39999999674E+01  0.40000000000E+01  0.51100000000E-03 0. -1.
    9000002   -1    0    0    0    0 -0.00000000000E+00 -0.00000000000E+00  0.00000000000E+00  0.93800000000E+00  0.93800000000E+00 0.  1.
         11    1    1    2    0    0  0.30682207289E+00 -0.12690531343E+00  0.14787265212E+01  0.15155451589E+01  0.51100000000E-03 0.  1.
    9000002    1    1    2    0    0 -0.73402195176E+00  0.30332510256E+00  0.46375396922E+00  0.13136613291E+01  0.93800000000E+00 0.  1.
         22    1    1    2    0    0  0.42719987887E+00 -0.17641978912E+00  0.20575194770E+01  0.21087935121E+01  0.00000000000E+00 0. -1.
</event>
<event>
 5    1  0.1537976E+002  0.1556840E+01  0.7818608E-02  0.3401583E+00
         11   -1    0    0    0    0  0.00000000000E+00  0.00000000000E+00  0.39999999674E+01  0.40000000000E+01  0.51100000000E-03 0.  1.
    9000002   -1    0    0    0    0 -0.00000000000E+00 -0.00000000000E+00  0.00000000000E+00  0.93800000000E+00  0.93800000000E+00 0. -1.
         11    1    1    2    0    0 -0.71703412705E-01  0.54201199286E-02  0.30819017518E+01  0.30827405707E+01  0.51100000000E-03 0.  1.
    9000002    1    1    2    0    0 -0.11186864607E+00  0.16328141551E+00  0.58725554928E-01  0.96045203182E+00  0.93800000000E+00 0. -1.
         22    1    1    2    0    0  0.18357205878E+00 -0.16870153544E+00  0.85937266060E+00  0.89480739749E+00  0.00000000000E+00 0.  1.
</event>
<event>
 5    1  0.1537976E+002  0.1599670E+01  0.7818608E-02  0.3353722E+00
         11   -1    0    0    0    0  0.00000000000E+00  0.00000000000E+00  0.39999999674E+01  0.40000000000E+01  0.51100000000E-03 0. -1.
    9000002   -1    0    0    0    0 -0.00000000000E+00 -0.00000000000E+00  0.00000000000E+00  0.93800000000E+00  0.93800000000E+00 0. -1.
         11    1    1    2    0    0 -0.17587104667E-01  0.31795975918E-01  0.54101783865E+00  0.54223689767E+00  0.51100000000E-03 0.  1.
    9000002    1    1    2    0    0  0.12380842502E+00 -0.21712835140E+00  0.41505851690E-01  0.97161719973E+00  0.93800000000E+00 0. -1.
         22    1    1    2    0    0 -0.10622132036E+00  0.18533237548E+00  0.34174762770E+01  0.34241459026E+01  0.00000000000E+00 0. -1.
</event>
<event>
 5    1  0.1537976E+002  0.1599202E+01  0.7818608E-02  0.3354230E+00
         11   -1    0    0    0    0  0.00000000000E+00  0.00000000000E+00  0.39999999674E+01  0.40000000000E+01  0.51100000000E-03 0. -1.
    9000002   -1    0    0    0    0 -0.00000000000E+00 -0.00000000000E+00  0.00000000000E+00  0.93800000000E+00  0.93800000000E+00 0.  1.
         11    1    1    2    0    0 -0.83441761240E-01 -0.16764060191E+00  0.16726477287E+01  0.16830973188E+01  0.51100000000E-03 0. -1.
    9000002    1    1    2    0    0  0.13772162902E+00  0.36864608174E+00  0.10476905313E+00  0.10225887420E+01  0.93800000000E+00 0.  1.
         22    1    1    2    0    0 -0.54279867783E-01 -0.20100547983E+00  0.22225831855E+01  0.22323139393E+01  0.00000000000E+00 0. -1.
</event>
<event>
 5    1  0.1537976E+002  0.1553213E+01  0.7818608E-02  0.3405764E+00
         11   -1    0    0    0    0  0.00000000000E+00  0.00000000000E+00  0.39999999674E+01  0.40000000000E+01  0.51100000000E-03 0.  1.
    9000002   -1    0    0    0    0 -0.00000000000E+00 -0.00000000000E+00  0.00000000000E+00  0.93800000000E+00  0.93800000000E+00 0.  1.
         11    1    1    2    0    0 -0.86004284391E-02  0.53686408016E-01  0.35822649318E-01  0.65113140764E-01  0.51100000000E-03 0.  1.
    9000002    1    1    2    0    0 -0.92507573038E-02  0.32300976879E+00  0.10760474069E+00  0.99791966984E+00  0.93800000000E+00 0.  1.
         22    1    1    2    0    0  0.17851185743E-01 -0.37669617681E+00  0.38565725774E+01  0.38749671894E+01  0.00000000000E+00 0.  1.
</event>
<event>
 5    1  0.1537976E+002  0.1547642E+01  0.7818608E-02  0.3412228E+00
         11   -1    0    0    0    0  0.00000000000E+00  0.00000000000E+00  0.39999999674E+01  0.40000000000E+01  0.51100000000E-03 0. -1.
    9000002   -1    0    0    0    0 -0.00000000000E+00 -0.00000000000E+00  0.00000000000E+00  0.93800000000E+00  0.93800000000E+00 0.  1.
         11    1    1    2    0    0 -0.18432785367E+00  0.16862603802E+00  0.14274348828E+01  0.14491315000E+01  0.51100000000E-03 0. -1.
    9000002    1    1    2    0    0  0.11340886010E+00  0.14650482113E+00  0.62562073895E-01  0.95816660621E+00  0.93800000000E+00 0.  1.
         22    1    1    2    0    0  0.70918993570E-01 -0.31513085915E+00  0.25100030106E+01  0.25307018938E+01  0.00000000000E+00 0. -1.
</event>
<event>
 5    1  0.1537976E+002  0.1568010E+01  0.7818608E-02  0.3388834E+00
         11   -1    0    0    0    0  0.00000000000E+00  0.00000000000E+00  0.39999999674E+01  0.40000000000E+01  0.51100000000E-03 0. -1.
    9000002   -1    0    0    0    0 -0.00000000000E+00 -0.00000000000E+00  0.00000000000E+00  0.93800000000E+00  0.93800000000E+00 0. -1.
         11    1    1    2    0    0  0.16535918114E+00  0.10140519174E+00  0.12400804356E+01  0.12551599179E+01  0.51100000000E-03 0. -1.
    9000002    1    1    2    0    0 -0.45189457009E-01  0.87471078696E-01  0.29868130297E-01  0.94362565768E+00  0.93800000000E+00 0. -1.
         22    1    1    2    0    0 -0.12016972413E+00 -0.18887627044E+00  0.27300514015E+01  0.27392144244E+01  0.00000000000E+00 0. -1.
</event>
<event>
 5    1  0.1537976E+002  0.1599669E+01  0.7818608E-02  0.3353723E+00
         11   -1    0    0    0    0  0.00000000000E+00  0.00000000000E+00  0.39999999674E+01  0.40000000000E+01  0.51100000000E-03 0. -1.
    9000002   -1    0    0    0    0 -0.00000000000E+00 -0.00000000000E+00  0.00000000000E+00  0.93800000000E+00  0.93800000000E+00 0. -1.
         11    1    1    2    0    0  0.74562219016E-01 -0.12159232391E-01  0.75388507757E+00  0.75766110019E+00  0.51100000000E-03 0. -1.
    9000002    1    1    2    0    0 -0.38337509321E+00  0.76374457078E-01  0.10296093775E+00  0.10213982938E+01  0.93800000000E+00 0. -1.
         22    1    1    2    0    0  0.30881287419E+00 -0.64215224687E-01  0.31431539520E+01  0.31589406060E+01  0.00000000000E+00 0. -1.
</event>
<event>
 5    1  0.1537976E+002  0.1564807E+01  0.7818608E-02  0.3392470E+00
         11   -1    0    0    0    0  0.00000000000E+00  0.00000000000E+00  0.39999999674E+01  0.40000000000E+01  0.51100000000E-03 0. -1.
    9000002   -1    0    0    0    0 -0.00000000000E+00 -0.00000000000E+00  0.00000000000E+00  0.93800000000E+00  0.93800000000E+00 0.  1.
         11    1    1    2    0    0 -0.16427720840E+00  0.14575885221E+00  0.12021574469E+01  0.12220537764E+01  0.51100000000E-03 0. -1.
    9000002    1    1    2    0    0 -0.38638229606E-01 -0.12192623241E+00  0.36841874164E-01  0.94739656039E+00  0.93800000000E+00 0.  1.
         22    1    1    2    0    0  0.20291543800E+00 -0.23832619800E-01  0.27610006463E+01  0.27685496632E+01  0.00000000000E+00 0. -1.
</event>
<event>
 5    1  0.1537976E+002  0.1595791E+01  0.7818608E-02  0.3357945E+00
         11   -1    0    0    0    0  0.00000000000E+00  0.00000000000E+00  0.39999999674E+01  0.40000000000E+01  0.51100000000E-03 0. -1.
    9000002   -1    0    0    0    0 -0.00000000000E+00 -0.00000000000E+00  0.00000000000E+00  0.93800000000E+00  0.93800000000E+00 0.  1.
         11    1    1    2    0    0  0.10322046977E+00 -0.23892313089E-01  0.94960926684E+00  0.95550161108E+00  0.51100000000E-03 0. -1.
    9000002    1    1    2    0    0 -0.34194780372E+00 -0.15326224149E+00  0.97603949137E-01  0.10147847782E+01  0.93800000000E+00 0.  1.
         22    1    1    2    0    0  0.23872733395E+00  0.17715455458E+00  0.29527867514E+01  0.29677136107E+01  0.00000000000E+00 0. -1.
</event>
<event>
 5    1  0.1537976E+002  0.1503825E+01  0.7818608E-02  0.3464854E+00
         11   -1    0    0    0    0  0.00000000000E+00  0.00000000000E+00  0.39999999674E+01  0.40000000000E+01  0.51100000000E-03 0. -1.
    9000002   -1    0    0    0    0 -0.00000000000E+00 -0.00000000000E+00  0.00000000000E+00  0.93800000000E+00  0.93800000000E+00 0. -1.
         11    1    1    2    0    0 -0.15565146438E+00  0.56780604842E-01  0.17144171082E+00  0.23841966525E+00  0.51100000000E-03 0. -1.
    9000002    1    1    2    0    0 -0.45155461624E-01 -0.15513117474E+00  0.91901754912E-01  0.95623983898E+00  0.93800000000E+00 0. -1.
         22    1    1    2    0    0  0.20080692600E+00  0.98350569900E-01  0.37366565016E+01  0.37433404958E+01  0.00000000000E+00 0. -1.
</event>
<event>
 5    1  0.1537976E+002  0.1599631E+01  0.7818608E-02  0.3353764E+00
         11   -1    0    0    0    0  0.00000000000E+00  0.00000000000E+00  0.39999999674E+01  0.40000000000E+01  0.51100000000E-03 0. -1.
    9000002   -1    0    0    0    0 -0.00000000000E+00 -0.00000000000E+00  0.00000000000E+00  0.93800000000E+00  0.93800000000E+00 0. -1.
         11    1    1    2    0    0 -0.17113479950E-01  0.37716281176E-01  0.55728466700E+00  0.55882184125E+00  0.51100000000E-03 0. -1.
    9000002    1    1    2    0    0  0.96270341477E-01 -0.23625031339E+00  0.43285933444E-01  0.97303641312E+00  0.93800000000E+00 0. -1.
         22    1    1    2    0    0 -0.79156861526E-01  0.19853403222E+00  0.33994293669E+01  0.34061417456E+01  0.00000000000E+00 0. -1.
</event>
<event>
 5    1  0.1537976E+002  0.1598917E+01  0.7818608E-02  0.3354539E+00
         11   -1    0    0    0    0  0.00000000000E+00  0.00000000000E+00  0.39999999674E+01  0.40000000000E+01  0.51100000000E-03 0. -1.
    9000002   -1    0    0    0    0 -0.00000000000E+00 -0.00000000000E+00  0.00000000000E+00  0.93800000000E+00  0.93800000000E+00 0. -1.
         11    1    1    2    0    0  0.18683551808E-01  0.50277915267E-02  0.18182237889E+00  0.18284964420E+00  0.51100000000E-03 0. -1.
    9000002    1    1    2    0    0 -0.11600639032E+00 -0.19147611125E+00  0.33806208170E-01  0.96493908797E+00  0.93800000000E+00 0. -1.
         22    1    1    2    0    0  0.97322838516E-01  0.18644831972E+00  0.37843713803E+01  0.37902112678E+01  0.00000000000E+00 0. -1.
</event>
<event>
 5    1  0.1537976E+002  0.1599677E+01  0.7818608E-02  0.3353714E+00
         11   -1    0    0    0    0  0.00000000000E+00  0.00000000000E+00  0.39999999674E+01  0.40000000000E+01  0.51100000000E-03 0. -1.
    9000002   -1    0    0    0    0 -0.00000000000E+00 -0.00000000000E+00  0.00000000000E+00  0.93800000000E+00  0.93800000000E+00 0. -1.
         11    1    1    2    0    0  0.12186879114E-01  0.11551907755E+00  0.10866857348E+01  0.10928766283E+01  0.51100000000E-03 0. -1.
    9000002    1    1    2    0    0 -0.42024373593E-01 -0.41378677665E+00  0.11692656824E+00  0.10327155305E+01  0.93800000000E+00 0. -1.
         22    1    1    2    0    0  0.29837494479E-01  0.29826769910E+00  0.27963876643E+01  0.28124078412E+01  0.00000000000E+00 0. -1.
</event>
<event>
 5    1  0.1537976E+002  0.1599599E+01  0.7818608E-02  0.3353799E+00
         11   -1    0    0    0    0  0.00000000000E+00  0.00000000000E+00  0.39999999674E+01  0.40000000000E+01  0.51100000000E-03 0.  1.
    9000002   -1    0    0    0    0 -0.00000000000E+00 -0.00000000000E+00  0.00000000000E+00  0.93800000000E+00  0.93800000000E+00 0. -1.
         11    1    1    2    0    0 -0.51209389012E-02  0.15195366872E-01  0.15000927488E+00  0.15086473034E+00  0.51100000000E-03 0.  1.
    9000002    1    1    2    0    0  0.47514251955E-01 -0.33560842424E+00  0.77005690311E-01  0.10003321923E+01  0.93800000000E+00 0. -1.
         22    1    1    2    0    0 -0.42393313053E-01  0.32041305736E+00  0.37729850022E+01  0.37868030774E+01  0.00000000000E+00 0.  1.
</event>
<event>
 5    1  0.1537976E+002  0.1599677E+01  0.7818608E-02  0.3353714E+00
         11   -1    0    0    0    0  0.00000000000E+00  0.00000000000E+00  0.39999999674E+01  0.40000000000E+01  0.51100000000E-03 0. -1.
    9000002   -1    0    0    0    0 -0.00000000000E+00 -0.00000000000E+00  0.00000000000E+00  0.93800000000E+00  0.93800000000E+00 0. -1.
         11    1    1    2    0    0 -0.11178835745E+00  0.22018757900E+00  0.15522606039E+01  0.15717800261E+01  0.51100000000E-03 0. -1.
    9000002    1    1    2    0    0  0.26904378958E+00 -0.53255179820E+00  0.24820124110E+00  0.11390539208E+01  0.93800000000E+00 0. -1.
         22    1    1    2    0    0 -0.15725543212E+00  0.31236421919E+00  0.21995381223E+01  0.22271660531E+01  0.00000000000E+00 0. -1.
</event>
<event>
 5    1  0.1537976E+002  0.1591663E+01  0.7818608E-02  0.3362462E+00
         11   -1    0    0    0    0  0.00000000000E+00  0.00000000000E+00  0.39999999674E+01  0.40000000000E+01  0.51100000000E-03 0. -1.
    9000002   -1    0    0    0    0 -0.00000000000E+00 -0.00000000000E+00  0.00000000000E+00  0.93800000000E+00  0.93800000000E+00 0.  1.
         11    1    1    2    0    0 -0.23806845548E-01 -0.17460543107E-01  0.76921770478E-01  0.82394516535E-01  0.51100000000E-03 0. -1.
    9000002    1    1    2    0    0  0.22383585285E+00 -0.29962975440E+00  0.10063026247E+00  0.10148157116E+01  0.93800000000E+00 0.  1.
         22    1    1    2    0    0 -0.20002900730E+00  0.31709029751E+00  0.38224479344E+01  0.38407897719E+01  0.00000000000E+00 0. -1.
</event>
<event>
 5    1  0.1537976E+002  0.1599673E+01  0.7818608E-02  0.3353719E+00
         11   -1    0    0    0    0  0.00000000000E+00  0.00000000000E+00  0.39999999674E+01  0.40000000000E+01  0.51100000000E-03 0. -1.
    9000002   -1    0    0    0    0 -0.00000000000E+00 -0.00000000000E+00  0.00000000000E+00  0.93800000000E+00  0.93800000000E+00 0. -1.
         11    1    1    2    0    0  0.35536158285E-02 -0.36497006643E-02  0.73251498876E-01  0.73430182548E-01  0.51100000000E-03 0.  1.
    9000002    1    1    2    0    0 -0.17675056660E+00  0.17642018986E+00  0.41430913301E-01  0.97155821584E+00  0.93800000000E+00 0. -1.
         22    1    1    2    0    0  0.17319695077E+00 -0.17277048920E+00  0.38853175552E+01  0.38930116016E+01  0.00000000000E+00 0. -1.
</event>
<event>
 5    1  0.1537976E+002  0.1586958E+01  0.7818608E-02  0.3367641E+00
         11   -1    0    0    0    0  0.00000000000E+00  0.00000000000E+00  0.39999999674E+01  0.40000000000E+01  0.51100000000E-03 0.  1.
    9000002   -1    0    0    0    0 -0.00000000000E+00 -0.00000000000E+00  0.00000000000E+00  0.93800000000E+00  0.93800000000E+00 0.  1.
         11    1    1    2    0    0  0.62871254924E-02  0.13662172303E-01  0.18527704207E+01  0.18528315293E+01  0.51100000000E-03 0.  1.
    9000002    1    1    2    0    0  0.55793053325E-02 -0.31602961072E+00  0.76860690662E-01  0.99280280482E+00  0.93800000000E+00 0.  1.
         22    1    1    2    0    0 -0.11866430825E-01  0.30236743841E+00  0.20703688560E+01  0.20923656659E+01  0.00000000000E+00 0.  1.
</event>
<event>
 5    1  0.1537976E+002  0.1599664E+01  0.7818608E-02  0.3353728E+00
         11   -1    0    0    0    0  0.00000000000E+00  0.00000000000E+00  0.39999999674E+01  0.40000000000E+01  0.51100000000E-03 0. -1.
    9000002   -1    0    0    0    0 -0.00000000000E+00 -0.00000000000E+00  0.00000000000E+00  0.93800000000E+00  0.93800000000E+00 0.  1.
         11    1    1    2    0    0 -0.10833357004E+00 -0.31490083509E-01  0.94940586521E+00  0.95608553266E+00  0.51100000000E-03 0. -1.
    9000002    1    1    2    0    0  0.45073531762E+00  0.11775659004E+00  0.14776640180E+00  0.10576898650E+01  0.93800000000E+00 0.  1.
         22    1    1    2    0    0 -0.34240174758E+00 -0.86266506534E-01  0.29028277004E+01  0.29242246023E+01  0.00000000000E+00 0. -1.
</event>
<event>
 5    1  0.1537976E+002  0.1599639E+01  0.7818608E-02  0.3353755E+00
         11   -1    0    0    0    0  0.00000000000E+00  0.00000000000E+00  0.39999999674E+01  0.40000000000E+01  0.51100000000E-03 0. -1.
    9000002   -1    0    0    0    0 -0.00000000000E+00 -0.00000000000E+00  0.00000000000E+00  0.93800000000E+00  0.93800000000E+00 0.  1.
         11    1    1    2    0    0 -0.81121614917E-02  0.28363817979E-01  0.42160783187E+00  0.42263901660E+00  0.51100000000E-03 0. -1.
    9000002    1    1    2    0    0  0.44766664753E-01 -0.29458545693E+00  0.59247980641E-01  0.98597107915E+00  0.93800000000E+00 0.  1.
         22    1    1    2    0    0 -0.36654503261E-01  0.26622163895E+00  0.35191441548E+01  0.35293899043E+01  0.00000000000E+00 0. -1.
</event>
<event>
 5    1  0.1537976E+002  0.1599674E+01  0.7818608E-02  0.3353717E+00
         11   -1    0    0    0    0  0.00000000000E+00  0.00000000000E+00  0.39999999674E+01  0.40000000000E+01  0.51100000000E-03 0.  1.
    9000002   -1    0    0    0    0 -0.00000000000E+00 -0.00000000000E+00  0.00000000000E+00  0.93800000000E+00  0.93800000000E+00 0. -1.
         11    1    1    2    0    0  0.69916888538E-01  0.53943215145E-01  0.11527221980E+01  0.11560998956E+01  0.51100000000E-03 0.  1.
    9000002    1    1    2    0    0 -0.23626737505E+00 -0.17848456556E+00  0.58473111325E-01  0.98536395175E+00  0.93800000000E+00 0. -1.
         22    1    1    2    0    0  0.16635048651E+00  0.12454135042E+00  0.27888046580E+01  0.27965361526E+01  0.00000000000E+00 0. -1.
</event>
<event>
 5    1  0.1537976E+002  0.1599675E+01  0.7818608E-02  0.3353716E+00
         11   -1    0    0    0    0  0.00000000000E+00  0.00000000000E+00  0.39999999674E+01  0.40000000000E+01  0.51100000000E-03 0. -1.
    9000002   -1    0    0    0    0 -0.00000000000E+00 -0.00000000000E+00  0.00000000000E+00  0.93800000000E+00  0.93800000000E+00 0. -1.
         11    1    1    2    0    0 -0.99014224648E-01 -0.58676107106E-02  0.10485790566E+01  0.10532599606E+01  0.51100000000E-03 0. -1.
    9000002    1    1    2    0    0  0.37220149793E+00  0.18248495743E-01  0.93354379667E-01  0.10136202459E+01  0.93800000000E+00 0. -1.
         22    1    1    2    0    0 -0.27318727328E+00 -0.12380885032E-01  0.28580665311E+01  0.28711197936E+01  0.00000000000E+00 0. -1.
</event>
<event>
 5    1  0.1537976E+002  0.1549272E+01  0.7818608E-02  0.3410331E+00
         11   -1    0    0    0    0  0.00000000000E+00  0.00000000000E+00  0.39999999674E+01  0.40000000000E+01  0.51100000000E-03 0.  1.
    9000002   -1    0    0    0    0 -0.00000000000E+00 -0.00000000000E+00  0.00000000000E+00  0.93800000000E+00  0.93800000000E+00 0. -1.
         11    1    1    2    0    0  0.17498569727E+00  0.10266704073E+00  0.68583638030E+00  0.71521487482E+00  0.51100000000E-03 0.  1.
    9000002    1    1    2    0    0 -0.73429449710E-01  0.13950314340E+00  0.54664850202E-01  0.95272517388E+00  0.93800000000E+00 0. -1.
         22    1    1    2    0    0 -0.10155624756E+00 -0.24217018412E+00  0.32594987369E+01  0.32700599513E+01  0.00000000000E+00 0.  1.
</event>
<event>
 5    1  0.1537976E+002  0.1599539E+01  0.7818608E-02  0.3353864E+00
         11   -1    0    0    0    0  0.00000000000E+00  0.00000000000E+00  0.39999999674E+01  0.40000000000E+01  0.51100000000E-03 0. -1.
    9000002   -1    0    0    0    0 -0.00000000000E+00 -0.00000000000E+00  0.00000000000E+00  0.93800000000E+00  0.93800000000E+00 0. -1.
         11    1    1    2    0    0  0.95167288595E-01 -0.37281122265E-01  0.10137849056E+01  0.10189243303E+01  0.51100000000E-03 0. -1.
    9000002    1    1    2    0    0 -0.32532463305E+00  0.12184613795E+00  0.81006671842E-01  0.10035380805E+01  0.93800000000E+00 0. -1.
         22    1    1    2    0    0  0.23015734446E+00 -0.84565015680E-01  0.29052083899E+01  0.29155375891E+01  0.00000000000E+00 0. -1.
</event>
<event>
 5    1  0.1537976E+002  0.1599498E+01  0.7818608E-02  0.3353908E+00
         11   -1    0    0    0    0  0.00000000000E+00  0.00000000000E+00  0.39999999674E+01  0.40000000000E+01  0.51100000000E-03 0.  1.
    9000002   -1    0    0    0    0 -0.00000000000E+00 -0.00000000000E+00  0.00000000000E+00  0.93800000000E+00  0.93800000000E+00 0.  1.
         11    1    1    2    0    0  0.41046228900E-01  0.27946612178E+00  0.17943850882E+01  0.18164812721E+01  0.51100000000E-03 0.  1.
    9000002    1    1    2    0    0 -0.63155718388E-01 -0.60750915723E+00  0.26106860675E+00  0.11493723671E+01  0.93800000000E+00 0.  1.
         22    1    1    2    0    0  0.22109489488E-01  0.32804303545E+00  0.19445462724E+01  0.19721463608E+01  0.00000000000E+00 0.  1.
</event>
<event>
 5    1  0.1537976E+002  0.1599664E+01  0.7818608E-02  0.3353728E+00
         11   -1    0    0    0    0  0.00000000000E+00  0.00000000000E+00  0.39999999674E+01  0.40000000000E+01  0.51100000000E-03 0.  1.
    9000002   -1    0    0    0    0 -0.00000000000E+00 -0.00000000000E+00  0.00000000000E+00  0.93800000000E+00  0.93800000000E+00 0. -1.
         11    1    1    2    0    0  0.99622572562E-01 -0.15195073454E+00  0.13028761621E+01  0.13154847919E+01  0.51100000000E-03 0.  1.
    9000002    1    1    2    0    0 -0.29335013343E+00  0.45457625422E+00  0.20183482635E+00  0.11014877071E+01  0.93800000000E+00 0. -1.
         22    1    1    2    0    0  0.19372756087E+00 -0.30262551968E+00  0.24952889789E+01  0.25210275010E+01  0.00000000000E+00 0.  1.
</event>
<event>
 5    1  0.1537976E+002  0.1599593E+01  0.7818608E-02  0.3353806E+00
         11   -1    0    0    0    0  0.00000000000E+00  0.00000000000E+00  0.39999999674E+01  0.40000000000E+01  0.51100000000E-03 0.  1.
    9000002   -1    0    0    0    0 -0.00000000000E+00 -0.00000000000E+00  0.00000000000E+00  0.93800000000E+00  0.93800000000E+00 0. -1.
         11    1    1    2    0    0  0.16873534976E+00 -0.78957350585E-03  0.14766353390E+01  0.14862450764E+01  0.51100000000E-03 0.  1.
    9000002    1    1    2    0    0 -0.41620550613E+00  0.91375941092E-02  0.11722318844E+00  0.10329064792E+01  0.93800000000E+00 0. -1.
         22    1    1    2    0    0  0.24747015637E+00 -0.83480206034E-02  0.24061414399E+01  0.24188484443E+01  0.00000000000E+00 0.  1.
</event>
<event>
 5    1  0.1537976E+002  0.1537370E+01  0.7818608E-02  0.3424277E+00
         11   -1    0    0    0    0  0.00000000000E+00  0.00000000000E+00  0.39999999674E+01  0.40000000000E+01  0.51100000000E-03 0.  1.
    9000002   -1    0    0    0    0 -0.00000000000E+00 -0.00000000000E+00  0.00000000000E+00  0.93800000000E+00  0.93800000000E+00 0.  1.
         11    1    1    2    0    0  0.25210131795E+00 -0.27717363860E+00  0.25839775623E+01  0.26109999242E+01  0.51100000000E-03 0.  1.
    9000002    1    1    2    0    0 -0.43721890219E+00 -0.14877525383E-02  0.18496326049E+00  0.10512934840E+01  0.93800000000E+00 0.  1.
         22    1    1    2    0    0  0.18511758424E+00  0.27866139114E+00  0.12310591445E+01  0.12757065918E+01  0.00000000000E+00 0.  1.
</event>
<event>
 5    1  0.1537976E+002  0.1563766E+01  0.7818608E-02  0.3393654E+00
         11   -1    0    0    0    0  0.00000000000E+00  0.00000000000E+00  0.39999999674E+01  0.40000000000E+01  0.51100000000E-03 0. -1.
    9000002   -1    0    0    0    0 -0.00000000000E+00 -0.00000000000E+00  0.00000000000E+00  0.93800000000E+00  0.93800000000E+00 0. -1.
         11    1    1    2    0    0  0.14606489685E-01 -0.97664984096E-01  0.14081265820E+01  0.14115851128E+01  0.51100000000E-03 0. -1.
    9000002    1    1    2    0    0  0.24953186079E+00 -0.26229124674E+00  0.11772745536E+00  0.10123075627E+01  0.93800000000E+00 0. -1.
         22    1    1    2    0    0 -0.26413835048E+00  0.35995623083E+00  0.24741459300E+01  0.25141073245E+01  0.00000000000E+00 0. -1.
</event>
<event>
 5    1  0.1537976E+002  0.1599354E+01  0.7818608E-02  0.3354064E+00
         11   -1    0    0    0    0  0.00000000000E+00  0.00000000000E+00  0.39999999674E+01  0.40000000000E+01  0.51100000000E-03 0. -1.
    9000002   -1    0    0    0    0 -0.00000000000E+00 -0.00000000000E+00  0.00000000000E+00  0.93800000000E+00  0.93800000000E+00 0. -1.
         11    1    1    2    0    0  0.28622292922E-01  0.41656730500E-01  0.85503558914E+00  0.85652824744E+00  0.51100000000E-03 0. -1.
    9000002    1    1    2    0    0 -0.21384285876E+00 -0.19976352651E+00  0.57340503200E-01  0.98425919761E+00  0.93800000000E+00 0. -1.
         22    1    1    2    0    0  0.18522056584E+00  0.15810679602E+00  0.30876238750E+01  0.30972125550E+01  0.00000000000E+00 0. -1.
</event>
<event>
 5    1  0.1537976E+002  0.1582164E+01  0.7818608E-02  0.3372952E+00
         11   -1    0    0    0    0  0.00000000000E+00  0.00000000000E+00  0.39999999674E+01  0.40000000000E+01  0.51100000000E-03 0.  1.
    9000002   -1    0    0    0    0 -0.00000000000E+00 -0.00000000000E+00  0.00000000000E+00  0.93800000000E+00  0.93800000000E+00 0.  1.
         11    1    1    2    0    0 -0.26649351640E+00  0.31038122192E-01  0.23337761001E+01  0.23491473572E+01  0.51100000000E-03 0.  1.
    9000002    1    1    2    0    0  0.31416766280E+00 -0.27613599924E+00  0.13320792103E+00  0.10356354381E+01  0.93800000000E+00 0.  1.
         22    1    1    2    0    0 -0.47674146395E-01  0.24509787705E+00  0.15330159462E+01  0.15532172047E+01  0.00000000000E+00 0.  1.
</event>
<event>
 5    1  0.1537976E+002  0.1565538E+01  0.7818608E-02  0.3391638E+00
         11   -1    0    0    0    0  0.00000000000E+00  0.00000000000E+00  0.39999999674E+01  0.40000000000E+01  0.51100000000E-03 0.  1.
    9000002   -1    0    0    0    0 -0.00000000000E+00 -0.00000000000E+00  0.00000000000E+00  0.93800000000E+00  0.93800000000E+00 0.  1.
         11    1    1    2    0    0 -0.15356707455E-01 -0.19208792171E+00  0.29351945938E+01  0.29415134137E+01  0.51100000000E-03 0.  1.
    9000002    1    1    2    0    0  0.15796593740E+00  0.34527463155E-01  0.42989109750E-01  0.95280504126E+00  0.93800000000E+00 0.  1.
         22    1    1    2    0    0 -0.14260922994E+00  0.15756045855E+00  0.10218162638E+01  0.10436815451E+01  0.00000000000E+00 0.  1.
</event>
<event>
 5    1  0.1537976E+002  0.1599676E+01  0.7818608E-02  0.3353716E+00
         11   -1    0    0    0    0  0.00000000000E+00  0.00000000000E+00  0.39999999674E+01  0.40000000000E+01  0.51100000000E-03 0. -1.
    9000002   -1    0    0    0    0 -0.00000000000E+00 -0.00000000000E+00  0.00000000000E+00  0.93800000000E+00  0.93800000000E+00 0. -1.
         11    1    1    2    0    0 -0.82552646540E-01  0.10078717572E-01  0.42748177192E+00  0.43549678121E+00  0.51100000000E-03 0. -1.
    9000002    1    1    2    0    0  0.70328458387E+00 -0.92748304256E-01  0.36055188986E+00  0.12300622420E+01  0.93800000000E+00 0. -1.
         22    1    1    2    0    0 -0.62073193733E+00  0.82669586684E-01  0.32119663056E+01  0.32724409768E+01  0.00000000000E+00 0. -1.
</event>
<event>
 5    1  0.1537976E+002  0.1599676E+01  0.7818608E-02  0.3353715E+00
         11   -1    0    0    0    0  0.00000000000E+00  0.00000000000E+00  0.39999999674E+01  0.40000000000E+01  0.51100000000E-03 0.  1.
    9000002   -1    0    0    0    0 -0.00000000000E+00 -0.00000000000E+00  0.00000000000E+00  0.93800000000E+00  0.93800000000E+00 0. -1.
         11    1    1    2    0    0 -0.16979731878E-01 -0.16230523778E-01  0.37362567356E+00  0.37436365510E+00  0.51100000000E-03 0.  1.
    9000002    1    1    2    0    0  0.17899353516E+00  0.16479117687E+00  0.39303653850E-01  0.96983689083E+00  0.93800000000E+00 0. -1.
         22    1    1    2    0    0 -0.16201380328E+00 -0.14856065309E+00  0.35870706399E+01  0.35937994541E+01  0.00000000000E+00 0.  1.
</event>
<event>
 5    1  0.1537976E+002  0.1599672E+01  0.7818608E-02  0.3353719E+00
         11   -1    0    0    0    0  0.00000000000E+00  0.00000000000E+00  0.39999999674E+01  0.40000000000E+01  0.51100000000E-03 0. -1.
    9000002   -1    0    0    0    0 -0.00000000000E+00 -0.00000000000E+00  0.00000000000E+00  0.93800000000E+00  0.93800000000E+00 0.  1.
         11    1    1    2    0    0 -0.32055649847E-01 -0.25481073167E-01  0.56098364015E+00  0.56247644876E+00  0.51100000000E-03 0. -1.
    9000002    1    1    2    0    0  0.23677443949E+00  0.17434264344E+00  0.57648772047E-01  0.98469532010E+00  0.93800000000E+00 0.  1.
         22    1    1    2    0    0 -0.20471878964E+00 -0.14886157028E+00  0.33813675552E+01  0.33908282311E+01  0.00000000000E+00 0.  1.
</event>
<event>
 5    1  0.1537976E+002  0.1598912E+01  0.7818608E-02  0.3354545E+00
         11   -1    0    0    0    0  0.00000000000E+00  0.00000000000E+00  0.39999999674E+01  0.40000000000E+01  0.51100000000E-03 0.  1.
    9000002   -1    0    0    0    0 -0.00000000000E+00 -0.00000000000E+00  0.00000000000E+00  0.93800000000E+00  0.93800000000E+00 0. -1.
         11    1    1    2    0    0  0.47897317602E-01  0.12723460067E-01  0.54833998536E+00  0.55057519027E+00  0.51100000000E-03 0.  1.
    9000002    1    1    2    0    0 -0.34127686853E+00  0.74085853633E-01  0.82383632409E-01  0.10042856554E+01  0.93800000000E+00 0. -1.
         22    1    1    2    0    0  0.29337955093E+00 -0.86809313700E-01  0.33692763496E+01  0.33831391544E+01  0.00000000000E+00 0.  1.
</event>
<event>
 5    1  0.1537976E+002  0.1599662E+01  0.7818608E-02  0.3353730E+00
         11   -1    0    0    0    0  0.00000000000E+00  0.00000000000E+00  0.39999999674E+01  0.40000000000E+01  0.51100000000E-03 0. -1.
    9000002   -1    0    0    0    0 -0.00000000000E+00 -0.00000000000E+00  0.00000000000E+00  0.93800000000E+00  0.93800000000E+00 0.  1.
         11    1    1    2    0    0 -0.77852529023E-01  0.27462451843E-01  0.11049762242E+01  0.11080559191E+01  0.51100000000E-03 0. -1.
    9000002    1    1    2    0    0  0.28817134725E+00 -0.10792816659E+00  0.63227226466E-01  0.98920821705E+00  0.93800000000E+00 0.  1.
         22    1    1    2    0    0 -0.21031881823E+00  0.80465714750E-01  0.28317965167E+01  0.28407358639E+01  0.00000000000E+00 0. -1.
</event>
<event>
 5    1  0.1537976E+002  0.1599366E+01  0.7818608E-02  0.3354052E+00
         11   -1    0    0    0    0  0.00000000000E+00  0.00000000000E+00  0.39999999674E+01  0.40000000000E+01  0.51100000000E-03 0. -1.
    9000002   -1    0    0    0    0 -0.00000000000E+00 -0.00000000000E+00  0.00000000000E+00  0.93800000000E+00  0.93800000000E+00 0.  1.
         11    1    1    2    0    0 -0.15822134249E+00 -0.70604607832E-01  0.15260372717E+01  0.15358414696E+01  0.51100000000E-03 0. -1.
    9000002    1    1    2    0    0  0.35746383205E+00  0.15475241695E+00  0.10246560838E+00  0.10208192311E+01  0.93800000000E+00 0.  1.
         22    1    1    2    0    0 -0.19924248957E+00 -0.84147809117E-01  0.23714970873E+01  0.23813392993E+01  0.00000000000E+00 0.  1.
</event>
<event>
 5    1  0.1537976E+002  0.1597592E+01  0.7818608E-02  0.3355982E+00
         11   -1    0    0    0    0  0.00000000000E+00  0.00000000000E+00  0.39999999674E+01  0.40000000000E+01  0.51100000000E-03 0. -1.
    9000002   -1    0    0    0    0 -0.00000000000E+00 -0.00000000000E+00  0.00000000000E+00  0.93800000000E+00  0.93800000000E+00 0.  1.
         11    1    1    2    0    0  0.29479544287E-01  0.20344964986E-01  0.33085512802E+00  0.33278872876E+00  0.51100000000E-03 0. -1.
    9000002    1    1    2    0    0  0.10368341299E-01 -0.21968024120E+00  0.33636321222E-01  0.96402402096E+00  0.93800000000E+00 0.  1.
         22    1    1    2    0    0 -0.39847885586E-01  0.19933527621E+00  0.36355085181E+01  0.36411872503E+01  0.00000000000E+00 0. -1.
</event>
<event>
 5    1  0.1537976E+002  0.1599667E+01  0.7818608E-02  0.3353725E+00
         11   -1    0    0    0    0  0.00000000000E+00  0.00000000000E+00  0.39999999674E+01  0.40000000000E+01  0.51100000000E-03 0.  1.
    9000002   -1    0    0    0    0 -0.00000000000E+00 -0.00000000000E+00  0.00000000000E+00  0.93800000000E+00  0.93800000000E+00 0.  1.
         11    1    1    2    0    0  0.77465677539E-01  0.56076000085E-01  0.11060791875E+01  0.11102057824E+01  0.51100000000E-03 0.  1.
    9000002    1    1    2    0    0 -0.28056642737E+00 -0.20937060800E+00  0.82182508847E-01  0.10045653470E+01  0.93800000000E+00 0.  1.
         22    1    1    2    0    0  0.20310074983E+00  0.15329460792E+00  0.28117382710E+01  0.28232288706E+01  0.00000000000E+00 0.  1.
</event>
<event>
 5    1  0.1537976E+002  0.1599666E+01  0.7818608E-02  0.3353726E+00
         11   -1    0    0    0    0  0.00000000000E+00  0.00000000000E+00  0.39999999674E+01  0.40000000000E+01  0.51100000000E-03 0.  1.
    9000002   -1    0    0    0    0 -0.00000000000E+00 -0.00000000000E+00  0.00000000000E+00  0.93800000000E+00  0.93800000000E+00 0.  1.
         11    1    1    2    0    0  0.77163566624E-01 -0.37502446403E-01  0.66525417924E+00  0.67076376886E+00  0.51100000000E-03 0.  1.
    9000002    1    1    2    0    0 -0.45461403705E+00  0.20181355938E+00  0.16929728275E+00  0.10751317154E+01  0.93800000000E+00 0.  1.
         22    1    1    2    0    0  0.37745047043E+00 -0.16431111298E+00  0.31654485054E+01  0.31921045158E+01  0.00000000000E+00 0.  1.
</event>
<event>
 5    1  0.1537976E+002  0.1585930E+01  0.7818608E-02  0.3368778E+00
         11   -1    0    0    0    0  0.00000000000E+00  0.00000000000E+00  0.39999999674E+01  0.40000000000E+01  0.51100000000E-03 0.  1.
    9000002   -1    0    0    0    0 -0.00000000000E+00 -0.00000000000E+00  0.00000000000E+00  0.93800000000E+00  0.93800000000E+00 0.  1.
         11    1    1    2    0    0 -0.33287959689E+00 -0.15554612340E+00  0.26625644065E+01  0.26877970352E+01  0.51100000000E-03 0.  1.
    9000002    1    1    2    0    0  0.38668119026E+00  0.38295575887E+00  0.21736585409E+00  0.11060150861E+01  0.93800000000E+00 0.  1.
         22    1    1    2    0    0 -0.53801593368E-01 -0.22740963546E+00  0.11200697067E+01  0.11441878787E+01  0.00000000000E+00 0.  1.
</event>
<event>
 5    1  0.1537976E+002  0.1476656E+01  0.7818608E-02  0.3499175E+00
         11   -1    0    0    0    0  0.00000000000E+00  0.00000000000E+00  0.39999999674E+01  0.40000000000E+01  0.51100000000E-03 0. -1.
    9000002   -1    0    0    0    0 -0.00000000000E+00 -0.00000000000E+00  0.00000000000E+00  0.93800000000E+00  0.93800000000E+00 0.  1.
         11    1    1    2    0    0 -0.11846586202E+00 -0.36051754099E+00  0.31608022826E+01  0.31835009641E+01  0.51100000000E-03 0. -1.
    9000002    1    1    2    0    0 -0.16360521094E-01  0.64900885280E-01  0.98323873828E-01  0.94551117166E+00  0.93800000000E+00 0.  1.
         22    1    1    2    0    0  0.13482638311E+00  0.29561665571E+00  0.74087381094E+00  0.80898786422E+00  0.00000000000E+00 0. -1.
</event>
<event>
 5    1  0.1537976E+002  0.1599671E+01  0.7818608E-02  0.3353721E+00
         11   -1    0    0    0    0  0.00000000000E+00  0.00000000000E+00  0.39999999674E+01  0.40000000000E+01  0.51100000000E-03 0.  1.
    9000002   -1    0    0    0    0 -0.00000000000E+00 -0.00000000000E+00  0.00000000000E+00  0.93800000000E+00  0.93800000000E+00 0.  1.
         11    1    1    2    0    0  0.44784983521E-01 -0.19942652334E+00  0.16101035967E+01  0.16230251034E+01  0.51100000000E-03 0.  1.
    9000002    1    1    2    0    0 -0.99735152871E-01  0.47480701181E+00  0.16074909285E+00  0.10682102181E+01  0.93800000000E+00 0.  1.
         22    1    1    2    0    0  0.54950169350E-01 -0.27538048847E+00  0.22291472778E+01  0.22467646785E+01  0.00000000000E+00 0.  1.
</event>
<event>
 5    1  0.1537976E+002  0.1582603E+01  0.7818608E-02  0.3372465E+00
         11   -1    0    0    0    0  0.00000000000E+00  0.00000000000E+00  0.39999999674E+01  0.40000000000E+01  0.51100000000E-03 0.  1.
    9000002   -1    0    0    0    0 -0.00000000000E+00 -0.00000000000E+00  0.00000000000E+00  0.93800000000E+00  0.93800000000E+00 0. -1.
         11    1    1    2    0    0 -0.56720148454E-01 -0.16519662870E+00  0.15113687014E+01  0.15214278538E+01  0.51100000000E-03 0.  1.
    9000002    1    1    2    0    0  0.24949042657E+00  0.45237112421E-01  0.55904848721E-01  0.97327345664E+00  0.93800000000E+00 0. -1.
         22    1    1    2    0    0 -0.19277027812E+00  0.11995951628E+00  0.24327264172E+01  0.24432986896E+01  0.00000000000E+00 0.  1.
</event>
<event>
 5    1  0.1537976E+002  0.1599675E+01  0.7818608E-02  0.3353717E+00
         11   -1    0    0    0    0  0.00000000000E+00  0.00000000000E+00  0.39999999674E+01  0.40000000000E+01  0.51100000000E-03 0. -1.
    9000002   -1    0    0    0    0 -0.00000000000E+00 -0.00000000000E+00  0.00000000000E+00  0.93800000000E+00  0.93800000000E+00 0.  1.
         11    1    1    2    0    0 -0.27826595260E-01 -0.28063842674E-01  0.44209329248E+00  0.44385655233E+00  0.51100000000E-03 0. -1.
    9000002    1    1    2    0    0  0.24157250231E+00  0.24059982158E+00  0.77869121549E-01  0.10010759952E+01  0.93800000000E+00 0.  1.
         22    1    1    2    0    0 -0.21374590705E+00 -0.21253597891E+00  0.34800375533E+01  0.34930674525E+01  0.00000000000E+00 0. -1.
</event>
<event>
 5    1  0.1537976E+002  0.1599564E+01  0.7818608E-02  0.3353837E+00
         11   -1    0    0    0    0  0.00000000000E+00  0.00000000000E+00  0.39999999674E+01  0.40000000000E+01  0.51100000000E-03 0.  1.
    9000002   -1    0    0    0    0 -0.00000000000E+00 -0.00000000000E+00  0.00000000000E+00  0.93800000000E+00  0.93800000000E+00 0. -1.
         11    1    1    2    0    0  0.69858966703E-01  0.11709209598E-01  0.91600890120E+00  0.91874367972E+00  0.51100000000E-03 0.  1.
    9000002    1    1    2    0    0 -0.26563920744E+00 -0.80749290189E-01  0.51409237555E-01  0.97957722825E+00  0.93800000000E+00 0. -1.
         22    1    1    2    0    0  0.19578024073E+00  0.69040080591E-01  0.30325818286E+01  0.30396790920E+01  0.00000000000E+00 0.  1.
</event>
<event>
 5    1  0.1537976E+002  0.1599376E+01  0.7818608E-02  0.3354041E+00
         11   -1    0    0    0    0  0.00000000000E+00  0.00000000000E+00  0.39999999674E+01  0.40000000000E+01  0.51100000000E-03 0.  1.
    9000002   -1    0    0    0    0 -0.00000000000E+00 -0.00000000000E+00  0.00000000000E+00  0.93800000000E+00  0.93800000000E+00 0.  1.
         11    1    1    2    0    0  0.51146571908E+00 -0.86750025248E-01  0.24142080559E+01  0.24693164129E+01  0.51100000000E-03 0.  1.
    9000002    1    1    2    0    0 -0.73264447843E+00  0.13021273540E+00  0.40106451062E+00  0.12627034608E+01  0.93800000000E+00 0.  1.
         22    1    1    2    0    0  0.22117875934E+00 -0.43462710155E-01  0.11847274009E+01  0.12059801263E+01  0.00000000000E+00 0.  1.
</event>
<event>
 5    1  0.1537976E+002  0.1596676E+01  0.7818608E-02  0.3356979E+00
         11   -1    0    0    0    0  0.00000000000E+00  0.00000000000E+00  0.39999999674E+01  0.40000000000E+01  0.51100000000E-03 0.  1.
    9000002   -1    0    0    0    0 -0.00000000000E+00 -0.00000000000E+00  0.00000000000E+00  0.93800000000E+00  0.93800000000E+00 0.  1.
         11    1    1    2    0    0 -0.39129798048E+00 -0.40959179273E+00  0.27085137381E+01  0.27671151903E+01  0.51100000000E-03 0.  1.
    9000002    1    1    2    0    0  0.57419061147E+00  0.49276597416E+00  0.41951905172E+00  0.12760695116E+01  0.93800000000E+00 0.  1.
         22    1    1    2    0    0 -0.18289263100E+00 -0.83174181430E-01  0.87196717759E+00  0.89481529810E+00  0.00000000000E+00 0.  1.
</event>
<event>
 5    1  0.1537976E+002  0.1482061E+01  0.7818608E-02  0.3492239E+00
         11   -1    0    0    0    0  0.00000000000E+00  0.00000000000E+00  0.39999999674E+01  0.40000000000E+01  0.51100000000E-03 0. -1.
    9000002   -1    0    0    0    0 -0.00000000000E+00 -0.00000000000E+00  0.00000000000E+00  0.93800000000E+00  0.93800000000E+00 0. -1.
         11    1    1    2    0    0 -0.22393290387E+00  0.12836867341E+00  0.39110503997E+00  0.46860204349E+00  0.51100000000E-03 0. -1.
    9000002    1    1    2    0    0  0.12656258299E-01  0.31505147268E-03  0.90637276647E-01  0.94245392251E+00  0.93800000000E+00 0. -1.
         22    1    1    2    0    0  0.21127664557E+00 -0.12868372488E+00  0.35182576507E+01  0.35269440340E+01  0.00000000000E+00 0. -1.
</event>
<event>
 5    1  0.1537976E+002  0.1599676E+01  0.7818608E-02  0.3353715E+00
         11   -1    0    0    0    0  0.00000000000E+00  0.00000000000E+00  0.39999999674E+01  0.40000000000E+01  0.51100000000E-03 0.  1.
    9000002   -1    0    0    0    0 -0.00000000000E+00 -0.00000000000E+00  0.00000000000E+00  0.93800000000E+00  0.93800000000E+00 0. -1.
         11    1    1    2    0    0 -0.83858681358E-01 -0.15960396838E+00  0.15121820892E+01  0.15228921949E+01  0.51100000000E-03 0.  1.
    9000002    1    1    2    0    0  0.21269227059E+00  0.40961482007E+00  0.14493255959E+00  0.10554012268E+01  0.93800000000E+00 0. -1.
         22    1    1    2    0    0 -0.12883358923E+00 -0.25001085169E+00  0.23428853186E+01  0.23597065783E+01  0.00000000000E+00 0.  1.
</event>
<event>
 5    1  0.1537976E+002  0.1599670E+01  0.7818608E-02  0.3353721E+00
         11   -1    0    0    0    0  0.00000000000E+00  0.00000000000E+00  0.39999999674E+01  0.40000000000E+01  0.51100000000E-03 0. -1.
    9000002   -1    0    0    0    0 -0.00000000000E+00 -0.00000000000E+00  0.00000000000E+00  0.93800000000E+00  0.93800000000E+00 0.  1.
         11    1    1    2    0    0  0.24092372665E+00 -0.52158984041E+00  0.22254536483E+01  0.22984221556E+01  0.51100000000E-03 0. -1.
    9000002    1    1    2    0    0 -0.37031961896E+00  0.79585702452E+00  0.58429444892E+00  0.14113004736E+01  0.93800000000E+00 0.  1.
         22    1    1    2    0    0  0.12939589231E+00 -0.27426718411E+00  0.11902518702E+01  0.12282773708E+01  0.00000000000E+00 0. -1.
</event>
<event>
 5    1  0.1537976E+002  0.1599670E+01  0.7818608E-02  0.3353722E+00
         11   -1    0    0    0    0  0.00000000000E+00  0.00000000000E+00  0.39999999674E+01  0.40000000000E+01  0.51100000000E-03 0. -1.
    9000002   -1    0    0    0    0 -0.00000000000E+00 -0.00000000000E+00  0.00000000000E+00  0.93800000000E+00  0.93800000000E+00 0. -1.
         11    1    1    2    0    0  0.19553644445E+00 -0.12836047332E+00  0.15374139803E+01  0.15551054370E+01  0.51100000000E-03 0. -1.
    9000002    1    1    2    0    0 -0.47937399593E+00  0.30749321746E+00  0.22488813895E+00  0.11201652475E+01  0.93800000000E+00 0. -1.
         22    1    1    2    0    0  0.28383755148E+00 -0.17913274414E+00  0.22376978481E+01  0.22627293155E+01  0.00000000000E+00 0. -1.
</event>
<event>
 5    1  0.1537976E+002  0.1550520E+01  0.7818608E-02  0.3408882E+00
         11   -1    0    0    0    0  0.00000000000E+00  0.00000000000E+00  0.39999999674E+01  0.40000000000E+01  0.51100000000E-03 0.  1.
    9000002   -1    0    0    0    0 -0.00000000000E+00 -0.00000000000E+00  0.00000000000E+00  0.93800000000E+00  0.93800000000E+00 0.  1.
         11    1    1    2    0    0  0.15925188052E-02  0.19001947800E+00  0.15991147259E+01  0.16103658298E+01  0.51100000000E-03 0.  1.
    9000002    1    1    2    0    0  0.96220964410E-01  0.16960920051E+00  0.62886584053E-01  0.96011690816E+00  0.93800000000E+00 0.  1.
         22    1    1    2    0    0 -0.97813483215E-01 -0.35962867852E+00  0.23379986574E+01  0.23675172620E+01  0.00000000000E+00 0.  1.
</event>
<event>
 5    1  0.1537976E+002  0.1566612E+01  0.7818608E-02  0.3390418E+00
         11   -1    0    0    0    0  0.00000000000E+00  0.00000000000E+00  0.39999999674E+01  0.40000000000E+01  0.51100000000E-03 0.  1.
    9000002   -1    0    0    0    0 -0.00000000000E+00 -0.00000000000E+00  0.00000000000E+00  0.93800000000E+00  0.93800000000E+00 0.  1.
         11    1    1    2    0    0  0.41880267603E-01  0.12323172415E+00  0.48128398912E+00  0.49857251625E+00  0.51100000000E-03 0.  1.
    9000002    1    1    2    0    0 -0.74581627067E-01  0.13693576277E+00  0.40911368191E-01  0.95175183859E+00  0.93800000000E+00 0.  1.
         22    1    1    2    0    0  0.32701359464E-01 -0.26016748692E+00  0.34778046100E+01  0.34876756452E+01  0.00000000000E+00 0.  1.
</event>
<event>
 5    1  0.1537976E+002  0.1599495E+01  0.7818608E-02  0.3353911E+00
         11   -1    0    0    0    0  0.00000000000E+00  0.00000000000E+00  0.39999999674E+01  0.40000000000E+01  0.51100000000E-03 0.  1.
    9000002   -1    0    0    0    0 -0.00000000000E+00 -0.00000000000E+00  0.00000000000E+00  0.93800000000E+00  0.93800000000E+00 0. -1.
         11    1    1    2    0    0  0.53358792081E-01  0.23669504639E-01  0.74278594228E+00  0.74507625335E+00  0.51100000000E-03 0.  1.
    9000002    1    1    2    0    0 -0.23046020074E+00 -0.16734097329E+00  0.54179518277E-01  0.98178120051E+00  0.93800000000E+00 0. -1.
         22    1    1    2    0    0  0.17710140866E+00  0.14367146865E+00  0.32030345068E+01  0.32111425461E+01  0.00000000000E+00 0.  1.
</event>
<event>
 5    1  0.1537976E+002  0.1599677E+01  0.7818608E-02  0.3353714E+00
         11   -1    0    0    0    0  0.00000000000E+00  0.00000000000E+00  0.39999999674E+01  0.40000000000E+01  0.51100000000E-03 0.  1.
    9000002   -1    0    0    0    0 -0.00000000000E+00 -0.00000000000E+00  0.00000000000E+00  0.93800000000E+00  0.93800000000E+00 0.  1.
         11    1    1    2    0    0 -0.54523327305E-01 -0.12217221982E+00  0.15423821406E+01  0.15481736896E+01  0.51100000000E-03 0.  1.
    9000002    1    1    2    0    0  0.14023088600E+00  0.31070231873E+00  0.77836768696E-01  0.10010510451E+01  0.93800000000E+00 0.  1.
         22    1    1    2    0    0 -0.85707558690E-01 -0.18853009891E+00  0.23797810581E+01  0.23887752653E+01  0.00000000000E+00 0.  1.
</event>
<event>
 5    1  0.1537976E+002  0.1598929E+01  0.7818608E-02  0.3354527E+00
         11   -1    0    0    0    0  0.00000000000E+00  0.00000000000E+00  0.39999999674E+01  0.40000000000E+01  0.51100000000E-03 0. -1.
    9000002   -1    0    0    0    0 -0.00000000000E+00 -0.00000000000E+00  0.00000000000E+00  0.93800000000E+00  0.93800000000E+00 0. -1.
         11    1    1    2    0    0 -0.15486757082E-02  0.34667456151E-02  0.10761291611E-01  0.11422926059E-01  0.51100000000E-03 0. -1.
    9000002    1    1    2    0    0 -0.95315248686E-01 -0.19614392363E+00  0.32084753939E-01  0.96355117500E+00  0.93800000000E+00 0. -1.
         22    1    1    2    0    0  0.96863924394E-01  0.19267717802E+00  0.39571539218E+01  0.39630258989E+01  0.00000000000E+00 0. -1.
</event>
<event>
 5    1  0.1537976E+002  0.1599433E+01  0.7818608E-02  0.3353979E+00
         11   -1    0    0    0    0  0.00000000000E+00  0.00000000000E+00  0.39999999674E+01  0.40000000000E+01  0.51100000000E-03 0.  1.
    9000002   -1    0    0    0    0 -0.00000000000E+00 -0.00000000000E+00  0.00000000000E+00  0.93800000000E+00  0.93800000000E+00 0.  1.
         11    1    1    2    0    0  0.58606599784E-01 -0.76069208578E-01  0.11518873340E+01  0.11558831902E+01  0.51100000000E-03 0.  1.
    9000002    1    1    2    0    0 -0.22853045633E+00  0.20870497943E+00  0.64148367872E-01  0.98981965580E+00  0.93800000000E+00 0.  1.
         22    1    1    2    0    0  0.16992385655E+00 -0.13263577085E+00  0.27839642655E+01  0.27922971540E+01  0.00000000000E+00 0.  1.
</event>
<event>
 5    1  0.1537976E+002  0.1599245E+01  0.7818608E-02  0.3354183E+00
         11   -1    0    0    0    0  0.00000000000E+00  0.00000000000E+00  0.39999999674E+01  0.40000000000E+01  0.51100000000E-03 0.  1.
    9000002   -1    0    0    0    0 -0.00000000000E+00 -0.00000000000E+00  0.00000000000E+00  0.93800000000E+00  0.93800000000E+00 0.  1.
         11    1    1    2    0    0 -0.22341129830E-02  0.96473067731E-03  0.68644723234E-01  0.68689745341E-01  0.51100000000E-03 0.  1.
    9000002    1    1    2    0    0 -0.19391212190E+00 -0.24641150161E+00  0.66016371021E-01  0.99122283084E+00  0.93800000000E+00 0.  1.
         22    1    1    2    0    0  0.19614623488E+00  0.24544677093E+00  0.38653388731E+01  0.38780874238E+01  0.00000000000E+00 0.  1.
</event>
<event>
 5    1  0.1537976E+002  0.1530694E+01  0.7818608E-02  0.3432201E+00
         11   -1    0    0    0    0  0.00000000000E+00  0.00000000000E+00  0.39999999674E+01  0.40000000000E+01  0.51100000000E-03 0.  1.
    9000002   -1    0    0    0    0 -0.00000000000E+00 -0.00000000000E+00  0.00000000000E+00  0.93800000000E+00  0.93800000000E+00 0.  1.
         11    1    1    2    0    0  0.28505037906E+00 -0.53589670614E-01  0.32512105344E+01  0.32641225117E+01  0.51100000000E-03 0.  1.
    9000002    1    1    2    0    0 -0.17582055974E+00 -0.16909599802E+00  0.94075616205E-01  0.97375589720E+00  0.93800000000E+00 0.  1.
         22    1    1    2    0    0 -0.10922981932E+00  0.22268566863E+00  0.65471381677E+00  0.70012159109E+00  0.00000000000E+00 0.  1.
</event>
<event>
 5    1  0.1537976E+002  0.1599676E+01  0.7818608E-02  0.3353715E+00
         11   -1    0    0    0    0  0.00000000000E+00  0.00000000000E+00  0.39999999674E+01  0.40000000000E+01  0.51100000000E-03 0. -1.
    9000002   -1    0    0    0    0 -0.00000000000E+00 -0.00000000000E+00  0.00000000000E+00  0.93800000000E+00  0.93800000000E+00 0. -1.
         11    1    1    2    0    0  0.37825372464E-01  0.19156464956E-01  0.38516753600E+00  0.38749454301E+00  0.51100000000E-03 0.  1.
    9000002    1    1    2    0    0 -0.38256489277E+00 -0.18731555777E+00  0.12281179790E+00  0.10374824110E+01  0.93800000000E+00 0. -1.
         22    1    1    2    0    0  0.34473952031E+00  0.16815909281E+00  0.34920206335E+01  0.35130230460E+01  0.00000000000E+00 0. -1.
</event>
<event>
 5    1  0.1537976E+002  0.1595103E+01  0.7818608E-02  0.3358696E+00
         11   -1    0    0    0    0  0.00000000000E+00  0.00000000000E+00  0.39999999674E+01  0.40000000000E+01  0.51100000000E-03 0. -1.
    9000002   -1    0    0    0    0 -0.00000000000E+00 -0.00000000000E+00  0.00000000000E+00  0.93800000000E+00  0.93800000000E+00 0.  1.
         11    1    1    2    0    0  0.47780797818E-01 -0.11827664176E-01  0.91587366710E+00  0.91719558083E+00  0.51100000000E-03 0. -1.
    9000002    1    1    2    0    0 -0.99284966196E-01 -0.22546837657E+00  0.43805080124E-01  0.97080192542E+00  0.93800000000E+00 0.  1.
         22    1    1    2    0    0  0.51504168379E-01  0.23729604075E+00  0.30403212201E+01  0.30500024938E+01  0.00000000000E+00 0. -1.
</event>
<event>
 5    1  0.1537976E+002  0.1599658E+01  0.7818608E-02  0.3353735E+00
         11   -1    0    0    0    0  0.00000000000E+00  0.00000000000E+00  0.39999999674E+01  0.40000000000E+01  0.51100000000E-03 0. -1.
    9000002   -1    0    0    0    0 -0.00000000000E+00 -0.00000000000E+00  0.00000000000E+00  0.93800000000E+00  0.93800000000E+00 0. -1.
         11    1    1    2    0    0 -0.81831770523E-02  0.75560322627E-01  0.84880411089E+00  0.85220009770E+00  0.51100000000E-03 0. -1.
    9000002    1    1    2    0    0  0.51574605931E-01 -0.36270969323E+00  0.90177368792E-01  0.10110362107E+01  0.93800000000E+00 0. -1.
         22    1    1    2    0    0 -0.43391428879E-01  0.28714937060E+00  0.30610184877E+01  0.30747636916E+01  0.00000000000E+00 0. -1.
</event>
<event>
 5    1  0.1537976E+002  0.1598902E+01  0.7818608E-02  0.3354556E+00
         11   -1    0    0    0    0  0.00000000000E+00  0.00000000000E+00  0.39999999674E+01  0.40000000000E+01  0.51100000000E-03 0.  1.
    9000002   -1    0    0    0    0 -0.00000000000E+00 -0.00000000000E+00  0.00000000000E+00  0.93800000000E+00  0.93800000000E+00 0.  1.
         11    1    1    2    0    0  0.10352594564E-01 -0.13081071238E-01  0.18615646220E+00  0.18690313046E+00  0.51100000000E-03 0.  1.
    9000002    1    1    2    0    0  0.70861596430E-01  0.20012536522E+00  0.30444941354E-01  0.96220705781E+00  0.93800000000E+00 0.  1.
         22    1    1    2    0    0 -0.81214190994E-01 -0.18704429398E+00  0.37833985638E+01  0.37888898117E+01  0.00000000000E+00 0.  1.
</event>
<event>
 5    1  0.1537976E+002  0.1599672E+01  0.7818608E-02  0.3353720E+00
         11   -1    0    0    0    0  0.00000000000E+00  0.00000000000E+00  0.39999999674E+01  0.40000000000E+01  0.51100000000E-03 0. -1.
    9000002   -1    0    0    0    0 -0.00000000000E+00 -0.00000000000E+00  0.00000000000E+00  0.93800000000E+00  0.93800000000E+00 0.  1.
         11    1    1    2    0    0 -0.71163780317E-01  0.21133570490E+00  0.18586953133E+01  0.18720244637E+01  0.51100000000E-03 0. -1.
    9000002    1    1    2    0    0  0.14389524814E+00 -0.43429577306E+00  0.14232969021E+00  0.10532902742E+01  0.93800000000E+00 0.  1.
         22    1    1    2    0    0 -0.72731467821E-01  0.22296006816E+00  0.19989749638E+01  0.20126852621E+01  0.00000000000E+00 0. -1.
</event>
<event>
 5    1  0.1537976E+002  0.1599666E+01  0.7818608E-02  0.3353726E+00
         11   -1    0    0    0    0  0.00000000000E+00  0.00000000000E+00  0.39999999674E+01  0.40000000000E+01  0.51100000000E-03 0. -1.
    9000002   -1    0    0    0    0 -0.00000000000E+00 -0.00000000000E+00  0.00000000000E+00  0.93800000000E+00  0.93800000000E+00 0.  1.
         11    1    1    2    0    0 -0.60943261366E-03 -0.80359177358E-02  0.10411589560E+00  0.10442857952E+00  0.51100000000E-03 0. -1.
    9000002    1    1    2    0    0  0.56338398862E-01  0.33205704591E+00  0.75960256078E-01  0.99952481581E+00  0.93800000000E+00 0.  1.
         22    1    1    2    0    0 -0.55728966248E-01 -0.32402112817E+00  0.38199238157E+01  0.38340466047E+01  0.00000000000E+00 0. -1.
</event>
<event>
 5    1  0.1537976E+002  0.1599672E+01  0.7818608E-02  0.3353719E+00
         11   -1    0    0    0    0  0.00000000000E+00  0.00000000000E+00  0.39999999674E+01  0.40000000000E+01  0.51100000000E-03 0. -1.
    9000002   -1    0    0    0    0 -0.00000000000E+00 -0.00000000000E+00  0.00000000000E+00  0.93800000000E+00  0.93800000000E+00 0. -1.
         11    1    1    2    0    0  0.55708889787E-01 -0.14874219157E+00  0.15193400730E+01  0.15276197951E+01  0.51100000000E-03 0. -1.
    9000002    1    1    2    0    0 -0.14480453866E+00  0.38664362631E+00  0.11517763850E+00  0.10312960470E+01  0.93800000000E+00 0. -1.
         22    1    1    2    0    0  0.89095648871E-01 -0.23790143474E+00  0.23654822559E+01  0.23790841578E+01  0.00000000000E+00 0. -1.
</event>
<event>
 5    1  0.1537976E+002  0.1596748E+01  0.7818608E-02  0.3356901E+00
         11   -1    0    0    0    0  0.00000000000E+00  0.00000000000E+00  0.39999999674E+01  0.40000000000E+01  0.51100000000E-03 0.  1.
    9000002   -1    0    0    0    0 -0.00000000000E+00 -0.00000000000E+00  0.00000000000E+00  0.93800000000E+00  0.93800000000E+00 0. -1.
         11    1    1    2    0    0  0.55009835133E-01 -0.38150533571E-01  0.17100684727E+01  0.17113783882E+01  0.51100000000E-03 0.  1.
    9000002    1    1    2    0    0 -0.13371855228E+00  0.23719096050E+00  0.51603557838E-01  0.97808339632E+00  0.93800000000E+00 0. -1.
         22    1    1    2    0    0  0.78708717146E-01 -0.19904042693E+00  0.22383279368E+01  0.22485382155E+01  0.00000000000E+00 0.  1.
</event>
<event>
 5    1  0.1537976E+002  0.1599676E+01  0.7818608E-02  0.3353716E+00
         11   -1    0    0    0    0  0.00000000000E+00  0.00000000000E+00  0.39999999674E+01  0.40000000000E+01  0.51100000000E-03 0. -1.
    9000002   -1    0    0    0    0 -0.00000000000E+00 -0.00000000000E+00  0.00000000000E+00  0.93800000000E+00  0.93800000000E+00 0.  1.
         11    1    1    2    0    0 -0.14598031796E-01 -0.18954992005E-01  0.42005909224E+00  0.42074017678E+00  0.51100000000E-03 0.  1.
    9000002    1    1    2    0    0  0.13302967961E+00  0.18467062181E+00  0.34355206001E-01  0.96582835659E+00  0.93800000000E+00 0.  1.
         22    1    1    2    0    0 -0.11843164781E+00 -0.16571562981E+00  0.35455856691E+01  0.35514314666E+01  0.00000000000E+00 0. -1.
</event>
<event>
 5    1  0.1537976E+002  0.1599637E+01  0.7818608E-02  0.3353758E+00
         11   -1    0    0    0    0  0.00000000000E+00  0.00000000000E+00  0.39999999674E+01  0.40000000000E+01  0.51100000000E-03 0.  1.
    9000002   -1    0    0    0    0 -0.00000000000E+00 -0.00000000000E+00  0.00000000000E+00  0.93800000000E+00  0.93800000000E+00 0.  1.
         11    1    1    2    0    0  0.42826681730E+00 -0.40575047856E+00  0.21103067542E+01  0.21912190159E+01  0.51100000000E-03 0.  1.
    9000002    1    1    2    0    0 -0.66964711631E+00  0.64962464328E+00  0.67633361234E+00  0.14858366642E+01  0.93800000000E+00 0.  1.
         22    1    1    2    0    0  0.24138029902E+00 -0.24387416473E+00  0.12133596008E+01  0.12609443199E+01  0.00000000000E+00 0.  1.
</event>
<event>
 5    1  0.1537976E+002  0.1599663E+01  0.7818608E-02  0.3353729E+00
         11   -1    0    0    0    0  0.00000000000E+00  0.00000000000E+00  0.39999999674E+01  0.40000000000E+01  0.51100000000E-03 0.  1.
    9000002   -1    0    0    0    0 -0.00000000000E+00 -0.00000000000E+00  0.00000000000E+00  0.93800000000E+00  0.93800000000E+00 0. -1.
         11    1    1    2    0    0  0.44973966541E-01 -0.21629193403E+00  0.17616456132E+01  0.17754437153E+01  0.51100000000E-03 0.  1.
    9000002    1    1    2    0    0 -0.91850450902E-01  0.47872944030E+00  0.16233864548E+00  0.10694934400E+01  0.93800000000E+00 0. -1.
         22    1    1    2    0    0  0.46876484361E-01 -0.26243750627E+00  0.20760157086E+01  0.20930628447E+01  0.00000000000E+00 0.  1.
</event>
<event>
 5    1  0.1537976E+002  0.1599656E+01  0.7818608E-02  0.3353736E+00
         11   -1    0    0    0    0  0.00000000000E+00  0.00000000000E+00  0.39999999674E+01  0.40000000000E+01  0.51100000000E-03 0.  1.
    9000002   -1    0    0    0    0 -0.00000000000E+00 -0.00000000000E+00  0.00000000000E+00  0.93800000000E+00  0.93800000000E+00 0. -1.
         11    1    1    2    0    0  0.33747138833E-01 -0.21342864599E+00  0.17942802465E+01  0.18072444551E+01  0.51100000000E-03 0.  1.
    9000002    1    1    2    0    0 -0.68560459139E-01  0.44809509499E+00  0.13965167969E+00  0.10511119552E+01  0.93800000000E+00 0. -1.
         22    1    1    2    0    0  0.34813320306E-01 -0.23466644900E+00  0.20660680411E+01  0.20796435897E+01  0.00000000000E+00 0. -1.
</event>
<event>
 5    1  0.1537976E+002  0.1599677E+01  0.7818608E-02  0.3353715E+00
         11   -1    0    0    0    0  0.00000000000E+00  0.00000000000E+00  0.39999999674E+01  0.40000000000E+01  0.51100000000E-03 0.  1.
    9000002   -1    0    0    0    0 -0.00000000000E+00 -0.00000000000E+00  0.00000000000E+00  0.93800000000E+00  0.93800000000E+00 0.  1.
         11    1    1    2    0    0  0.57326866709E-01 -0.94707524032E-01  0.13581268590E+01  0.13626315390E+01  0.51100000000E-03 0.  1.
    9000002    1    1    2    0    0 -0.16551178176E+00  0.27628883255E+00  0.69347707046E-01  0.99417441798E+00  0.93800000000E+00 0.  1.
         22    1    1    2    0    0  0.10818491505E+00 -0.18158130852E+00  0.25725254013E+01  0.25811940430E+01  0.00000000000E+00 0.  1.
</event>
<event>
 5    1  0.1537976E+002  0.1562671E+01  0.7818608E-02  0.3394903E+00
         11   -1    0    0    0    0  0.00000000000E+00  0.00000000000E+00  0.39999999674E+01  0.40000000000E+01  0.51100000000E-03 0.  1.
    9000002   -1    0    0    0    0 -0.00000000000E+00 -0.00000000000E+00  0.00000000000E+00  0.93800000000E+00  0.93800000000E+00 0. -1.
         11    1    1    2    0    0  0.10739265415E+00  0.72946520102E-01  0.34141202050E+00  0.36526265321E+00  0.51100000000E-03 0.  1.
    9000002    1    1    2    0    0  0.11537292623E+00 -0.14980154033E+00  0.51809667367E-01  0.95826909333E+00  0.93800000000E+00 0. -1.
         22    1    1    2    0    0 -0.22276558038E+00  0.76855020227E-01  0.36067782795E+01  0.36144682535E+01  0.00000000000E+00 0.  1.
</event>
<event>
 5    1  0.1537976E+002  0.1556589E+01  0.7818608E-02  0.3401871E+00
         11   -1    0    0    0    0  0.00000000000E+00  0.00000000000E+00  0.39999999674E+01  0.40000000000E+01  0.51100000000E-03 0.  1.
    9000002   -1    0    0    0    0 -0.00000000000E+00 -0.00000000000E+00  0.00000000000E+00  0.93800000000E+00  0.93800000000E+00 0. -1.
         11    1    1    2    0    0  0.29570332352E+00  0.19618416258E+00  0.17675640747E+01  0.18028343519E+01  0.51100000000E-03 0.  1.
    9000002    1    1    2    0    0 -0.10724761461E+00 -0.35433019789E+00  0.12812192032E+00  0.10165191422E+01  0.93800000000E+00 0. -1.
         22    1    1    2    0    0 -0.18845570891E+00  0.15814603530E+00  0.21043139723E+01  0.21186465059E+01  0.00000000000E+00 0.  1.
</event>
<event>
 5    1  0.1537976E+002  0.1591510E+01  0.7818608E-02  0.3362630E+00
         11   -1    0    0    0    0  0.00000000000E+00  0.00000000000E+00  0.39999999674E+01  0.40000000000E+01  0.51100000000E-03 0. -1.
    9000002   -1    0    0    0    0 -0.00000000000E+00 -0.00000000000E+00  0.00000000000E+00  0.93800000000E+00  0.93800000000E+00 0.  1.
         11    1    1    2    0    0  0.40786552707E-01  0.51881643837E-01  0.61265096960E+00  0.61619535825E+00  0.51100000000E-03 0. -1.
    9000002    1    1    2    0    0 -0.12206798672E+00  0.15282495839E+00  0.31455968503E-01  0.95869157670E+00  0.93800000000E+00 0.  1.
         22    1    1    2    0    0  0.81281434015E-01 -0.20470660222E+00  0.33558930293E+01  0.33631130651E+01  0.00000000000E+00 0. -1.
</event>
<event>
 5    1  0.1537976E+002  0.1599657E+01  0.7818608E-02  0.3353736E+00
         11   -1    0    0    0    0  0.00000000000E+00  0.00000000000E+00  0.39999999674E+01  0.40000000000E+01  0.51100000000E-03 0.  1.
    9000002   -1    0    0    0    0 -0.00000000000E+00 -0.00000000000E+00  0.00000000000E+00  0.93800000000E+00  0.93800000000E+00 0.  1.
         11    1    1    2    0    0 -0.16849558661E+00 -0.11133310230E+00  0.17738741006E+01  0.17853334166E+01  0.51100000000E-03 0.  1.
    9000002    1    1    2    0    0  0.37484122671E+00  0.23378489612E+00  0.13240852672E+00  0.10452451104E+01  0.93800000000E+00 0.  1.
         22    1    1    2    0    0 -0.20634564010E+00 -0.12245179382E+00  0.20937173400E+01  0.21074214730E+01  0.00000000000E+00 0.  1.
</event>
<event>
 5    1  0.1537976E+002  0.1599532E+01  0.7818608E-02  0.3353872E+00
         11   -1    0    0    0    0  0.00000000000E+00  0.00000000000E+00  0.39999999674E+01  0.40000000000E+01  0.51100000000E-03 0.  1.
    9000002   -1    0    0    0    0 -0.00000000000E+00 -0.00000000000E+00  0.00000000000E+00  0.93800000000E+00  0.93800000000E+00 0.  1.
         11    1    1    2    0    0 -0.26060951397E-01  0.24771781678E+00  0.19838788970E+01  0.19994546829E+01  0.51100000000E-03 0.  1.
    9000002    1    1    2    0    0  0.77637411084E-01 -0.47267743545E+00  0.15666292610E+00  0.10648186691E+01  0.93800000000E+00 0.  1.
         22    1    1    2    0    0 -0.51576459687E-01  0.22495961867E+00  0.18594581443E+01  0.18737266480E+01  0.00000000000E+00 0.  1.
</event>
<event>
 5    1  0.1537976E+002  0.1599605E+01  0.7818608E-02  0.3353792E+00
         11   -1    0    0    0    0  0.00000000000E+00  0.00000000000E+00  0.39999999674E+01  0.40000000000E+01  0.51100000000E-03 0.  1.
    9000002   -1    0    0    0    0 -0.00000000000E+00 -0.00000000000E+00  0.00000000000E+00  0.93800000000E+00  0.93800000000E+00 0.  1.
         11    1    1    2    0    0 -0.11735105730E+00  0.11940509900E-01  0.90149524986E+00  0.90917973639E+00  0.51100000000E-03 0.  1.
    9000002    1    1    2    0    0  0.47149071465E+00 -0.28505927383E-01  0.15211538326E+00  0.10611781998E+01  0.93800000000E+00 0.  1.
         22    1    1    2    0    0 -0.35413965735E+00  0.16565417483E-01  0.29463893342E+01  0.29676420638E+01  0.00000000000E+00 0.  1.
</event>
<event>
 5    1  0.1537976E+002  0.1599632E+01  0.7818608E-02  0.3353763E+00
         11   -1    0    0    0    0  0.00000000000E+00  0.00000000000E+00  0.39999999674E+01  0.40000000000E+01  0.51100000000E-03 0.  1.
    9000002   -1    0    0    0    0 -0.00000000000E+00 -0.00000000000E+00  0.00000000000E+00  0.93800000000E+00  0.93800000000E+00 0. -1.
         11    1    1    2    0    0  0.23242615744E-02  0.15720455454E-02  0.18157738556E-01  0.18380372943E-01  0.51100000000E-03 0.  1.
    9000002    1    1    2    0    0 -0.33537206546E+00 -0.20313805708E+00  0.10363369397E+00  0.10219214427E+01  0.93800000000E+00 0. -1.
         22    1    1    2    0    0  0.33304780389E+00  0.20156601153E+00  0.38782085348E+01  0.38976981844E+01  0.00000000000E+00 0.  1.
</event>
<event>
 5    1  0.1537976E+002  0.1599650E+01  0.7818608E-02  0.3353744E+00
         11   -1    0    0    0    0  0.00000000000E+00  0.00000000000E+00  0.39999999674E+01  0.40000000000E+01  0.51100000000E-03 0.  1.
    9000002   -1    0    0    0    0 -0.00000000000E+00 -0.00000000000E+00  0.00000000000E+00  0.93800000000E+00  0.93800000000E+00 0. -1.
         11    1    1    2    0    0 -0.19582806006E+00  0.24345138639E+00  0.22210216167E+01  0.22428897631E+01  0.51100000000E-03 0.  1.
    9000002    1    1    2    0    0  0.32631691847E+00 -0.41271853227E+00  0.19038477676E+00  0.10922040475E+01  0.93800000000E+00 0. -1.
         22    1    1    2    0    0 -0.13048885841E+00  0.16926714588E+00  0.15885935739E+01  0.16029061894E+01  0.00000000000E+00 0. -1.
</event>
<event>
 5    1  0.1537976E+002  0.1463735E+01  0.7818608E-02  0.3515982E+00
         11   -1    0    0    0    0  0.00000000000E+00  0.00000000000E+00  0.39999999674E+01  0.40000000000E+01  0.51100000000E-03 0.  1.
    9000002   -1    0    0    0    0 -0.00000000000E+00 -0.00000000000E+00  0.00000000000E+00  0.93800000000E+00  0.93800000000E+00 0.  1.
         11    1    1    2    0    0 -0.41575974375E+00  0.13455710370E+00  0.11921702319E+01  0.12697369419E+01  0.51100000000E-03 0.  1.
    9000002    1    1    2    0    0 -0.10735392584E+00 -0.14716455206E+00  0.15951327538E+00  0.96874700299E+00  0.93800000000E+00 0.  1.
         22    1    1    2    0    0  0.52311366959E+00  0.12607448366E-01  0.26483164600E+01  0.26995160551E+01  0.00000000000E+00 0.  1.
</event>
<event>
 5    1  0.1537976E+002  0.1599677E+01  0.7818608E-02  0.3353714E+00
         11   -1    0    0    0    0  0.00000000000E+00  0.00000000000E+00  0.39999999674E+01  0.40000000000E+01  0.51100000000E-03 0.  1.
    9000002   -1    0    0    0    0 -0.00000000000E+00 -0.00000000000E+00  0.00000000000E+00  0.93800000000E+00  0.93800000000E+00 0.  1.
         11    1    1    2    0    0  0.65874061862E-01  0.17227310352E+00  0.17749125615E+01  0.17844697465E+01  0.51100000000E-03 0.  1.
    9000002    1    1    2    0    0 -0.14378977111E+00 -0.37727403908E+00  0.11000752175E+00  0.10271109257E+01  0.93800000000E+00 0.  1.
         22    1    1    2    0    0  0.77915709244E-01  0.20500093556E+00  0.21150798841E+01  0.21264193278E+01  0.00000000000E+00 0.  1.
</event>
<event>
 5    1  0.1537976E+002  0.1599675E+01  0.7818608E-02  0.3353717E+00
         11   -1    0    0    0    0  0.00000000000E+00  0.00000000000E+00  0.39999999674E+01  0.40000000000E+01  0.51100000000E-03 0.  1.
    9000002   -1    0    0    0    0 -0.00000000000E+00 -0.00000000000E+00  0.00000000000E+00  0.93800000000E+00  0.93800000000E+00 0.  1.
         11    1    1    2    0    0  0.76512354690E-01 -0.31315197780E-01  0.97109275981E+00  0.97460565939E+00  0.51100000000E-03 0.  1.
    9000002    1    1    2    0    0 -0.30880880665E+00  0.12012384411E+00  0.73472253547E-01  0.99751430518E+00  0.93800000000E+00 0.  1.
         22    1    1    2    0    0  0.23229645196E+00 -0.88808646334E-01  0.29554349540E+01  0.29658800354E+01  0.00000000000E+00 0.  1.
</event>
<event>
 5    1  0.1537976E+002  0.1547515E+01  0.7818608E-02  0.3412377E+00
         11   -1    0    0    0    0  0.00000000000E+00  0.00000000000E+00  0.39999999674E+01  0.40000000000E+01  0.51100000000E-03 0.  1.
    9000002   -1    0    0    0    0 -0.00000000000E+00 -0.00000000000E+00  0.00000000000E+00  0.93800000000E+00  0.93800000000E+00 0.  1.
         11    1    1    2    0    0 -0.23945578203E+00 -0.10983247061E+00  0.30260898177E+01  0.30375355289E+01  0.51100000000E-03 0.  1.
    9000002    1    1    2    0    0  0.21582608257E+00 -0.14232034249E+00  0.85571810390E-01  0.97673052196E+00  0.93800000000E+00 0.  1.
         22    1    1    2    0    0  0.23629699455E-01  0.25215281310E+00  0.88833833924E+00  0.92373394915E+00  0.00000000000E+00 0.  1.
</event>
<event>
 5    1  0.1537976E+002  0.1599623E+01  0.7818608E-02  0.3353773E+00
         11   -1    0    0    0    0  0.00000000000E+00  0.00000000000E+00  0.39999999674E+01  0.40000000000E+01  0.51100000000E-03 0.  1.
    9000002   -1    0    0    0    0 -0.00000000000E+00 -0.00000000000E+00  0.00000000000E+00  0.93800000000E+00  0.93800000000E+00 0. -1.
         11    1    1    2    0    0 -0.98344882471E-01  0.31358058864E-01  0.14103866092E+01  0.14141590053E+01  0.51100000000E-03 0.  1.
    9000002    1    1    2    0    0  0.29720062575E+00 -0.93983650347E-01  0.64932022705E-01  0.99056615430E+00  0.93800000000E+00 0. -1.
         22    1    1    2    0    0 -0.19885574328E+00  0.62625591483E-01  0.25246813355E+01  0.25332748404E+01  0.00000000000E+00 0.  1.
</event>
<event>
 5    1  0.1537976E+002  0.1599676E+01  0.7818608E-02  0.3353715E+00
         11   -1    0    0    0    0  0.00000000000E+00  0.00000000000E+00  0.39999999674E+01  0.40000000000E+01  0.51100000000E-03 0. -1.
    9000002   -1    0    0    0    0 -0.00000000000E+00 -0.00000000000E+00  0.00000000000E+00  0.93800000000E+00  0.93800000000E+00 0.  1.
         11    1    1    2    0    0  0.71854540221E-01 -0.45785033937E-01  0.88189845340E+00  0.88600478978E+00  0.51100000000E-03 0. -1.
    9000002    1    1    2    0    0 -0.31925023993E+00  0.19981027429E+00  0.95400592085E-01  0.10152783532E+01  0.93800000000E+00 0.  1.
         22    1    1    2    0    0  0.24739569971E+00 -0.15402524035E+00  0.30227009219E+01  0.30367168571E+01  0.00000000000E+00 0. -1.
</event>
<event>
 5    1  0.1537976E+002  0.1599666E+01  0.7818608E-02  0.3353726E+00
         11   -1    0    0    0    0  0.00000000000E+00  0.00000000000E+00  0.39999999674E+01  0.40000000000E+01  0.51100000000E-03 0. -1.
    9000002   -1    0    0    0    0 -0.00000000000E+00 -0.00000000000E+00  0.00000000000E+00  0.93800000000E+00  0.93800000000E+00 0. -1.
         11    1    1    2    0    0 -0.15472452953E+00  0.79758665299E-01  0.16976741571E+01  0.17065752048E+01  0.51100000000E-03 0. -1.
    9000002    1    1    2    0    0  0.34737812608E+00 -0.18791466743E+00  0.10515529862E+00  0.10231740426E+01  0.93800000000E+00 0. -1.
         22    1    1    2    0    0 -0.19265359655E+00  0.10815600213E+00  0.21971705116E+01  0.22082507526E+01  0.00000000000E+00 0. -1.
</event>
<event>
 5    1  0.1537976E+002  0.1591730E+01  0.7818608E-02  0.3362389E+00
         11   -1    0    0    0    0  0.00000000000E+00  0.00000000000E+00  0.39999999674E+01  0.40000000000E+01  0.51100000000E-03 0. -1.
    9000002   -1    0    0    0    0 -0.00000000000E+00 -0.00000000000E+00  0.00000000000E+00  0.93800000000E+00  0.93800000000E+00 0. -1.
         11    1    1    2    0    0 -0.41603657024E-01  0.34265436505E+00  0.19393324191E+01  0.19698104911E+01  0.51100000000E-03 0. -1.
    9000002    1    1    2    0    0 -0.76007906644E-01 -0.53078639080E+00  0.20551225466E+00  0.10998139303E+01  0.93800000000E+00 0. -1.
         22    1    1    2    0    0  0.11761156367E+00  0.18813202574E+00  0.18551552936E+01  0.18683755785E+01  0.00000000000E+00 0.  1.
</event>
<event>
 5    1  0.1537976E+002  0.1586962E+01  0.7818608E-02  0.3367637E+00
         11   -1    0    0    0    0  0.00000000000E+00  0.00000000000E+00  0.39999999674E+01  0.40000000000E+01  0.51100000000E-03 0. -1.
    9000002   -1    0    0    0    0 -0.00000000000E+00 -0.00000000000E+00  0.00000000000E+00  0.93800000000E+00  0.93800000000E+00 0.  1.
         11    1    1    2    0    0  0.53510533729E-01 -0.17187603842E-01  0.16348730159E+01  0.16358388766E+01  0.51100000000E-03 0. -1.
    9000002    1    1    2    0    0  0.18949735525E+00  0.96948870198E-01  0.39653807341E-01  0.96266544319E+00  0.93800000000E+00 0.  1.
         22    1    1    2    0    0 -0.24300788897E+00 -0.79761266356E-01  0.23254731442E+01  0.23394956802E+01  0.00000000000E+00 0.  1.
</event>
<event>
 5    1  0.1537976E+002  0.1599454E+01  0.7818608E-02  0.3353956E+00
         11   -1    0    0    0    0  0.00000000000E+00  0.00000000000E+00  0.39999999674E+01  0.40000000000E+01  0.51100000000E-03 0.  1.
    9000002   -1    0    0    0    0 -0.00000000000E+00 -0.00000000000E+00  0.00000000000E+00  0.93800000000E+00  0.93800000000E+00 0. -1.
         11    1    1    2    0    0 -0.15263536189E-01  0.12579605658E-01  0.40872550683E+00  0.40920413374E+00  0.51100000000E-03 0.  1.
    9000002    1    1    2    0    0  0.22410932544E+00 -0.19380439537E+00  0.58716374240E-01  0.98543226354E+00  0.93800000000E+00 0. -1.
         22    1    1    2    0    0 -0.20884578925E+00  0.18122478971E+00  0.35325580863E+01  0.35433636027E+01  0.00000000000E+00 0.  1.
</event>
<event>
 5    1  0.1537976E+002  0.1535774E+01  0.7818608E-02  0.3426165E+00
         11   -1    0    0    0    0  0.00000000000E+00  0.00000000000E+00  0.39999999674E+01  0.40000000000E+01  0.51100000000E-03 0. -1.
    9000002   -1    0    0    0    0 -0.00000000000E+00 -0.00000000000E+00  0.00000000000E+00  0.93800000000E+00  0.93800000000E+00 0. -1.
         11    1    1    2    0    0  0.94664503072E-01 -0.42561815514E-01  0.11726344836E+00  0.15660093782E+00  0.51100000000E-03 0. -1.
    9000002    1    1    2    0    0  0.24322954076E+00  0.82436407721E-02  0.89714191080E-01  0.97320152240E+00  0.93800000000E+00 0. -1.
         22    1    1    2    0    0 -0.33789404383E+00  0.34318174742E-01  0.37930223279E+01  0.38081975398E+01  0.00000000000E+00 0. -1.
</event>
<event>
 5    1  0.1537976E+002  0.1523247E+01  0.7818608E-02  0.3441127E+00
         11   -1    0    0    0    0  0.00000000000E+00  0.00000000000E+00  0.39999999674E+01  0.40000000000E+01  0.51100000000E-03 0.  1.
    9000002   -1    0    0    0    0 -0.00000000000E+00 -0.00000000000E+00  0.00000000000E+00  0.93800000000E+00  0.93800000000E+00 0.  1.
         11    1    1    2    0    0  0.25623111400E+00 -0.35608943015E-01  0.35095345971E+01  0.35190560850E+01  0.51100000000E-03 0.  1.
    9000002    1    1    2    0    0 -0.79981359526E-01  0.14862828716E+00  0.77839947364E-01  0.95623764987E+00  0.93800000000E+00 0.  1.
         22    1    1    2    0    0 -0.17624975447E+00 -0.11301934414E+00  0.41262542294E+00  0.46270626510E+00  0.00000000000E+00 0. -1.
</event>
<event>
 5    1  0.1682216E+002  0.1573432E+01  0.7818608E-02  0.3382714E+00
         11   -1    0    0    0    0  0.00000000000E+00  0.00000000000E+00  0.39999999674E+01  0.40000000000E+01  0.51100000000E-03 0.  1.
    9000002   -1    0    0    0    0 -0.00000000000E+00 -0.00000000000E+00  0.00000000000E+00  0.93800000000E+00  0.93800000000E+00 0.  1.
         11    1    1    2    0    0  0.17062400325E+00  0.41330291547E-01  0.19381766699E+01  0.19461114584E+01  0.51100000000E-03 0.  1.
    9000002    1    1    2    0    0  0.49632703027E-01 -0.75668543349E-01  0.24776308495E-01  0.94268075143E+00  0.93800000000E+00 0.  1.
         22    1    1    2    0    0 -0.22025670628E+00  0.34338251802E-01  0.20370469890E+01  0.20492077902E+01  0.00000000000E+00 0.  1.
</event>
<event>
 5    1  0.1537976E+002  0.1599377E+01  0.7818608E-02  0.3354040E+00
         11   -1    0    0    0    0  0.00000000000E+00  0.00000000000E+00  0.39999999674E+01  0.40000000000E+01  0.51100000000E-03 0. -1.
    9000002   -1    0    0    0    0 -0.00000000000E+00 -0.00000000000E+00  0.00000000000E+00  0.93800000000E+00  0.93800000000E+00 0.  1.
         11    1    1    2    0    0  0.40105519091E-01  0.25721123523E-01  0.76687484847E+00  0.76835364461E+00  0.51100000000E-03 0. -1.
    9000002    1    1    2    0    0 -0.27877317566E+00 -0.88174110062E-01  0.57225079306E-01  0.98417877789E+00  0.93800000000E+00 0.  1.
         22    1    1    2    0    0  0.23866765657E+00  0.62452986539E-01  0.31759000396E+01  0.31854675775E+01  0.00000000000E+00 0. -1.
</event>
<event>
 5    1  0.1537976E+002  0.1599551E+01  0.7818608E-02  0.3353851E+00
         11   -1    0    0    0    0  0.00000000000E+00  0.00000000000E+00  0.39999999674E+01  0.40000000000E+01  0.51100000000E-03 0.  1.
    9000002   -1    0    0    0    0 -0.00000000000E+00 -0.00000000000E+00  0.00000000000E+00  0.93800000000E+00  0.93800000000E+00 0.  1.
         11    1    1    2    0    0 -0.15512596444E+00  0.15899162509E+00  0.17908547881E+01  0.18045784923E+01  0.51100000000E-03 0.  1.
    9000002    1    1    2    0    0  0.31847869946E+00 -0.31841968284E+00  0.13786820542E+00  0.10496053632E+01  0.93800000000E+00 0.  1.
         22    1    1    2    0    0 -0.16335273502E+00  0.15942805774E+00  0.20712769739E+01  0.20838161445E+01  0.00000000000E+00 0. -1.
</event>
<event>
 5    1  0.1537976E+002  0.1599649E+01  0.7818608E-02  0.3353745E+00
         11   -1    0    0    0    0  0.00000000000E+00  0.00000000000E+00  0.39999999674E+01  0.40000000000E+01  0.51100000000E-03 0.  1.
    9000002   -1    0    0    0    0 -0.00000000000E+00 -0.00000000000E+00  0.00000000000E+00  0.93800000000E+00  0.93800000000E+00 0.  1.
         11    1    1    2    0    0  0.11734816537E+00 -0.66949192316E+00  0.23117199471E+01  0.24095724521E+01  0.51100000000E-03 0.  1.
    9000002    1    1    2    0    0 -0.15801104844E+00  0.94909101570E+00  0.72968361863E+00  0.15290596557E+01  0.93800000000E+00 0.  1.
         22    1    1    2    0    0  0.40662883072E-01 -0.27959909254E+00  0.95859640166E+00  0.99936789216E+00  0.00000000000E+00 0. -1.
</event>
<event>
 5    1  0.1537976E+002  0.1599677E+01  0.7818608E-02  0.3353714E+00
         11   -1    0    0    0    0  0.00000000000E+00  0.00000000000E+00  0.39999999674E+01  0.40000000000E+01  0.51100000000E-03 0. -1.
    9000002   -1    0    0    0    0 -0.00000000000E+00 -0.00000000000E+00  0.00000000000E+00  0.93800000000E+00  0.93800000000E+00 0. -1.
         11    1    1    2    0    0  0.22624478191E+00  0.32427244468E+00  0.23358968117E+01  0.23691250486E+01  0.51100000000E-03 0. -1.
    9000002    1    1    2    0    0 -0.35919757058E+00 -0.51683791413E+00  0.27819308658E+00  0.11633484936E+01  0.93800000000E+00 0. -1.
         22    1    1    2    0    0  0.13295278867E+00  0.19256546945E+00  0.13859100691E+01  0.14055264578E+01  0.00000000000E+00 0. -1.
</event>
<event>
 5    1  0.1537976E+002  0.1599677E+01  0.7818608E-02  0.3353714E+00
         11   -1    0    0    0    0  0.00000000000E+00  0.00000000000E+00  0.39999999674E+01  0.40000000000E+01  0.51100000000E-03 0.  1.
    9000002   -1    0    0    0    0 -0.00000000000E+00 -0.00000000000E+00  0.00000000000E+00  0.93800000000E+00  0.93800000000E+00 0.  1.
         11    1    1    2    0    0 -0.51142609106E-01 -0.31111344453E-01  0.85342939860E+00  0.85552643544E+00  0.51100000000E-03 0. -1.
    9000002    1    1    2    0    0  0.23747305976E+00  0.14374738494E+00  0.51302780244E-01  0.97955742050E+00  0.93800000000E+00 0.  1.
         22    1    1    2    0    0 -0.18633045066E+00 -0.11263604049E+00  0.30952677885E+01  0.31029161441E+01  0.00000000000E+00 0.  1.
</event>
<event>
 5    1  0.1537976E+002  0.1558418E+01  0.7818608E-02  0.3399769E+00
         11   -1    0    0    0    0  0.00000000000E+00  0.00000000000E+00  0.39999999674E+01  0.40000000000E+01  0.51100000000E-03 0.  1.
    9000002   -1    0    0    0    0 -0.00000000000E+00 -0.00000000000E+00  0.00000000000E+00  0.93800000000E+00  0.93800000000E+00 0.  1.
         11    1    1    2    0    0 -0.17547990120E+00  0.12925321031E-01  0.25224429984E+01  0.25285725620E+01  0.51100000000E-03 0.  1.
    9000002    1    1    2    0    0 -0.94108158498E-01 -0.70051650587E-02  0.36587732119E-01  0.94344479434E+00  0.93800000000E+00 0.  1.
         22    1    1    2    0    0  0.26958805970E+00 -0.59201559720E-02  0.14409692368E+01  0.14659826437E+01  0.00000000000E+00 0.  1.
</event>
<event>
 5    1  0.1537976E+002  0.1599479E+01  0.7818608E-02  0.3353929E+00
         11   -1    0    0    0    0  0.00000000000E+00  0.00000000000E+00  0.39999999674E+01  0.40000000000E+01  0.51100000000E-03 0. -1.
    9000002   -1    0    0    0    0 -0.00000000000E+00 -0.00000000000E+00  0.00000000000E+00  0.93800000000E+00  0.93800000000E+00 0. -1.
         11    1    1    2    0    0 -0.67538459903E-01 -0.44547407356E-01  0.10169169628E+01  0.10201305238E+01  0.51100000000E-03 0. -1.
    9000002    1    1    2    0    0  0.22972900577E+00  0.22012203357E+00  0.67805373085E-01  0.99280949551E+00  0.93800000000E+00 0. -1.
         22    1    1    2    0    0 -0.16219054587E+00 -0.17557462621E+00  0.29152776314E+01  0.29250599807E+01  0.00000000000E+00 0. -1.
</event>
<event>
 5    1  0.1537976E+002  0.1599378E+01  0.7818608E-02  0.3354039E+00
         11   -1    0    0    0    0  0.00000000000E+00  0.00000000000E+00  0.39999999674E+01  0.40000000000E+01  0.51100000000E-03 0.  1.
    9000002   -1    0    0    0    0 -0.00000000000E+00 -0.00000000000E+00  0.00000000000E+00  0.93800000000E+00  0.93800000000E+00 0.  1.
         11    1    1    2    0    0  0.15739863095E+00  0.82400507880E-01  0.17363933140E+01  0.17454587290E+01  0.51100000000E-03 0.  1.
    9000002    1    1    2    0    0 -0.39368007080E+00 -0.20058691078E+00  0.13268836275E+00  0.10453082361E+01  0.93800000000E+00 0.  1.
         22    1    1    2    0    0  0.23628143984E+00  0.11818640290E+00  0.21309182906E+01  0.21472330348E+01  0.00000000000E+00 0.  1.
</event>
<event>
 5    1  0.1537976E+002  0.1593894E+01  0.7818608E-02  0.3360018E+00
         11   -1    0    0    0    0  0.00000000000E+00  0.00000000000E+00  0.39999999674E+01  0.40000000000E+01  0.51100000000E-03 0.  1.
    9000002   -1    0    0    0    0 -0.00000000000E+00 -0.00000000000E+00  0.00000000000E+00  0.93800000000E+00  0.93800000000E+00 0.  1.
         11    1    1    2    0    0 -0.71226398121E-01  0.77279689420E-01  0.17252902528E+01  0.17284883765E+01  0.51100000000E-03 0.  1.
    9000002    1    1    2    0    0 -0.17376503072E-01 -0.27977504221E+00  0.56821589480E-01  0.98063689005E+00  0.93800000000E+00 0.  1.
         22    1    1    2    0    0  0.88602901193E-01  0.20249535279E+00  0.22178881251E+01  0.22288747335E+01  0.00000000000E+00 0. -1.
</event>
<event>
 5    1  0.1537976E+002  0.1509309E+01  0.7818608E-02  0.3458088E+00
         11   -1    0    0    0    0  0.00000000000E+00  0.00000000000E+00  0.39999999674E+01  0.40000000000E+01  0.51100000000E-03 0.  1.
    9000002   -1    0    0    0    0 -0.00000000000E+00 -0.00000000000E+00  0.00000000000E+00  0.93800000000E+00  0.93800000000E+00 0. -1.
         11    1    1    2    0    0 -0.22425867950E+00  0.17851683352E+00  0.16427398985E+01  0.16675595493E+01  0.51100000000E-03 0.  1.
    9000002    1    1    2    0    0 -0.12313092051E+00  0.11443593781E+00  0.88979445563E-01  0.95708837062E+00  0.93800000000E+00 0. -1.
         22    1    1    2    0    0  0.34738960001E+00 -0.29295277133E+00  0.22682806233E+01  0.23133520801E+01  0.00000000000E+00 0.  1.
</event>
<event>
 5    1  0.1537976E+002  0.1599654E+01  0.7818608E-02  0.3353739E+00
         11   -1    0    0    0    0  0.00000000000E+00  0.00000000000E+00  0.39999999674E+01  0.40000000000E+01  0.51100000000E-03 0.  1.
    9000002   -1    0    0    0    0 -0.00000000000E+00 -0.00000000000E+00  0.00000000000E+00  0.93800000000E+00  0.93800000000E+00 0.  1.
         11    1    1    2    0    0  0.59911432303E-02 -0.14646427342E-01  0.32010800000E+00  0.32049930486E+00  0.51100000000E-03 0.  1.
    9000002    1    1    2    0    0 -0.73251524258E-01  0.22020717063E+00  0.35747069378E-01  0.96694303698E+00  0.93800000000E+00 0.  1.
         22    1    1    2    0    0  0.67260381028E-01 -0.20556074329E+00  0.36441448980E+01  0.36505576582E+01  0.00000000000E+00 0.  1.
</event>
<event>
 5    1  0.1537976E+002  0.1599617E+01  0.7818608E-02  0.3353779E+00
         11   -1    0    0    0    0  0.00000000000E+00  0.00000000000E+00  0.39999999674E+01  0.40000000000E+01  0.51100000000E-03 0.  1.
    9000002   -1    0    0    0    0 -0.00000000000E+00 -0.00000000000E+00  0.00000000000E+00  0.93800000000E+00  0.93800000000E+00 0.  1.
         11    1    1    2    0    0  0.28302109718E-01  0.28751502442E-01  0.48871794473E+00  0.49038061638E+00  0.51100000000E-03 0.  1.
    9000002    1    1    2    0    0 -0.20706592933E+00 -0.27577161482E+00  0.79744668812E-01  0.10025614669E+01  0.93800000000E+00 0.  1.
         22    1    1    2    0    0  0.17876381961E+00  0.24702011238E+00  0.34315373538E+01  0.34450579168E+01  0.00000000000E+00 0.  1.
</event>
<event>
 5    1  0.1537976E+002  0.1475525E+01  0.7818608E-02  0.3500633E+00
         11   -1    0    0    0    0  0.00000000000E+00  0.00000000000E+00  0.39999999674E+01  0.40000000000E+01  0.51100000000E-03 0. -1.
    9000002   -1    0    0    0    0 -0.00000000000E+00 -0.00000000000E+00  0.00000000000E+00  0.93800000000E+00  0.93800000000E+00 0. -1.
         11    1    1    2    0    0  0.78550081397E-01 -0.20008344273E+00  0.17110365912E+01  0.17244854237E+01  0.51100000000E-03 0. -1.
    9000002    1    1    2    0    0  0.67447078018E+00  0.13320505450E+00  0.48966528986E+00  0.12618520182E+01  0.93800000000E+00 0. -1.
         22    1    1    2    0    0 -0.75302086157E+00  0.66878388230E-01  0.17992980864E+01  0.19516625580E+01  0.00000000000E+00 0. -1.
</event>
<event>
 5    1  0.1537976E+002  0.1586118E+01  0.7818608E-02  0.3368569E+00
         11   -1    0    0    0    0  0.00000000000E+00  0.00000000000E+00  0.39999999674E+01  0.40000000000E+01  0.51100000000E-03 0.  1.
    9000002   -1    0    0    0    0 -0.00000000000E+00 -0.00000000000E+00  0.00000000000E+00  0.93800000000E+00  0.93800000000E+00 0.  1.
         11    1    1    2    0    0 -0.54508592126E-01  0.44760158425E-01  0.51214387829E+00  0.51697801848E+00  0.51100000000E-03 0.  1.
    9000002    1    1    2    0    0 -0.28205248160E+00 -0.15904317027E+00  0.80936628224E-01  0.99561190741E+00  0.93800000000E+00 0.  1.
         22    1    1    2    0    0  0.33656107373E+00  0.11428301184E+00  0.34069194608E+01  0.34254100741E+01  0.00000000000E+00 0.  1.
</event>
<event>
 5    1  0.1537976E+002  0.1574873E+01  0.7818608E-02  0.3381096E+00
         11   -1    0    0    0    0  0.00000000000E+00  0.00000000000E+00  0.39999999674E+01  0.40000000000E+01  0.51100000000E-03 0.  1.
    9000002   -1    0    0    0    0 -0.00000000000E+00 -0.00000000000E+00  0.00000000000E+00  0.93800000000E+00  0.93800000000E+00 0.  1.
         11    1    1    2    0    0  0.14820346140E+00 -0.10835783830E+00  0.12518755733E+01  0.12652661377E+01  0.51100000000E-03 0.  1.
    9000002    1    1    2    0    0  0.60822631259E-01  0.16775737592E+00  0.39743201552E-01  0.95564923048E+00  0.93800000000E+00 0.  1.
         22    1    1    2    0    0 -0.20902609265E+00 -0.59399537620E-01  0.27083811925E+01  0.27170846318E+01  0.00000000000E+00 0.  1.
</event>
<event>
 5    1  0.1537976E+002  0.1413904E+01  0.7818608E-02  0.3584846E+00
         11   -1    0    0    0    0  0.00000000000E+00  0.00000000000E+00  0.39999999674E+01  0.40000000000E+01  0.51100000000E-03 0. -1.
    9000002   -1    0    0    0    0 -0.00000000000E+00 -0.00000000000E+00  0.00000000000E+00  0.93800000000E+00  0.93800000000E+00 0. -1.
         11    1    1    2    0    0 -0.32912768841E+00 -0.50760942869E+00  0.14698258352E+01  0.15894592207E+01  0.51100000000E-03 0. -1.
    9000002    1    1    2    0    0  0.12056130382E+00  0.21764034639E+00  0.19959533379E+00  0.99074953728E+00  0.93800000000E+00 0. -1.
         22    1    1    2    0    0  0.20856638459E+00  0.28996908230E+00  0.23305787984E+01  0.23577912420E+01  0.00000000000E+00 0.  1.
</event>
<event>
 5    1  0.1537976E+002  0.1599637E+01  0.7818608E-02  0.3353758E+00
         11   -1    0    0    0    0  0.00000000000E+00  0.00000000000E+00  0.39999999674E+01  0.40000000000E+01  0.51100000000E-03 0.  1.
    9000002   -1    0    0    0    0 -0.00000000000E+00 -0.00000000000E+00  0.00000000000E+00  0.93800000000E+00  0.93800000000E+00 0.  1.
         11    1    1    2    0    0 -0.13506781839E+00  0.42633093879E-02  0.10827551240E+01  0.10911555393E+01  0.51100000000E-03 0.  1.
    9000002    1    1    2    0    0  0.47034545545E+00 -0.37524713347E-01  0.15174633238E+00  0.10608976864E+01  0.93800000000E+00 0.  1.
         22    1    1    2    0    0 -0.33527763706E+00  0.33261403959E-01  0.27654985110E+01  0.27859467743E+01  0.00000000000E+00 0.  1.
</event>
<event>
 5    1  0.1537976E+002  0.1599673E+01  0.7818608E-02  0.3353719E+00
         11   -1    0    0    0    0  0.00000000000E+00  0.00000000000E+00  0.39999999674E+01  0.40000000000E+01  0.51100000000E-03 0.  1.
    9000002   -1    0    0    0    0 -0.00000000000E+00 -0.00000000000E+00  0.00000000000E+00  0.93800000000E+00  0.93800000000E+00 0. -1.
         11    1    1    2    0    0  0.23355058971E-01  0.72781617306E-01  0.10621136873E+01  0.10648607273E+01  0.51100000000E-03 0.  1.
    9000002    1    1    2    0    0 -0.93559463983E-01 -0.26576070217E+00  0.52873210314E-01  0.98082704922E+00  0.93800000000E+00 0. -1.
         22    1    1    2    0    0  0.70204405012E-01  0.19297908486E+00  0.28850130697E+01  0.28923122235E+01  0.00000000000E+00 0.  1.
</event>
<event>
 5    1  0.1537976E+002  0.1599675E+01  0.7818608E-02  0.3353716E+00
         11   -1    0    0    0    0  0.00000000000E+00  0.00000000000E+00  0.39999999674E+01  0.40000000000E+01  0.51100000000E-03 0.  1.
    9000002   -1    0    0    0    0 -0.00000000000E+00 -0.00000000000E+00  0.00000000000E+00  0.93800000000E+00  0.93800000000E+00 0. -1.
         11    1    1    2    0    0 -0.64531871600E-01  0.28081509886E-01  0.75155417855E+00  0.75484228688E+00  0.51100000000E-03 0.  1.
    9000002    1    1    2    0    0  0.32965644639E+00 -0.14474148282E+00  0.87013131360E-01  0.10084833933E+01  0.93800000000E+00 0. -1.
         22    1    1    2    0    0 -0.26512457479E+00  0.11665997293E+00  0.31614326575E+01  0.31746743198E+01  0.00000000000E+00 0.  1.
</event>
<event>
 5    1  0.1537976E+002  0.1599229E+01  0.7818608E-02  0.3354201E+00
         11   -1    0    0    0    0  0.00000000000E+00  0.00000000000E+00  0.39999999674E+01  0.40000000000E+01  0.51100000000E-03 0. -1.
    9000002   -1    0    0    0    0 -0.00000000000E+00 -0.00000000000E+00  0.00000000000E+00  0.93800000000E+00  0.93800000000E+00 0.  1.
         11    1    1    2    0    0  0.13115888759E-01 -0.19629928936E-01  0.47340856159E+00  0.47399713918E+00  0.51100000000E-03 0. -1.
    9000002    1    1    2    0    0 -0.15570717965E+00  0.29244971860E+00  0.73812995150E-01  0.99752890783E+00  0.93800000000E+00 0.  1.
         22    1    1    2    0    0  0.14259129089E+00 -0.27281978967E+00  0.34527784106E+01  0.34664739530E+01  0.00000000000E+00 0. -1.
</event>
<event>
 5    1  0.1537976E+002  0.1592461E+01  0.7818608E-02  0.3361587E+00
         11   -1    0    0    0    0  0.00000000000E+00  0.00000000000E+00  0.39999999674E+01  0.40000000000E+01  0.51100000000E-03 0.  1.
    9000002   -1    0    0    0    0 -0.00000000000E+00 -0.00000000000E+00  0.00000000000E+00  0.93800000000E+00  0.93800000000E+00 0.  1.
         11    1    1    2    0    0  0.97627030856E-02 -0.13535542082E-01  0.35248112591E-01  0.39002715716E-01  0.51100000000E-03 0.  1.
    9000002    1    1    2    0    0 -0.69394247053E-02 -0.39669921866E+00  0.11215279839E+00  0.10246173314E+01  0.93800000000E+00 0.  1.
         22    1    1    2    0    0 -0.28232783803E-02  0.41023476074E+00  0.38525990564E+01  0.38743799528E+01  0.00000000000E+00 0.  1.
</event>
<event>
 5    1  0.1537976E+002  0.1599663E+01  0.7818608E-02  0.3353730E+00
         11   -1    0    0    0    0  0.00000000000E+00  0.00000000000E+00  0.39999999674E+01  0.40000000000E+01  0.51100000000E-03 0. -1.
    9000002   -1    0    0    0    0 -0.00000000000E+00 -0.00000000000E+00  0.00000000000E+00  0.93800000000E+00  0.93800000000E+00 0.  1.
         11    1    1    2    0    0 -0.14683124027E-01 -0.13016390262E-01  0.26689005562E+00  0.26761088068E+00  0.51100000000E-03 0. -1.
    9000002    1    1    2    0    0  0.24436786106E+00  0.20966228641E+00  0.69320930090E-01  0.99414451525E+00  0.93800000000E+00 0.  1.
         22    1    1    2    0    0 -0.22968473703E+00 -0.19664589614E+00  0.36637889816E+01  0.36762446041E+01  0.00000000000E+00 0. -1.
</event>
<event>
 5    1  0.1537976E+002  0.1599635E+01  0.7818608E-02  0.3353759E+00
         11   -1    0    0    0    0  0.00000000000E+00  0.00000000000E+00  0.39999999674E+01  0.40000000000E+01  0.51100000000E-03 0.  1.
    9000002   -1    0    0    0    0 -0.00000000000E+00 -0.00000000000E+00  0.00000000000E+00  0.93800000000E+00  0.93800000000E+00 0.  1.
         11    1    1    2    0    0 -0.21950840672E-01  0.19428981941E-02  0.45573591703E+00  0.45626867244E+00  0.51100000000E-03 0.  1.
    9000002    1    1    2    0    0  0.23224653074E+00 -0.49382794032E-02  0.35831826730E-01  0.96700090871E+00  0.93800000000E+00 0.  1.
         22    1    1    2    0    0 -0.21029569007E+00  0.29953812091E-02  0.35084322236E+01  0.35147304188E+01  0.00000000000E+00 0.  1.
</event>
<event>
 5    1  0.1537976E+002  0.1599677E+01  0.7818608E-02  0.3353715E+00
         11   -1    0    0    0    0  0.00000000000E+00  0.00000000000E+00  0.39999999674E+01  0.40000000000E+01  0.51100000000E-03 0.  1.
    9000002   -1    0    0    0    0 -0.00000000000E+00 -0.00000000000E+00  0.00000000000E+00  0.93800000000E+00  0.93800000000E+00 0. -1.
         11    1    1    2    0    0 -0.58081623360E-01  0.83899814540E-01  0.13208598267E+01  0.13247956811E+01  0.51100000000E-03 0.  1.
    9000002    1    1    2    0    0  0.17094649156E+00 -0.24950987972E+00  0.61040383056E-01  0.98744509286E+00  0.93800000000E+00 0. -1.
         22    1    1    2    0    0 -0.11286486820E+00  0.16561006518E+00  0.26180997576E+01  0.26257592260E+01  0.00000000000E+00 0.  1.
</event>
<event>
 5    1  0.1537976E+002  0.1599463E+01  0.7818608E-02  0.3353946E+00
         11   -1    0    0    0    0  0.00000000000E+00  0.00000000000E+00  0.39999999674E+01  0.40000000000E+01  0.51100000000E-03 0.  1.
    9000002   -1    0    0    0    0 -0.00000000000E+00 -0.00000000000E+00  0.00000000000E+00  0.93800000000E+00  0.93800000000E+00 0. -1.
         11    1    1    2    0    0 -0.12488596067E+00  0.57082075043E+00  0.25710334948E+01  0.26365974901E+01  0.51100000000E-03 0.  1.
    9000002    1    1    2    0    0  0.17482246460E+00 -0.76565834903E+00  0.45240451995E+00  0.13043425360E+01  0.93800000000E+00 0. -1.
         22    1    1    2    0    0 -0.49936503931E-01  0.19483759860E+00  0.97656195261E+00  0.99705997390E+00  0.00000000000E+00 0. -1.
</event>
<event>
 5    1  0.1537976E+002  0.1599668E+01  0.7818608E-02  0.3353724E+00
         11   -1    0    0    0    0  0.00000000000E+00  0.00000000000E+00  0.39999999674E+01  0.40000000000E+01  0.51100000000E-03 0.  1.
    9000002   -1    0    0    0    0 -0.00000000000E+00 -0.00000000000E+00  0.00000000000E+00  0.93800000000E+00  0.93800000000E+00 0. -1.
         11    1    1    2    0    0  0.16403774003E+00 -0.13745981042E+00  0.17734838109E+01  0.17863506566E+01  0.51100000000E-03 0.  1.
    9000002    1    1    2    0    0 -0.34919715193E+00  0.29693783844E+00  0.14289004100E+00  0.10537420437E+01  0.93800000000E+00 0. -1.
         22    1    1    2    0    0  0.18515941190E+00 -0.15947802802E+00  0.20836261155E+01  0.20979072997E+01  0.00000000000E+00 0.  1.
</event>
<event>
 5    1  0.1537976E+002  0.1520834E+01  0.7818608E-02  0.3444040E+00
         11   -1    0    0    0    0  0.00000000000E+00  0.00000000000E+00  0.39999999674E+01  0.40000000000E+01  0.51100000000E-03 0. -1.
    9000002   -1    0    0    0    0 -0.00000000000E+00 -0.00000000000E+00  0.00000000000E+00  0.93800000000E+00  0.93800000000E+00 0.  1.
         11    1    1    2    0    0 -0.46583482197E+00 -0.54347051500E+00  0.24166233932E+01  0.25204029772E+01  0.51100000000E-03 0. -1.
    9000002    1    1    2    0    0  0.25517965761E+00  0.62806169307E+00  0.41829520913E+00  0.12306067731E+01  0.93800000000E+00 0.  1.
         22    1    1    2    0    0  0.21065516436E+00 -0.84591178069E-01  0.11650813650E+01  0.11869902497E+01  0.00000000000E+00 0.  1.
</event>
<event>
 5    1  0.1537976E+002  0.1595989E+01  0.7818608E-02  0.3357728E+00
         11   -1    0    0    0    0  0.00000000000E+00  0.00000000000E+00  0.39999999674E+01  0.40000000000E+01  0.51100000000E-03 0. -1.
    9000002   -1    0    0    0    0 -0.00000000000E+00 -0.00000000000E+00  0.00000000000E+00  0.93800000000E+00  0.93800000000E+00 0.  1.
         11    1    1    2    0    0  0.16031510036E-01  0.32514093786E-01  0.80882813893E-01  0.88636709737E-01  0.51100000000E-03 0. -1.
    9000002    1    1    2    0    0 -0.18056627821E+00 -0.62759833808E+00  0.30507457213E+00  0.11829616855E+01  0.93800000000E+00 0.  1.
         22    1    1    2    0    0  0.16453476817E+00  0.59508424429E+00  0.36140425813E+01  0.36664016048E+01  0.00000000000E+00 0. -1.
</event>
<event>
 5    1  0.1537976E+002  0.1599674E+01  0.7818608E-02  0.3353717E+00
         11   -1    0    0    0    0  0.00000000000E+00  0.00000000000E+00  0.39999999674E+01  0.40000000000E+01  0.51100000000E-03 0. -1.
    9000002   -1    0    0    0    0 -0.00000000000E+00 -0.00000000000E+00  0.00000000000E+00  0.93800000000E+00  0.93800000000E+00 0.  1.
         11    1    1    2    0    0  0.15569755249E+00  0.33864697781E-01  0.16064308654E+01  0.16143137650E+01  0.51100000000E-03 0. -1.
    9000002    1    1    2    0    0 -0.37561375279E+00 -0.86509614992E-01  0.10003245239E+00  0.10190289968E+01  0.93800000000E+00 0.  1.
         22    1    1    2    0    0  0.21991620030E+00  0.52644917211E-01  0.22935366496E+01  0.23046572382E+01  0.00000000000E+00 0.  1.
</event>
<event>
 5    1  0.1537976E+002  0.1599676E+01  0.7818608E-02  0.3353715E+00
         11   -1    0    0    0    0  0.00000000000E+00  0.00000000000E+00  0.39999999674E+01  0.40000000000E+01  0.51100000000E-03 0.  1.
    9000002   -1    0    0    0    0 -0.00000000000E+00 -0.00000000000E+00  0.00000000000E+00  0.93800000000E+00  0.93800000000E+00 0.  1.
         11    1    1    2    0    0 -0.40056458483E+00  0.26876631222E+00  0.25769011153E+01  0.26216611025E+01  0.51100000000E-03 0.  1.
    9000002    1    1    2    0    0  0.57014940909E+00 -0.38324763034E+00  0.33612928357E+00  0.12102793025E+01  0.93800000000E+00 0.  1.
         22    1    1    2    0    0 -0.16958482426E+00  0.11448131812E+00  0.10869695685E+01  0.11060595950E+01  0.00000000000E+00 0.  1.
</event>
<event>
 5    1  0.1537976E+002  0.1599603E+01  0.7818608E-02  0.3353794E+00
         11   -1    0    0    0    0  0.00000000000E+00  0.00000000000E+00  0.39999999674E+01  0.40000000000E+01  0.51100000000E-03 0.  1.
    9000002   -1    0    0    0    0 -0.00000000000E+00 -0.00000000000E+00  0.00000000000E+00  0.93800000000E+00  0.93800000000E+00 0. -1.
         11    1    1    2    0    0 -0.33358627909E-02  0.12463299344E-01  0.12161865430E+00  0.12230216681E+00  0.51100000000E-03 0.  1.
    9000002    1    1    2    0    0  0.18811203947E+00 -0.31927727974E+00  0.92353766784E-01  0.10127671692E+01  0.93800000000E+00 0. -1.
         22    1    1    2    0    0 -0.18477617668E+00  0.30681398040E+00  0.37860275463E+01  0.38029306640E+01  0.00000000000E+00 0.  1.
</event>
<event>
 5    1  0.1569665E+002  0.1592062E+01  0.7818608E-02  0.3362024E+00
         11   -1    0    0    0    0  0.00000000000E+00  0.00000000000E+00  0.39999999674E+01  0.40000000000E+01  0.51100000000E-03 0. -1.
    9000002   -1    0    0    0    0 -0.00000000000E+00 -0.00000000000E+00  0.00000000000E+00  0.93800000000E+00  0.93800000000E+00 0. -1.
         11    1    1    2    0    0 -0.30031825591E-01  0.63267844134E-02  0.12023690837E+00  0.12409316663E+00  0.51100000000E-03 0. -1.
    9000002    1    1    2    0    0 -0.16638078799E+00  0.81265904004E-01  0.28378845830E-01  0.95652290754E+00  0.93800000000E+00 0. -1.
         22    1    1    2    0    0  0.19641261358E+00 -0.87592688418E-01  0.38513842132E+01  0.38573839258E+01  0.00000000000E+00 0. -1.
</event>
<event>
 5    1  0.1537976E+002  0.1599677E+01  0.7818608E-02  0.3353714E+00
         11   -1    0    0    0    0  0.00000000000E+00  0.00000000000E+00  0.39999999674E+01  0.40000000000E+01  0.51100000000E-03 0. -1.
    9000002   -1    0    0    0    0 -0.00000000000E+00 -0.00000000000E+00  0.00000000000E+00  0.93800000000E+00  0.93800000000E+00 0.  1.
         11    1    1    2    0    0 -0.97276485330E-02  0.18285763905E+00  0.14544776002E+01  0.14659593767E+01  0.51100000000E-03 0. -1.
    9000002    1    1    2    0    0  0.26530987051E-01 -0.48166433990E+00  0.15883961671E+00  0.10666669834E+01  0.93800000000E+00 0.  1.
         22    1    1    2    0    0 -0.16803338518E-01  0.29880670085E+00  0.23866827504E+01  0.24053736400E+01  0.00000000000E+00 0. -1.
</event>
<event>
 5    1  0.1537976E+002  0.1597735E+01  0.7818608E-02  0.3355826E+00
         11   -1    0    0    0    0  0.00000000000E+00  0.00000000000E+00  0.39999999674E+01  0.40000000000E+01  0.51100000000E-03 0.  1.
    9000002   -1    0    0    0    0 -0.00000000000E+00 -0.00000000000E+00  0.00000000000E+00  0.93800000000E+00  0.93800000000E+00 0.  1.
         11    1    1    2    0    0  0.12700902567E+00 -0.38856442830E+00  0.23504044472E+01  0.23856896139E+01  0.51100000000E-03 0.  1.
    9000002    1    1    2    0    0 -0.12561436578E+00  0.64195281600E+00  0.30429193226E+00  0.11833511596E+01  0.93800000000E+00 0.  1.
         22    1    1    2    0    0 -0.13946598919E-02 -0.25338838770E+00  0.13453035879E+01  0.13689592265E+01  0.00000000000E+00 0. -1.
</event>
<event>
 5    1  0.1537976E+002  0.1564898E+01  0.7818608E-02  0.3392366E+00
         11   -1    0    0    0    0  0.00000000000E+00  0.00000000000E+00  0.39999999674E+01  0.40000000000E+01  0.51100000000E-03 0. -1.
    9000002   -1    0    0    0    0 -0.00000000000E+00 -0.00000000000E+00  0.00000000000E+00  0.93800000000E+00  0.93800000000E+00 0. -1.
         11    1    1    2    0    0  0.14770834735E+00 -0.27544809809E-01  0.30028827240E+01  0.30066395507E+01  0.51100000000E-03 0. -1.
    9000002    1    1    2    0    0  0.39872820471E-01  0.13477952214E+00  0.39098098480E-01  0.94927763205E+00  0.93800000000E+00 0. -1.
         22    1    1    2    0    0 -0.18758116782E+00 -0.10723471233E+00  0.95801914487E+00  0.98208281727E+00  0.00000000000E+00 0.  1.
</event>
<event>
 5    1  0.1537976E+002  0.1576837E+01  0.7818608E-02  0.3378894E+00
         11   -1    0    0    0    0  0.00000000000E+00  0.00000000000E+00  0.39999999674E+01  0.40000000000E+01  0.51100000000E-03 0. -1.
    9000002   -1    0    0    0    0 -0.00000000000E+00 -0.00000000000E+00  0.00000000000E+00  0.93800000000E+00  0.93800000000E+00 0.  1.
         11    1    1    2    0    0  0.49048031639E-01  0.18672690005E-01  0.85335128800E+00  0.85496377737E+00  0.51100000000E-03 0. -1.
    9000002    1    1    2    0    0  0.44428839414E+00  0.64982662351E-01  0.15689752120E+00  0.10517013624E+01  0.93800000000E+00 0.  1.
         22    1    1    2    0    0 -0.49333642578E+00 -0.83655352356E-01  0.29897511582E+01  0.30313348602E+01  0.00000000000E+00 0. -1.
</event>
<event>
 5    1  0.1537976E+002  0.1594023E+01  0.7818608E-02  0.3359877E+00
         11   -1    0    0    0    0  0.00000000000E+00  0.00000000000E+00  0.39999999674E+01  0.40000000000E+01  0.51100000000E-03 0.  1.
    9000002   -1    0    0    0    0 -0.00000000000E+00 -0.00000000000E+00  0.00000000000E+00  0.93800000000E+00  0.93800000000E+00 0.  1.
         11    1    1    2    0    0 -0.15475408127E+00 -0.27805350080E+00  0.17887178753E+01  0.18168033668E+01  0.51100000000E-03 0.  1.
    9000002    1    1    2    0    0  0.17345719972E+00  0.47917198924E+00  0.18321958030E+00  0.10831004616E+01  0.93800000000E+00 0.  1.
         22    1    1    2    0    0 -0.18703118451E-01 -0.20111848844E+00  0.20280625118E+01  0.20380961716E+01  0.00000000000E+00 0.  1.
</event>
<event>
 5    1  0.1537976E+002  0.1599674E+01  0.7818608E-02  0.3353718E+00
         11   -1    0    0    0    0  0.00000000000E+00  0.00000000000E+00  0.39999999674E+01  0.40000000000E+01  0.51100000000E-03 0. -1.
    9000002   -1    0    0    0    0 -0.00000000000E+00 -0.00000000000E+00  0.00000000000E+00  0.93800000000E+00  0.93800000000E+00 0. -1.
         11    1    1    2    0    0  0.40142275123E-02 -0.28074452290E-02  0.80789082713E-01  0.80939068304E-01  0.51100000000E-03 0. -1.
    9000002    1    1    2    0    0 -0.17778096215E+00  0.13343121945E+00  0.32759657209E-01  0.96453468365E+00  0.93800000000E+00 0. -1.
         22    1    1    2    0    0  0.17376673464E+00 -0.13062377422E+00  0.38864512274E+01  0.38925262480E+01  0.00000000000E+00 0. -1.
</event>
<event>
 5    1  0.1537976E+002  0.1599677E+01  0.7818608E-02  0.3353714E+00
         11   -1    0    0    0    0  0.00000000000E+00  0.00000000000E+00  0.39999999674E+01  0.40000000000E+01  0.51100000000E-03 0. -1.
    9000002   -1    0    0    0    0 -0.00000000000E+00 -0.00000000000E+00  0.00000000000E+00  0.93800000000E+00  0.93800000000E+00 0. -1.
         11    1    1    2    0    0  0.73398241754E-01  0.31197288716E+00  0.23015196856E+01  0.23237270727E+01  0.51100000000E-03 0. -1.
    9000002    1    1    2    0    0 -0.12161618941E+00 -0.51622020658E+00  0.19356962059E+00  0.10947999805E+01  0.93800000000E+00 0. -1.
         22    1    1    2    0    0  0.48217947660E-01  0.20424731942E+00  0.15049106612E+01  0.15194729468E+01  0.00000000000E+00 0. -1.
</event>
<event>
 5    1  0.1537976E+002  0.1599656E+01  0.7818608E-02  0.3353737E+00
         11   -1    0    0    0    0  0.00000000000E+00  0.00000000000E+00  0.39999999674E+01  0.40000000000E+01  0.51100000000E-03 0.  1.
    9000002   -1    0    0    0    0 -0.00000000000E+00 -0.00000000000E+00  0.00000000000E+00  0.93800000000E+00  0.93800000000E+00 0. -1.
         11    1    1    2    0    0  0.95052919615E-01 -0.56767638554E-01  0.12669741704E+01  0.12718024343E+01  0.51100000000E-03 0.  1.
    9000002    1    1    2    0    0 -0.30424834490E+00  0.18755035428E+00  0.85740600614E-01  0.10074411354E+01  0.93800000000E+00 0. -1.
         22    1    1    2    0    0  0.20919542529E+00 -0.13078271573E+00  0.26472851964E+01  0.26587564303E+01  0.00000000000E+00 0.  1.
</event>
<event>
 5    1  0.1537976E+002  0.1497047E+01  0.7818608E-02  0.3473291E+00
         11   -1    0    0    0    0  0.00000000000E+00  0.00000000000E+00  0.39999999674E+01  0.40000000000E+01  0.51100000000E-03 0.  1.
    9000002   -1    0    0    0    0 -0.00000000000E+00 -0.00000000000E+00  0.00000000000E+00  0.93800000000E+00  0.93800000000E+00 0.  1.
         11    1    1    2    0    0 -0.25826617877E+00  0.35222457859E-01  0.52097146707E+00  0.58254061769E+00  0.51100000000E-03 0.  1.
    9000002    1    1    2    0    0 -0.51974855766E-01 -0.45646556559E-01  0.81821000991E-01  0.94409939623E+00  0.93800000000E+00 0.  1.
         22    1    1    2    0    0  0.31024103454E+00  0.10424098700E-01  0.33972074993E+01  0.34113599861E+01  0.00000000000E+00 0.  1.
</event>
<event>
 5    1  0.1537976E+002  0.1564651E+01  0.7818608E-02  0.3392646E+00
         11   -1    0    0    0    0  0.00000000000E+00  0.00000000000E+00  0.39999999674E+01  0.40000000000E+01  0.51100000000E-03 0.  1.
    9000002   -1    0    0    0    0 -0.00000000000E+00 -0.00000000000E+00  0.00000000000E+00  0.93800000000E+00  0.93800000000E+00 0.  1.
         11    1    1    2    0    0  0.25542060832E-01 -0.31576681366E+00  0.20711838080E+01  0.20952717497E+01  0.51100000000E-03 0.  1.
    9000002    1    1    2    0    0  0.24897350840E+00  0.29314407356E+00  0.12900602688E+00  0.10219627247E+01  0.93800000000E+00 0.  1.
         22    1    1    2    0    0 -0.27451556923E+00  0.22622740097E-01  0.17998101325E+01  0.18207655255E+01  0.00000000000E+00 0.  1.
</event>
<event>
 5    1  0.1537976E+002  0.1597180E+01  0.7818608E-02  0.3356430E+00
         11   -1    0    0    0    0  0.00000000000E+00  0.00000000000E+00  0.39999999674E+01  0.40000000000E+01  0.51100000000E-03 0.  1.
    9000002   -1    0    0    0    0 -0.00000000000E+00 -0.00000000000E+00  0.00000000000E+00  0.93800000000E+00  0.93800000000E+00 0. -1.
         11    1    1    2    0    0  0.94263892997E-02 -0.90601358296E-01  0.15223935275E+01  0.15251163157E+01  0.51100000000E-03 0.  1.
    9000002    1    1    2    0    0  0.10609764226E+00  0.31042025340E+00  0.73977195286E-01  0.99646077135E+00  0.93800000000E+00 0. -1.
         22    1    1    2    0    0 -0.11552403156E+00 -0.21981889511E+00  0.24036292446E+01  0.24164229129E+01  0.00000000000E+00 0.  1.
</event>
<event>
 5    1  0.1537976E+002  0.1599675E+01  0.7818608E-02  0.3353716E+00
         11   -1    0    0    0    0  0.00000000000E+00  0.00000000000E+00  0.39999999674E+01  0.40000000000E+01  0.51100000000E-03 0. -1.
    9000002   -1    0    0    0    0 -0.00000000000E+00 -0.00000000000E+00  0.00000000000E+00  0.93800000000E+00  0.93800000000E+00 0. -1.
         11    1    1    2    0    0 -0.30630301083E-01 -0.57446765548E-01  0.89086233121E+00  0.89323809844E+00  0.51100000000E-03 0. -1.
    9000002    1    1    2    0    0  0.13062785884E+00  0.25151344231E+00  0.53505400405E-01  0.98134065290E+00  0.93800000000E+00 0. -1.
         22    1    1    2    0    0 -0.99997557759E-01 -0.19406667677E+00  0.30556322357E+01  0.30634212487E+01  0.00000000000E+00 0. -1.
</event>
<event>
 5    1  0.1922197E+002  0.1575052E+01  0.7818608E-02  0.3380895E+00
         11   -1    0    0    0    0  0.00000000000E+00  0.00000000000E+00  0.39999999674E+01  0.40000000000E+01  0.51100000000E-03 0.  1.
    9000002   -1    0    0    0    0 -0.00000000000E+00 -0.00000000000E+00  0.00000000000E+00  0.93800000000E+00  0.93800000000E+00 0.  1.
         11    1    1    2    0    0 -0.16056119953E+00 -0.34897480868E-01  0.13923756914E+01  0.14020371108E+01  0.51100000000E-03 0.  1.
    9000002    1    1    2    0    0 -0.53991808484E-01  0.54723602072E-01  0.22026323191E-01  0.94140264867E+00  0.93800000000E+00 0.  1.
         22    1    1    2    0    0  0.21455300801E+00 -0.19826121205E-01  0.25855979528E+01  0.25945602405E+01  0.00000000000E+00 0.  1.
</event>
<event>
 5    1  0.1537976E+002  0.1599607E+01  0.7818608E-02  0.3353790E+00
         11   -1    0    0    0    0  0.00000000000E+00  0.00000000000E+00  0.39999999674E+01  0.40000000000E+01  0.51100000000E-03 0.  1.
    9000002   -1    0    0    0    0 -0.00000000000E+00 -0.00000000000E+00  0.00000000000E+00  0.93800000000E+00  0.93800000000E+00 0.  1.
         11    1    1    2    0    0  0.19540727308E+00 -0.20941329937E+00  0.21349283438E+01  0.21540559943E+01  0.51100000000E-03 0.  1.
    9000002    1    1    2    0    0 -0.33229956951E+00  0.37615300110E+00  0.17256823262E+00  0.10777466674E+01  0.93800000000E+00 0.  1.
         22    1    1    2    0    0  0.13689229642E+00 -0.16673970172E+00  0.16925033909E+01  0.17061973383E+01  0.00000000000E+00 0.  1.
</event>
<event>
 5    1  0.1537976E+002  0.1599675E+01  0.7818608E-02  0.3353717E+00
         11   -1    0    0    0    0  0.00000000000E+00  0.00000000000E+00  0.39999999674E+01  0.40000000000E+01  0.51100000000E-03 0. -1.
    9000002   -1    0    0    0    0 -0.00000000000E+00 -0.00000000000E+00  0.00000000000E+00  0.93800000000E+00  0.93800000000E+00 0. -1.
         11    1    1    2    0    0 -0.84586798577E-01  0.22921303574E+00  0.18580266214E+01  0.18740215391E+01  0.51100000000E-03 0. -1.
    9000002    1    1    2    0    0  0.17285111703E+00 -0.47554653259E+00  0.17544123517E+00  0.10801137164E+01  0.93800000000E+00 0. -1.
         22    1    1    2    0    0 -0.88264318455E-01  0.24633349685E+00  0.19665321108E+01  0.19838647445E+01  0.00000000000E+00 0. -1.
</event>
<event>
 5    1  0.1537976E+002  0.1599667E+01  0.7818608E-02  0.3353725E+00
         11   -1    0    0    0    0  0.00000000000E+00  0.00000000000E+00  0.39999999674E+01  0.40000000000E+01  0.51100000000E-03 0. -1.
    9000002   -1    0    0    0    0 -0.00000000000E+00 -0.00000000000E+00  0.00000000000E+00  0.93800000000E+00  0.93800000000E+00 0.  1.
         11    1    1    2    0    0 -0.19753456914E-01  0.19612772978E-02  0.22053886482E+00  0.22143102241E+00  0.51100000000E-03 0. -1.
    9000002    1    1    2    0    0  0.32188694657E+00 -0.32358315621E-01  0.69986220376E-01  0.99468604997E+00  0.93800000000E+00 0.  1.
         22    1    1    2    0    0 -0.30213348965E+00  0.30397038323E-01  0.37094748822E+01  0.37218829276E+01  0.00000000000E+00 0. -1.
</event>
<event>
 5    1  0.1537976E+002  0.1599659E+01  0.7818608E-02  0.3353733E+00
         11   -1    0    0    0    0  0.00000000000E+00  0.00000000000E+00  0.39999999674E+01  0.40000000000E+01  0.51100000000E-03 0. -1.
    9000002   -1    0    0    0    0 -0.00000000000E+00 -0.00000000000E+00  0.00000000000E+00  0.93800000000E+00  0.93800000000E+00 0.  1.
         11    1    1    2    0    0  0.38326785683E+00 -0.11914847913E+00  0.23007473284E+01  0.23354933398E+01  0.51100000000E-03 0. -1.
    9000002    1    1    2    0    0 -0.61714990692E+00  0.18410565708E+00  0.29228320581E+00  0.11747520474E+01  0.93800000000E+00 0.  1.
         22    1    1    2    0    0  0.23388205010E+00 -0.64957177947E-01  0.14069694331E+01  0.14277546127E+01  0.00000000000E+00 0. -1.
</event>
<event>
 5    1  0.1537976E+002  0.1599669E+01  0.7818608E-02  0.3353723E+00
         11   -1    0    0    0    0  0.00000000000E+00  0.00000000000E+00  0.39999999674E+01  0.40000000000E+01  0.51100000000E-03 0. -1.
    9000002   -1    0    0    0    0 -0.00000000000E+00 -0.00000000000E+00  0.00000000000E+00  0.93800000000E+00  0.93800000000E+00 0. -1.
         11    1    1    2    0    0 -0.12819493900E+00 -0.13241351263E-01  0.12002924367E+01  0.12071915633E+01  0.51100000000E-03 0. -1.
    9000002    1    1    2    0    0  0.41007951202E+00  0.52042591228E-01  0.11546646590E+00  0.10315280618E+01  0.93800000000E+00 0. -1.
         22    1    1    2    0    0 -0.28188457303E+00 -0.38801239965E-01  0.26842410647E+01  0.26992803749E+01  0.00000000000E+00 0. -1.
</event>
<event>
 5    1  0.1537976E+002  0.1599637E+01  0.7818608E-02  0.3353758E+00
         11   -1    0    0    0    0  0.00000000000E+00  0.00000000000E+00  0.39999999674E+01  0.40000000000E+01  0.51100000000E-03 0. -1.
    9000002   -1    0    0    0    0 -0.00000000000E+00 -0.00000000000E+00  0.00000000000E+00  0.93800000000E+00  0.93800000000E+00 0. -1.
         11    1    1    2    0    0  0.99867460621E-01 -0.23438896655E+00  0.15586162026E+01  0.15793025123E+01  0.51100000000E-03 0. -1.
    9000002    1    1    2    0    0 -0.25390893563E+00  0.55153240998E+00  0.25765008783E+00  0.11466844878E+01  0.93800000000E+00 0. -1.
         22    1    1    2    0    0  0.15404147500E+00 -0.31714344343E+00  0.21837336769E+01  0.22120129999E+01  0.00000000000E+00 0. -1.
</event>
<event>
 5    1  0.1537976E+002  0.1599646E+01  0.7818608E-02  0.3353747E+00
         11   -1    0    0    0    0  0.00000000000E+00  0.00000000000E+00  0.39999999674E+01  0.40000000000E+01  0.51100000000E-03 0. -1.
    9000002   -1    0    0    0    0 -0.00000000000E+00 -0.00000000000E+00  0.00000000000E+00  0.93800000000E+00  0.93800000000E+00 0. -1.
         11    1    1    2    0    0 -0.78646823697E-02  0.36819691019E-01  0.47336241141E+00  0.47485763818E+00  0.51100000000E-03 0. -1.
    9000002    1    1    2    0    0  0.29981788494E-01 -0.31179006084E+00  0.65558369350E-01  0.99108720579E+00  0.93800000000E+00 0. -1.
         22    1    1    2    0    0 -0.22117106124E-01  0.27497036982E+00  0.34610791866E+01  0.34720551560E+01  0.00000000000E+00 0. -1.
</event>
<event>
 5    1  0.1537976E+002  0.1599504E+01  0.7818608E-02  0.3353902E+00
         11   -1    0    0    0    0  0.00000000000E+00  0.00000000000E+00  0.39999999674E+01  0.40000000000E+01  0.51100000000E-03 0.  1.
    9000002   -1    0    0    0    0 -0.00000000000E+00 -0.00000000000E+00  0.00000000000E+00  0.93800000000E+00  0.93800000000E+00 0.  1.
         11    1    1    2    0    0 -0.27477020879E-01  0.10724058271E-01  0.33477001938E+00  0.33606728358E+00  0.51100000000E-03 0.  1.
    9000002    1    1    2    0    0  0.24246814453E+00 -0.19150724359E+00  0.63876737253E-01  0.98964138102E+00  0.93800000000E+00 0.  1.
         22    1    1    2    0    0 -0.21499112365E+00  0.18078318532E+00  0.36013532107E+01  0.36122913354E+01  0.00000000000E+00 0.  1.
</event>
<event>
 5    1  0.1537976E+002  0.1592930E+01  0.7818608E-02  0.3361072E+00
         11   -1    0    0    0    0  0.00000000000E+00  0.00000000000E+00  0.39999999674E+01  0.40000000000E+01  0.51100000000E-03 0. -1.
    9000002   -1    0    0    0    0 -0.00000000000E+00 -0.00000000000E+00  0.00000000000E+00  0.93800000000E+00  0.93800000000E+00 0.  1.
         11    1    1    2    0    0 -0.59495072565E-01 -0.34160109225E-01  0.74510511972E+00  0.74825695939E+00  0.51100000000E-03 0. -1.
    9000002    1    1    2    0    0  0.99311338316E-01 -0.16693242805E+00  0.30031853652E-01  0.95837106054E+00  0.93800000000E+00 0.  1.
         22    1    1    2    0    0 -0.39816265751E-01  0.20109253728E+00  0.32248629940E+01  0.32313719801E+01  0.00000000000E+00 0. -1.
</event>
<event>
 5    1  0.1537976E+002  0.1587218E+01  0.7818608E-02  0.3367355E+00
         11   -1    0    0    0    0  0.00000000000E+00  0.00000000000E+00  0.39999999674E+01  0.40000000000E+01  0.51100000000E-03 0. -1.
    9000002   -1    0    0    0    0 -0.00000000000E+00 -0.00000000000E+00  0.00000000000E+00  0.93800000000E+00  0.93800000000E+00 0.  1.
         11    1    1    2    0    0 -0.87157603303E-01 -0.57010278628E-01  0.25260863333E+01  0.25282323951E+01  0.51100000000E-03 0. -1.
    9000002    1    1    2    0    0  0.31666218699E+00  0.26528926929E-02  0.76911768641E-01  0.99299617253E+00  0.93800000000E+00 0.  1.
         22    1    1    2    0    0 -0.22950458368E+00  0.54357385935E-01  0.13970018655E+01  0.14167714323E+01  0.00000000000E+00 0.  1.
</event>
<event>
 5    1  0.1537976E+002  0.1598917E+01  0.7818608E-02  0.3354539E+00
         11   -1    0    0    0    0  0.00000000000E+00  0.00000000000E+00  0.39999999674E+01  0.40000000000E+01  0.51100000000E-03 0. -1.
    9000002   -1    0    0    0    0 -0.00000000000E+00 -0.00000000000E+00  0.00000000000E+00  0.93800000000E+00  0.93800000000E+00 0.  1.
         11    1    1    2    0    0 -0.16114479608E+00 -0.22029692621E+00  0.23935391320E+01  0.24090513109E+01  0.51100000000E-03 0. -1.
    9000002    1    1    2    0    0  0.24949019492E+00  0.40493169171E+00  0.15491377372E+00  0.10630415371E+01  0.93800000000E+00 0.  1.
         22    1    1    2    0    0 -0.88345398843E-01 -0.18463476550E+00  0.14515470616E+01  0.14659071520E+01  0.00000000000E+00 0. -1.
</event>
<event>
 5    1  0.1537976E+002  0.1599677E+01  0.7818608E-02  0.3353714E+00
         11   -1    0    0    0    0  0.00000000000E+00  0.00000000000E+00  0.39999999674E+01  0.40000000000E+01  0.51100000000E-03 0. -1.
    9000002   -1    0    0    0    0 -0.00000000000E+00 -0.00000000000E+00  0.00000000000E+00  0.93800000000E+00  0.93800000000E+00 0.  1.
         11    1    1    2    0    0  0.74713379784E-01 -0.10476848587E-01  0.85719469920E+00  0.86050849324E+00  0.51100000000E-03 0. -1.
    9000002    1    1    2    0    0 -0.34351906525E+00  0.49762432660E-01  0.80758861365E-01  0.10034179795E+01  0.93800000000E+00 0.  1.
         22    1    1    2    0    0  0.26880568547E+00 -0.39285584073E-01  0.30620464068E+01  0.30740735273E+01  0.00000000000E+00 0. -1.
</event>
<event>
 5    1  0.1537976E+002  0.1599673E+01  0.7818608E-02  0.3353718E+00
         11   -1    0    0    0    0  0.00000000000E+00  0.00000000000E+00  0.39999999674E+01  0.40000000000E+01  0.51100000000E-03 0.  1.
    9000002   -1    0    0    0    0 -0.00000000000E+00 -0.00000000000E+00  0.00000000000E+00  0.93800000000E+00  0.93800000000E+00 0.  1.
         11    1    1    2    0    0  0.13372276521E+00  0.45287900517E+00  0.20089568349E+01  0.20637075851E+01  0.51100000000E-03 0.  1.
    9000002    1    1    2    0    0 -0.23060569564E+00 -0.79138076612E+00  0.50477230800E+00  0.13468858848E+01  0.93800000000E+00 0.  1.
         22    1    1    2    0    0  0.96882930436E-01  0.33850176096E+00  0.14862708245E+01  0.15274065301E+01  0.00000000000E+00 0.  1.
</event>
<event>
 5    1  0.1537976E+002  0.1599658E+01  0.7818608E-02  0.3353734E+00
         11   -1    0    0    0    0  0.00000000000E+00  0.00000000000E+00  0.39999999674E+01  0.40000000000E+01  0.51100000000E-03 0.  1.
    9000002   -1    0    0    0    0 -0.00000000000E+00 -0.00000000000E+00  0.00000000000E+00  0.93800000000E+00  0.93800000000E+00 0. -1.
         11    1    1    2    0    0 -0.98347728673E-01 -0.25752839113E-01  0.13264104843E+01  0.13303009128E+01  0.51100000000E-03 0.  1.
    9000002    1    1    2    0    0  0.29931351243E+00  0.88889647820E-01  0.65127175728E-01  0.99074492036E+00  0.93800000000E+00 0. -1.
         22    1    1    2    0    0 -0.20096578375E+00 -0.63136808706E-01  0.26084623073E+01  0.26169541669E+01  0.00000000000E+00 0.  1.
</event>
<event>
 5    1  0.1537976E+002  0.1595642E+01  0.7818608E-02  0.3358107E+00
         11   -1    0    0    0    0  0.00000000000E+00  0.00000000000E+00  0.39999999674E+01  0.40000000000E+01  0.51100000000E-03 0.  1.
    9000002   -1    0    0    0    0 -0.00000000000E+00 -0.00000000000E+00  0.00000000000E+00  0.93800000000E+00  0.93800000000E+00 0. -1.
         11    1    1    2    0    0 -0.23085316363E+00 -0.42388026763E-01  0.12229021692E+01  0.12452228333E+01  0.51100000000E-03 0.  1.
    9000002    1    1    2    0    0  0.55710918399E+00 -0.26962374790E-01  0.21904298240E+00  0.11130684798E+01  0.93800000000E+00 0. -1.
         22    1    1    2    0    0 -0.32625602036E+00  0.69350401553E-01  0.25580548158E+01  0.25797086870E+01  0.00000000000E+00 0.  1.
</event>
<event>
 5    1  0.1537976E+002  0.1589134E+01  0.7818608E-02  0.3365242E+00
         11   -1    0    0    0    0  0.00000000000E+00  0.00000000000E+00  0.39999999674E+01  0.40000000000E+01  0.51100000000E-03 0.  1.
    9000002   -1    0    0    0    0 -0.00000000000E+00 -0.00000000000E+00  0.00000000000E+00  0.93800000000E+00  0.93800000000E+00 0.  1.
         11    1    1    2    0    0 -0.16815136131E-01  0.10495820837E+00  0.61459996518E+00  0.62372458075E+00  0.51100000000E-03 0.  1.
    9000002    1    1    2    0    0  0.25412728407E+00 -0.11552252597E+00  0.60099462783E-01  0.98050093113E+00  0.93800000000E+00 0.  1.
         22    1    1    2    0    0 -0.23731214794E+00  0.10564317603E-01  0.33253005394E+01  0.33337744881E+01  0.00000000000E+00 0.  1.
</event>
<event>
 5    1  0.1537976E+002  0.1599661E+01  0.7818608E-02  0.3353731E+00
         11   -1    0    0    0    0  0.00000000000E+00  0.00000000000E+00  0.39999999674E+01  0.40000000000E+01  0.51100000000E-03 0. -1.
    9000002   -1    0    0    0    0 -0.00000000000E+00 -0.00000000000E+00  0.00000000000E+00  0.93800000000E+00  0.93800000000E+00 0. -1.
         11    1    1    2    0    0 -0.48150718632E-02  0.11387079229E-01  0.24155405887E+00  0.24187078155E+00  0.51100000000E-03 0. -1.
    9000002    1    1    2    0    0  0.50681725694E-01 -0.21104304760E+00  0.31231953970E-01  0.96328980074E+00  0.93800000000E+00 0. -1.
         22    1    1    2    0    0 -0.45866653831E-01  0.19965596837E+00  0.37272139545E+01  0.37328394177E+01  0.00000000000E+00 0. -1.
</event>
<event>
 5    1  0.1537976E+002  0.1564087E+01  0.7818608E-02  0.3393289E+00
         11   -1    0    0    0    0  0.00000000000E+00  0.00000000000E+00  0.39999999674E+01  0.40000000000E+01  0.51100000000E-03 0. -1.
    9000002   -1    0    0    0    0 -0.00000000000E+00 -0.00000000000E+00  0.00000000000E+00  0.93800000000E+00  0.93800000000E+00 0.  1.
         11    1    1    2    0    0  0.69063449569E-01 -0.33108923546E-01  0.99966153705E-01  0.12593432373E+00  0.51100000000E-03 0. -1.
    9000002    1    1    2    0    0 -0.20448494550E+00 -0.33046476696E+00  0.13171046672E+00  0.10238225931E+01  0.93800000000E+00 0.  1.
         22    1    1    2    0    0  0.13542149593E+00  0.36357369050E+00  0.37683233469E+01  0.37882430832E+01  0.00000000000E+00 0. -1.
</event>
<event>
 5    1  0.1537976E+002  0.1599662E+01  0.7818608E-02  0.3353730E+00
         11   -1    0    0    0    0  0.00000000000E+00  0.00000000000E+00  0.39999999674E+01  0.40000000000E+01  0.51100000000E-03 0. -1.
    9000002   -1    0    0    0    0 -0.00000000000E+00 -0.00000000000E+00  0.00000000000E+00  0.93800000000E+00  0.93800000000E+00 0. -1.
         11    1    1    2    0    0  0.78371203761E-01 -0.16598306189E+00  0.18763400281E+01  0.18852969487E+01  0.51100000000E-03 0. -1.
    9000002    1    1    2    0    0 -0.16067652149E+00  0.35424803604E+00  0.10193101416E+00  0.10205599185E+01  0.93800000000E+00 0. -1.
         22    1    1    2    0    0  0.82305317732E-01 -0.18826497416E+00  0.20217289251E+01  0.20321431328E+01  0.00000000000E+00 0.  1.
</event>
<event>
 5    1  0.1537976E+002  0.1548222E+01  0.7818608E-02  0.3411553E+00
         11   -1    0    0    0    0  0.00000000000E+00  0.00000000000E+00  0.39999999674E+01  0.40000000000E+01  0.51100000000E-03 0.  1.
    9000002   -1    0    0    0    0 -0.00000000000E+00 -0.00000000000E+00  0.00000000000E+00  0.93800000000E+00  0.93800000000E+00 0. -1.
         11    1    1    2    0    0  0.14198667039E+00  0.19661328532E+00  0.30678262786E+01  0.30773974939E+01  0.51100000000E-03 0.  1.
    9000002    1    1    2    0    0 -0.64796467115E-01  0.16781845392E-01  0.41311300138E-01  0.94129210982E+00  0.93800000000E+00 0. -1.
         22    1    1    2    0    0 -0.77190203276E-01 -0.21339513071E+00  0.89086238860E+00  0.91931039628E+00  0.00000000000E+00 0. -1.
</event>
<event>
 5    1  0.1537976E+002  0.1554460E+01  0.7818608E-02  0.3404325E+00
         11   -1    0    0    0    0  0.00000000000E+00  0.00000000000E+00  0.39999999674E+01  0.40000000000E+01  0.51100000000E-03 0. -1.
    9000002   -1    0    0    0    0 -0.00000000000E+00 -0.00000000000E+00  0.00000000000E+00  0.93800000000E+00  0.93800000000E+00 0. -1.
         11    1    1    2    0    0  0.23271654787E+00 -0.62435491932E-01  0.27825189077E+01  0.27929315987E+01  0.51100000000E-03 0. -1.
    9000002    1    1    2    0    0 -0.42426905004E-01 -0.77960621462E-01  0.38894855868E-01  0.94299242339E+00  0.93800000000E+00 0. -1.
         22    1    1    2    0    0 -0.19028964286E+00  0.14039611339E+00  0.11785862038E+01  0.12020759779E+01  0.00000000000E+00 0. -1.
</event>
<event>
 5    1  0.1537976E+002  0.1599676E+01  0.7818608E-02  0.3353715E+00
         11   -1    0    0    0    0  0.00000000000E+00  0.00000000000E+00  0.39999999674E+01  0.40000000000E+01  0.51100000000E-03 0.  1.
    9000002   -1    0    0    0    0 -0.00000000000E+00 -0.00000000000E+00  0.00000000000E+00  0.93800000000E+00  0.93800000000E+00 0. -1.
         11    1    1    2    0    0 -0.39554069374E-01  0.14449426509E+00  0.12836813696E+01  0.12923936076E+01  0.51100000000E-03 0.  1.
    9000002    1    1    2    0    0  0.11879516010E+00 -0.43156922363E+00  0.13603751485E+00  0.10481958263E+01  0.93800000000E+00 0. -1.
         22    1    1    2    0    0 -0.79241090728E-01  0.28707495854E+00  0.25802810829E+01  0.25974105661E+01  0.00000000000E+00 0. -1.
</event>
<event>
 5    1  0.1537976E+002  0.1575392E+01  0.7818608E-02  0.3380513E+00
         11   -1    0    0    0    0  0.00000000000E+00  0.00000000000E+00  0.39999999674E+01  0.40000000000E+01  0.51100000000E-03 0. -1.
    9000002   -1    0    0    0    0 -0.00000000000E+00 -0.00000000000E+00  0.00000000000E+00  0.93800000000E+00  0.93800000000E+00 0.  1.
         11    1    1    2    0    0 -0.91348325650E-01 -0.77312462109E-01  0.26914255946E+01  0.26940849515E+01  0.51100000000E-03 0. -1.
    9000002    1    1    2    0    0 -0.68495456038E-01 -0.47005458109E-01  0.22441769085E-01  0.94193883750E+00  0.93800000000E+00 0.  1.
         22    1    1    2    0    0  0.15984378169E+00  0.12431792022E+00  0.12861326037E+01  0.13019762110E+01  0.00000000000E+00 0. -1.
</event>
<event>
 5    1  0.1537976E+002  0.1566782E+01  0.7818608E-02  0.3390225E+00
         11   -1    0    0    0    0  0.00000000000E+00  0.00000000000E+00  0.39999999674E+01  0.40000000000E+01  0.51100000000E-03 0. -1.
    9000002   -1    0    0    0    0 -0.00000000000E+00 -0.00000000000E+00  0.00000000000E+00  0.93800000000E+00  0.93800000000E+00 0.  1.
         11    1    1    2    0    0 -0.24778120406E-01 -0.71698717751E-01  0.13318833901E+00  0.15327770923E+00  0.51100000000E-03 0. -1.
    9000002    1    1    2    0    0 -0.42762938810E-01 -0.14659455372E+00  0.40099858399E-01  0.95119431809E+00  0.93800000000E+00 0.  1.
         22    1    1    2    0    0  0.67541059216E-01  0.21829327147E+00  0.38267117700E+01  0.38335279727E+01  0.00000000000E+00 0. -1.
</event>
<event>
 5    1  0.1537976E+002  0.1599623E+01  0.7818608E-02  0.3353773E+00
         11   -1    0    0    0    0  0.00000000000E+00  0.00000000000E+00  0.39999999674E+01  0.40000000000E+01  0.51100000000E-03 0. -1.
    9000002   -1    0    0    0    0 -0.00000000000E+00 -0.00000000000E+00  0.00000000000E+00  0.93800000000E+00  0.93800000000E+00 0. -1.
         11    1    1    2    0    0  0.11982091834E-01  0.14889414469E-01  0.39835784960E+00  0.39881637710E+00  0.51100000000E-03 0. -1.
    9000002    1    1    2    0    0 -0.17111086787E+00 -0.15764634052E+00  0.35953793423E-01  0.96709253593E+00  0.93800000000E+00 0. -1.
         22    1    1    2    0    0  0.15912877603E+00  0.14275692605E+00  0.35656883243E+01  0.35720910870E+01  0.00000000000E+00 0. -1.
</event>
<event>
 5    1  0.1537976E+002  0.1599677E+01  0.7818608E-02  0.3353715E+00
         11   -1    0    0    0    0  0.00000000000E+00  0.00000000000E+00  0.39999999674E+01  0.40000000000E+01  0.51100000000E-03 0.  1.
    9000002   -1    0    0    0    0 -0.00000000000E+00 -0.00000000000E+00  0.00000000000E+00  0.93800000000E+00  0.93800000000E+00 0. -1.
         11    1    1    2    0    0 -0.34359948895E-01 -0.50521755971E-01  0.66397631113E+00  0.66678171599E+00  0.51100000000E-03 0. -1.
    9000002    1    1    2    0    0  0.19976479110E+00  0.29626481117E+00  0.85680340851E-01  0.10074045518E+01  0.93800000000E+00 0. -1.
         22    1    1    2    0    0 -0.16540484220E+00 -0.24574305520E+00  0.32503433154E+01  0.32638137322E+01  0.00000000000E+00 0.  1.
</event>
<event>
 5    1  0.1537976E+002  0.1599674E+01  0.7818608E-02  0.3353717E+00
         11   -1    0    0    0    0  0.00000000000E+00  0.00000000000E+00  0.39999999674E+01  0.40000000000E+01  0.51100000000E-03 0.  1.
    9000002   -1    0    0    0    0 -0.00000000000E+00 -0.00000000000E+00  0.00000000000E+00  0.93800000000E+00  0.93800000000E+00 0.  1.
         11    1    1    2    0    0 -0.35092756832E-01  0.38329941606E-01  0.71486263671E+00  0.71674928427E+00  0.51100000000E-03 0.  1.
    9000002    1    1    2    0    0  0.19441748633E+00 -0.21950196594E+00  0.57324143406E-01  0.98443350688E+00  0.93800000000E+00 0.  1.
         22    1    1    2    0    0 -0.15932472950E+00  0.18117202434E+00  0.32278131872E+01  0.32368172089E+01  0.00000000000E+00 0.  1.
</event>
<event>
 5    1  0.1537976E+002  0.1599619E+01  0.7818608E-02  0.3353777E+00
         11   -1    0    0    0    0  0.00000000000E+00  0.00000000000E+00  0.39999999674E+01  0.40000000000E+01  0.51100000000E-03 0. -1.
    9000002   -1    0    0    0    0 -0.00000000000E+00 -0.00000000000E+00  0.00000000000E+00  0.93800000000E+00  0.93800000000E+00 0.  1.
         11    1    1    2    0    0 -0.26128652141E-01 -0.30552072191E-01  0.54036437080E+00  0.54185796103E+00  0.51100000000E-03 0. -1.
    9000002    1    1    2    0    0  0.14934681337E+00  0.20498274967E+00  0.42784890531E-01  0.97262374286E+00  0.93800000000E+00 0.  1.
         22    1    1    2    0    0 -0.12321816123E+00 -0.17443067748E+00  0.34168507060E+01  0.34235182961E+01  0.00000000000E+00 0. -1.
</event>
<event>
 5    1  0.1537976E+002  0.1599662E+01  0.7818608E-02  0.3353730E+00
         11   -1    0    0    0    0  0.00000000000E+00  0.00000000000E+00  0.39999999674E+01  0.40000000000E+01  0.51100000000E-03 0.  1.
    9000002   -1    0    0    0    0 -0.00000000000E+00 -0.00000000000E+00  0.00000000000E+00  0.93800000000E+00  0.93800000000E+00 0.  1.
         11    1    1    2    0    0  0.12949287038E+00 -0.13787659034E+00  0.17048006272E+01  0.17152620200E+01  0.51100000000E-03 0.  1.
    9000002    1    1    2    0    0 -0.29548838996E+00  0.32340904577E+00  0.13012741919E+00  0.10434001844E+01  0.93800000000E+00 0.  1.
         22    1    1    2    0    0  0.16599551958E+00 -0.18553245543E+00  0.21650719210E+01  0.21793377957E+01  0.00000000000E+00 0.  1.
</event>
<event>
 5    1  0.1537976E+002  0.1599677E+01  0.7818608E-02  0.3353714E+00
         11   -1    0    0    0    0  0.00000000000E+00  0.00000000000E+00  0.39999999674E+01  0.40000000000E+01  0.51100000000E-03 0.  1.
    9000002   -1    0    0    0    0 -0.00000000000E+00 -0.00000000000E+00  0.00000000000E+00  0.93800000000E+00  0.93800000000E+00 0.  1.
         11    1    1    2    0    0  0.39008870243E+00 -0.49479769453E-02  0.20848404322E+01  0.21210265361E+01  0.51100000000E-03 0.  1.
    9000002    1    1    2    0    0 -0.68631094087E+00  0.92055068402E-02  0.33547567273E+00  0.12097501295E+01  0.93800000000E+00 0.  1.
         22    1    1    2    0    0  0.29622223845E+00 -0.42575298949E-02  0.15796838625E+01  0.16072233343E+01  0.00000000000E+00 0.  1.
</event>
<event>
 5    1  0.1537976E+002  0.1551017E+01  0.7818608E-02  0.3408307E+00
         11   -1    0    0    0    0  0.00000000000E+00  0.00000000000E+00  0.39999999674E+01  0.40000000000E+01  0.51100000000E-03 0. -1.
    9000002   -1    0    0    0    0 -0.00000000000E+00 -0.00000000000E+00  0.00000000000E+00  0.93800000000E+00  0.93800000000E+00 0. -1.
         11    1    1    2    0    0  0.21828307316E+00  0.98046604779E-01  0.18343990696E+01  0.18499407679E+01  0.51100000000E-03 0. -1.
    9000002    1    1    2    0    0  0.70086086062E-01 -0.28571147266E-01  0.40038329592E-01  0.94189990856E+00  0.93800000000E+00 0. -1.
         22    1    1    2    0    0 -0.28836915923E+00 -0.69475457514E-01  0.21255625681E+01  0.21461593236E+01  0.00000000000E+00 0.  1.
</event>
<event>
 5    1  0.1537976E+002  0.1599654E+01  0.7818608E-02  0.3353739E+00
         11   -1    0    0    0    0  0.00000000000E+00  0.00000000000E+00  0.39999999674E+01  0.40000000000E+01  0.51100000000E-03 0. -1.
    9000002   -1    0    0    0    0 -0.00000000000E+00 -0.00000000000E+00  0.00000000000E+00  0.93800000000E+00  0.93800000000E+00 0. -1.
         11    1    1    2    0    0 -0.88616962587E-02 -0.63746391257E-02  0.14881103471E+00  0.14921176514E+00  0.51100000000E-03 0. -1.
    9000002    1    1    2    0    0  0.26520312676E+00  0.21509726219E+00  0.78126966293E-01  0.10012728667E+01  0.93800000000E+00 0. -1.
         22    1    1    2    0    0 -0.25634143050E+00 -0.20872262306E+00  0.37730619664E+01  0.37875153682E+01  0.00000000000E+00 0. -1.
</event>
<event>
 5    1  0.1537976E+002  0.1599662E+01  0.7818608E-02  0.3353730E+00
         11   -1    0    0    0    0  0.00000000000E+00  0.00000000000E+00  0.39999999674E+01  0.40000000000E+01  0.51100000000E-03 0. -1.
    9000002   -1    0    0    0    0 -0.00000000000E+00 -0.00000000000E+00  0.00000000000E+00  0.93800000000E+00  0.93800000000E+00 0.  1.
         11    1    1    2    0    0 -0.32039523358E-02 -0.12331272416E-01  0.21237596191E+00  0.21275839797E+00  0.51100000000E-03 0. -1.
    9000002    1    1    2    0    0  0.87707512960E-01  0.20486996627E+00  0.32937968481E-01  0.96467259766E+00  0.93800000000E+00 0.  1.
         22    1    1    2    0    0 -0.84503560624E-01 -0.19253869386E+00  0.37546860370E+01  0.37605690044E+01  0.00000000000E+00 0. -1.
</event>
<event>
 5    1  0.1537976E+002  0.1599649E+01  0.7818608E-02  0.3353744E+00
         11   -1    0    0    0    0  0.00000000000E+00  0.00000000000E+00  0.39999999674E+01  0.40000000000E+01  0.51100000000E-03 0.  1.
    9000002   -1    0    0    0    0 -0.00000000000E+00 -0.00000000000E+00  0.00000000000E+00  0.93800000000E+00  0.93800000000E+00 0. -1.
         11    1    1    2    0    0  0.12564221779E+00  0.27133294433E-01  0.13096050190E+01  0.13158980772E+01  0.51100000000E-03 0.  1.
    9000002    1    1    2    0    0 -0.37495385040E+00 -0.98576923331E-01  0.10125133136E+00  0.10200017803E+01  0.93800000000E+00 0. -1.
         22    1    1    2    0    0  0.24931163261E+00  0.71443628898E-01  0.25891436170E+01  0.26021001425E+01  0.00000000000E+00 0.  1.
</event>
<event>
 5    1  0.1537976E+002  0.1598785E+01  0.7818608E-02  0.3354684E+00
         11   -1    0    0    0    0  0.00000000000E+00  0.00000000000E+00  0.39999999674E+01  0.40000000000E+01  0.51100000000E-03 0.  1.
    9000002   -1    0    0    0    0 -0.00000000000E+00 -0.00000000000E+00  0.00000000000E+00  0.93800000000E+00  0.93800000000E+00 0. -1.
         11    1    1    2    0    0 -0.84696530282E-02  0.15926114324E+00  0.15934387533E+01  0.16014003773E+01  0.51100000000E-03 0.  1.
    9000002    1    1    2    0    0 -0.65649403728E-01 -0.38607257543E+00  0.10407427359E+00  0.10217814503E+01  0.93800000000E+00 0. -1.
         22    1    1    2    0    0  0.74119056756E-01  0.22681143219E+00  0.23024869405E+01  0.23148181724E+01  0.00000000000E+00 0.  1.
</event>
<event>
 5    1  0.1537976E+002  0.1599053E+01  0.7818608E-02  0.3354392E+00
         11   -1    0    0    0    0  0.00000000000E+00  0.00000000000E+00  0.39999999674E+01  0.40000000000E+01  0.51100000000E-03 0.  1.
    9000002   -1    0    0    0    0 -0.00000000000E+00 -0.00000000000E+00  0.00000000000E+00  0.93800000000E+00  0.93800000000E+00 0.  1.
         11    1    1    2    0    0 -0.53269009989E-01  0.47824129984E-02  0.50784661527E+00  0.51065536779E+00  0.51100000000E-03 0.  1.
    9000002    1    1    2    0    0  0.25769971130E+00 -0.34284427943E-01  0.45410056418E-01  0.97441810145E+00  0.93800000000E+00 0.  1.
         22    1    1    2    0    0 -0.20443070131E+00  0.29502014944E-01  0.34467432957E+01  0.34529265308E+01  0.00000000000E+00 0.  1.
</event>
<event>
 5    1  0.1537976E+002  0.1599664E+01  0.7818608E-02  0.3353729E+00
         11   -1    0    0    0    0  0.00000000000E+00  0.00000000000E+00  0.39999999674E+01  0.40000000000E+01  0.51100000000E-03 0.  1.
    9000002   -1    0    0    0    0 -0.00000000000E+00 -0.00000000000E+00  0.00000000000E+00  0.93800000000E+00  0.93800000000E+00 0.  1.
         11    1    1    2    0    0  0.20532474000E+00  0.34096079170E+00  0.24421041985E+01  0.24743252996E+01  0.51100000000E-03 0.  1.
    9000002    1    1    2    0    0 -0.31984664432E+00 -0.51864150191E+00  0.25958579974E+00  0.11482681180E+01  0.93800000000E+00 0.  1.
         22    1    1    2    0    0  0.11452190432E+00  0.17768071021E+00  0.12983099691E+01  0.13154065824E+01  0.00000000000E+00 0.  1.
</event>
<event>
 5    1  0.1537976E+002  0.1533998E+01  0.7818608E-02  0.3428270E+00
         11   -1    0    0    0    0  0.00000000000E+00  0.00000000000E+00  0.39999999674E+01  0.40000000000E+01  0.51100000000E-03 0.  1.
    9000002   -1    0    0    0    0 -0.00000000000E+00 -0.00000000000E+00  0.00000000000E+00  0.93800000000E+00  0.93800000000E+00 0. -1.
         11    1    1    2    0    0  0.45156888459E-01  0.10660348493E+00  0.13616487635E+00  0.17873047376E+00  0.51100000000E-03 0.  1.
    9000002    1    1    2    0    0  0.11474561718E+00  0.78676640942E-01  0.62773844803E-01  0.95033737487E+00  0.93800000000E+00 0. -1.
         22    1    1    2    0    0 -0.15990250564E+00 -0.18528012588E+00  0.38010612462E+01  0.38089321514E+01  0.00000000000E+00 0.  1.
</event>
<event>
 5    1  0.1537976E+002  0.1594635E+01  0.7818608E-02  0.3359207E+00
         11   -1    0    0    0    0  0.00000000000E+00  0.00000000000E+00  0.39999999674E+01  0.40000000000E+01  0.51100000000E-03 0. -1.
    9000002   -1    0    0    0    0 -0.00000000000E+00 -0.00000000000E+00  0.00000000000E+00  0.93800000000E+00  0.93800000000E+00 0. -1.
         11    1    1    2    0    0 -0.96999527474E-03  0.28829667135E+00  0.16233629904E+01  0.16487642559E+01  0.51100000000E-03 0. -1.
    9000002    1    1    2    0    0 -0.11661211335E+00 -0.51588936973E+00  0.19714138270E+00  0.10947369326E+01  0.93800000000E+00 0. -1.
         22    1    1    2    0    0  0.11758210862E+00  0.22759269839E+00  0.21794955942E+01  0.21944988116E+01  0.00000000000E+00 0.  1.
</event>
<event>
 5    1  0.1537976E+002  0.1599674E+01  0.7818608E-02  0.3353717E+00
         11   -1    0    0    0    0  0.00000000000E+00  0.00000000000E+00  0.39999999674E+01  0.40000000000E+01  0.51100000000E-03 0. -1.
    9000002   -1    0    0    0    0 -0.00000000000E+00 -0.00000000000E+00  0.00000000000E+00  0.93800000000E+00  0.93800000000E+00 0. -1.
         11    1    1    2    0    0  0.10642277468E+00  0.53746044947E+00  0.25345098297E+01  0.25930541606E+01  0.51100000000E-03 0. -1.
    9000002    1    1    2    0    0 -0.14717904881E+00 -0.75645747310E+00  0.43328823998E+00  0.12889811015E+01  0.93800000000E+00 0. -1.
         22    1    1    2    0    0  0.40756274135E-01  0.21899702363E+00  0.10322018977E+01  0.10559647380E+01  0.00000000000E+00 0.  1.
</event>
<event>
 5    1  0.1537976E+002  0.1599657E+01  0.7818608E-02  0.3353735E+00
         11   -1    0    0    0    0  0.00000000000E+00  0.00000000000E+00  0.39999999674E+01  0.40000000000E+01  0.51100000000E-03 0. -1.
    9000002   -1    0    0    0    0 -0.00000000000E+00 -0.00000000000E+00  0.00000000000E+00  0.93800000000E+00  0.93800000000E+00 0.  1.
         11    1    1    2    0    0  0.50921136281E-02 -0.84866927425E-01  0.10663230868E+01  0.10697072084E+01  0.51100000000E-03 0. -1.
    9000002    1    1    2    0    0 -0.33645618402E-01  0.32199949985E+00  0.70100912306E-01  0.99477326233E+00  0.93800000000E+00 0.  1.
         22    1    1    2    0    0  0.28553504773E-01 -0.23713257242E+00  0.28635759682E+01  0.28735195293E+01  0.00000000000E+00 0. -1.
</event>
<event>
 5    1  0.1537976E+002  0.1596630E+01  0.7818608E-02  0.3357029E+00
         11   -1    0    0    0    0  0.00000000000E+00  0.00000000000E+00  0.39999999674E+01  0.40000000000E+01  0.51100000000E-03 0.  1.
    9000002   -1    0    0    0    0 -0.00000000000E+00 -0.00000000000E+00  0.00000000000E+00  0.93800000000E+00  0.93800000000E+00 0. -1.
         11    1    1    2    0    0 -0.32412801466E+00 -0.22731896334E+00  0.26163574237E+01  0.26461404555E+01  0.51100000000E-03 0.  1.
    9000002    1    1    2    0    0  0.52760856689E+00  0.37468106587E+00  0.29849321138E+00  0.11780063235E+01  0.93800000000E+00 0. -1.
         22    1    1    2    0    0 -0.20348055223E+00 -0.14736210253E+00  0.10851493323E+01  0.11138532210E+01  0.00000000000E+00 0.  1.
</event>
<event>
 5    1  0.1537976E+002  0.1597076E+01  0.7818608E-02  0.3356543E+00
         11   -1    0    0    0    0  0.00000000000E+00  0.00000000000E+00  0.39999999674E+01  0.40000000000E+01  0.51100000000E-03 0.  1.
    9000002   -1    0    0    0    0 -0.00000000000E+00 -0.00000000000E+00  0.00000000000E+00  0.93800000000E+00  0.93800000000E+00 0. -1.
         11    1    1    2    0    0  0.80482278358E-01  0.71599843590E-01  0.69657319464E+00  0.70485346800E+00  0.51100000000E-03 0.  1.
    9000002    1    1    2    0    0 -0.22255331219E+00 -0.26985354947E+00  0.84132302106E-01  0.10046258802E+01  0.93800000000E+00 0. -1.
         22    1    1    2    0    0  0.14207103383E+00  0.19825370588E+00  0.32192944706E+01  0.32285206518E+01  0.00000000000E+00 0.  1.
</event>
<event>
 5    1  0.1537976E+002  0.1599309E+01  0.7818608E-02  0.3354114E+00
         11   -1    0    0    0    0  0.00000000000E+00  0.00000000000E+00  0.39999999674E+01  0.40000000000E+01  0.51100000000E-03 0.  1.
    9000002   -1    0    0    0    0 -0.00000000000E+00 -0.00000000000E+00  0.00000000000E+00  0.93800000000E+00  0.93800000000E+00 0.  1.
         11    1    1    2    0    0  0.60369251872E-02 -0.49293157124E-02  0.33211430154E-01  0.34117485737E-01  0.51100000000E-03 0.  1.
    9000002    1    1    2    0    0 -0.45508024781E+00  0.13767699626E+00  0.15445362663E+00  0.10628983536E+01  0.93800000000E+00 0.  1.
         22    1    1    2    0    0  0.44904332263E+00 -0.13274768055E+00  0.38123349106E+01  0.38409841607E+01  0.00000000000E+00 0.  1.
</event>
<event>
 5    1  0.1537976E+002  0.1593194E+01  0.7818608E-02  0.3360784E+00
         11   -1    0    0    0    0  0.00000000000E+00  0.00000000000E+00  0.39999999674E+01  0.40000000000E+01  0.51100000000E-03 0. -1.
    9000002   -1    0    0    0    0 -0.00000000000E+00 -0.00000000000E+00  0.00000000000E+00  0.93800000000E+00  0.93800000000E+00 0. -1.
         11    1    1    2    0    0 -0.91260830711E-01 -0.48592875571E-01  0.50700504730E+00  0.51744003120E+00  0.51100000000E-03 0. -1.
    9000002    1    1    2    0    0  0.23588276533E+00  0.19007582459E+00  0.66336710724E-01  0.98793423732E+00  0.93800000000E+00 0. -1.
         22    1    1    2    0    0 -0.14462193462E+00 -0.14148294902E+00  0.34266582093E+01  0.34326257315E+01  0.00000000000E+00 0. -1.
</event>
<event>
 5    1  0.1537976E+002  0.1599673E+01  0.7818608E-02  0.3353718E+00
         11   -1    0    0    0    0  0.00000000000E+00  0.00000000000E+00  0.39999999674E+01  0.40000000000E+01  0.51100000000E-03 0. -1.
    9000002   -1    0    0    0    0 -0.00000000000E+00 -0.00000000000E+00  0.00000000000E+00  0.93800000000E+00  0.93800000000E+00 0. -1.
         11    1    1    2    0    0  0.26728227294E-01 -0.16782526647E+00  0.13675411149E+01  0.13780597521E+01  0.51100000000E-03 0. -1.
    9000002    1    1    2    0    0 -0.73853716853E-01  0.46609282158E+00  0.15175948164E+00  0.10609297008E+01  0.93800000000E+00 0. -1.
         22    1    1    2    0    0  0.47125489559E-01 -0.29826755511E+00  0.24806993708E+01  0.24990105471E+01  0.00000000000E+00 0. -1.
</event>
<event>
 5    1  0.1537976E+002  0.1599675E+01  0.7818608E-02  0.3353717E+00
         11   -1    0    0    0    0  0.00000000000E+00  0.00000000000E+00  0.39999999674E+01  0.40000000000E+01  0.51100000000E-03 0.  1.
    9000002   -1    0    0    0    0 -0.00000000000E+00 -0.00000000000E+00  0.00000000000E+00  0.93800000000E+00  0.93800000000E+00 0. -1.
         11    1    1    2    0    0 -0.41061582614E+00 -0.19009995153E+00  0.18469861991E+01  0.19016050139E+01  0.51100000000E-03 0.  1.
    9000002    1    1    2    0    0  0.77124616811E+00  0.35828536129E+00  0.54247990843E+00  0.13774314876E+01  0.93800000000E+00 0. -1.
         22    1    1    2    0    0 -0.36063034198E+00 -0.16818540975E+00  0.16105338598E+01  0.16589634985E+01  0.00000000000E+00 0. -1.
</event>
<event>
 5    1  0.1537976E+002  0.1455687E+01  0.7818608E-02  0.3526615E+00
         11   -1    0    0    0    0  0.00000000000E+00  0.00000000000E+00  0.39999999674E+01  0.40000000000E+01  0.51100000000E-03 0. -1.
    9000002   -1    0    0    0    0 -0.00000000000E+00 -0.00000000000E+00  0.00000000000E+00  0.93800000000E+00  0.93800000000E+00 0.  1.
         11    1    1    2    0    0  0.10373610614E+00  0.22986394756E+00  0.34208133757E+00  0.42499237257E+00  0.51100000000E-03 0. -1.
    9000002    1    1    2    0    0 -0.16286351604E-01  0.40760720166E+00  0.26093624886E+00  0.10556233239E+01  0.93800000000E+00 0.  1.
         22    1    1    2    0    0 -0.87449754533E-01 -0.63747114922E+00  0.33969823809E+01  0.34573843035E+01  0.00000000000E+00 0. -1.
</event>
<event>
 5    1  0.1537976E+002  0.1583240E+01  0.7818608E-02  0.3371758E+00
         11   -1    0    0    0    0  0.00000000000E+00  0.00000000000E+00  0.39999999674E+01  0.40000000000E+01  0.51100000000E-03 0. -1.
    9000002   -1    0    0    0    0 -0.00000000000E+00 -0.00000000000E+00  0.00000000000E+00  0.93800000000E+00  0.93800000000E+00 0. -1.
         11    1    1    2    0    0 -0.73798486113E-01 -0.54427080709E-01  0.16297013854E+01  0.16322792011E+01  0.51100000000E-03 0. -1.
    9000002    1    1    2    0    0  0.56879766738E-01 -0.21578037483E+00  0.45543098318E-01  0.96525367227E+00  0.93800000000E+00 0. -1.
         22    1    1    2    0    0  0.16918719375E-01  0.27020745553E+00  0.23247554836E+01  0.23404671266E+01  0.00000000000E+00 0.  1.
</event>
<event>
 5    1  0.1537976E+002  0.1599041E+01  0.7818608E-02  0.3354405E+00
         11   -1    0    0    0    0  0.00000000000E+00  0.00000000000E+00  0.39999999674E+01  0.40000000000E+01  0.51100000000E-03 0. -1.
    9000002   -1    0    0    0    0 -0.00000000000E+00 -0.00000000000E+00  0.00000000000E+00  0.93800000000E+00  0.93800000000E+00 0.  1.
         11    1    1    2    0    0 -0.60779652152E-02 -0.22064075959E-01  0.19973649282E+00  0.20104400711E+00  0.51100000000E-03 0. -1.
    9000002    1    1    2    0    0  0.24758500928E+00  0.20510489870E+00  0.69604283352E-01  0.99400961391E+00  0.93800000000E+00 0.  1.
         22    1    1    2    0    0 -0.24150704406E+00 -0.18304082274E+00  0.37306591912E+01  0.37429463790E+01  0.00000000000E+00 0. -1.
</event>
<event>
 5    1  0.1537976E+002  0.1503575E+01  0.7818608E-02  0.3465164E+00
         11   -1    0    0    0    0  0.00000000000E+00  0.00000000000E+00  0.39999999674E+01  0.40000000000E+01  0.51100000000E-03 0.  1.
    9000002   -1    0    0    0    0 -0.00000000000E+00 -0.00000000000E+00  0.00000000000E+00  0.93800000000E+00  0.93800000000E+00 0.  1.
         11    1    1    2    0    0  0.37533885935E+00 -0.22062735935E+00  0.30825071532E+01  0.31131023597E+01  0.51100000000E-03 0.  1.
    9000002    1    1    2    0    0 -0.97249291795E-01  0.20382128284E+00  0.11042989088E+00  0.97110210632E+00  0.93800000000E+00 0.  1.
         22    1    1    2    0    0 -0.27808956756E+00  0.16806076509E-01  0.80706292327E+00  0.85379553402E+00  0.00000000000E+00 0.  1.
</event>
<event>
 5    1  0.1537976E+002  0.1599391E+01  0.7818608E-02  0.3354024E+00
         11   -1    0    0    0    0  0.00000000000E+00  0.00000000000E+00  0.39999999674E+01  0.40000000000E+01  0.51100000000E-03 0.  1.
    9000002   -1    0    0    0    0 -0.00000000000E+00 -0.00000000000E+00  0.00000000000E+00  0.93800000000E+00  0.93800000000E+00 0. -1.
         11    1    1    2    0    0 -0.18526485930E-01 -0.80179612159E-02  0.25240432049E+00  0.25321082225E+00  0.51100000000E-03 0.  1.
    9000002    1    1    2    0    0  0.25036768465E+00 -0.24786652493E-01  0.42272173533E-01  0.97207473597E+00  0.93800000000E+00 0. -1.
         22    1    1    2    0    0 -0.23184119872E+00  0.32804613709E-01  0.37053234733E+01  0.37127144418E+01  0.00000000000E+00 0.  1.
</event>
<event>
 5    1  0.1537976E+002  0.1598592E+01  0.7818608E-02  0.3354893E+00
         11   -1    0    0    0    0  0.00000000000E+00  0.00000000000E+00  0.39999999674E+01  0.40000000000E+01  0.51100000000E-03 0.  1.
    9000002   -1    0    0    0    0 -0.00000000000E+00 -0.00000000000E+00  0.00000000000E+00  0.93800000000E+00  0.93800000000E+00 0. -1.
         11    1    1    2    0    0  0.39039244441E-01  0.51752158714E-01  0.10537623733E+01  0.10557545875E+01  0.51100000000E-03 0.  1.
    9000002    1    1    2    0    0 -0.23526814664E+00 -0.97111268503E-01  0.43880392491E-01  0.97290862271E+00  0.93800000000E+00 0. -1.
         22    1    1    2    0    0  0.19622890220E+00  0.45359109790E-01  0.29023572016E+01  0.29093367898E+01  0.00000000000E+00 0.  1.
</event>
<event>
 5    1  0.1537976E+002  0.1599677E+01  0.7818608E-02  0.3353714E+00
         11   -1    0    0    0    0  0.00000000000E+00  0.00000000000E+00  0.39999999674E+01  0.40000000000E+01  0.51100000000E-03 0.  1.
    9000002   -1    0    0    0    0 -0.00000000000E+00 -0.00000000000E+00  0.00000000000E+00  0.93800000000E+00  0.93800000000E+00 0. -1.
         11    1    1    2    0    0 -0.26742886072E+00 -0.13938745051E+00  0.21433712772E+01  0.21644832524E+01  0.51100000000E-03 0.  1.
    9000002    1    1    2    0    0  0.47399289651E+00  0.24607602439E+00  0.19642003458E+00  0.10971087028E+01  0.93800000000E+00 0. -1.
         22    1    1    2    0    0 -0.20656403579E+00 -0.10668857388E+00  0.16602086556E+01  0.16764080448E+01  0.00000000000E+00 0.  1.
</event>
<event>
 5    1  0.1537976E+002  0.1597301E+01  0.7818608E-02  0.3356298E+00
         11   -1    0    0    0    0  0.00000000000E+00  0.00000000000E+00  0.39999999674E+01  0.40000000000E+01  0.51100000000E-03 0. -1.
    9000002   -1    0    0    0    0 -0.00000000000E+00 -0.00000000000E+00  0.00000000000E+00  0.93800000000E+00  0.93800000000E+00 0. -1.
         11    1    1    2    0    0 -0.18479213754E+00 -0.43178190554E-01  0.13743044978E+01  0.13873448035E+01  0.51100000000E-03 0. -1.
    9000002    1    1    2    0    0  0.47956736467E+00 -0.32179279652E-01  0.15975311699E+00  0.10660137999E+01  0.93800000000E+00 0. -1.
         22    1    1    2    0    0 -0.29477522713E+00  0.75357470206E-01  0.24659423526E+01  0.24846413965E+01  0.00000000000E+00 0. -1.
</event>
<event>
 5    1  0.1537976E+002  0.1599042E+01  0.7818608E-02  0.3354404E+00
         11   -1    0    0    0    0  0.00000000000E+00  0.00000000000E+00  0.39999999674E+01  0.40000000000E+01  0.51100000000E-03 0. -1.
    9000002   -1    0    0    0    0 -0.00000000000E+00 -0.00000000000E+00  0.00000000000E+00  0.93800000000E+00  0.93800000000E+00 0. -1.
         11    1    1    2    0    0 -0.44857403493E-01 -0.80616778365E-01  0.10207299474E+01  0.10248907933E+01  0.51100000000E-03 0. -1.
    9000002    1    1    2    0    0  0.19885327275E+00  0.21192391595E+00  0.56787081220E-01  0.98362754274E+00  0.93800000000E+00 0. -1.
         22    1    1    2    0    0 -0.15399586926E+00 -0.13130713758E+00  0.29224829388E+01  0.29294816640E+01  0.00000000000E+00 0. -1.
</event>
<event>
 5    1  0.1537976E+002  0.1599602E+01  0.7818608E-02  0.3353795E+00
         11   -1    0    0    0    0  0.00000000000E+00  0.00000000000E+00  0.39999999674E+01  0.40000000000E+01  0.51100000000E-03 0.  1.
    9000002   -1    0    0    0    0 -0.00000000000E+00 -0.00000000000E+00  0.00000000000E+00  0.93800000000E+00  0.93800000000E+00 0. -1.
         11    1    1    2    0    0 -0.30457555490E-01 -0.72961343891E-01  0.11038650930E+01  0.11066930131E+01  0.51100000000E-03 0.  1.
    9000002    1    1    2    0    0  0.77267922857E-01  0.27136471906E+00  0.53080674312E-01  0.98095397478E+00  0.93800000000E+00 0. -1.
         22    1    1    2    0    0 -0.46810367367E-01 -0.19840337517E+00  0.28430542000E+01  0.28503530122E+01  0.00000000000E+00 0.  1.
</event>
<event>
 5    1  0.1537976E+002  0.1595228E+01  0.7818608E-02  0.3358560E+00
         11   -1    0    0    0    0  0.00000000000E+00  0.00000000000E+00  0.39999999674E+01  0.40000000000E+01  0.51100000000E-03 0. -1.
    9000002   -1    0    0    0    0 -0.00000000000E+00 -0.00000000000E+00  0.00000000000E+00  0.93800000000E+00  0.93800000000E+00 0. -1.
         11    1    1    2    0    0 -0.64479628492E-02 -0.94402521614E-01  0.14799652894E+01  0.14829871649E+01  0.51100000000E-03 0. -1.
    9000002    1    1    2    0    0  0.20856549739E+00  0.17203148657E+00  0.52074511491E-01  0.97757360532E+00  0.93800000000E+00 0. -1.
         22    1    1    2    0    0 -0.20211753454E+00 -0.77628964959E-01  0.24679601665E+01  0.24774392298E+01  0.00000000000E+00 0. -1.
</event>
<event>
 5    1  0.1537976E+002  0.1599676E+01  0.7818608E-02  0.3353715E+00
         11   -1    0    0    0    0  0.00000000000E+00  0.00000000000E+00  0.39999999674E+01  0.40000000000E+01  0.51100000000E-03 0.  1.
    9000002   -1    0    0    0    0 -0.00000000000E+00 -0.00000000000E+00  0.00000000000E+00  0.93800000000E+00  0.93800000000E+00 0.  1.
         11    1    1    2    0    0 -0.31957984473E+00  0.40925939429E+00  0.22860284469E+01  0.23442591260E+01  0.51100000000E-03 0.  1.
    9000002    1    1    2    0    0  0.49259078922E+00 -0.63266507667E+00  0.47387487772E+00  0.13218593664E+01  0.93800000000E+00 0.  1.
         22    1    1    2    0    0 -0.17301094449E+00  0.22340568238E+00  0.12400966428E+01  0.12718815076E+01  0.00000000000E+00 0.  1.
</event>
<event>
 5    1  0.1537976E+002  0.1599671E+01  0.7818608E-02  0.3353720E+00
         11   -1    0    0    0    0  0.00000000000E+00  0.00000000000E+00  0.39999999674E+01  0.40000000000E+01  0.51100000000E-03 0. -1.
    9000002   -1    0    0    0    0 -0.00000000000E+00 -0.00000000000E+00  0.00000000000E+00  0.93800000000E+00  0.93800000000E+00 0. -1.
         11    1    1    2    0    0  0.58836246053E-01  0.18205086619E-01  0.59766721466E+00  0.60083233071E+00  0.51100000000E-03 0. -1.
    9000002    1    1    2    0    0 -0.39528260283E+00 -0.11541638462E+00  0.11455866984E+00  0.10307943378E+01  0.93800000000E+00 0. -1.
         22    1    1    2    0    0  0.33644635678E+00  0.97211298004E-01  0.32877740829E+01  0.33063733315E+01  0.00000000000E+00 0. -1.
</event>
<event>
 5    1  0.1537976E+002  0.1599655E+01  0.7818608E-02  0.3353738E+00
         11   -1    0    0    0    0  0.00000000000E+00  0.00000000000E+00  0.39999999674E+01  0.40000000000E+01  0.51100000000E-03 0. -1.
    9000002   -1    0    0    0    0 -0.00000000000E+00 -0.00000000000E+00  0.00000000000E+00  0.93800000000E+00  0.93800000000E+00 0.  1.
         11    1    1    2    0    0  0.73892389801E-02  0.16715637810E-01  0.22147527957E+00  0.22222865247E+00  0.51100000000E-03 0. -1.
    9000002    1    1    2    0    0 -0.14455637014E+00 -0.25361917167E+00  0.56825995470E-01  0.98401850702E+00  0.93800000000E+00 0.  1.
         22    1    1    2    0    0  0.13716713116E+00  0.23690353386E+00  0.37216986923E+01  0.37317528405E+01  0.00000000000E+00 0. -1.
</event>
<event>
 5    1  0.1537976E+002  0.1599670E+01  0.7818608E-02  0.3353721E+00
         11   -1    0    0    0    0  0.00000000000E+00  0.00000000000E+00  0.39999999674E+01  0.40000000000E+01  0.51100000000E-03 0. -1.
    9000002   -1    0    0    0    0 -0.00000000000E+00 -0.00000000000E+00  0.00000000000E+00  0.93800000000E+00  0.93800000000E+00 0. -1.
         11    1    1    2    0    0  0.16407903620E-01  0.43609572653E-01  0.41837014093E+00  0.42095706440E+00  0.51100000000E-03 0. -1.
    9000002    1    1    2    0    0 -0.15376246475E+00 -0.42008719892E+00  0.13586836575E+00  0.10480555153E+01  0.93800000000E+00 0. -1.
         22    1    1    2    0    0  0.13735456113E+00  0.37647762626E+00  0.34457614607E+01  0.34689874203E+01  0.00000000000E+00 0. -1.
</event>
<event>
 5    1  0.1537976E+002  0.1599597E+01  0.7818608E-02  0.3353801E+00
         11   -1    0    0    0    0  0.00000000000E+00  0.00000000000E+00  0.39999999674E+01  0.40000000000E+01  0.51100000000E-03 0. -1.
    9000002   -1    0    0    0    0 -0.00000000000E+00 -0.00000000000E+00  0.00000000000E+00  0.93800000000E+00  0.93800000000E+00 0. -1.
         11    1    1    2    0    0 -0.91475488570E-01  0.21939129588E-01  0.12028748127E+01  0.12065476230E+01  0.51100000000E-03 0. -1.
    9000002    1    1    2    0    0  0.27830437011E+00 -0.96187065498E-01  0.57874780628E-01  0.98483438416E+00  0.93800000000E+00 0. -1.
         22    1    1    2    0    0 -0.18682888154E+00  0.74247935910E-01  0.27392503740E+01  0.27466179928E+01  0.00000000000E+00 0.  1.
</event>
<event>
 5    1  0.1537976E+002  0.1599353E+01  0.7818608E-02  0.3354065E+00
         11   -1    0    0    0    0  0.00000000000E+00  0.00000000000E+00  0.39999999674E+01  0.40000000000E+01  0.51100000000E-03 0.  1.
    9000002   -1    0    0    0    0 -0.00000000000E+00 -0.00000000000E+00  0.00000000000E+00  0.93800000000E+00  0.93800000000E+00 0.  1.
         11    1    1    2    0    0  0.10101633919E-01 -0.18322107273E+00  0.17050611230E+01  0.17149069068E+01  0.51100000000E-03 0.  1.
    9000002    1    1    2    0    0 -0.57190173777E-01  0.38345993394E+00  0.10149849092E+00  0.10200285195E+01  0.93800000000E+00 0.  1.
         22    1    1    2    0    0  0.47088539858E-01 -0.20023886120E+00  0.21934403534E+01  0.22030645737E+01  0.00000000000E+00 0.  1.
</event>
<event>
 5    1  0.1537976E+002  0.1599641E+01  0.7818608E-02  0.3353753E+00
         11   -1    0    0    0    0  0.00000000000E+00  0.00000000000E+00  0.39999999674E+01  0.40000000000E+01  0.51100000000E-03 0. -1.
    9000002   -1    0    0    0    0 -0.00000000000E+00 -0.00000000000E+00  0.00000000000E+00  0.93800000000E+00  0.93800000000E+00 0. -1.
         11    1    1    2    0    0 -0.12752995944E-01 -0.13280931829E-01  0.26309709497E+00  0.26374109380E+00  0.51100000000E-03 0. -1.
    9000002    1    1    2    0    0  0.18099097441E+00  0.14765649307E+00  0.36226939579E-01  0.96732443571E+00  0.93800000000E+00 0. -1.
         22    1    1    2    0    0 -0.16823797847E+00 -0.13437556124E+00  0.37006759328E+01  0.37069344705E+01  0.00000000000E+00 0. -1.
</event>
<event>
 5    1  0.1537976E+002  0.1599296E+01  0.7818608E-02  0.3354128E+00
         11   -1    0    0    0    0  0.00000000000E+00  0.00000000000E+00  0.39999999674E+01  0.40000000000E+01  0.51100000000E-03 0. -1.
    9000002   -1    0    0    0    0 -0.00000000000E+00 -0.00000000000E+00  0.00000000000E+00  0.93800000000E+00  0.93800000000E+00 0.  1.
         11    1    1    2    0    0 -0.12433461797E+00  0.12014263134E+00  0.16785530041E+01  0.16874340869E+01  0.51100000000E-03 0. -1.
    9000002    1    1    2    0    0  0.24966513118E+00 -0.31618780675E+00  0.10983773123E+00  0.10267500835E+01  0.93800000000E+00 0.  1.
         22    1    1    2    0    0 -0.12533051321E+00  0.19604517541E+00  0.22116092320E+01  0.22238158295E+01  0.00000000000E+00 0. -1.
</event>
<event>
 5    1  0.1537976E+002  0.1599676E+01  0.7818608E-02  0.3353715E+00
         11   -1    0    0    0    0  0.00000000000E+00  0.00000000000E+00  0.39999999674E+01  0.40000000000E+01  0.51100000000E-03 0. -1.
    9000002   -1    0    0    0    0 -0.00000000000E+00 -0.00000000000E+00  0.00000000000E+00  0.93800000000E+00  0.93800000000E+00 0.  1.
         11    1    1    2    0    0 -0.10472841369E+00  0.77335451858E-03  0.11798883912E+01  0.11845275495E+01  0.51100000000E-03 0. -1.
    9000002    1    1    2    0    0  0.34921135728E+00 -0.26351688657E-03  0.81761184425E-01  0.10042298207E+01  0.93800000000E+00 0.  1.
         22    1    1    2    0    0 -0.24448294359E+00 -0.50983763201E-03  0.27383503918E+01  0.27492426298E+01  0.00000000000E+00 0. -1.
</event>
<event>
 5    1  0.1537976E+002  0.1599677E+01  0.7818608E-02  0.3353715E+00
         11   -1    0    0    0    0  0.00000000000E+00  0.00000000000E+00  0.39999999674E+01  0.40000000000E+01  0.51100000000E-03 0. -1.
    9000002   -1    0    0    0    0 -0.00000000000E+00 -0.00000000000E+00  0.00000000000E+00  0.93800000000E+00  0.93800000000E+00 0. -1.
         11    1    1    2    0    0  0.43224902755E-01  0.35335034409E-01  0.76407268469E+00  0.76610983905E+00  0.51100000000E-03 0.  1.
    9000002    1    1    2    0    0 -0.22284267027E+00 -0.18541306017E+00  0.56010612689E-01  0.98337075781E+00  0.93800000000E+00 0. -1.
         22    1    1    2    0    0  0.17961776751E+00  0.15007802576E+00  0.31799166700E+01  0.31885194031E+01  0.00000000000E+00 0. -1.
</event>
<event>
 5    1  0.1537976E+002  0.1599672E+01  0.7818608E-02  0.3353719E+00
         11   -1    0    0    0    0  0.00000000000E+00  0.00000000000E+00  0.39999999674E+01  0.40000000000E+01  0.51100000000E-03 0. -1.
    9000002   -1    0    0    0    0 -0.00000000000E+00 -0.00000000000E+00  0.00000000000E+00  0.93800000000E+00  0.93800000000E+00 0. -1.
         11    1    1    2    0    0 -0.67896144826E-01  0.70612753099E-01  0.12650612899E+01  0.12688484447E+01  0.51100000000E-03 0. -1.
    9000002    1    1    2    0    0  0.21208772101E+00 -0.21246919827E+00  0.60127779517E-01  0.98670345671E+00  0.93800000000E+00 0. -1.
         22    1    1    2    0    0 -0.14419157618E+00  0.14185644517E+00  0.26748108980E+01  0.26824480986E+01  0.00000000000E+00 0. -1.
</event>
<event>
 5    1  0.1537976E+002  0.1591865E+01  0.7818608E-02  0.3362240E+00
         11   -1    0    0    0    0  0.00000000000E+00  0.00000000000E+00  0.39999999674E+01  0.40000000000E+01  0.51100000000E-03 0. -1.
    9000002   -1    0    0    0    0 -0.00000000000E+00 -0.00000000000E+00  0.00000000000E+00  0.93800000000E+00  0.93800000000E+00 0. -1.
         11    1    1    2    0    0  0.27436103206E+00 -0.26805114568E+00  0.23768853499E+01  0.24076356910E+01  0.51100000000E-03 0. -1.
    9000002    1    1    2    0    0 -0.54278429498E+00  0.30641802257E+00  0.28046464574E+00  0.11606081220E+01  0.93800000000E+00 0. -1.
         22    1    1    2    0    0  0.26842326292E+00 -0.38366876886E-01  0.13426499717E+01  0.13697561870E+01  0.00000000000E+00 0.  1.
</event>
<event>
 5    1  0.1537976E+002  0.1599666E+01  0.7818608E-02  0.3353726E+00
         11   -1    0    0    0    0  0.00000000000E+00  0.00000000000E+00  0.39999999674E+01  0.40000000000E+01  0.51100000000E-03 0.  1.
    9000002   -1    0    0    0    0 -0.00000000000E+00 -0.00000000000E+00  0.00000000000E+00  0.93800000000E+00  0.93800000000E+00 0. -1.
         11    1    1    2    0    0 -0.29068229233E-01  0.50647396122E-01  0.86160497865E+00  0.86358179754E+00  0.51100000000E-03 0.  1.
    9000002    1    1    2    0    0  0.14224173008E+00 -0.22053477074E+00  0.45801422106E-01  0.97509490059E+00  0.93800000000E+00 0. -1.
         22    1    1    2    0    0 -0.11317350085E+00  0.16988737462E+00  0.30925935666E+01  0.30993233019E+01  0.00000000000E+00 0. -1.
</event>
<event>
 5    1  0.1537976E+002  0.1599249E+01  0.7818608E-02  0.3354179E+00
         11   -1    0    0    0    0  0.00000000000E+00  0.00000000000E+00  0.39999999674E+01  0.40000000000E+01  0.51100000000E-03 0.  1.
    9000002   -1    0    0    0    0 -0.00000000000E+00 -0.00000000000E+00  0.00000000000E+00  0.93800000000E+00  0.93800000000E+00 0.  1.
         11    1    1    2    0    0 -0.26404894618E-01  0.48662393300E-01  0.66816750022E+00  0.67045754262E+00  0.51100000000E-03 0.  1.
    9000002    1    1    2    0    0  0.19869272751E+00 -0.18585276309E+00  0.49588315092E-01  0.97791771152E+00  0.93800000000E+00 0.  1.
         22    1    1    2    0    0 -0.17228783290E+00  0.13719036979E+00  0.32822441520E+01  0.32896247459E+01  0.00000000000E+00 0.  1.
</event>
<event>
 5    1  0.1537976E+002  0.1599677E+01  0.7818608E-02  0.3353714E+00
         11   -1    0    0    0    0  0.00000000000E+00  0.00000000000E+00  0.39999999674E+01  0.40000000000E+01  0.51100000000E-03 0. -1.
    9000002   -1    0    0    0    0 -0.00000000000E+00 -0.00000000000E+00  0.00000000000E+00  0.93800000000E+00  0.93800000000E+00 0.  1.
         11    1    1    2    0    0  0.10850707921E+00 -0.31123884578E-01  0.10079412652E+01  0.10142427410E+01  0.51100000000E-03 0. -1.
    9000002    1    1    2    0    0 -0.41742020803E+00  0.11719950797E+00  0.12736784253E+00  0.10411733391E+01  0.93800000000E+00 0.  1.
         22    1    1    2    0    0  0.30891312881E+00 -0.86075623393E-01  0.28646908596E+01  0.28825839199E+01  0.00000000000E+00 0. -1.
</event>
<event>
 5    1  0.1537976E+002  0.1591051E+01  0.7818608E-02  0.3363134E+00
         11   -1    0    0    0    0  0.00000000000E+00  0.00000000000E+00  0.39999999674E+01  0.40000000000E+01  0.51100000000E-03 0.  1.
    9000002   -1    0    0    0    0 -0.00000000000E+00 -0.00000000000E+00  0.00000000000E+00  0.93800000000E+00  0.93800000000E+00 0.  1.
         11    1    1    2    0    0  0.31586682416E-02 -0.25194783705E-01  0.11314422961E+01  0.11317273015E+01  0.51100000000E-03 0.  1.
    9000002    1    1    2    0    0 -0.34426626990E+00  0.19230112222E+00  0.11199495034E+00  0.10236629597E+01  0.93800000000E+00 0.  1.
         22    1    1    2    0    0  0.34110760166E+00 -0.16710633852E+00  0.27565627209E+01  0.27826097388E+01  0.00000000000E+00 0.  1.
</event>
<event>
 5    1  0.1537976E+002  0.1599644E+01  0.7818608E-02  0.3353750E+00
         11   -1    0    0    0    0  0.00000000000E+00  0.00000000000E+00  0.39999999674E+01  0.40000000000E+01  0.51100000000E-03 0.  1.
    9000002   -1    0    0    0    0 -0.00000000000E+00 -0.00000000000E+00  0.00000000000E+00  0.93800000000E+00  0.93800000000E+00 0.  1.
         11    1    1    2    0    0 -0.34270301760E-01  0.10121547375E+00  0.11175449091E+01  0.11226423788E+01  0.51100000000E-03 0.  1.
    9000002    1    1    2    0    0  0.13732044097E+00 -0.36551141589E+00  0.10273717830E+00  0.10212024415E+01  0.93800000000E+00 0.  1.
         22    1    1    2    0    0 -0.10305013921E+00  0.26429594214E+00  0.27797178800E+01  0.27941551797E+01  0.00000000000E+00 0.  1.
</event>
<event>
 5    1  0.1537976E+002  0.1599363E+01  0.7818608E-02  0.3354055E+00
         11   -1    0    0    0    0  0.00000000000E+00  0.00000000000E+00  0.39999999674E+01  0.40000000000E+01  0.51100000000E-03 0.  1.
    9000002   -1    0    0    0    0 -0.00000000000E+00 -0.00000000000E+00  0.00000000000E+00  0.93800000000E+00  0.93800000000E+00 0.  1.
         11    1    1    2    0    0  0.12534272906E-01 -0.39443697082E-01  0.66273470387E+00  0.66402594984E+00  0.51100000000E-03 0.  1.
    9000002    1    1    2    0    0  0.19548573519E-01  0.24723020804E+00  0.41090960600E-01  0.97110112220E+00  0.93800000000E+00 0.  1.
         22    1    1    2    0    0 -0.32082846425E-01 -0.20778651096E+00  0.32961743029E+01  0.33028729280E+01  0.00000000000E+00 0.  1.
</event>
<event>
 5    1  0.1537976E+002  0.1599677E+01  0.7818608E-02  0.3353714E+00
         11   -1    0    0    0    0  0.00000000000E+00  0.00000000000E+00  0.39999999674E+01  0.40000000000E+01  0.51100000000E-03 0. -1.
    9000002   -1    0    0    0    0 -0.00000000000E+00 -0.00000000000E+00  0.00000000000E+00  0.93800000000E+00  0.93800000000E+00 0. -1.
         11    1    1    2    0    0 -0.12328681434E+00 -0.24799018232E+00  0.20974128338E+01  0.21156180245E+01  0.51100000000E-03 0. -1.
    9000002    1    1    2    0    0  0.22389704465E+00  0.45139663617E+00  0.17391508899E+00  0.10788787086E+01  0.93800000000E+00 0. -1.
         22    1    1    2    0    0 -0.10061023031E+00 -0.20340645385E+00  0.17286720446E+01  0.17435032669E+01  0.00000000000E+00 0. -1.
</event>
<event>
 5    1  0.1537976E+002  0.1599650E+01  0.7818608E-02  0.3353743E+00
         11   -1    0    0    0    0  0.00000000000E+00  0.00000000000E+00  0.39999999674E+01  0.40000000000E+01  0.51100000000E-03 0.  1.
    9000002   -1    0    0    0    0 -0.00000000000E+00 -0.00000000000E+00  0.00000000000E+00  0.93800000000E+00  0.93800000000E+00 0. -1.
         11    1    1    2    0    0 -0.40976790753E+00  0.28046684491E+00  0.23885105857E+01  0.24395807976E+01  0.51100000000E-03 0.  1.
    9000002    1    1    2    0    0  0.60893753100E+00 -0.42344486219E+00  0.39783644657E+00  0.12602493032E+01  0.93800000000E+00 0. -1.
         22    1    1    2    0    0 -0.19916962347E+00  0.14297801728E+00  0.12136529351E+01  0.12381698992E+01  0.00000000000E+00 0. -1.
</event>
<event>
 5    1  0.1537976E+002  0.1590939E+01  0.7818608E-02  0.3363257E+00
         11   -1    0    0    0    0  0.00000000000E+00  0.00000000000E+00  0.39999999674E+01  0.40000000000E+01  0.51100000000E-03 0.  1.
    9000002   -1    0    0    0    0 -0.00000000000E+00 -0.00000000000E+00  0.00000000000E+00  0.93800000000E+00  0.93800000000E+00 0. -1.
         11    1    1    2    0    0 -0.51872167979E-02  0.55820970921E-01  0.34055182924E+00  0.34513576681E+00  0.51100000000E-03 0.  1.
    9000002    1    1    2    0    0 -0.21051670723E+00  0.33438364722E-01  0.36712188292E-01  0.96261476876E+00  0.93800000000E+00 0. -1.
         22    1    1    2    0    0  0.21570392403E+00 -0.89259335644E-01  0.36227359498E+01  0.36302494644E+01  0.00000000000E+00 0.  1.
</event>
<event>
 5    1  0.1537976E+002  0.1562719E+01  0.7818608E-02  0.3394848E+00
         11   -1    0    0    0    0  0.00000000000E+00  0.00000000000E+00  0.39999999674E+01  0.40000000000E+01  0.51100000000E-03 0. -1.
    9000002   -1    0    0    0    0 -0.00000000000E+00 -0.00000000000E+00  0.00000000000E+00  0.93800000000E+00  0.93800000000E+00 0. -1.
         11    1    1    2    0    0 -0.93655061365E-01 -0.56386755289E-01  0.18035200107E+01  0.18068302153E+01  0.51100000000E-03 0. -1.
    9000002    1    1    2    0    0  0.62016570964E-02 -0.33742047550E+00  0.10640993389E+00  0.10025258659E+01  0.93800000000E+00 0. -1.
         22    1    1    2    0    0  0.87453404269E-01  0.39380723078E+00  0.20900700227E+01  0.21286439188E+01  0.00000000000E+00 0. -1.
</event>
<event>
 5    1  0.1537976E+002  0.1599469E+01  0.7818608E-02  0.3353940E+00
         11   -1    0    0    0    0  0.00000000000E+00  0.00000000000E+00  0.39999999674E+01  0.40000000000E+01  0.51100000000E-03 0. -1.
    9000002   -1    0    0    0    0 -0.00000000000E+00 -0.00000000000E+00  0.00000000000E+00  0.93800000000E+00  0.93800000000E+00 0. -1.
         11    1    1    2    0    0 -0.64022912895E-03  0.40661316731E-01  0.32874258387E+00  0.33124869833E+00  0.51100000000E-03 0. -1.
    9000002    1    1    2    0    0  0.43543967913E-01 -0.37388200714E+00  0.95459413805E-01  0.10152045765E+01  0.93800000000E+00 0. -1.
         22    1    1    2    0    0 -0.42903738784E-01  0.33322069041E+00  0.35757979697E+01  0.35915467252E+01  0.00000000000E+00 0. -1.
</event>
<event>
 5    1  0.1537976E+002  0.1517949E+01  0.7818608E-02  0.3447535E+00
         11   -1    0    0    0    0  0.00000000000E+00  0.00000000000E+00  0.39999999674E+01  0.40000000000E+01  0.51100000000E-03 0. -1.
    9000002   -1    0    0    0    0 -0.00000000000E+00 -0.00000000000E+00  0.00000000000E+00  0.93800000000E+00  0.93800000000E+00 0. -1.
         11    1    1    2    0    0 -0.15669679766E+00  0.25211436756E+00  0.31579611767E+01  0.31718818697E+01  0.51100000000E-03 0. -1.
    9000002    1    1    2    0    0 -0.19294566868E-01 -0.45116751833E-01  0.63380715660E-01  0.94141856617E+00  0.93800000000E+00 0. -1.
         22    1    1    2    0    0  0.17599136453E+00 -0.20699761573E+00  0.77865807502E+00  0.82469956415E+00  0.00000000000E+00 0.  1.
</event>
<event>
 5    1  0.1537976E+002  0.1599614E+01  0.7818608E-02  0.3353783E+00
         11   -1    0    0    0    0  0.00000000000E+00  0.00000000000E+00  0.39999999674E+01  0.40000000000E+01  0.51100000000E-03 0. -1.
    9000002   -1    0    0    0    0 -0.00000000000E+00 -0.00000000000E+00  0.00000000000E+00  0.93800000000E+00  0.93800000000E+00 0.  1.
         11    1    1    2    0    0 -0.16803908160E-02  0.60963093456E-01  0.55962416780E+00  0.56293764556E+00  0.51100000000E-03 0. -1.
    9000002    1    1    2    0    0 -0.14613550575E-01 -0.38610657450E+00  0.10057991643E+00  0.10194371792E+01  0.93800000000E+00 0.  1.
         22    1    1    2    0    0  0.16293941391E-01  0.32514348105E+00  0.33397958831E+01  0.33556251752E+01  0.00000000000E+00 0. -1.
</event>
<event>
 5    1  0.1537976E+002  0.1593775E+01  0.7818608E-02  0.3360148E+00
         11   -1    0    0    0    0  0.00000000000E+00  0.00000000000E+00  0.39999999674E+01  0.40000000000E+01  0.51100000000E-03 0.  1.
    9000002   -1    0    0    0    0 -0.00000000000E+00 -0.00000000000E+00  0.00000000000E+00  0.93800000000E+00  0.93800000000E+00 0. -1.
         11    1    1    2    0    0  0.14027805726E-01  0.33187618946E-01  0.12618282082E+01  0.12623426181E+01  0.51100000000E-03 0.  1.
    9000002    1    1    2    0    0  0.21404278608E+00 -0.18294944364E+00  0.57395143547E-01  0.98103160790E+00  0.93800000000E+00 0. -1.
         22    1    1    2    0    0 -0.22807059181E+00  0.14976182469E+00  0.26807766156E+01  0.26946257740E+01  0.00000000000E+00 0.  1.
</event>
<event>
 5    1  0.1537976E+002  0.1598520E+01  0.7818608E-02  0.3354971E+00
         11   -1    0    0    0    0  0.00000000000E+00  0.00000000000E+00  0.39999999674E+01  0.40000000000E+01  0.51100000000E-03 0.  1.
    9000002   -1    0    0    0    0 -0.00000000000E+00 -0.00000000000E+00  0.00000000000E+00  0.93800000000E+00  0.93800000000E+00 0.  1.
         11    1    1    2    0    0  0.90689087735E-02 -0.77690471590E-01  0.15260189422E+01  0.15280222929E+01  0.51100000000E-03 0.  1.
    9000002    1    1    2    0    0 -0.64979834121E-01  0.29491582822E+00  0.61757420828E-01  0.98734781288E+00  0.93800000000E+00 0.  1.
         22    1    1    2    0    0  0.55910925347E-01 -0.21722535663E+00  0.24122236043E+01  0.24226298942E+01  0.00000000000E+00 0.  1.
</event>
<event>
 5    1  0.1537976E+002  0.1599677E+01  0.7818608E-02  0.3353714E+00
         11   -1    0    0    0    0  0.00000000000E+00  0.00000000000E+00  0.39999999674E+01  0.40000000000E+01  0.51100000000E-03 0. -1.
    9000002   -1    0    0    0    0 -0.00000000000E+00 -0.00000000000E+00  0.00000000000E+00  0.93800000000E+00  0.93800000000E+00 0.  1.
         11    1    1    2    0    0 -0.11679361253E-01 -0.37553850795E-01  0.64284599070E+00  0.64404807900E+00  0.51100000000E-03 0.  1.
    9000002    1    1    2    0    0  0.72686627144E-01  0.23313291952E+00  0.39597319862E-01  0.97007538453E+00  0.93800000000E+00 0.  1.
         22    1    1    2    0    0 -0.61007265892E-01 -0.19557906872E+00  0.33175566568E+01  0.33238765365E+01  0.00000000000E+00 0. -1.
</event>
<event>
 5    1  0.1537976E+002  0.1599658E+01  0.7818608E-02  0.3353735E+00
         11   -1    0    0    0    0  0.00000000000E+00  0.00000000000E+00  0.39999999674E+01  0.40000000000E+01  0.51100000000E-03 0. -1.
    9000002   -1    0    0    0    0 -0.00000000000E+00 -0.00000000000E+00  0.00000000000E+00  0.93800000000E+00  0.93800000000E+00 0.  1.
         11    1    1    2    0    0 -0.99728964394E-01  0.38259535864E+00  0.22895843155E+01  0.23234719008E+01  0.51100000000E-03 0. -1.
    9000002    1    1    2    0    0  0.16750149207E+00 -0.61467836925E+00  0.28556008203E+00  0.11693052672E+01  0.93800000000E+00 0.  1.
         22    1    1    2    0    0 -0.67772527678E-01  0.23208301061E+00  0.14248555698E+01  0.14452228320E+01  0.00000000000E+00 0. -1.
</event>
<event>
 5    1  0.1537976E+002  0.1596216E+01  0.7818608E-02  0.3357481E+00
         11   -1    0    0    0    0  0.00000000000E+00  0.00000000000E+00  0.39999999674E+01  0.40000000000E+01  0.51100000000E-03 0. -1.
    9000002   -1    0    0    0    0 -0.00000000000E+00 -0.00000000000E+00  0.00000000000E+00  0.93800000000E+00  0.93800000000E+00 0. -1.
         11    1    1    2    0    0  0.85281583988E-01 -0.14479048165E+00  0.78070657746E+00  0.79858640945E+00  0.51100000000E-03 0. -1.
    9000002    1    1    2    0    0 -0.12781472898E+00  0.66982490914E+00  0.33454337675E+00  0.12069653205E+01  0.93800000000E+00 0. -1.
         22    1    1    2    0    0  0.42533144987E-01 -0.52503442748E+00  0.28847500132E+01  0.29324482701E+01  0.00000000000E+00 0. -1.
</event>
<event>
 5    1  0.1537976E+002  0.1541458E+01  0.7818608E-02  0.3419461E+00
         11   -1    0    0    0    0  0.00000000000E+00  0.00000000000E+00  0.39999999674E+01  0.40000000000E+01  0.51100000000E-03 0. -1.
    9000002   -1    0    0    0    0 -0.00000000000E+00 -0.00000000000E+00  0.00000000000E+00  0.93800000000E+00  0.93800000000E+00 0. -1.
         11    1    1    2    0    0 -0.26763765181E+00 -0.10318191589E+00  0.24488964064E+01  0.24656379075E+01  0.51100000000E-03 0. -1.
    9000002    1    1    2    0    0 -0.93922073083E-02  0.26890683517E+00  0.94475963527E-01  0.98039217012E+00  0.93800000000E+00 0. -1.
         22    1    1    2    0    0  0.27702985912E+00 -0.16572491928E+00  0.14566275974E+01  0.14919699224E+01  0.00000000000E+00 0. -1.
</event>
<event>
 5    1  0.1537976E+002  0.1556731E+01  0.7818608E-02  0.3401708E+00
         11   -1    0    0    0    0  0.00000000000E+00  0.00000000000E+00  0.39999999674E+01  0.40000000000E+01  0.51100000000E-03 0. -1.
    9000002   -1    0    0    0    0 -0.00000000000E+00 -0.00000000000E+00  0.00000000000E+00  0.93800000000E+00  0.93800000000E+00 0. -1.
         11    1    1    2    0    0 -0.22987848863E+00  0.10293790413E+00  0.18183383737E+01  0.18357001482E+01  0.51100000000E-03 0. -1.
    9000002    1    1    2    0    0 -0.21710253378E-01 -0.82483006271E-01  0.36749844306E-01  0.94258651193E+00  0.93800000000E+00 0. -1.
         22    1    1    2    0    0  0.25158874201E+00 -0.20454897856E-01  0.21449117493E+01  0.21597133399E+01  0.00000000000E+00 0.  1.
</event>
<event>
 5    1  0.1537976E+002  0.1598935E+01  0.7818608E-02  0.3354520E+00
         11   -1    0    0    0    0  0.00000000000E+00  0.00000000000E+00  0.39999999674E+01  0.40000000000E+01  0.51100000000E-03 0.  1.
    9000002   -1    0    0    0    0 -0.00000000000E+00 -0.00000000000E+00  0.00000000000E+00  0.93800000000E+00  0.93800000000E+00 0.  1.
         11    1    1    2    0    0  0.56196265410E-02 -0.55983478291E-02  0.52902280060E-01  0.53496112545E-01  0.51100000000E-03 0.  1.
    9000002    1    1    2    0    0 -0.44184719414E+00 -0.14596228882E+00  0.14805540256E+00  0.10574962577E+01  0.93800000000E+00 0.  1.
         22    1    1    2    0    0  0.43622756760E+00  0.15156063665E+00  0.37990422847E+01  0.38270076298E+01  0.00000000000E+00 0.  1.
</event>
<event>
 5    1  0.1537976E+002  0.1599677E+01  0.7818608E-02  0.3353714E+00
         11   -1    0    0    0    0  0.00000000000E+00  0.00000000000E+00  0.39999999674E+01  0.40000000000E+01  0.51100000000E-03 0. -1.
    9000002   -1    0    0    0    0 -0.00000000000E+00 -0.00000000000E+00  0.00000000000E+00  0.93800000000E+00  0.93800000000E+00 0.  1.
         11    1    1    2    0    0 -0.61777861867E-01  0.40714304911E-01  0.78258648294E+00  0.78607634695E+00  0.51100000000E-03 0.  1.
    9000002    1    1    2    0    0  0.30776899524E+00 -0.20264956362E+00  0.91239223182E-01  0.10119077013E+01  0.93800000000E+00 0.  1.
         22    1    1    2    0    0 -0.24599113337E+00  0.16193525871E+00  0.31261742612E+01  0.31400159518E+01  0.00000000000E+00 0. -1.
</event>
<event>
 5    1  0.1537976E+002  0.1599672E+01  0.7818608E-02  0.3353720E+00
         11   -1    0    0    0    0  0.00000000000E+00  0.00000000000E+00  0.39999999674E+01  0.40000000000E+01  0.51100000000E-03 0. -1.
    9000002   -1    0    0    0    0 -0.00000000000E+00 -0.00000000000E+00  0.00000000000E+00  0.93800000000E+00  0.93800000000E+00 0.  1.
         11    1    1    2    0    0  0.12860102260E-01 -0.97772325245E-02  0.19284841696E+00  0.19352454509E+00  0.51100000000E-03 0. -1.
    9000002    1    1    2    0    0 -0.28113399221E+00  0.18886113864E+00  0.76820632544E-01  0.10002251051E+01  0.93800000000E+00 0.  1.
         22    1    1    2    0    0  0.26827388995E+00 -0.17908390612E+00  0.37303309179E+01  0.37442503498E+01  0.00000000000E+00 0. -1.
</event>
<event>
 5    1  0.1537976E+002  0.1599323E+01  0.7818608E-02  0.3354098E+00
         11   -1    0    0    0    0  0.00000000000E+00  0.00000000000E+00  0.39999999674E+01  0.40000000000E+01  0.51100000000E-03 0.  1.
    9000002   -1    0    0    0    0 -0.00000000000E+00 -0.00000000000E+00  0.00000000000E+00  0.93800000000E+00  0.93800000000E+00 0. -1.
         11    1    1    2    0    0 -0.21396275948E-01  0.60027487036E-01  0.94403812304E+00  0.94618673564E+00  0.51100000000E-03 0.  1.
    9000002    1    1    2    0    0  0.16650299487E+00 -0.22694462019E+00  0.53039513845E-01  0.98075700250E+00  0.93800000000E+00 0. -1.
         22    1    1    2    0    0 -0.14510671892E+00  0.16691713315E+00  0.30029223305E+01  0.30110562619E+01  0.00000000000E+00 0.  1.
</event>
<event>
 5    1  0.1537976E+002  0.1599677E+01  0.7818608E-02  0.3353714E+00
         11   -1    0    0    0    0  0.00000000000E+00  0.00000000000E+00  0.39999999674E+01  0.40000000000E+01  0.51100000000E-03 0.  1.
    9000002   -1    0    0    0    0 -0.00000000000E+00 -0.00000000000E+00  0.00000000000E+00  0.93800000000E+00  0.93800000000E+00 0.  1.
         11    1    1    2    0    0 -0.13031434405E+00  0.38125463377E+00  0.17024127370E+01  0.17494417144E+01  0.51100000000E-03 0.  1.
    9000002    1    1    2    0    0  0.26799604828E+00 -0.78239921562E+00  0.50861648056E+00  0.13500019033E+01  0.93800000000E+00 0.  1.
         22    1    1    2    0    0 -0.13768170423E+00  0.40114458185E+00  0.17889707498E+01  0.18385563823E+01  0.00000000000E+00 0.  1.
</event>
<event>
 5    1  0.1537976E+002  0.1599473E+01  0.7818608E-02  0.3353935E+00
         11   -1    0    0    0    0  0.00000000000E+00  0.00000000000E+00  0.39999999674E+01  0.40000000000E+01  0.51100000000E-03 0.  1.
    9000002   -1    0    0    0    0 -0.00000000000E+00 -0.00000000000E+00  0.00000000000E+00  0.93800000000E+00  0.93800000000E+00 0. -1.
         11    1    1    2    0    0  0.11274607926E+00  0.18070010240E+00  0.12603316079E+01  0.12782019514E+01  0.51100000000E-03 0.  1.
    9000002    1    1    2    0    0 -0.29956556379E+00 -0.56735568407E+00  0.29009979072E+00  0.11728741995E+01  0.93800000000E+00 0. -1.
         22    1    1    2    0    0  0.18681948453E+00  0.38665558167E+00  0.24495685687E+01  0.24869238491E+01  0.00000000000E+00 0.  1.
</event>
<event>
 5    1  0.1537976E+002  0.1599676E+01  0.7818608E-02  0.3353715E+00
         11   -1    0    0    0    0  0.00000000000E+00  0.00000000000E+00  0.39999999674E+01  0.40000000000E+01  0.51100000000E-03 0. -1.
    9000002   -1    0    0    0    0 -0.00000000000E+00 -0.00000000000E+00  0.00000000000E+00  0.93800000000E+00  0.93800000000E+00 0. -1.
         11    1    1    2    0    0  0.85025461340E-01  0.55343953063E-02  0.77166378489E+00  0.77635379605E+00  0.51100000000E-03 0.  1.
    9000002    1    1    2    0    0 -0.42445027609E+00 -0.30015009584E-01  0.12254392002E+00  0.10372656121E+01  0.93800000000E+00 0. -1.
         22    1    1    2    0    0  0.33942481475E+00  0.24480614278E-01  0.31057922625E+01  0.31243805919E+01  0.00000000000E+00 0. -1.
</event>
<event>
 5    1  0.1537976E+002  0.1595941E+01  0.7818608E-02  0.3357781E+00
         11   -1    0    0    0    0  0.00000000000E+00  0.00000000000E+00  0.39999999674E+01  0.40000000000E+01  0.51100000000E-03 0.  1.
    9000002   -1    0    0    0    0 -0.00000000000E+00 -0.00000000000E+00  0.00000000000E+00  0.93800000000E+00  0.93800000000E+00 0.  1.
         11    1    1    2    0    0  0.31886572937E+00  0.87046184067E-01  0.22869836212E+01  0.23107459263E+01  0.51100000000E-03 0.  1.
    9000002    1    1    2    0    0 -0.51717796557E+00 -0.26144282382E+00  0.23694749923E+00  0.11277470974E+01  0.93800000000E+00 0.  1.
         22    1    1    2    0    0  0.19831223620E+00  0.17439663975E+00  0.14760688470E+01  0.14995069763E+01  0.00000000000E+00 0. -1.
</event>
<event>
 5    1  0.1537976E+002  0.1599400E+01  0.7818608E-02  0.3354014E+00
         11   -1    0    0    0    0  0.00000000000E+00  0.00000000000E+00  0.39999999674E+01  0.40000000000E+01  0.51100000000E-03 0. -1.
    9000002   -1    0    0    0    0 -0.00000000000E+00 -0.00000000000E+00  0.00000000000E+00  0.93800000000E+00  0.93800000000E+00 0. -1.
         11    1    1    2    0    0  0.12268163329E-01 -0.40940263575E-01  0.46424278148E+00  0.46620621434E+00  0.51100000000E-03 0. -1.
    9000002    1    1    2    0    0 -0.21132302854E+00  0.34875773543E+00  0.11251038329E+00  0.10289761740E+01  0.93800000000E+00 0. -1.
         22    1    1    2    0    0  0.19905486521E+00 -0.30781747186E+00  0.34232468026E+01  0.34428176116E+01  0.00000000000E+00 0. -1.
</event>
<event>
 5    1  0.1537976E+002  0.1559585E+01  0.7818608E-02  0.3398431E+00
         11   -1    0    0    0    0  0.00000000000E+00  0.00000000000E+00  0.39999999674E+01  0.40000000000E+01  0.51100000000E-03 0. -1.
    9000002   -1    0    0    0    0 -0.00000000000E+00 -0.00000000000E+00  0.00000000000E+00  0.93800000000E+00  0.93800000000E+00 0.  1.
         11    1    1    2    0    0  0.16831359734E+00  0.39053777512E-01  0.62947731410E+00  0.65276076373E+00  0.51100000000E-03 0. -1.
    9000002    1    1    2    0    0 -0.53952551878E-01  0.24166115697E+00  0.71979439009E-01  0.97279804291E+00  0.93800000000E+00 0.  1.
         22    1    1    2    0    0 -0.11436104546E+00 -0.28071493449E+00  0.32985432143E+01  0.33124411934E+01  0.00000000000E+00 0. -1.
</event>
<event>
 5    1  0.1537976E+002  0.1599400E+01  0.7818608E-02  0.3354015E+00
         11   -1    0    0    0    0  0.00000000000E+00  0.00000000000E+00  0.39999999674E+01  0.40000000000E+01  0.51100000000E-03 0.  1.
    9000002   -1    0    0    0    0 -0.00000000000E+00 -0.00000000000E+00  0.00000000000E+00  0.93800000000E+00  0.93800000000E+00 0.  1.
         11    1    1    2    0    0 -0.96420399455E-02  0.12458298104E-01  0.13634515777E+00  0.13725320140E+00  0.51100000000E-03 0.  1.
    9000002    1    1    2    0    0  0.13005688074E+00 -0.21110677893E+00  0.41046493984E-01  0.97108685451E+00  0.93800000000E+00 0.  1.
         22    1    1    2    0    0 -0.12041484079E+00  0.19864848083E+00  0.38226083156E+01  0.38296599441E+01  0.00000000000E+00 0.  1.
</event>
<event>
 5    1  0.1537976E+002  0.1548319E+01  0.7818608E-02  0.3411440E+00
         11   -1    0    0    0    0  0.00000000000E+00  0.00000000000E+00  0.39999999674E+01  0.40000000000E+01  0.51100000000E-03 0. -1.
    9000002   -1    0    0    0    0 -0.00000000000E+00 -0.00000000000E+00  0.00000000000E+00  0.93800000000E+00  0.93800000000E+00 0.  1.
         11    1    1    2    0    0  0.96005750162E-01 -0.23313358364E+00  0.63489323128E+00  0.68312374291E+00  0.51100000000E-03 0. -1.
    9000002    1    1    2    0    0 -0.31022909132E+00  0.19692354660E+00  0.13377445089E+00  0.10162482846E+01  0.93800000000E+00 0.  1.
         22    1    1    2    0    0  0.21422334116E+00  0.36210037032E-01  0.32313322852E+01  0.32386279725E+01  0.00000000000E+00 0. -1.
</event>
<event>
 5    1  0.1595666E+002  0.1564012E+01  0.7818608E-02  0.3393374E+00
         11   -1    0    0    0    0  0.00000000000E+00  0.00000000000E+00  0.39999999674E+01  0.40000000000E+01  0.51100000000E-03 0.  1.
    9000002   -1    0    0    0    0 -0.00000000000E+00 -0.00000000000E+00  0.00000000000E+00  0.93800000000E+00  0.93800000000E+00 0. -1.
         11    1    1    2    0    0  0.12277544673E+00  0.74422594507E-01  0.48202232024E+00  0.50294961102E+00  0.51100000000E-03 0.  1.
    9000002    1    1    2    0    0  0.77058115248E-01 -0.36984412118E-01  0.31254434547E-01  0.94240471112E+00  0.93800000000E+00 0. -1.
         22    1    1    2    0    0 -0.19983356197E+00 -0.37438182389E-01  0.34867232126E+01  0.34926456779E+01  0.00000000000E+00 0.  1.
</event>
<event>
 5    1  0.1537976E+002  0.1599676E+01  0.7818608E-02  0.3353715E+00
         11   -1    0    0    0    0  0.00000000000E+00  0.00000000000E+00  0.39999999674E+01  0.40000000000E+01  0.51100000000E-03 0.  1.
    9000002   -1    0    0    0    0 -0.00000000000E+00 -0.00000000000E+00  0.00000000000E+00  0.93800000000E+00  0.93800000000E+00 0. -1.
         11    1    1    2    0    0 -0.15945664816E+00  0.44841292959E-02  0.14621704281E+01  0.14708464067E+01  0.51100000000E-03 0.  1.
    9000002    1    1    2    0    0  0.42229442674E+00 -0.87984378202E-02  0.12069961741E+00  0.10357714000E+01  0.93800000000E+00 0. -1.
         22    1    1    2    0    0 -0.26283777858E+00  0.43143085242E-02  0.24171299218E+01  0.24313821934E+01  0.00000000000E+00 0.  1.
</event>
<event>
 5    1  0.1537976E+002  0.1595645E+01  0.7818608E-02  0.3358104E+00
         11   -1    0    0    0    0  0.00000000000E+00  0.00000000000E+00  0.39999999674E+01  0.40000000000E+01  0.51100000000E-03 0. -1.
    9000002   -1    0    0    0    0 -0.00000000000E+00 -0.00000000000E+00  0.00000000000E+00  0.93800000000E+00  0.93800000000E+00 0.  1.
         11    1    1    2    0    0 -0.45525313556E-02  0.13134015051E-01  0.47756050590E+00  0.47776304358E+00  0.51100000000E-03 0. -1.
    9000002    1    1    2    0    0  0.42073058185E+00 -0.23840541242E+00  0.16324125833E+00  0.10678684711E+01  0.93800000000E+00 0.  1.
         22    1    1    2    0    0 -0.41617805049E+00  0.22527139737E+00  0.33591982031E+01  0.33923684853E+01  0.00000000000E+00 0.  1.
</event>
<event>
 5    1  0.1537976E+002  0.1599632E+01  0.7818608E-02  0.3353763E+00
         11   -1    0    0    0    0  0.00000000000E+00  0.00000000000E+00  0.39999999674E+01  0.40000000000E+01  0.51100000000E-03 0. -1.
    9000002   -1    0    0    0    0 -0.00000000000E+00 -0.00000000000E+00  0.00000000000E+00  0.93800000000E+00  0.93800000000E+00 0. -1.
         11    1    1    2    0    0 -0.13355169218E+00  0.17845694107E+00  0.15732447602E+01  0.15889563465E+01  0.51100000000E-03 0. -1.
    9000002    1    1    2    0    0  0.31143026839E+00 -0.44651554771E+00  0.20452574832E+00  0.11036483716E+01  0.93800000000E+00 0. -1.
         22    1    1    2    0    0 -0.17787857621E+00  0.26805860664E+00  0.22222294588E+01  0.22453952819E+01  0.00000000000E+00 0. -1.
</event>
<event>
 5    1  0.1537976E+002  0.1594511E+01  0.7818608E-02  0.3359342E+00
         11   -1    0    0    0    0  0.00000000000E+00  0.00000000000E+00  0.39999999674E+01  0.40000000000E+01  0.51100000000E-03 0.  1.
    9000002   -1    0    0    0    0 -0.00000000000E+00 -0.00000000000E+00  0.00000000000E+00  0.93800000000E+00  0.93800000000E+00 0. -1.
         11    1    1    2    0    0  0.14764208558E+00 -0.21142060931E+00  0.20406353574E+01  0.20568640652E+01  0.51100000000E-03 0.  1.
    9000002    1    1    2    0    0 -0.12420045512E+00  0.45077255139E+00  0.15341806060E+00  0.10592463110E+01  0.93800000000E+00 0. -1.
         22    1    1    2    0    0 -0.23441630459E-01 -0.23935194208E+00  0.18059465493E+01  0.18218896238E+01  0.00000000000E+00 0.  1.
</event>
<event>
 5    1  0.1537976E+002  0.1599598E+01  0.7818608E-02  0.3353799E+00
         11   -1    0    0    0    0  0.00000000000E+00  0.00000000000E+00  0.39999999674E+01  0.40000000000E+01  0.51100000000E-03 0.  1.
    9000002   -1    0    0    0    0 -0.00000000000E+00 -0.00000000000E+00  0.00000000000E+00  0.93800000000E+00  0.93800000000E+00 0. -1.
         11    1    1    2    0    0 -0.39121340770E+00  0.22820904510E+00  0.22395152837E+01  0.22848536639E+01  0.51100000000E-03 0.  1.
    9000002    1    1    2    0    0  0.61816788043E+00 -0.36386831842E+00  0.36956362057E+00  0.12373168354E+01  0.93800000000E+00 0. -1.
         22    1    1    2    0    0 -0.22695447273E+00  0.13565927331E+00  0.13909210631E+01  0.14158295007E+01  0.00000000000E+00 0.  1.
</event>
<event>
 5    1  0.1537976E+002  0.1550554E+01  0.7818608E-02  0.3408844E+00
         11   -1    0    0    0    0  0.00000000000E+00  0.00000000000E+00  0.39999999674E+01  0.40000000000E+01  0.51100000000E-03 0.  1.
    9000002   -1    0    0    0    0 -0.00000000000E+00 -0.00000000000E+00  0.00000000000E+00  0.93800000000E+00  0.93800000000E+00 0. -1.
         11    1    1    2    0    0 -0.20106706643E+00  0.68709837056E-01  0.61713893722E+00  0.65269421314E+00  0.51100000000E-03 0.  1.
    9000002    1    1    2    0    0  0.46401261010E-01 -0.23673072110E+00  0.77014862234E-01  0.97158108274E+00  0.93800000000E+00 0. -1.
         22    1    1    2    0    0  0.15466580542E+00  0.16802088404E+00  0.33058461679E+01  0.33137247041E+01  0.00000000000E+00 0.  1.
</event>
<event>
 5    1  0.1537976E+002  0.1599625E+01  0.7818608E-02  0.3353771E+00
         11   -1    0    0    0    0  0.00000000000E+00  0.00000000000E+00  0.39999999674E+01  0.40000000000E+01  0.51100000000E-03 0. -1.
    9000002   -1    0    0    0    0 -0.00000000000E+00 -0.00000000000E+00  0.00000000000E+00  0.93800000000E+00  0.93800000000E+00 0. -1.
         11    1    1    2    0    0  0.14926471012E-01 -0.13315039091E+00  0.11608739832E+01  0.11685805458E+01  0.51100000000E-03 0. -1.
    9000002    1    1    2    0    0 -0.64415969725E-01  0.42226345674E+00  0.12356112761E+00  0.10380593414E+01  0.93800000000E+00 0. -1.
         22    1    1    2    0    0  0.49489498713E-01 -0.28911306583E+00  0.27155648566E+01  0.27313601128E+01  0.00000000000E+00 0.  1.
</event>
<event>
 5    1  0.1537976E+002  0.1599675E+01  0.7818608E-02  0.3353716E+00
         11   -1    0    0    0    0  0.00000000000E+00  0.00000000000E+00  0.39999999674E+01  0.40000000000E+01  0.51100000000E-03 0. -1.
    9000002   -1    0    0    0    0 -0.00000000000E+00 -0.00000000000E+00  0.00000000000E+00  0.93800000000E+00  0.93800000000E+00 0. -1.
         11    1    1    2    0    0  0.11527406695E-01  0.18001720798E-01  0.29763271000E+00  0.29839978928E+00  0.51100000000E-03 0. -1.
    9000002    1    1    2    0    0 -0.14582269275E+00 -0.24616689523E+00  0.54544143487E-01  0.98218199007E+00  0.93800000000E+00 0. -1.
         22    1    1    2    0    0  0.13429528606E+00  0.22816517443E+00  0.36478231139E+01  0.36574182207E+01  0.00000000000E+00 0. -1.
</event>
<event>
 5    1  0.1537976E+002  0.1598392E+01  0.7818608E-02  0.3355111E+00
         11   -1    0    0    0    0  0.00000000000E+00  0.00000000000E+00  0.39999999674E+01  0.40000000000E+01  0.51100000000E-03 0.  1.
    9000002   -1    0    0    0    0 -0.00000000000E+00 -0.00000000000E+00  0.00000000000E+00  0.93800000000E+00  0.93800000000E+00 0.  1.
         11    1    1    2    0    0  0.14377720262E-01  0.58654146327E-02  0.84829878047E+00  0.84844104332E+00  0.51100000000E-03 0.  1.
    9000002    1    1    2    0    0 -0.19811888494E+00  0.74014626227E-01  0.30600422272E-01  0.96203411754E+00  0.93800000000E+00 0.  1.
         22    1    1    2    0    0  0.18374116468E+00 -0.79880040859E-01  0.31211007646E+01  0.31275248391E+01  0.00000000000E+00 0.  1.
</event>
<event>
 5    1  0.1537976E+002  0.1599675E+01  0.7818608E-02  0.3353716E+00
         11   -1    0    0    0    0  0.00000000000E+00  0.00000000000E+00  0.39999999674E+01  0.40000000000E+01  0.51100000000E-03 0.  1.
    9000002   -1    0    0    0    0 -0.00000000000E+00 -0.00000000000E+00  0.00000000000E+00  0.93800000000E+00  0.93800000000E+00 0.  1.
         11    1    1    2    0    0 -0.10546953027E+00 -0.10275457566E+00  0.14920913386E+01  0.14993395707E+01  0.51100000000E-03 0.  1.
    9000002    1    1    2    0    0  0.27318370022E+00  0.26589028226E+00  0.97797578770E-01  0.10172194172E+01  0.93800000000E+00 0.  1.
         22    1    1    2    0    0 -0.16771416995E+00 -0.16313570660E+00  0.24101110500E+01  0.24214410121E+01  0.00000000000E+00 0.  1.
</event>
<event>
 5    1  0.1537976E+002  0.1484877E+01  0.7818608E-02  0.3488646E+00
         11   -1    0    0    0    0  0.00000000000E+00  0.00000000000E+00  0.39999999674E+01  0.40000000000E+01  0.51100000000E-03 0. -1.
    9000002   -1    0    0    0    0 -0.00000000000E+00 -0.00000000000E+00  0.00000000000E+00  0.93800000000E+00  0.93800000000E+00 0. -1.
         11    1    1    2    0    0  0.30174591540E+00  0.12453200879E+00  0.70730890414E+00  0.77900254536E+00  0.51100000000E-03 0. -1.
    9000002    1    1    2    0    0  0.57030340123E-02 -0.13029448752E+00  0.10084987071E+00  0.95237801030E+00  0.93800000000E+00 0. -1.
         22    1    1    2    0    0 -0.30744894942E+00  0.57624787274E-02  0.31918411925E+01  0.32066194443E+01  0.00000000000E+00 0. -1.
</event>
<event>
 5    1  0.1537976E+002  0.1599677E+01  0.7818608E-02  0.3353714E+00
         11   -1    0    0    0    0  0.00000000000E+00  0.00000000000E+00  0.39999999674E+01  0.40000000000E+01  0.51100000000E-03 0.  1.
    9000002   -1    0    0    0    0 -0.00000000000E+00 -0.00000000000E+00  0.00000000000E+00  0.93800000000E+00  0.93800000000E+00 0. -1.
         11    1    1    2    0    0 -0.27316898164E+00 -0.25479002314E+00  0.21635643004E+01  0.21955750936E+01  0.51100000000E-03 0.  1.
    9000002    1    1    2    0    0  0.46889871785E+00  0.43721288511E+00  0.28942481752E+00  0.11724469453E+01  0.93800000000E+00 0. -1.
         22    1    1    2    0    0 -0.19572973621E+00 -0.18242286197E+00  0.15470108494E+01  0.15699779611E+01  0.00000000000E+00 0.  1.
</event>
<event>
 5    1  0.1537976E+002  0.1599665E+01  0.7818608E-02  0.3353727E+00
         11   -1    0    0    0    0  0.00000000000E+00  0.00000000000E+00  0.39999999674E+01  0.40000000000E+01  0.51100000000E-03 0. -1.
    9000002   -1    0    0    0    0 -0.00000000000E+00 -0.00000000000E+00  0.00000000000E+00  0.93800000000E+00  0.93800000000E+00 0. -1.
         11    1    1    2    0    0  0.23506090551E-01  0.52476128466E-02  0.40539200898E+00  0.40610714818E+00  0.51100000000E-03 0. -1.
    9000002    1    1    2    0    0 -0.24942993134E+00 -0.64359898988E-01  0.44115605420E-01  0.97372874759E+00  0.93800000000E+00 0. -1.
         22    1    1    2    0    0  0.22592384079E+00  0.59112286141E-01  0.35504923530E+01  0.35581641042E+01  0.00000000000E+00 0. -1.
</event>
<event>
 5    1  0.1537976E+002  0.1538335E+01  0.7818608E-02  0.3423138E+00
         11   -1    0    0    0    0  0.00000000000E+00  0.00000000000E+00  0.39999999674E+01  0.40000000000E+01  0.51100000000E-03 0. -1.
    9000002   -1    0    0    0    0 -0.00000000000E+00 -0.00000000000E+00  0.00000000000E+00  0.93800000000E+00  0.93800000000E+00 0.  1.
         11    1    1    2    0    0 -0.12601175265E+00  0.16601463715E+00  0.63624538666E+00  0.66951346120E+00  0.51100000000E-03 0. -1.
    9000002    1    1    2    0    0  0.40402681183E-02  0.96709423897E-01  0.52345023766E-01  0.94443265400E+00  0.93800000000E+00 0.  1.
         22    1    1    2    0    0  0.12197148454E+00 -0.26272406105E+00  0.33114095569E+01  0.33240538848E+01  0.00000000000E+00 0. -1.
</event>
<event>
 5    1  0.1537976E+002  0.1599154E+01  0.7818608E-02  0.3354282E+00
         11   -1    0    0    0    0  0.00000000000E+00  0.00000000000E+00  0.39999999674E+01  0.40000000000E+01  0.51100000000E-03 0. -1.
    9000002   -1    0    0    0    0 -0.00000000000E+00 -0.00000000000E+00  0.00000000000E+00  0.93800000000E+00  0.93800000000E+00 0. -1.
         11    1    1    2    0    0  0.12990238137E-01 -0.19496563460E-01  0.22652381041E+00  0.22773265044E+00  0.51100000000E-03 0. -1.
    9000002    1    1    2    0    0 -0.19067050530E+00  0.12041305143E+00  0.34118043506E-01  0.96533029862E+00  0.93800000000E+00 0. -1.
         22    1    1    2    0    0  0.17768026716E+00 -0.10091648798E+00  0.37393581134E+01  0.37449370509E+01  0.00000000000E+00 0. -1.
</event>
<event>
 5    1  0.1537976E+002  0.1599674E+01  0.7818608E-02  0.3353717E+00
         11   -1    0    0    0    0  0.00000000000E+00  0.00000000000E+00  0.39999999674E+01  0.40000000000E+01  0.51100000000E-03 0. -1.
    9000002   -1    0    0    0    0 -0.00000000000E+00 -0.00000000000E+00  0.00000000000E+00  0.93800000000E+00  0.93800000000E+00 0. -1.
         11    1    1    2    0    0 -0.39633879446E-01  0.10818752519E-01  0.47060192063E+00  0.47239212380E+00  0.51100000000E-03 0. -1.
    9000002    1    1    2    0    0  0.32267993961E+00 -0.96168289289E-01  0.75909201725E-01  0.99948831419E+00  0.93800000000E+00 0. -1.
         22    1    1    2    0    0 -0.28304606016E+00  0.85349536770E-01  0.34534888450E+01  0.34661195620E+01  0.00000000000E+00 0. -1.
</event>
<event>
 5    1  0.1537976E+002  0.1599676E+01  0.7818608E-02  0.3353715E+00
         11   -1    0    0    0    0  0.00000000000E+00  0.00000000000E+00  0.39999999674E+01  0.40000000000E+01  0.51100000000E-03 0.  1.
    9000002   -1    0    0    0    0 -0.00000000000E+00 -0.00000000000E+00  0.00000000000E+00  0.93800000000E+00  0.93800000000E+00 0.  1.
         11    1    1    2    0    0  0.34933315522E-01  0.25082453852E-01  0.56288760361E+00  0.56452828223E+00  0.51100000000E-03 0. -1.
    9000002    1    1    2    0    0 -0.24878003712E+00 -0.17805715144E+00  0.62474534016E-01  0.98860655645E+00  0.93800000000E+00 0.  1.
         22    1    1    2    0    0  0.21384672159E+00  0.15297469759E+00  0.33746378297E+01  0.33848651613E+01  0.00000000000E+00 0.  1.
</event>
<event>
 5    1  0.1537976E+002  0.1559098E+01  0.7818608E-02  0.3398989E+00
         11   -1    0    0    0    0  0.00000000000E+00  0.00000000000E+00  0.39999999674E+01  0.40000000000E+01  0.51100000000E-03 0.  1.
    9000002   -1    0    0    0    0 -0.00000000000E+00 -0.00000000000E+00  0.00000000000E+00  0.93800000000E+00  0.93800000000E+00 0.  1.
         11    1    1    2    0    0 -0.21086734266E+00  0.45036874100E-01  0.15509937632E+01  0.15659103649E+01  0.51100000000E-03 0.  1.
    9000002    1    1    2    0    0 -0.34851577288E-01  0.75703418495E-01  0.34725581142E-01  0.94233513465E+00  0.93800000000E+00 0.  1.
         22    1    1    2    0    0  0.24571891995E+00 -0.12074029259E+00  0.24142806230E+01  0.24297545004E+01  0.00000000000E+00 0.  1.
</event>
<event>
 5    1  0.1537976E+002  0.1599674E+01  0.7818608E-02  0.3353717E+00
         11   -1    0    0    0    0  0.00000000000E+00  0.00000000000E+00  0.39999999674E+01  0.40000000000E+01  0.51100000000E-03 0. -1.
    9000002   -1    0    0    0    0 -0.00000000000E+00 -0.00000000000E+00  0.00000000000E+00  0.93800000000E+00  0.93800000000E+00 0. -1.
         11    1    1    2    0    0  0.83987365740E-01 -0.46018874918E+00  0.24177050015E+01  0.24625444763E+01  0.51100000000E-03 0. -1.
    9000002    1    1    2    0    0 -0.12719192147E+00  0.69602108344E+00  0.35851938316E+00  0.12284149468E+01  0.93800000000E+00 0. -1.
         22    1    1    2    0    0  0.43204555729E-01 -0.23583233425E+00  0.12237755827E+01  0.12470405769E+01  0.00000000000E+00 0.  1.
</event>
<event>
 5    1  0.1537976E+002  0.1599616E+01  0.7818608E-02  0.3353780E+00
         11   -1    0    0    0    0  0.00000000000E+00  0.00000000000E+00  0.39999999674E+01  0.40000000000E+01  0.51100000000E-03 0.  1.
    9000002   -1    0    0    0    0 -0.00000000000E+00 -0.00000000000E+00  0.00000000000E+00  0.93800000000E+00  0.93800000000E+00 0.  1.
         11    1    1    2    0    0  0.85441843205E-01  0.62019692116E-01  0.10461288942E+01  0.10514431393E+01  0.51100000000E-03 0.  1.
    9000002    1    1    2    0    0 -0.32050092581E+00 -0.20048447922E+00  0.96185846460E-01  0.10158792187E+01  0.93800000000E+00 0.  1.
         22    1    1    2    0    0  0.23505908261E+00  0.13846478710E+00  0.28576852267E+01  0.28706776420E+01  0.00000000000E+00 0.  1.
</event>
<event>
 5    1  0.1537976E+002  0.1599579E+01  0.7818608E-02  0.3353821E+00
         11   -1    0    0    0    0  0.00000000000E+00  0.00000000000E+00  0.39999999674E+01  0.40000000000E+01  0.51100000000E-03 0. -1.
    9000002   -1    0    0    0    0 -0.00000000000E+00 -0.00000000000E+00  0.00000000000E+00  0.93800000000E+00  0.93800000000E+00 0.  1.
         11    1    1    2    0    0  0.24917884382E-01 -0.43114553856E-02  0.21199481663E+00  0.21349836770E+00  0.51100000000E-03 0. -1.
    9000002    1    1    2    0    0 -0.36556929157E+00  0.45481448669E-01  0.91264899538E-01  0.10118709162E+01  0.93800000000E+00 0. -1.
         22    1    1    2    0    0  0.34065140719E+00 -0.41169993283E-01  0.36967402512E+01  0.37126307161E+01  0.00000000000E+00 0. -1.
</event>
<event>
 5    1  0.1749405E+002  0.1586461E+01  0.7818608E-02  0.3368190E+00
         11   -1    0    0    0    0  0.00000000000E+00  0.00000000000E+00  0.39999999674E+01  0.40000000000E+01  0.51100000000E-03 0.  1.
    9000002   -1    0    0    0    0 -0.00000000000E+00 -0.00000000000E+00  0.00000000000E+00  0.93800000000E+00  0.93800000000E+00 0.  1.
         11    1    1    2    0    0  0.50360254193E-01  0.13624298998E-01  0.18280657436E+00  0.19010597433E+00  0.51100000000E-03 0.  1.
    9000002    1    1    2    0    0  0.15144686038E+00 -0.60294881390E-01  0.27408736408E-01  0.95245307657E+00  0.93800000000E+00 0.  1.
         22    1    1    2    0    0 -0.20180711457E+00  0.46670582391E-01  0.37897846566E+01  0.37954409491E+01  0.00000000000E+00 0.  1.
</event>
<event>
 5    1  0.1537976E+002  0.1592312E+01  0.7818608E-02  0.3361750E+00
         11   -1    0    0    0    0  0.00000000000E+00  0.00000000000E+00  0.39999999674E+01  0.40000000000E+01  0.51100000000E-03 0. -1.
    9000002   -1    0    0    0    0 -0.00000000000E+00 -0.00000000000E+00  0.00000000000E+00  0.93800000000E+00  0.93800000000E+00 0.  1.
         11    1    1    2    0    0 -0.54742461414E-01  0.39636066382E-01  0.16031636536E+01  0.16045877091E+01  0.51100000000E-03 0. -1.
    9000002    1    1    2    0    0 -0.61158551173E-01 -0.25290062431E+00  0.50683043306E-01  0.97473681835E+00  0.93800000000E+00 0.  1.
         22    1    1    2    0    0  0.11590101259E+00  0.21326455793E+00  0.23461532705E+01  0.23586754726E+01  0.00000000000E+00 0. -1.
</event>
<event>
 5    1  0.1537976E+002  0.1598560E+01  0.7818608E-02  0.3354928E+00
         11   -1    0    0    0    0  0.00000000000E+00  0.00000000000E+00  0.39999999674E+01  0.40000000000E+01  0.51100000000E-03 0. -1.
    9000002   -1    0    0    0    0 -0.00000000000E+00 -0.00000000000E+00  0.00000000000E+00  0.93800000000E+00  0.93800000000E+00 0.  1.
         11    1    1    2    0    0 -0.46325993840E-01  0.20778371514E+00  0.15821638979E+01  0.15964219464E+01  0.51100000000E-03 0. -1.
    9000002    1    1    2    0    0  0.15643174387E+00 -0.42059584344E+00  0.13770736478E+00  0.10488942141E+01  0.93800000000E+00 0.  1.
         22    1    1    2    0    0 -0.11010575003E+00  0.21281212830E+00  0.22801287047E+01  0.22926838396E+01  0.00000000000E+00 0. -1.
</event>
<event>
 5    1  0.1537976E+002  0.1599677E+01  0.7818608E-02  0.3353714E+00
         11   -1    0    0    0    0  0.00000000000E+00  0.00000000000E+00  0.39999999674E+01  0.40000000000E+01  0.51100000000E-03 0.  1.
    9000002   -1    0    0    0    0 -0.00000000000E+00 -0.00000000000E+00  0.00000000000E+00  0.93800000000E+00  0.93800000000E+00 0.  1.
         11    1    1    2    0    0  0.15389242472E+00 -0.10047891827E+00  0.12606705330E+01  0.12739973882E+01  0.51100000000E-03 0. -1.
    9000002    1    1    2    0    0 -0.46097726112E+00  0.30151586385E+00  0.20960010208E+00  0.11077852022E+01  0.93800000000E+00 0.  1.
         22    1    1    2    0    0  0.30708483640E+00 -0.20103694559E+00  0.25297293323E+01  0.25562174096E+01  0.00000000000E+00 0.  1.
</event>
<event>
 5    1  0.1537976E+002  0.1599537E+01  0.7818608E-02  0.3353866E+00
         11   -1    0    0    0    0  0.00000000000E+00  0.00000000000E+00  0.39999999674E+01  0.40000000000E+01  0.51100000000E-03 0.  1.
    9000002   -1    0    0    0    0 -0.00000000000E+00 -0.00000000000E+00  0.00000000000E+00  0.93800000000E+00  0.93800000000E+00 0. -1.
         11    1    1    2    0    0  0.40407914815E-01  0.18525129933E-01  0.50029368513E+00  0.50226488282E+00  0.51100000000E-03 0.  1.
    9000002    1    1    2    0    0 -0.25944674937E+00 -0.10062921049E+00  0.51668524140E-01  0.97977165204E+00  0.93800000000E+00 0. -1.
         22    1    1    2    0    0  0.21903883456E+00  0.82104080555E-01  0.34480377581E+01  0.34559634651E+01  0.00000000000E+00 0.  1.
</event>
<event>
 5    1  0.1537976E+002  0.1599677E+01  0.7818608E-02  0.3353714E+00
         11   -1    0    0    0    0  0.00000000000E+00  0.00000000000E+00  0.39999999674E+01  0.40000000000E+01  0.51100000000E-03 0.  1.
    9000002   -1    0    0    0    0 -0.00000000000E+00 -0.00000000000E+00  0.00000000000E+00  0.93800000000E+00  0.93800000000E+00 0. -1.
         11    1    1    2    0    0 -0.26219644015E+00  0.13896657120E+00  0.21742445986E+01  0.21944016307E+01  0.51100000000E-03 0.  1.
    9000002    1    1    2    0    0  0.46069094652E+00 -0.24266814403E+00  0.18626293188E+00  0.10888810110E+01  0.93800000000E+00 0. -1.
         22    1    1    2    0    0 -0.19849450637E+00  0.10370157283E+00  0.16394924369E+01  0.16547173583E+01  0.00000000000E+00 0. -1.
</event>
<event>
 5    1  0.1537976E+002  0.1599672E+01  0.7818608E-02  0.3353719E+00
         11   -1    0    0    0    0  0.00000000000E+00  0.00000000000E+00  0.39999999674E+01  0.40000000000E+01  0.51100000000E-03 0.  1.
    9000002   -1    0    0    0    0 -0.00000000000E+00 -0.00000000000E+00  0.00000000000E+00  0.93800000000E+00  0.93800000000E+00 0.  1.
         11    1    1    2    0    0  0.92014922112E-01  0.16900479080E+00  0.18507326925E+01  0.18607098445E+01  0.51100000000E-03 0.  1.
    9000002    1    1    2    0    0 -0.19002471300E+00 -0.35106471155E+00  0.10748162770E+00  0.10250620096E+01  0.93800000000E+00 0.  1.
         22    1    1    2    0    0  0.98009790884E-01  0.18205992074E+00  0.20417856472E+01  0.20522281459E+01  0.00000000000E+00 0.  1.
</event>
<event>
 5    1  0.1537976E+002  0.1599671E+01  0.7818608E-02  0.3353720E+00
         11   -1    0    0    0    0  0.00000000000E+00  0.00000000000E+00  0.39999999674E+01  0.40000000000E+01  0.51100000000E-03 0.  1.
    9000002   -1    0    0    0    0 -0.00000000000E+00 -0.00000000000E+00  0.00000000000E+00  0.93800000000E+00  0.93800000000E+00 0. -1.
         11    1    1    2    0    0 -0.20873404987E-03 -0.24089333913E-01  0.40773584881E+00  0.40844720969E+00  0.51100000000E-03 0.  1.
    9000002    1    1    2    0    0 -0.48135042656E-02  0.24904283430E+00  0.41217761477E-01  0.97138478833E+00  0.93800000000E+00 0. -1.
         22    1    1    2    0    0  0.50222383155E-02 -0.22495350039E+00  0.35510463571E+01  0.35581680020E+01  0.00000000000E+00 0.  1.
</event>
<event>
 5    1  0.1537976E+002  0.1599654E+01  0.7818608E-02  0.3353739E+00
         11   -1    0    0    0    0  0.00000000000E+00  0.00000000000E+00  0.39999999674E+01  0.40000000000E+01  0.51100000000E-03 0.  1.
    9000002   -1    0    0    0    0 -0.00000000000E+00 -0.00000000000E+00  0.00000000000E+00  0.93800000000E+00  0.93800000000E+00 0.  1.
         11    1    1    2    0    0 -0.10386120276E-01 -0.12495528872E+00  0.28231443447E+00  0.30890677672E+00  0.51100000000E-03 0.  1.
    9000002    1    1    2    0    0  0.84894772890E-01  0.11716786355E+01  0.12773080493E+01  0.19726626169E+01  0.93800000000E+00 0.  1.
         22    1    1    2    0    0 -0.74508652614E-01 -0.10467233468E+01  0.24403774836E+01  0.26564306064E+01  0.00000000000E+00 0.  1.
</event>
<event>
 5    1  0.1537976E+002  0.1599665E+01  0.7818608E-02  0.3353727E+00
         11   -1    0    0    0    0  0.00000000000E+00  0.00000000000E+00  0.39999999674E+01  0.40000000000E+01  0.51100000000E-03 0.  1.
    9000002   -1    0    0    0    0 -0.00000000000E+00 -0.00000000000E+00  0.00000000000E+00  0.93800000000E+00  0.93800000000E+00 0.  1.
         11    1    1    2    0    0 -0.34283708443E-01 -0.13427093634E+00  0.12579505287E+01  0.12655606863E+01  0.51100000000E-03 0.  1.
    9000002    1    1    2    0    0  0.11745633500E+00  0.41428547990E+00  0.12559974034E+00  0.10397344585E+01  0.93800000000E+00 0.  1.
         22    1    1    2    0    0 -0.83172626561E-01 -0.28001454356E+00  0.26164496983E+01  0.26327048551E+01  0.00000000000E+00 0.  1.
</event>
<event>
 5    1  0.1537976E+002  0.1584401E+01  0.7818608E-02  0.3370470E+00
         11   -1    0    0    0    0  0.00000000000E+00  0.00000000000E+00  0.39999999674E+01  0.40000000000E+01  0.51100000000E-03 0. -1.
    9000002   -1    0    0    0    0 -0.00000000000E+00 -0.00000000000E+00  0.00000000000E+00  0.93800000000E+00  0.93800000000E+00 0.  1.
         11    1    1    2    0    0  0.13501723798E+00  0.11450050746E+00  0.11293917116E+01  0.11431823652E+01  0.51100000000E-03 0. -1.
    9000002    1    1    2    0    0 -0.64838878318E+00  0.23404587972E-01  0.31320000342E+00  0.11827485071E+01  0.93800000000E+00 0.  1.
         22    1    1    2    0    0  0.51337154520E+00 -0.13790509543E+00  0.25574082523E+01  0.26120691277E+01  0.00000000000E+00 0. -1.
</event>
<event>
 5    1  0.1537976E+002  0.1430562E+01  0.7818608E-02  0.3560647E+00
         11   -1    0    0    0    0  0.00000000000E+00  0.00000000000E+00  0.39999999674E+01  0.40000000000E+01  0.51100000000E-03 0.  1.
    9000002   -1    0    0    0    0 -0.00000000000E+00 -0.00000000000E+00  0.00000000000E+00  0.93800000000E+00  0.93800000000E+00 0.  1.
         11    1    1    2    0    0 -0.42361092519E+00 -0.38532646706E+00  0.18396046575E+01  0.19266728470E+01  0.51100000000E-03 0.  1.
    9000002    1    1    2    0    0  0.13062495098E-01  0.24712578607E+00  0.18321017873E+00  0.98724452519E+00  0.93800000000E+00 0.  1.
         22    1    1    2    0    0  0.41054843009E+00  0.13820068099E+00  0.19771851311E+01  0.20240826279E+01  0.00000000000E+00 0.  1.
</event>
<event>
 5    1  0.1537976E+002  0.1594526E+01  0.7818608E-02  0.3359326E+00
         11   -1    0    0    0    0  0.00000000000E+00  0.00000000000E+00  0.39999999674E+01  0.40000000000E+01  0.51100000000E-03 0.  1.
    9000002   -1    0    0    0    0 -0.00000000000E+00 -0.00000000000E+00  0.00000000000E+00  0.93800000000E+00  0.93800000000E+00 0.  1.
         11    1    1    2    0    0  0.12171087038E+00 -0.11849857343E-01  0.17014003406E+01  0.17057893584E+01  0.51100000000E-03 0.  1.
    9000002    1    1    2    0    0 -0.44812548848E+00  0.11781839822E+00  0.15062211807E+00  0.10569903741E+01  0.93800000000E+00 0.  1.
         22    1    1    2    0    0  0.32641461811E+00 -0.10596854088E+00  0.21479775087E+01  0.21752202676E+01  0.00000000000E+00 0.  1.
</event>
<event>
 5    1  0.1537976E+002  0.1599100E+01  0.7818608E-02  0.3354341E+00
         11   -1    0    0    0    0  0.00000000000E+00  0.00000000000E+00  0.39999999674E+01  0.40000000000E+01  0.51100000000E-03 0. -1.
    9000002   -1    0    0    0    0 -0.00000000000E+00 -0.00000000000E+00  0.00000000000E+00  0.93800000000E+00  0.93800000000E+00 0.  1.
         11    1    1    2    0    0 -0.10239527818E+00 -0.27077965105E-01  0.93453066873E+00  0.94051360495E+00  0.51100000000E-03 0. -1.
    9000002    1    1    2    0    0  0.38554952731E+00  0.18680266260E-01  0.10080056304E+00  0.10193145461E+01  0.93800000000E+00 0.  1.
         22    1    1    2    0    0 -0.28315424913E+00  0.83976988448E-02  0.29646687356E+01  0.29781718490E+01  0.00000000000E+00 0. -1.
</event>
<event>
 5    1  0.1537976E+002  0.1599652E+01  0.7818608E-02  0.3353741E+00
         11   -1    0    0    0    0  0.00000000000E+00  0.00000000000E+00  0.39999999674E+01  0.40000000000E+01  0.51100000000E-03 0.  1.
    9000002   -1    0    0    0    0 -0.00000000000E+00 -0.00000000000E+00  0.00000000000E+00  0.93800000000E+00  0.93800000000E+00 0. -1.
         11    1    1    2    0    0 -0.11509825678E-01 -0.91876916012E-02  0.31622687150E+00  0.31657003197E+00  0.51100000000E-03 0.  1.
    9000002    1    1    2    0    0  0.18489371794E+00  0.11687245894E+00  0.31730649888E-01  0.96368858701E+00  0.93800000000E+00 0. -1.
         22    1    1    2    0    0 -0.17338389226E+00 -0.10768476734E+00  0.36520424460E+01  0.36577413810E+01  0.00000000000E+00 0.  1.
</event>
<event>
 5    1  0.1537976E+002  0.1599676E+01  0.7818608E-02  0.3353715E+00
         11   -1    0    0    0    0  0.00000000000E+00  0.00000000000E+00  0.39999999674E+01  0.40000000000E+01  0.51100000000E-03 0.  1.
    9000002   -1    0    0    0    0 -0.00000000000E+00 -0.00000000000E+00  0.00000000000E+00  0.93800000000E+00  0.93800000000E+00 0. -1.
         11    1    1    2    0    0 -0.13285650123E+00  0.51303374394E-01  0.13996238514E+01  0.14068511196E+01  0.51100000000E-03 0.  1.
    9000002    1    1    2    0    0  0.36681135463E+00 -0.14301443395E+00  0.10447012370E+00  0.10226249092E+01  0.93800000000E+00 0. -1.
         22    1    1    2    0    0 -0.23395485340E+00  0.91711059560E-01  0.24959059923E+01  0.25085239712E+01  0.00000000000E+00 0.  1.
</event>
<event>
 5    1  0.1537976E+002  0.1599677E+01  0.7818608E-02  0.3353714E+00
         11   -1    0    0    0    0  0.00000000000E+00  0.00000000000E+00  0.39999999674E+01  0.40000000000E+01  0.51100000000E-03 0.  1.
    9000002   -1    0    0    0    0 -0.00000000000E+00 -0.00000000000E+00  0.00000000000E+00  0.93800000000E+00  0.93800000000E+00 0. -1.
         11    1    1    2    0    0  0.80933093255E-01  0.14896774475E-01  0.10591751196E+01  0.10623672974E+01  0.51100000000E-03 0.  1.
    9000002    1    1    2    0    0 -0.30135967958E+00 -0.53821372809E-01  0.62554237574E-01  0.98867154773E+00  0.93800000000E+00 0. -1.
         22    1    1    2    0    0  0.22042658632E+00  0.38924598334E-01  0.28782706101E+01  0.28869611548E+01  0.00000000000E+00 0.  1.
</event>
<event>
 5    1  0.1537976E+002  0.1560121E+01  0.7818608E-02  0.3397817E+00
         11   -1    0    0    0    0  0.00000000000E+00  0.00000000000E+00  0.39999999674E+01  0.40000000000E+01  0.51100000000E-03 0. -1.
    9000002   -1    0    0    0    0 -0.00000000000E+00 -0.00000000000E+00  0.00000000000E+00  0.93800000000E+00  0.93800000000E+00 0. -1.
         11    1    1    2    0    0 -0.18455619182E+00 -0.53882720573E-01  0.20876508955E+01  0.20964853585E+01  0.51100000000E-03 0. -1.
    9000002    1    1    2    0    0 -0.81391807539E-01 -0.37727836894E-01  0.34705860411E-01  0.94291914434E+00  0.93800000000E+00 0. -1.
         22    1    1    2    0    0  0.26594799936E+00  0.91610557468E-01  0.18776432114E+01  0.18985954972E+01  0.00000000000E+00 0. -1.
</event>
<event>
 5    1  0.1537976E+002  0.1599615E+01  0.7818608E-02  0.3353781E+00
         11   -1    0    0    0    0  0.00000000000E+00  0.00000000000E+00  0.39999999674E+01  0.40000000000E+01  0.51100000000E-03 0.  1.
    9000002   -1    0    0    0    0 -0.00000000000E+00 -0.00000000000E+00  0.00000000000E+00  0.93800000000E+00  0.93800000000E+00 0.  1.
         11    1    1    2    0    0  0.35663733178E+00 -0.19116629858E+00  0.20877772121E+01  0.21266284792E+01  0.51100000000E-03 0.  1.
    9000002    1    1    2    0    0 -0.61065863511E+00  0.32616961637E+00  0.34190369218E+00  0.12149208707E+01  0.93800000000E+00 0.  1.
         22    1    1    2    0    0  0.25402130333E+00 -0.13500331779E+00  0.15703190631E+01  0.15964506501E+01  0.00000000000E+00 0.  1.
</event>
<event>
 5    1  0.1537976E+002  0.1599677E+01  0.7818608E-02  0.3353714E+00
         11   -1    0    0    0    0  0.00000000000E+00  0.00000000000E+00  0.39999999674E+01  0.40000000000E+01  0.51100000000E-03 0. -1.
    9000002   -1    0    0    0    0 -0.00000000000E+00 -0.00000000000E+00  0.00000000000E+00  0.93800000000E+00  0.93800000000E+00 0. -1.
         11    1    1    2    0    0  0.36146965501E-02  0.34219456744E-01  0.49845492010E+00  0.49964147721E+00  0.51100000000E-03 0.  1.
    9000002    1    1    2    0    0 -0.31373944834E-01 -0.27128809845E+00  0.49636134337E-01  0.97820718797E+00  0.93800000000E+00 0. -1.
         22    1    1    2    0    0  0.27759248283E-01  0.23706864170E+00  0.34519089129E+01  0.34601513348E+01  0.00000000000E+00 0. -1.
</event>
<event>
 5    1  0.1537976E+002  0.1599664E+01  0.7818608E-02  0.3353728E+00
         11   -1    0    0    0    0  0.00000000000E+00  0.00000000000E+00  0.39999999674E+01  0.40000000000E+01  0.51100000000E-03 0.  1.
    9000002   -1    0    0    0    0 -0.00000000000E+00 -0.00000000000E+00  0.00000000000E+00  0.93800000000E+00  0.93800000000E+00 0.  1.
         11    1    1    2    0    0 -0.85663143290E-02  0.10932064267E+00  0.13739384882E+01  0.13783075184E+01  0.51100000000E-03 0.  1.
    9000002    1    1    2    0    0  0.34172321149E-01 -0.31987424356E+00  0.69193231173E-01  0.99404174081E+00  0.93800000000E+00 0.  1.
         22    1    1    2    0    0 -0.25606006820E-01  0.21055360090E+00  0.25568682479E+01  0.25656507408E+01  0.00000000000E+00 0.  1.
</event>
<event>
 5    1  0.1537976E+002  0.1599672E+01  0.7818608E-02  0.3353719E+00
         11   -1    0    0    0    0  0.00000000000E+00  0.00000000000E+00  0.39999999674E+01  0.40000000000E+01  0.51100000000E-03 0.  1.
    9000002   -1    0    0    0    0 -0.00000000000E+00 -0.00000000000E+00  0.00000000000E+00  0.93800000000E+00  0.93800000000E+00 0. -1.
         11    1    1    2    0    0 -0.86277962265E-01 -0.45157729374E-01  0.89637590059E+00  0.90165022241E+00  0.51100000000E-03 0.  1.
    9000002    1    1    2    0    0  0.38084924081E+00  0.20073623748E+00  0.12553302117E+00  0.10396844332E+01  0.93800000000E+00 0. -1.
         22    1    1    2    0    0 -0.29457127854E+00 -0.15557850811E+00  0.29780910456E+01  0.29966653444E+01  0.00000000000E+00 0.  1.
</event>
<event>
 5    1  0.1537976E+002  0.1597011E+01  0.7818608E-02  0.3356614E+00
         11   -1    0    0    0    0  0.00000000000E+00  0.00000000000E+00  0.39999999674E+01  0.40000000000E+01  0.51100000000E-03 0. -1.
    9000002   -1    0    0    0    0 -0.00000000000E+00 -0.00000000000E+00  0.00000000000E+00  0.93800000000E+00  0.93800000000E+00 0. -1.
         11    1    1    2    0    0  0.21258603476E+00  0.77011556577E-01  0.16052441586E+01  0.16210899642E+01  0.51100000000E-03 0. -1.
    9000002    1    1    2    0    0 -0.49192243888E+00 -0.32430930849E+00  0.24428897200E+00  0.11343215220E+01  0.93800000000E+00 0. -1.
         22    1    1    2    0    0  0.27933640411E+00  0.24729775191E+00  0.21504668367E+01  0.21825885138E+01  0.00000000000E+00 0. -1.
</event>
<event>
 5    1  0.1537976E+002  0.1599669E+01  0.7818608E-02  0.3353723E+00
         11   -1    0    0    0    0  0.00000000000E+00  0.00000000000E+00  0.39999999674E+01  0.40000000000E+01  0.51100000000E-03 0.  1.
    9000002   -1    0    0    0    0 -0.00000000000E+00 -0.00000000000E+00  0.00000000000E+00  0.93800000000E+00  0.93800000000E+00 0.  1.
         11    1    1    2    0    0 -0.10378418774E+00  0.21840070786E+00  0.16453904999E+01  0.16630634940E+01  0.51100000000E-03 0.  1.
    9000002    1    1    2    0    0  0.24338594805E+00 -0.50780438795E+00  0.21958501507E+00  0.11158689865E+01  0.93800000000E+00 0.  1.
         22    1    1    2    0    0 -0.13960176031E+00  0.28940368009E+00  0.21350244524E+01  0.21590675195E+01  0.00000000000E+00 0.  1.
</event>
<event>
 5    1  0.1537976E+002  0.1570317E+01  0.7818608E-02  0.3386224E+00
         11   -1    0    0    0    0  0.00000000000E+00  0.00000000000E+00  0.39999999674E+01  0.40000000000E+01  0.51100000000E-03 0.  1.
    9000002   -1    0    0    0    0 -0.00000000000E+00 -0.00000000000E+00  0.00000000000E+00  0.93800000000E+00  0.93800000000E+00 0.  1.
         11    1    1    2    0    0  0.18197844093E+00  0.16203645343E-01  0.17194555363E+01  0.17291345562E+01  0.51100000000E-03 0.  1.
    9000002    1    1    2    0    0  0.48893840750E-01 -0.87645432850E-01  0.28389398592E-01  0.94378084719E+00  0.93800000000E+00 0.  1.
         22    1    1    2    0    0 -0.23087228168E+00  0.71441787507E-01  0.22521550325E+01  0.22650845966E+01  0.00000000000E+00 0.  1.
</event>
<event>
 5    1  0.1537976E+002  0.1599677E+01  0.7818608E-02  0.3353714E+00
         11   -1    0    0    0    0  0.00000000000E+00  0.00000000000E+00  0.39999999674E+01  0.40000000000E+01  0.51100000000E-03 0.  1.
    9000002   -1    0    0    0    0 -0.00000000000E+00 -0.00000000000E+00  0.00000000000E+00  0.93800000000E+00  0.93800000000E+00 0. -1.
         11    1    1    2    0    0  0.17068121690E+00  0.80359754863E-01  0.17707567890E+01  0.17807778174E+01  0.51100000000E-03 0.  1.
    9000002    1    1    2    0    0 -0.37564939980E+00 -0.17662833902E+00  0.11645726154E+00  0.10323353794E+01  0.93800000000E+00 0. -1.
         22    1    1    2    0    0  0.20496818290E+00  0.96268584154E-01  0.21127859169E+01  0.21248868033E+01  0.00000000000E+00 0.  1.
</event>
<event>
 5    1  0.1537976E+002  0.1599488E+01  0.7818608E-02  0.3353919E+00
         11   -1    0    0    0    0  0.00000000000E+00  0.00000000000E+00  0.39999999674E+01  0.40000000000E+01  0.51100000000E-03 0. -1.
    9000002   -1    0    0    0    0 -0.00000000000E+00 -0.00000000000E+00  0.00000000000E+00  0.93800000000E+00  0.93800000000E+00 0.  1.
         11    1    1    2    0    0 -0.58450870713E-01  0.89318649427E-02  0.50027651122E+00  0.50375900121E+00  0.51100000000E-03 0. -1.
    9000002    1    1    2    0    0  0.51457598638E+00 -0.16964834090E-01  0.18209373109E+00  0.10853931906E+01  0.93800000000E+00 0.  1.
         22    1    1    2    0    0 -0.45612511567E+00  0.80329691474E-02  0.33176297250E+01  0.33488478082E+01  0.00000000000E+00 0. -1.
</event>
<event>
 5    1  0.1537976E+002  0.1599638E+01  0.7818608E-02  0.3353757E+00
         11   -1    0    0    0    0  0.00000000000E+00  0.00000000000E+00  0.39999999674E+01  0.40000000000E+01  0.51100000000E-03 0. -1.
    9000002   -1    0    0    0    0 -0.00000000000E+00 -0.00000000000E+00  0.00000000000E+00  0.93800000000E+00  0.93800000000E+00 0.  1.
         11    1    1    2    0    0  0.13247176436E+00  0.17300118141E+00  0.18856892389E+01  0.18982366406E+01  0.51100000000E-03 0. -1.
    9000002    1    1    2    0    0 -0.26592210497E+00 -0.36866048230E+00  0.14046558012E+00  0.10517602846E+01  0.93800000000E+00 0.  1.
         22    1    1    2    0    0  0.13345034061E+00  0.19565930089E+00  0.19738451484E+01  0.19880030747E+01  0.00000000000E+00 0. -1.
</event>
<event>
 5    1  0.1537976E+002  0.1599261E+01  0.7818608E-02  0.3354165E+00
         11   -1    0    0    0    0  0.00000000000E+00  0.00000000000E+00  0.39999999674E+01  0.40000000000E+01  0.51100000000E-03 0.  1.
    9000002   -1    0    0    0    0 -0.00000000000E+00 -0.00000000000E+00  0.00000000000E+00  0.93800000000E+00  0.93800000000E+00 0.  1.
         11    1    1    2    0    0  0.26478979735E-01 -0.28281783347E+00  0.12240741157E+01  0.12566004795E+01  0.51100000000E-03 0.  1.
    9000002    1    1    2    0    0 -0.41125062579E-01  0.85528602704E+00  0.55182725556E+00  0.13847609103E+01  0.93800000000E+00 0.  1.
         22    1    1    2    0    0  0.14646082844E-01 -0.57246819357E+00  0.22240985961E+01  0.22966386102E+01  0.00000000000E+00 0.  1.
</event>
<event>
 5    1  0.1537976E+002  0.1592782E+01  0.7818608E-02  0.3361235E+00
         11   -1    0    0    0    0  0.00000000000E+00  0.00000000000E+00  0.39999999674E+01  0.40000000000E+01  0.51100000000E-03 0.  1.
    9000002   -1    0    0    0    0 -0.00000000000E+00 -0.00000000000E+00  0.00000000000E+00  0.93800000000E+00  0.93800000000E+00 0. -1.
         11    1    1    2    0    0 -0.43141896138E-01 -0.94647841046E-02  0.87897781811E+00  0.88008696797E+00  0.51100000000E-03 0.  1.
    9000002    1    1    2    0    0 -0.12705784312E+00 -0.14910168179E+00  0.30576518435E-01  0.95872515899E+00  0.93800000000E+00 0. -1.
         22    1    1    2    0    0  0.17019973925E+00  0.15856646589E+00  0.30904456308E+01  0.30991878730E+01  0.00000000000E+00 0.  1.
</event>
<event>
 5    1  0.1537976E+002  0.1594106E+01  0.7818608E-02  0.3359785E+00
         11   -1    0    0    0    0  0.00000000000E+00  0.00000000000E+00  0.39999999674E+01  0.40000000000E+01  0.51100000000E-03 0.  1.
    9000002   -1    0    0    0    0 -0.00000000000E+00 -0.00000000000E+00  0.00000000000E+00  0.93800000000E+00  0.93800000000E+00 0.  1.
         11    1    1    2    0    0 -0.31895564788E-01 -0.43798500447E-01  0.20107010175E+00  0.20824284534E+00  0.51100000000E-03 0.  1.
    9000002    1    1    2    0    0  0.22364323794E+00  0.18399594957E+00  0.60247659539E-01  0.98353677502E+00  0.93800000000E+00 0.  1.
         22    1    1    2    0    0 -0.19174767315E+00 -0.14019744912E+00  0.37386822061E+01  0.37462203796E+01  0.00000000000E+00 0.  1.
</event>
<event>
 5    1  0.1537976E+002  0.1435892E+01  0.7818608E-02  0.3553319E+00
         11   -1    0    0    0    0  0.00000000000E+00  0.00000000000E+00  0.39999999674E+01  0.40000000000E+01  0.51100000000E-03 0.  1.
    9000002   -1    0    0    0    0 -0.00000000000E+00 -0.00000000000E+00  0.00000000000E+00  0.93800000000E+00  0.93800000000E+00 0. -1.
         11    1    1    2    0    0 -0.40923476072E+00  0.56909624487E+00  0.24764565261E+01  0.25737483972E+01  0.51100000000E-03 0.  1.
    9000002    1    1    2    0    0  0.12614692912E+00 -0.36758713736E+00  0.25205998991E+00  0.10461412858E+01  0.93800000000E+00 0. -1.
         22    1    1    2    0    0  0.28308783160E+00 -0.20150910751E+00  0.12714834514E+01  0.13181103171E+01  0.00000000000E+00 0.  1.
</event>
<event>
 5    1  0.1537976E+002  0.1599669E+01  0.7818608E-02  0.3353722E+00
         11   -1    0    0    0    0  0.00000000000E+00  0.00000000000E+00  0.39999999674E+01  0.40000000000E+01  0.51100000000E-03 0. -1.
    9000002   -1    0    0    0    0 -0.00000000000E+00 -0.00000000000E+00  0.00000000000E+00  0.93800000000E+00  0.93800000000E+00 0. -1.
         11    1    1    2    0    0  0.45812209920E+00 -0.20993446186E+00  0.22933661142E+01  0.23480793707E+01  0.51100000000E-03 0. -1.
    9000002    1    1    2    0    0 -0.70780561085E+00  0.32978979178E+00  0.44632457500E+00  0.12995382702E+01  0.93800000000E+00 0. -1.
         22    1    1    2    0    0  0.24968351166E+00 -0.11985532991E+00  0.12603092781E+01  0.12903823591E+01  0.00000000000E+00 0.  1.
</event>
<event>
 5    1  0.1537976E+002  0.1536831E+01  0.7818608E-02  0.3424915E+00
         11   -1    0    0    0    0  0.00000000000E+00  0.00000000000E+00  0.39999999674E+01  0.40000000000E+01  0.51100000000E-03 0.  1.
    9000002   -1    0    0    0    0 -0.00000000000E+00 -0.00000000000E+00  0.00000000000E+00  0.93800000000E+00  0.93800000000E+00 0. -1.
         11    1    1    2    0    0  0.23474910047E+00 -0.73210888980E-01  0.81346588728E+00  0.84981997230E+00  0.51100000000E-03 0.  1.
    9000002    1    1    2    0    0  0.14187394558E-01  0.58470249021E-01  0.49479187718E-01  0.94122911249E+00  0.93800000000E+00 0. -1.
         22    1    1    2    0    0 -0.24893649502E+00  0.14740639959E-01  0.31370548924E+01  0.31469509152E+01  0.00000000000E+00 0.  1.
</event>
<event>
 5    1  0.1537976E+002  0.1563539E+01  0.7818608E-02  0.3393914E+00
         11   -1    0    0    0    0  0.00000000000E+00  0.00000000000E+00  0.39999999674E+01  0.40000000000E+01  0.51100000000E-03 0.  1.
    9000002   -1    0    0    0    0 -0.00000000000E+00 -0.00000000000E+00  0.00000000000E+00  0.93800000000E+00  0.93800000000E+00 0. -1.
         11    1    1    2    0    0 -0.12729956308E+00 -0.10445549608E+00  0.62267410924E+00  0.64408030311E+00  0.51100000000E-03 0.  1.
    9000002    1    1    2    0    0  0.57476958397E-01 -0.88353680397E-01  0.34212810638E-01  0.94452341951E+00  0.93800000000E+00 0. -1.
         22    1    1    2    0    0  0.69822604688E-01  0.19280917648E+00  0.33431130475E+01  0.33493962774E+01  0.00000000000E+00 0.  1.
</event>
<event>
 5    1  0.1537976E+002  0.1593469E+01  0.7818608E-02  0.3360483E+00
         11   -1    0    0    0    0  0.00000000000E+00  0.00000000000E+00  0.39999999674E+01  0.40000000000E+01  0.51100000000E-03 0. -1.
    9000002   -1    0    0    0    0 -0.00000000000E+00 -0.00000000000E+00  0.00000000000E+00  0.93800000000E+00  0.93800000000E+00 0. -1.
         11    1    1    2    0    0 -0.39161631323E-01  0.42650443038E-02  0.25278798772E+00  0.25583950404E+00  0.51100000000E-03 0. -1.
    9000002    1    1    2    0    0 -0.94080295711E-01 -0.23511426722E+00  0.47377751149E-01  0.97273761724E+00  0.93800000000E+00 0. -1.
         22    1    1    2    0    0  0.13324192703E+00  0.23084922292E+00  0.36998342285E+01  0.37094228787E+01  0.00000000000E+00 0. -1.
</event>
<event>
 5    1  0.1537976E+002  0.1599676E+01  0.7818608E-02  0.3353716E+00
         11   -1    0    0    0    0  0.00000000000E+00  0.00000000000E+00  0.39999999674E+01  0.40000000000E+01  0.51100000000E-03 0. -1.
    9000002   -1    0    0    0    0 -0.00000000000E+00 -0.00000000000E+00  0.00000000000E+00  0.93800000000E+00  0.93800000000E+00 0. -1.
         11    1    1    2    0    0  0.82174127028E-01 -0.30862633238E-01  0.94980827319E+00  0.95385591481E+00  0.51100000000E-03 0. -1.
    9000002    1    1    2    0    0 -0.33508790492E+00  0.13071654692E+00  0.86839673461E-01  0.10083431204E+01  0.93800000000E+00 0. -1.
         22    1    1    2    0    0  0.25291377789E+00 -0.99853913686E-01  0.29633520207E+01  0.29758009647E+01  0.00000000000E+00 0.  1.
</event>
<event>
 5    1  0.1537976E+002  0.1599150E+01  0.7818608E-02  0.3354287E+00
         11   -1    0    0    0    0  0.00000000000E+00  0.00000000000E+00  0.39999999674E+01  0.40000000000E+01  0.51100000000E-03 0. -1.
    9000002   -1    0    0    0    0 -0.00000000000E+00 -0.00000000000E+00  0.00000000000E+00  0.93800000000E+00  0.93800000000E+00 0.  1.
         11    1    1    2    0    0  0.16380768137E-01  0.21890978914E-01  0.44828213683E+00  0.44911544155E+00  0.51100000000E-03 0. -1.
    9000002    1    1    2    0    0 -0.56377178988E-01 -0.31889987803E+00  0.70544069939E-01  0.99483465175E+00  0.93800000000E+00 0.  1.
         22    1    1    2    0    0  0.39996410852E-01  0.29700889912E+00  0.34811737606E+01  0.34940499067E+01  0.00000000000E+00 0. -1.
</event>
<event>
 5    1  0.1537976E+002  0.1599263E+01  0.7818608E-02  0.3354164E+00
         11   -1    0    0    0    0  0.00000000000E+00  0.00000000000E+00  0.39999999674E+01  0.40000000000E+01  0.51100000000E-03 0. -1.
    9000002   -1    0    0    0    0 -0.00000000000E+00 -0.00000000000E+00  0.00000000000E+00  0.93800000000E+00  0.93800000000E+00 0. -1.
         11    1    1    2    0    0  0.18827491220E-01  0.22530045439E-02  0.48704273217E+00  0.48741197619E+00  0.51100000000E-03 0. -1.
    9000002    1    1    2    0    0 -0.24783676373E+00  0.71669505659E-01  0.44560148278E-01  0.97385275392E+00  0.93800000000E+00 0. -1.
         22    1    1    2    0    0  0.22900927251E+00 -0.73922510202E-01  0.34683970869E+01  0.34767352699E+01  0.00000000000E+00 0. -1.
</event>
<event>
 5    1  0.1537976E+002  0.1599509E+01  0.7818608E-02  0.3353897E+00
         11   -1    0    0    0    0  0.00000000000E+00  0.00000000000E+00  0.39999999674E+01  0.40000000000E+01  0.51100000000E-03 0.  1.
    9000002   -1    0    0    0    0 -0.00000000000E+00 -0.00000000000E+00  0.00000000000E+00  0.93800000000E+00  0.93800000000E+00 0.  1.
         11    1    1    2    0    0  0.61387362327E-01 -0.14313844020E-01  0.75593049238E+00  0.75855419373E+00  0.51100000000E-03 0.  1.
    9000002    1    1    2    0    0 -0.25679028778E+00  0.70405208670E-01  0.47287270976E-01  0.97620603937E+00  0.93800000000E+00 0.  1.
         22    1    1    2    0    0  0.19540292545E+00 -0.56091364650E-01  0.31967822040E+01  0.32032397669E+01  0.00000000000E+00 0.  1.
</event>
<event>
 5    1  0.1537976E+002  0.1599676E+01  0.7818608E-02  0.3353715E+00
         11   -1    0    0    0    0  0.00000000000E+00  0.00000000000E+00  0.39999999674E+01  0.40000000000E+01  0.51100000000E-03 0.  1.
    9000002   -1    0    0    0    0 -0.00000000000E+00 -0.00000000000E+00  0.00000000000E+00  0.93800000000E+00  0.93800000000E+00 0. -1.
         11    1    1    2    0    0  0.13502817049E-01  0.68508104645E-01  0.38272827449E+00  0.38904611511E+00  0.51100000000E-03 0.  1.
    9000002    1    1    2    0    0 -0.13265588740E+00 -0.65657133913E+00  0.31815913949E+00  0.11957226877E+01  0.93800000000E+00 0. -1.
         22    1    1    2    0    0  0.11915307035E+00  0.58806323449E+00  0.32991125534E+01  0.33532311972E+01  0.00000000000E+00 0.  1.
</event>
<event>
 5    1  0.1537976E+002  0.1599647E+01  0.7818608E-02  0.3353747E+00
         11   -1    0    0    0    0  0.00000000000E+00  0.00000000000E+00  0.39999999674E+01  0.40000000000E+01  0.51100000000E-03 0. -1.
    9000002   -1    0    0    0    0 -0.00000000000E+00 -0.00000000000E+00  0.00000000000E+00  0.93800000000E+00  0.93800000000E+00 0.  1.
         11    1    1    2    0    0 -0.92056435553E-02 -0.63261411833E-01  0.57068227121E+00  0.57425191850E+00  0.51100000000E-03 0. -1.
    9000002    1    1    2    0    0  0.32339042196E-01  0.43899952822E+00  0.13144121756E+00  0.10444554529E+01  0.93800000000E+00 0.  1.
         22    1    1    2    0    0 -0.23133398640E-01 -0.37573811639E+00  0.32978764786E+01  0.33192926286E+01  0.00000000000E+00 0. -1.
</event>
<event>
 5    1  0.1537976E+002  0.1550387E+01  0.7818608E-02  0.3409037E+00
         11   -1    0    0    0    0  0.00000000000E+00  0.00000000000E+00  0.39999999674E+01  0.40000000000E+01  0.51100000000E-03 0.  1.
    9000002   -1    0    0    0    0 -0.00000000000E+00 -0.00000000000E+00  0.00000000000E+00  0.93800000000E+00  0.93800000000E+00 0.  1.
         11    1    1    2    0    0 -0.70165389598E+00 -0.35856705129E+00  0.21800172769E+01  0.23180517916E+01  0.51100000000E-03 0.  1.
    9000002    1    1    2    0    0  0.92352580049E+00  0.17739347429E+00  0.77801491571E+00  0.15393243836E+01  0.93800000000E+00 0.  1.
         22    1    1    2    0    0 -0.22187190451E+00  0.18117357700E+00  0.10419677747E+01  0.10806238247E+01  0.00000000000E+00 0. -1.
</event>
<event>
 5    1  0.1537976E+002  0.1599470E+01  0.7818608E-02  0.3353939E+00
         11   -1    0    0    0    0  0.00000000000E+00  0.00000000000E+00  0.39999999674E+01  0.40000000000E+01  0.51100000000E-03 0. -1.
    9000002   -1    0    0    0    0 -0.00000000000E+00 -0.00000000000E+00  0.00000000000E+00  0.93800000000E+00  0.93800000000E+00 0.  1.
         11    1    1    2    0    0 -0.14755099556E-01 -0.66434348547E-02  0.23640405119E+00  0.23695776993E+00  0.51100000000E-03 0. -1.
    9000002    1    1    2    0    0  0.26986942589E+00 -0.24163636787E-01  0.49009634593E-01  0.97757830001E+00  0.93800000000E+00 0.  1.
         22    1    1    2    0    0 -0.25511432633E+00  0.30807071642E-01  0.37145862816E+01  0.37234639301E+01  0.00000000000E+00 0. -1.
</event>
<event>
 5    1  0.1537976E+002  0.1599637E+01  0.7818608E-02  0.3353758E+00
         11   -1    0    0    0    0  0.00000000000E+00  0.00000000000E+00  0.39999999674E+01  0.40000000000E+01  0.51100000000E-03 0. -1.
    9000002   -1    0    0    0    0 -0.00000000000E+00 -0.00000000000E+00  0.00000000000E+00  0.93800000000E+00  0.93800000000E+00 0. -1.
         11    1    1    2    0    0  0.10025160003E-01 -0.49821511216E-01  0.71529732896E+00  0.71710056251E+00  0.51100000000E-03 0. -1.
    9000002    1    1    2    0    0 -0.86783262731E-01  0.28217585617E+00  0.58147724860E-01  0.98507852804E+00  0.93800000000E+00 0. -1.
         22    1    1    2    0    0  0.76758102728E-01 -0.23235434496E+00  0.32265549135E+01  0.32358209095E+01  0.00000000000E+00 0. -1.
</event>
<event>
 5    1  0.1537976E+002  0.1599432E+01  0.7818608E-02  0.3353980E+00
         11   -1    0    0    0    0  0.00000000000E+00  0.00000000000E+00  0.39999999674E+01  0.40000000000E+01  0.51100000000E-03 0. -1.
    9000002   -1    0    0    0    0 -0.00000000000E+00 -0.00000000000E+00  0.00000000000E+00  0.93800000000E+00  0.93800000000E+00 0.  1.
         11    1    1    2    0    0 -0.32525807301E-01 -0.81931109254E-01  0.10281342831E+01  0.10319064880E+01  0.51100000000E-03 0. -1.
    9000002    1    1    2    0    0  0.17033073726E+00  0.26975848534E+00  0.68218498727E-01  0.99311628928E+00  0.93800000000E+00 0.  1.
         22    1    1    2    0    0 -0.13780492996E+00 -0.18782737609E+00  0.29036471856E+01  0.29129772227E+01  0.00000000000E+00 0. -1.
</event>
<event>
 5    1  0.1537976E+002  0.1572800E+01  0.7818608E-02  0.3383425E+00
         11   -1    0    0    0    0  0.00000000000E+00  0.00000000000E+00  0.39999999674E+01  0.40000000000E+01  0.51100000000E-03 0.  1.
    9000002   -1    0    0    0    0 -0.00000000000E+00 -0.00000000000E+00  0.00000000000E+00  0.93800000000E+00  0.93800000000E+00 0.  1.
         11    1    1    2    0    0  0.50942035009E-01 -0.13499026673E+00  0.14298035234E+01  0.14370650088E+01  0.51100000000E-03 0.  1.
    9000002    1    1    2    0    0  0.13465794451E+00 -0.72691575065E-01  0.35585812289E-01  0.95106633688E+00  0.93800000000E+00 0.  1.
         22    1    1    2    0    0 -0.18559997952E+00  0.20768184179E+00  0.25346106317E+01  0.25498686543E+01  0.00000000000E+00 0.  1.
</event>
<event>
 5    1  0.1537976E+002  0.1598416E+01  0.7818608E-02  0.3355084E+00
         11   -1    0    0    0    0  0.00000000000E+00  0.00000000000E+00  0.39999999674E+01  0.40000000000E+01  0.51100000000E-03 0.  1.
    9000002   -1    0    0    0    0 -0.00000000000E+00 -0.00000000000E+00  0.00000000000E+00  0.93800000000E+00  0.93800000000E+00 0. -1.
         11    1    1    2    0    0 -0.24487663955E-01 -0.71762730941E-02  0.10249505746E+01  0.10252682996E+01  0.51100000000E-03 0.  1.
    9000002    1    1    2    0    0  0.17944700752E+00  0.14520960236E+00  0.36304865691E-01  0.96666907492E+00  0.93800000000E+00 0. -1.
         22    1    1    2    0    0 -0.15495934357E+00 -0.13803332927E+00  0.29387445270E+01  0.29460626255E+01  0.00000000000E+00 0.  1.
</event>
<event>
 5    1  0.1537976E+002  0.1599673E+01  0.7818608E-02  0.3353718E+00
         11   -1    0    0    0    0  0.00000000000E+00  0.00000000000E+00  0.39999999674E+01  0.40000000000E+01  0.51100000000E-03 0.  1.
    9000002   -1    0    0    0    0 -0.00000000000E+00 -0.00000000000E+00  0.00000000000E+00  0.93800000000E+00  0.93800000000E+00 0. -1.
         11    1    1    2    0    0  0.49633105823E-01 -0.32729425153E-01  0.84362170049E+00  0.84571419234E+00  0.51100000000E-03 0.  1.
    9000002    1    1    2    0    0 -0.23634347214E+00  0.16055187091E+00  0.54392037247E-01  0.98205785664E+00  0.93800000000E+00 0. -1.
         22    1    1    2    0    0  0.18671036632E+00 -0.12782244576E+00  0.31019862296E+01  0.31102279510E+01  0.00000000000E+00 0.  1.
</event>
<event>
 5    1  0.1537976E+002  0.1599664E+01  0.7818608E-02  0.3353728E+00
         11   -1    0    0    0    0  0.00000000000E+00  0.00000000000E+00  0.39999999674E+01  0.40000000000E+01  0.51100000000E-03 0.  1.
    9000002   -1    0    0    0    0 -0.00000000000E+00 -0.00000000000E+00  0.00000000000E+00  0.93800000000E+00  0.93800000000E+00 0.  1.
         11    1    1    2    0    0 -0.25134387846E-01  0.36447751436E-01  0.63225764899E+00  0.63380609958E+00  0.51100000000E-03 0.  1.
    9000002    1    1    2    0    0  0.14617258445E+00 -0.21150702273E+00  0.43944990465E-01  0.97358965036E+00  0.93800000000E+00 0.  1.
         22    1    1    2    0    0 -0.12103819660E+00  0.17505927130E+00  0.33237973279E+01  0.33306042501E+01  0.00000000000E+00 0.  1.
</event>
<event>
 5    1  0.1537976E+002  0.1599671E+01  0.7818608E-02  0.3353720E+00
         11   -1    0    0    0    0  0.00000000000E+00  0.00000000000E+00  0.39999999674E+01  0.40000000000E+01  0.51100000000E-03 0. -1.
    9000002   -1    0    0    0    0 -0.00000000000E+00 -0.00000000000E+00  0.00000000000E+00  0.93800000000E+00  0.93800000000E+00 0.  1.
         11    1    1    2    0    0 -0.35924025860E-01 -0.14803068111E-02  0.46419749348E+00  0.46558812379E+00  0.51100000000E-03 0. -1.
    9000002    1    1    2    0    0  0.28959539764E+00  0.14304622472E-01  0.56037296362E-01  0.98338918803E+00  0.93800000000E+00 0.  1.
         22    1    1    2    0    0 -0.25367137178E+00 -0.12824315661E-01  0.34797651775E+01  0.34890226882E+01  0.00000000000E+00 0. -1.
</event>
<event>
 5    1  0.1537976E+002  0.1591936E+01  0.7818608E-02  0.3362162E+00
         11   -1    0    0    0    0  0.00000000000E+00  0.00000000000E+00  0.39999999674E+01  0.40000000000E+01  0.51100000000E-03 0.  1.
    9000002   -1    0    0    0    0 -0.00000000000E+00 -0.00000000000E+00  0.00000000000E+00  0.93800000000E+00  0.93800000000E+00 0. -1.
         11    1    1    2    0    0  0.25761221551E+00 -0.45322187395E-01  0.22727021128E+01  0.22877048124E+01  0.51100000000E-03 0.  1.
    9000002    1    1    2    0    0 -0.36178861809E+00  0.23712316679E+00  0.13339420492E+00  0.10415164014E+01  0.93800000000E+00 0. -1.
         22    1    1    2    0    0  0.10417640258E+00 -0.19180097940E+00  0.15939036497E+01  0.16087787862E+01  0.00000000000E+00 0.  1.
</event>
<event>
 5    1  0.1537976E+002  0.1596484E+01  0.7818608E-02  0.3357188E+00
         11   -1    0    0    0    0  0.00000000000E+00  0.00000000000E+00  0.39999999674E+01  0.40000000000E+01  0.51100000000E-03 0. -1.
    9000002   -1    0    0    0    0 -0.00000000000E+00 -0.00000000000E+00  0.00000000000E+00  0.93800000000E+00  0.93800000000E+00 0. -1.
         11    1    1    2    0    0 -0.15476625488E+00 -0.77170309922E-01  0.24342476571E+01  0.24403831190E+01  0.51100000000E-03 0. -1.
    9000002    1    1    2    0    0  0.29819150106E+00  0.21757253419E+00  0.94166153289E-01  0.10124066591E+01  0.93800000000E+00 0. -1.
         22    1    1    2    0    0 -0.14342524619E+00 -0.14040222427E+00  0.14715861570E+01  0.14852102219E+01  0.00000000000E+00 0. -1.
</event>
<event>
 5    1  0.1537976E+002  0.1598056E+01  0.7818608E-02  0.3355476E+00
         11   -1    0    0    0    0  0.00000000000E+00  0.00000000000E+00  0.39999999674E+01  0.40000000000E+01  0.51100000000E-03 0.  1.
    9000002   -1    0    0    0    0 -0.00000000000E+00 -0.00000000000E+00  0.00000000000E+00  0.93800000000E+00  0.93800000000E+00 0. -1.
         11    1    1    2    0    0 -0.46520116273E-02  0.18573832620E-01  0.82266625428E-01  0.84467077910E-01  0.51100000000E-03 0.  1.
    9000002    1    1    2    0    0  0.84574412367E-01 -0.23638448395E+00  0.43114501505E-01  0.97197392749E+00  0.93800000000E+00 0. -1.
         22    1    1    2    0    0 -0.79922400740E-01  0.21781065133E+00  0.38746188404E+01  0.38815589946E+01  0.00000000000E+00 0.  1.
</event>
<event>
 5    1  0.1537976E+002  0.1598012E+01  0.7818608E-02  0.3355524E+00
         11   -1    0    0    0    0  0.00000000000E+00  0.00000000000E+00  0.39999999674E+01  0.40000000000E+01  0.51100000000E-03 0.  1.
    9000002   -1    0    0    0    0 -0.00000000000E+00 -0.00000000000E+00  0.00000000000E+00  0.93800000000E+00  0.93800000000E+00 0.  1.
         11    1    1    2    0    0  0.68455495835E-03 -0.11342734134E-01  0.63038580725E-01  0.64056615692E-01  0.51100000000E-03 0.  1.
    9000002    1    1    2    0    0 -0.19892119754E+00 -0.44262135099E-01  0.28749489864E-01  0.96031209125E+00  0.93800000000E+00 0.  1.
         22    1    1    2    0    0  0.19823664258E+00  0.55604869233E-01  0.39082118968E+01  0.39136312931E+01  0.00000000000E+00 0.  1.
</event>
<event>
 5    1  0.1537976E+002  0.1598362E+01  0.7818608E-02  0.3355143E+00
         11   -1    0    0    0    0  0.00000000000E+00  0.00000000000E+00  0.39999999674E+01  0.40000000000E+01  0.51100000000E-03 0.  1.
    9000002   -1    0    0    0    0 -0.00000000000E+00 -0.00000000000E+00  0.00000000000E+00  0.93800000000E+00  0.93800000000E+00 0. -1.
         11    1    1    2    0    0  0.94804414242E-02  0.54283576449E-02  0.91973276554E-01  0.92621220881E-01  0.51100000000E-03 0.  1.
    9000002    1    1    2    0    0  0.15657175054E+00 -0.27751820966E+00  0.68894679659E-01  0.99303652835E+00  0.93800000000E+00 0. -1.
         22    1    1    2    0    0 -0.16605219196E+00  0.27208985201E+00  0.38391320111E+01  0.38523422508E+01  0.00000000000E+00 0.  1.
</event>
<event>
 5    1  0.1537976E+002  0.1575777E+01  0.7818608E-02  0.3380081E+00
         11   -1    0    0    0    0  0.00000000000E+00  0.00000000000E+00  0.39999999674E+01  0.40000000000E+01  0.51100000000E-03 0.  1.
    9000002   -1    0    0    0    0 -0.00000000000E+00 -0.00000000000E+00  0.00000000000E+00  0.93800000000E+00  0.93800000000E+00 0.  1.
         11    1    1    2    0    0  0.31658477122E-01 -0.77309972456E-01  0.19849212112E+00  0.21535662118E+00  0.51100000000E-03 0.  1.
    9000002    1    1    2    0    0  0.37329019837E+00  0.21483684953E+00  0.14626511785E+00  0.10424672315E+01  0.93800000000E+00 0.  1.
         22    1    1    2    0    0 -0.40494867550E+00 -0.13752687708E+00  0.36552427284E+01  0.36801761473E+01  0.00000000000E+00 0.  1.
</event>
<event>
 5    1  0.1537976E+002  0.1594611E+01  0.7818608E-02  0.3359234E+00
         11   -1    0    0    0    0  0.00000000000E+00  0.00000000000E+00  0.39999999674E+01  0.40000000000E+01  0.51100000000E-03 0. -1.
    9000002   -1    0    0    0    0 -0.00000000000E+00 -0.00000000000E+00  0.00000000000E+00  0.93800000000E+00  0.93800000000E+00 0. -1.
         11    1    1    2    0    0  0.51019021261E-01 -0.11843748411E+00  0.11496473930E+01  0.11568577127E+01  0.51100000000E-03 0. -1.
    9000002    1    1    2    0    0  0.70149199653E-01  0.29916885266E+00  0.67025182029E-01  0.98932264082E+00  0.93800000000E+00 0. -1.
         22    1    1    2    0    0 -0.12116822091E+00 -0.18073136855E+00  0.27833273924E+01  0.27918196465E+01  0.00000000000E+00 0. -1.
</event>
<event>
 5    1  0.1537976E+002  0.1599555E+01  0.7818608E-02  0.3353846E+00
         11   -1    0    0    0    0  0.00000000000E+00  0.00000000000E+00  0.39999999674E+01  0.40000000000E+01  0.51100000000E-03 0.  1.
    9000002   -1    0    0    0    0 -0.00000000000E+00 -0.00000000000E+00  0.00000000000E+00  0.93800000000E+00  0.93800000000E+00 0. -1.
         11    1    1    2    0    0 -0.24369809011E+00 -0.48073819182E-01  0.19256495213E+01  0.19416040253E+01  0.51100000000E-03 0.  1.
    9000002    1    1    2    0    0  0.46812319822E+00  0.77017797674E-01  0.15354153721E+00  0.10623041342E+01  0.93800000000E+00 0. -1.
         22    1    1    2    0    0 -0.22442510812E+00 -0.28943978493E-01  0.19208089089E+01  0.19340918405E+01  0.00000000000E+00 0.  1.
</event>
<event>
 5    1  0.1537976E+002  0.1599673E+01  0.7818608E-02  0.3353719E+00
         11   -1    0    0    0    0  0.00000000000E+00  0.00000000000E+00  0.39999999674E+01  0.40000000000E+01  0.51100000000E-03 0.  1.
    9000002   -1    0    0    0    0 -0.00000000000E+00 -0.00000000000E+00  0.00000000000E+00  0.93800000000E+00  0.93800000000E+00 0.  1.
         11    1    1    2    0    0 -0.86626300255E-01 -0.12947782562E-01  0.94929673473E+00  0.95332906840E+00  0.51100000000E-03 0.  1.
    9000002    1    1    2    0    0  0.35201494136E+00  0.46438810181E-01  0.84583027609E-01  0.10065134726E+01  0.93800000000E+00 0.  1.
         22    1    1    2    0    0 -0.26538864111E+00 -0.33491027619E-01  0.29661202050E+01  0.29781574590E+01  0.00000000000E+00 0.  1.
</event>
<event>
 5    1  0.1537976E+002  0.1599676E+01  0.7818608E-02  0.3353715E+00
         11   -1    0    0    0    0  0.00000000000E+00  0.00000000000E+00  0.39999999674E+01  0.40000000000E+01  0.51100000000E-03 0. -1.
    9000002   -1    0    0    0    0 -0.00000000000E+00 -0.00000000000E+00  0.00000000000E+00  0.93800000000E+00  0.93800000000E+00 0.  1.
         11    1    1    2    0    0 -0.13319243457E+00 -0.93875441880E-01  0.17423336000E+01  0.17499369869E+01  0.51100000000E-03 0. -1.
    9000002    1    1    2    0    0  0.29742069526E+00  0.21254019171E+00  0.89760255439E-01  0.10107093086E+01  0.93800000000E+00 0.  1.
         22    1    1    2    0    0 -0.16422826069E+00 -0.11866474983E+00  0.21679061119E+01  0.21773537045E+01  0.00000000000E+00 0. -1.
</event>
<event>
 5    1  0.1537976E+002  0.1563053E+01  0.7818608E-02  0.3394467E+00
         11   -1    0    0    0    0  0.00000000000E+00  0.00000000000E+00  0.39999999674E+01  0.40000000000E+01  0.51100000000E-03 0. -1.
    9000002   -1    0    0    0    0 -0.00000000000E+00 -0.00000000000E+00  0.00000000000E+00  0.93800000000E+00  0.93800000000E+00 0. -1.
         11    1    1    2    0    0  0.68150184686E-01 -0.12532280907E+00  0.84675457547E+00  0.85868726923E+00  0.51100000000E-03 0. -1.
    9000002    1    1    2    0    0 -0.84055661514E+00 -0.69340221597E-01  0.58518287957E+00  0.13905489895E+01  0.93800000000E+00 0. -1.
         22    1    1    2    0    0  0.77240643045E+00  0.19466303066E+00  0.25680625123E+01  0.26887637413E+01  0.00000000000E+00 0. -1.
</event>
<event>
 5    1  0.1537976E+002  0.1572494E+01  0.7818608E-02  0.3383770E+00
         11   -1    0    0    0    0  0.00000000000E+00  0.00000000000E+00  0.39999999674E+01  0.40000000000E+01  0.51100000000E-03 0.  1.
    9000002   -1    0    0    0    0 -0.00000000000E+00 -0.00000000000E+00  0.00000000000E+00  0.93800000000E+00  0.93800000000E+00 0.  1.
         11    1    1    2    0    0 -0.13352087214E+00  0.85034266450E-01  0.13874554565E+01  0.13964567858E+01  0.51100000000E-03 0.  1.
    9000002    1    1    2    0    0 -0.79802451135E-01  0.38961284919E-01  0.25273673933E-01  0.94253337953E+00  0.93800000000E+00 0.  1.
         22    1    1    2    0    0  0.21332332328E+00 -0.12399555137E+00  0.25872708369E+01  0.25990098347E+01  0.00000000000E+00 0.  1.
</event>
<event>
 5    1  0.1537976E+002  0.1586541E+01  0.7818608E-02  0.3368102E+00
         11   -1    0    0    0    0  0.00000000000E+00  0.00000000000E+00  0.39999999674E+01  0.40000000000E+01  0.51100000000E-03 0.  1.
    9000002   -1    0    0    0    0 -0.00000000000E+00 -0.00000000000E+00  0.00000000000E+00  0.93800000000E+00  0.93800000000E+00 0.  1.
         11    1    1    2    0    0  0.75363655021E-01  0.10197061519E-01  0.18013525010E+01  0.18029572249E+01  0.51100000000E-03 0.  1.
    9000002    1    1    2    0    0  0.13599285659E+00  0.52058846711E-03  0.21928858984E-01  0.94806075908E+00  0.93800000000E+00 0.  1.
         22    1    1    2    0    0 -0.21135651161E+00 -0.10717649986E-01  0.21767186073E+01  0.21869820161E+01  0.00000000000E+00 0.  1.
</event>
<event>
 5    1  0.1537976E+002  0.1599675E+01  0.7818608E-02  0.3353716E+00
         11   -1    0    0    0    0  0.00000000000E+00  0.00000000000E+00  0.39999999674E+01  0.40000000000E+01  0.51100000000E-03 0.  1.
    9000002   -1    0    0    0    0 -0.00000000000E+00 -0.00000000000E+00  0.00000000000E+00  0.93800000000E+00  0.93800000000E+00 0. -1.
         11    1    1    2    0    0 -0.12507806057E-02 -0.26084888231E-01  0.39482421313E+00  0.39568725812E+00  0.51100000000E-03 0. -1.
    9000002    1    1    2    0    0  0.21379152550E-01  0.26338775247E+00  0.46441170383E-01  0.97561824431E+00  0.93800000000E+00 0. -1.
         22    1    1    2    0    0 -0.20128371945E-01 -0.23730286424E+00  0.35587345838E+01  0.35666944976E+01  0.00000000000E+00 0.  1.
</event>
<event>
 5    1  0.1537976E+002  0.1599498E+01  0.7818608E-02  0.3353908E+00
         11   -1    0    0    0    0  0.00000000000E+00  0.00000000000E+00  0.39999999674E+01  0.40000000000E+01  0.51100000000E-03 0.  1.
    9000002   -1    0    0    0    0 -0.00000000000E+00 -0.00000000000E+00  0.00000000000E+00  0.93800000000E+00  0.93800000000E+00 0.  1.
         11    1    1    2    0    0 -0.10929856581E+00  0.15463276191E-01  0.10228662879E+01  0.10288056150E+01  0.51100000000E-03 0.  1.
    9000002    1    1    2    0    0  0.44116253856E+00 -0.10383620031E+00  0.13973012855E+00  0.10510827040E+01  0.93800000000E+00 0.  1.
         22    1    1    2    0    0 -0.33186397275E+00  0.88372924122E-01  0.28374035509E+01  0.28581116810E+01  0.00000000000E+00 0.  1.
</event>
<event>
 5    1  0.1537976E+002  0.1599674E+01  0.7818608E-02  0.3353717E+00
         11   -1    0    0    0    0  0.00000000000E+00  0.00000000000E+00  0.39999999674E+01  0.40000000000E+01  0.51100000000E-03 0.  1.
    9000002   -1    0    0    0    0 -0.00000000000E+00 -0.00000000000E+00  0.00000000000E+00  0.93800000000E+00  0.93800000000E+00 0.  1.
         11    1    1    2    0    0 -0.78633492296E-01  0.26553800380E-01  0.11136571319E+01  0.11167456286E+01  0.51100000000E-03 0.  1.
    9000002    1    1    2    0    0  0.28307786861E+00 -0.90284787075E-01  0.58881905692E-01  0.98569544043E+00  0.93800000000E+00 0.  1.
         22    1    1    2    0    0 -0.20444437631E+00  0.63730986695E-01  0.28274609298E+01  0.28355589310E+01  0.00000000000E+00 0.  1.
</event>
<event>
 5    1  0.1537976E+002  0.1594668E+01  0.7818608E-02  0.3359171E+00
         11   -1    0    0    0    0  0.00000000000E+00  0.00000000000E+00  0.39999999674E+01  0.40000000000E+01  0.51100000000E-03 0.  1.
    9000002   -1    0    0    0    0 -0.00000000000E+00 -0.00000000000E+00  0.00000000000E+00  0.93800000000E+00  0.93800000000E+00 0.  1.
         11    1    1    2    0    0  0.27938938655E-01 -0.31933865231E-02  0.36897490973E+00  0.37004530417E+00  0.51100000000E-03 0.  1.
    9000002    1    1    2    0    0  0.73584491948E-01 -0.34275400115E+00  0.86452743832E-01  0.10050935577E+01  0.93800000000E+00 0.  1.
         22    1    1    2    0    0 -0.10152343060E+00  0.34594738768E+00  0.35445723138E+01  0.35628611382E+01  0.00000000000E+00 0.  1.
</event>
<event>
 5    1  0.1537976E+002  0.1597315E+01  0.7818608E-02  0.3356283E+00
         11   -1    0    0    0    0  0.00000000000E+00  0.00000000000E+00  0.39999999674E+01  0.40000000000E+01  0.51100000000E-03 0.  1.
    9000002   -1    0    0    0    0 -0.00000000000E+00 -0.00000000000E+00  0.00000000000E+00  0.93800000000E+00  0.93800000000E+00 0. -1.
         11    1    1    2    0    0  0.19778008362E-01 -0.41649068647E-04  0.69205072389E-01  0.71977597312E-01  0.51100000000E-03 0.  1.
    9000002    1    1    2    0    0 -0.25509332107E+00  0.16909204175E+00  0.64377210804E-01  0.98876344305E+00  0.93800000000E+00 0. -1.
         22    1    1    2    0    0  0.23531531271E+00 -0.16905039268E+00  0.38664176842E+01  0.38772589596E+01  0.00000000000E+00 0.  1.
</event>
<event>
 5    1  0.1537976E+002  0.1599634E+01  0.7818608E-02  0.3353761E+00
         11   -1    0    0    0    0  0.00000000000E+00  0.00000000000E+00  0.39999999674E+01  0.40000000000E+01  0.51100000000E-03 0.  1.
    9000002   -1    0    0    0    0 -0.00000000000E+00 -0.00000000000E+00  0.00000000000E+00  0.93800000000E+00  0.93800000000E+00 0. -1.
         11    1    1    2    0    0 -0.50414366554E-01  0.52598456818E-01  0.81295407073E+00  0.81621246514E+00  0.51100000000E-03 0.  1.
    9000002    1    1    2    0    0  0.22819444762E+00 -0.28037848886E+00  0.87773768989E-01  0.10090753379E+01  0.93800000000E+00 0. -1.
         22    1    1    2    0    0 -0.17778008107E+00  0.22778003204E+00  0.30992721276E+01  0.31127121970E+01  0.00000000000E+00 0.  1.
</event>
<event>
 5    1  0.1537976E+002  0.1592587E+01  0.7818608E-02  0.3361448E+00
         11   -1    0    0    0    0  0.00000000000E+00  0.00000000000E+00  0.39999999674E+01  0.40000000000E+01  0.51100000000E-03 0.  1.
    9000002   -1    0    0    0    0 -0.00000000000E+00 -0.00000000000E+00  0.00000000000E+00  0.93800000000E+00  0.93800000000E+00 0. -1.
         11    1    1    2    0    0  0.26744540278E-01  0.47847283826E-02  0.76776899724E-01  0.81443953198E-01  0.51100000000E-03 0.  1.
    9000002    1    1    2    0    0  0.81020112964E-01 -0.25345184577E+00  0.52570323221E-01  0.97642702529E+00  0.93800000000E+00 0. -1.
         22    1    1    2    0    0 -0.10776465324E+00  0.24866711738E+00  0.38706527444E+01  0.38801290215E+01  0.00000000000E+00 0.  1.
</event>
<event>
 5    1  0.1537976E+002  0.1599610E+01  0.7818608E-02  0.3353787E+00
         11   -1    0    0    0    0  0.00000000000E+00  0.00000000000E+00  0.39999999674E+01  0.40000000000E+01  0.51100000000E-03 0. -1.
    9000002   -1    0    0    0    0 -0.00000000000E+00 -0.00000000000E+00  0.00000000000E+00  0.93800000000E+00  0.93800000000E+00 0.  1.
         11    1    1    2    0    0 -0.20934428094E+00  0.10854618890E+00  0.17337885345E+01  0.17497514814E+01  0.51100000000E-03 0. -1.
    9000002    1    1    2    0    0  0.46592150464E+00 -0.25884694613E+00  0.19566035808E+00  0.10964540874E+01  0.93800000000E+00 0.  1.
         22    1    1    2    0    0 -0.25657722369E+00  0.15030075723E+00  0.20705510748E+01  0.20917944312E+01  0.00000000000E+00 0. -1.
</event>
<event>
 5    1  0.1537976E+002  0.1599583E+01  0.7818608E-02  0.3353816E+00
         11   -1    0    0    0    0  0.00000000000E+00  0.00000000000E+00  0.39999999674E+01  0.40000000000E+01  0.51100000000E-03 0. -1.
    9000002   -1    0    0    0    0 -0.00000000000E+00 -0.00000000000E+00  0.00000000000E+00  0.93800000000E+00  0.93800000000E+00 0. -1.
         11    1    1    2    0    0  0.40031739677E-01  0.53899792062E-01  0.10823786783E+01  0.10844591242E+01  0.51100000000E-03 0. -1.
    9000002    1    1    2    0    0 -0.18371160104E+00 -0.20219635277E+00  0.49743219528E-01  0.97823908393E+00  0.93800000000E+00 0. -1.
         22    1    1    2    0    0  0.14367986136E+00  0.14829656071E+00  0.28678780695E+01  0.28753017919E+01  0.00000000000E+00 0. -1.
</event>
<event>
 5    1  0.1537976E+002  0.1572589E+01  0.7818608E-02  0.3383663E+00
         11   -1    0    0    0    0  0.00000000000E+00  0.00000000000E+00  0.39999999674E+01  0.40000000000E+01  0.51100000000E-03 0. -1.
    9000002   -1    0    0    0    0 -0.00000000000E+00 -0.00000000000E+00  0.00000000000E+00  0.93800000000E+00  0.93800000000E+00 0. -1.
         11    1    1    2    0    0  0.14516980935E+00  0.14174992978E+00  0.20695173912E+01  0.20794397826E+01  0.51100000000E-03 0. -1.
    9000002    1    1    2    0    0 -0.86578334584E-01  0.55559431610E-01  0.27029455260E-01  0.94401125518E+00  0.93800000000E+00 0. -1.
         22    1    1    2    0    0 -0.58591474767E-01 -0.19730936139E+00  0.19034531209E+01  0.19145489622E+01  0.00000000000E+00 0.  1.
</event>
<event>
 5    1  0.1537976E+002  0.1581255E+01  0.7818608E-02  0.3373963E+00
         11   -1    0    0    0    0  0.00000000000E+00  0.00000000000E+00  0.39999999674E+01  0.40000000000E+01  0.51100000000E-03 0.  1.
    9000002   -1    0    0    0    0 -0.00000000000E+00 -0.00000000000E+00  0.00000000000E+00  0.93800000000E+00  0.93800000000E+00 0. -1.
         11    1    1    2    0    0  0.75455233176E-01 -0.49414469429E-01  0.50341474174E+00  0.51143127136E+00  0.51100000000E-03 0.  1.
    9000002    1    1    2    0    0  0.14665403340E+00 -0.42275412689E-01  0.29114335461E-01  0.95078192061E+00  0.93800000000E+00 0. -1.
         22    1    1    2    0    0 -0.22210926657E+00  0.91689882118E-01  0.34674708902E+01  0.34757868080E+01  0.00000000000E+00 0.  1.
</event>
<event>
 5    1  0.1537976E+002  0.1599637E+01  0.7818608E-02  0.3353757E+00
         11   -1    0    0    0    0  0.00000000000E+00  0.00000000000E+00  0.39999999674E+01  0.40000000000E+01  0.51100000000E-03 0. -1.
    9000002   -1    0    0    0    0 -0.00000000000E+00 -0.00000000000E+00  0.00000000000E+00  0.93800000000E+00  0.93800000000E+00 0.  1.
         11    1    1    2    0    0  0.49425369345E-02 -0.81547072109E-02  0.10395124228E+00  0.10438893530E+00  0.51100000000E-03 0. -1.
    9000002    1    1    2    0    0 -0.20379873883E+00  0.22041189921E+00  0.60149028441E-01  0.98670017578E+00  0.93800000000E+00 0.  1.
         22    1    1    2    0    0  0.19885620190E+00 -0.21225719200E+00  0.38358996966E+01  0.38469108889E+01  0.00000000000E+00 0. -1.
</event>
<event>
 5    1  0.1537976E+002  0.1479535E+01  0.7818608E-02  0.3495474E+00
         11   -1    0    0    0    0  0.00000000000E+00  0.00000000000E+00  0.39999999674E+01  0.40000000000E+01  0.51100000000E-03 0. -1.
    9000002   -1    0    0    0    0 -0.00000000000E+00 -0.00000000000E+00  0.00000000000E+00  0.93800000000E+00  0.93800000000E+00 0.  1.
         11    1    1    2    0    0 -0.20949233975E+00  0.30509413587E+00  0.28994524988E+01  0.29229769972E+01  0.51100000000E-03 0. -1.
    9000002    1    1    2    0    0 -0.10366563261E+00 -0.10375461537E+00  0.10869410358E+00  0.95559928409E+00  0.93800000000E+00 0.  1.
         22    1    1    2    0    0  0.31315797236E+00 -0.20133952050E+00  0.99185336495E+00  0.10594237187E+01  0.00000000000E+00 0.  1.
</event>
<event>
 5    1  0.2610438E+002  0.1575311E+01  0.7818608E-02  0.3380603E+00
         11   -1    0    0    0    0  0.00000000000E+00  0.00000000000E+00  0.39999999674E+01  0.40000000000E+01  0.51100000000E-03 0. -1.
    9000002   -1    0    0    0    0 -0.00000000000E+00 -0.00000000000E+00  0.00000000000E+00  0.93800000000E+00  0.93800000000E+00 0.  1.
         11    1    1    2    0    0  0.13195530562E+00 -0.81492230660E-01  0.13560743933E+01  0.13649143591E+01  0.51100000000E-03 0. -1.
    9000002    1    1    2    0    0  0.51237934613E-01 -0.45073535077E-01  0.20987189732E-01  0.94071324623E+00  0.93800000000E+00 0.  1.
         22    1    1    2    0    0 -0.18319324023E+00  0.12656576574E+00  0.26229383843E+01  0.26323723947E+01  0.00000000000E+00 0. -1.
</event>
<event>
 5    1  0.1537976E+002  0.1599653E+01  0.7818608E-02  0.3353740E+00
         11   -1    0    0    0    0  0.00000000000E+00  0.00000000000E+00  0.39999999674E+01  0.40000000000E+01  0.51100000000E-03 0. -1.
    9000002   -1    0    0    0    0 -0.00000000000E+00 -0.00000000000E+00  0.00000000000E+00  0.93800000000E+00  0.93800000000E+00 0. -1.
         11    1    1    2    0    0  0.32936684360E-01 -0.32465111619E-01  0.80001444856E+00  0.80135022785E+00  0.51100000000E-03 0. -1.
    9000002    1    1    2    0    0 -0.17690758219E+00  0.17937435067E+00  0.42188047329E-01  0.97216011112E+00  0.93800000000E+00 0. -1.
         22    1    1    2    0    0  0.14397089783E+00 -0.14690923905E+00  0.31577974715E+01  0.31644896610E+01  0.00000000000E+00 0. -1.
</event>
<event>
 5    1  0.1537976E+002  0.1598964E+01  0.7818608E-02  0.3354488E+00
         11   -1    0    0    0    0  0.00000000000E+00  0.00000000000E+00  0.39999999674E+01  0.40000000000E+01  0.51100000000E-03 0. -1.
    9000002   -1    0    0    0    0 -0.00000000000E+00 -0.00000000000E+00  0.00000000000E+00  0.93800000000E+00  0.93800000000E+00 0. -1.
         11    1    1    2    0    0  0.28073721369E-01  0.19881469146E-01  0.24602777221E+00  0.24842168276E+00  0.51100000000E-03 0. -1.
    9000002    1    1    2    0    0 -0.34910369981E+00 -0.87174363261E-01  0.87486126613E-01  0.10084495948E+01  0.93800000000E+00 0. -1.
         22    1    1    2    0    0  0.32102997844E+00  0.67292894115E-01  0.36664860685E+01  0.36811287225E+01  0.00000000000E+00 0. -1.
</event>
<event>
 5    1  0.1537976E+002  0.1562955E+01  0.7818608E-02  0.3394579E+00
         11   -1    0    0    0    0  0.00000000000E+00  0.00000000000E+00  0.39999999674E+01  0.40000000000E+01  0.51100000000E-03 0.  1.
    9000002   -1    0    0    0    0 -0.00000000000E+00 -0.00000000000E+00  0.00000000000E+00  0.93800000000E+00  0.93800000000E+00 0. -1.
         11    1    1    2    0    0 -0.12299096446E+00  0.11460550775E+00  0.18883981701E+01  0.18958663217E+01  0.51100000000E-03 0.  1.
    9000002    1    1    2    0    0 -0.10604806306E+00  0.77516710837E-01  0.38865774435E-01  0.94795019941E+00  0.93800000000E+00 0. -1.
         22    1    1    2    0    0  0.22903902752E+00 -0.19212221858E+00  0.20727360228E+01  0.20941834789E+01  0.00000000000E+00 0.  1.
</event>
<event>
 5    1  0.1537976E+002  0.1599667E+01  0.7818608E-02  0.3353724E+00
         11   -1    0    0    0    0  0.00000000000E+00  0.00000000000E+00  0.39999999674E+01  0.40000000000E+01  0.51100000000E-03 0. -1.
    9000002   -1    0    0    0    0 -0.00000000000E+00 -0.00000000000E+00  0.00000000000E+00  0.93800000000E+00  0.93800000000E+00 0.  1.
         11    1    1    2    0    0  0.54728458204E-01 -0.70909658673E-02  0.77836433334E+00  0.78031838532E+00  0.51100000000E-03 0. -1.
    9000002    1    1    2    0    0 -0.26301738179E+00  0.37282561881E-01  0.46943149275E-01  0.97602038493E+00  0.93800000000E+00 0.  1.
         22    1    1    2    0    0  0.20828892359E+00 -0.30191596014E-01  0.31746924847E+01  0.31816612297E+01  0.00000000000E+00 0. -1.
</event>
<event>
 5    1  0.1537976E+002  0.1599667E+01  0.7818608E-02  0.3353724E+00
         11   -1    0    0    0    0  0.00000000000E+00  0.00000000000E+00  0.39999999674E+01  0.40000000000E+01  0.51100000000E-03 0. -1.
    9000002   -1    0    0    0    0 -0.00000000000E+00 -0.00000000000E+00  0.00000000000E+00  0.93800000000E+00  0.93800000000E+00 0.  1.
         11    1    1    2    0    0  0.33262108198E-01 -0.20136249342E+00  0.15223446047E+01  0.15359643805E+01  0.51100000000E-03 0. -1.
    9000002    1    1    2    0    0 -0.78620407130E-01  0.51252472458E+00  0.18464704568E+00  0.10875666845E+01  0.93800000000E+00 0.  1.
         22    1    1    2    0    0  0.45358298932E-01 -0.31116223116E+00  0.22930083170E+01  0.23144689350E+01  0.00000000000E+00 0. -1.
</event>
<event>
 5    1  0.1537976E+002  0.1599667E+01  0.7818608E-02  0.3353725E+00
         11   -1    0    0    0    0  0.00000000000E+00  0.00000000000E+00  0.39999999674E+01  0.40000000000E+01  0.51100000000E-03 0.  1.
    9000002   -1    0    0    0    0 -0.00000000000E+00 -0.00000000000E+00  0.00000000000E+00  0.93800000000E+00  0.93800000000E+00 0.  1.
         11    1    1    2    0    0 -0.24143176047E-01  0.44402789333E-02  0.32682902263E+00  0.32775002698E+00  0.51100000000E-03 0.  1.
    9000002    1    1    2    0    0  0.31364902745E+00 -0.44592049434E-01  0.67070017970E-01  0.99232381338E+00  0.93800000000E+00 0.  1.
         22    1    1    2    0    0 -0.28950585140E+00  0.40151770501E-01  0.36061009268E+01  0.36179261596E+01  0.00000000000E+00 0.  1.
</event>
<event>
 5    1  0.1537976E+002  0.1599677E+01  0.7818608E-02  0.3353714E+00
         11   -1    0    0    0    0  0.00000000000E+00  0.00000000000E+00  0.39999999674E+01  0.40000000000E+01  0.51100000000E-03 0.  1.
    9000002   -1    0    0    0    0 -0.00000000000E+00 -0.00000000000E+00  0.00000000000E+00  0.93800000000E+00  0.93800000000E+00 0.  1.
         11    1    1    2    0    0 -0.55353424284E-01 -0.37080978372E-01  0.87270174178E+00  0.87524144770E+00  0.51100000000E-03 0.  1.
    9000002    1    1    2    0    0  0.24847382230E+00  0.16533451308E+00  0.59414617713E-01  0.98612820585E+00  0.93800000000E+00 0.  1.
         22    1    1    2    0    0 -0.19312039801E+00 -0.12825353471E+00  0.30678836079E+01  0.30766303464E+01  0.00000000000E+00 0.  1.
</event>
<event>
 5    1  0.1537976E+002  0.1597707E+01  0.7818608E-02  0.3355856E+00
         11   -1    0    0    0    0  0.00000000000E+00  0.00000000000E+00  0.39999999674E+01  0.40000000000E+01  0.51100000000E-03 0. -1.
    9000002   -1    0    0    0    0 -0.00000000000E+00 -0.00000000000E+00  0.00000000000E+00  0.93800000000E+00  0.93800000000E+00 0.  1.
         11    1    1    2    0    0  0.14124455991E+00  0.83454408420E-01  0.15454847276E+01  0.15541679344E+01  0.51100000000E-03 0. -1.
    9000002    1    1    2    0    0 -0.44569988137E+00 -0.29099918545E+00  0.19688243308E+00  0.10963282367E+01  0.93800000000E+00 0. -1.
         22    1    1    2    0    0  0.30445532146E+00  0.20754477703E+00  0.22576328067E+01  0.22875038289E+01  0.00000000000E+00 0. -1.
</event>
<event>
 5    1  0.1537976E+002  0.1599603E+01  0.7818608E-02  0.3353795E+00
         11   -1    0    0    0    0  0.00000000000E+00  0.00000000000E+00  0.39999999674E+01  0.40000000000E+01  0.51100000000E-03 0.  1.
    9000002   -1    0    0    0    0 -0.00000000000E+00 -0.00000000000E+00  0.00000000000E+00  0.93800000000E+00  0.93800000000E+00 0. -1.
         11    1    1    2    0    0  0.23409052466E+00  0.36359037501E+00  0.17483216991E+01  0.18010067627E+01  0.51100000000E-03 0.  1.
    9000002    1    1    2    0    0 -0.44350894860E+00 -0.71832041574E+00  0.53344380384E+00  0.13700695964E+01  0.93800000000E+00 0. -1.
         22    1    1    2    0    0  0.20941842394E+00  0.35473004073E+00  0.17182344644E+01  0.17669236409E+01  0.00000000000E+00 0.  1.
</event>
<event>
 5    1  0.1537976E+002  0.1599677E+01  0.7818608E-02  0.3353714E+00
         11   -1    0    0    0    0  0.00000000000E+00  0.00000000000E+00  0.39999999674E+01  0.40000000000E+01  0.51100000000E-03 0.  1.
    9000002   -1    0    0    0    0 -0.00000000000E+00 -0.00000000000E+00  0.00000000000E+00  0.93800000000E+00  0.93800000000E+00 0.  1.
         11    1    1    2    0    0 -0.71810653988E-01  0.13281465840E+00  0.16399748174E+01  0.16469104913E+01  0.51100000000E-03 0.  1.
    9000002    1    1    2    0    0  0.17109550542E+00 -0.31611291396E+00  0.86722358494E-01  0.10082488849E+01  0.93800000000E+00 0.  1.
         22    1    1    2    0    0 -0.99284851430E-01  0.18329825556E+00  0.22733027914E+01  0.22828406238E+01  0.00000000000E+00 0.  1.
</event>
<event>
 5    1  0.1537976E+002  0.1593875E+01  0.7818608E-02  0.3360038E+00
         11   -1    0    0    0    0  0.00000000000E+00  0.00000000000E+00  0.39999999674E+01  0.40000000000E+01  0.51100000000E-03 0. -1.
    9000002   -1    0    0    0    0 -0.00000000000E+00 -0.00000000000E+00  0.00000000000E+00  0.93800000000E+00  0.93800000000E+00 0. -1.
         11    1    1    2    0    0  0.39883216045E-01 -0.99013297760E-02  0.51015303606E+00  0.51180571370E+00  0.51100000000E-03 0. -1.
    9000002    1    1    2    0    0  0.60423480857E-01 -0.22360666301E+00  0.40004141900E-01  0.96700324102E+00  0.93800000000E+00 0. -1.
         22    1    1    2    0    0 -0.10030669690E+00  0.23350799279E+00  0.34498427894E+01  0.34591910453E+01  0.00000000000E+00 0. -1.
</event>
<event>
 5    1  0.1537976E+002  0.1589659E+01  0.7818608E-02  0.3364664E+00
         11   -1    0    0    0    0  0.00000000000E+00  0.00000000000E+00  0.39999999674E+01  0.40000000000E+01  0.51100000000E-03 0.  1.
    9000002   -1    0    0    0    0 -0.00000000000E+00 -0.00000000000E+00  0.00000000000E+00  0.93800000000E+00  0.93800000000E+00 0.  1.
         11    1    1    2    0    0 -0.19025285152E+00  0.12723767965E+00  0.91362279132E+00  0.94185584915E+00  0.51100000000E-03 0.  1.
    9000002    1    1    2    0    0  0.44310326031E+00 -0.27081726859E+00  0.19446757726E+00  0.10896532159E+01  0.93800000000E+00 0.  1.
         22    1    1    2    0    0 -0.25285040879E+00  0.14357958894E+00  0.28919095988E+01  0.29064909350E+01  0.00000000000E+00 0.  1.
</event>
<event>
 5    1  0.1537976E+002  0.1588905E+01  0.7818608E-02  0.3365494E+00
         11   -1    0    0    0    0  0.00000000000E+00  0.00000000000E+00  0.39999999674E+01  0.40000000000E+01  0.51100000000E-03 0.  1.
    9000002   -1    0    0    0    0 -0.00000000000E+00 -0.00000000000E+00  0.00000000000E+00  0.93800000000E+00  0.93800000000E+00 0. -1.
         11    1    1    2    0    0  0.14291027105E+00 -0.20974116263E+00  0.17553192129E+01  0.17735728068E+01  0.51100000000E-03 0.  1.
    9000002    1    1    2    0    0 -0.43773989701E-01  0.42185723316E+00  0.13089946019E+00  0.10377178595E+01  0.93800000000E+00 0. -1.
         22    1    1    2    0    0 -0.99136281354E-01 -0.21211607052E+00  0.21137812943E+01  0.21267093336E+01  0.00000000000E+00 0.  1.
</event>
<event>
 5    1  0.1537976E+002  0.1463587E+01  0.7818608E-02  0.3516176E+00
         11   -1    0    0    0    0  0.00000000000E+00  0.00000000000E+00  0.39999999674E+01  0.40000000000E+01  0.51100000000E-03 0.  1.
    9000002   -1    0    0    0    0 -0.00000000000E+00 -0.00000000000E+00  0.00000000000E+00  0.93800000000E+00  0.93800000000E+00 0.  1.
         11    1    1    2    0    0 -0.32674851385E+00  0.24403990044E+00  0.35392131770E+01  0.35626324870E+01  0.51100000000E-03 0.  1.
    9000002    1    1    2    0    0  0.82202003463E-01 -0.23487874326E+00  0.15345382050E+00  0.98250560733E+00  0.93800000000E+00 0.  1.
         22    1    1    2    0    0  0.24454651038E+00 -0.91611571810E-02  0.30733296989E+00  0.39286190567E+00  0.00000000000E+00 0.  1.
</event>
<event>
 5    1  0.1537976E+002  0.1599628E+01  0.7818608E-02  0.3353767E+00
         11   -1    0    0    0    0  0.00000000000E+00  0.00000000000E+00  0.39999999674E+01  0.40000000000E+01  0.51100000000E-03 0.  1.
    9000002   -1    0    0    0    0 -0.00000000000E+00 -0.00000000000E+00  0.00000000000E+00  0.93800000000E+00  0.93800000000E+00 0.  1.
         11    1    1    2    0    0 -0.76666044876E-02 -0.71304572445E-02  0.11239346759E+00  0.11288123370E+00  0.51100000000E-03 0.  1.
    9000002    1    1    2    0    0  0.17669777490E+00  0.28089055108E+00  0.73733110472E-01  0.99769843987E+00  0.93800000000E+00 0.  1.
         22    1    1    2    0    0 -0.16903117041E+00 -0.27376009383E+00  0.38138733893E+01  0.38274203264E+01  0.00000000000E+00 0.  1.
</event>
<event>
 5    1  0.1537976E+002  0.1541992E+01  0.7818608E-02  0.3418834E+00
         11   -1    0    0    0    0  0.00000000000E+00  0.00000000000E+00  0.39999999674E+01  0.40000000000E+01  0.51100000000E-03 0. -1.
    9000002   -1    0    0    0    0 -0.00000000000E+00 -0.00000000000E+00  0.00000000000E+00  0.93800000000E+00  0.93800000000E+00 0. -1.
         11    1    1    2    0    0 -0.28113311091E+00  0.20688186559E+00  0.17594468647E+01  0.17937361744E+01  0.51100000000E-03 0. -1.
    9000002    1    1    2    0    0  0.16510752136E+00 -0.16733058942E-01  0.62247925324E-01  0.95459902214E+00  0.93800000000E+00 0. -1.
         22    1    1    2    0    0  0.11602558955E+00 -0.19014880665E+00  0.21783051773E+01  0.21896648035E+01  0.00000000000E+00 0. -1.
</event>
<event>
 5    1  0.1537976E+002  0.1599676E+01  0.7818608E-02  0.3353715E+00
         11   -1    0    0    0    0  0.00000000000E+00  0.00000000000E+00  0.39999999674E+01  0.40000000000E+01  0.51100000000E-03 0. -1.
    9000002   -1    0    0    0    0 -0.00000000000E+00 -0.00000000000E+00  0.00000000000E+00  0.93800000000E+00  0.93800000000E+00 0.  1.
         11    1    1    2    0    0  0.16658009357E+00  0.71774410647E-01  0.14030020308E+01  0.14146785688E+01  0.51100000000E-03 0. -1.
    9000002    1    1    2    0    0 -0.45750254812E+00 -0.19563126812E+00  0.16941437818E+00  0.10752327218E+01  0.93800000000E+00 0.  1.
         22    1    1    2    0    0  0.29092245455E+00  0.12385685747E+00  0.24275835584E+01  0.24480887093E+01  0.00000000000E+00 0. -1.
</event>
<event>
 5    1  0.1537976E+002  0.1598953E+01  0.7818608E-02  0.3354501E+00
         11   -1    0    0    0    0  0.00000000000E+00  0.00000000000E+00  0.39999999674E+01  0.40000000000E+01  0.51100000000E-03 0. -1.
    9000002   -1    0    0    0    0 -0.00000000000E+00 -0.00000000000E+00  0.00000000000E+00  0.93800000000E+00  0.93800000000E+00 0. -1.
         11    1    1    2    0    0  0.59582286741E-01 -0.14926746357E-01  0.77712199086E+00  0.77954583345E+00  0.51100000000E-03 0. -1.
    9000002    1    1    2    0    0 -0.30956319995E+00 -0.54699901920E-01  0.66586780301E-01  0.99151361733E+00  0.93800000000E+00 0. -1.
         22    1    1    2    0    0  0.24998091321E+00  0.69626648277E-01  0.31562911962E+01  0.31669405492E+01  0.00000000000E+00 0. -1.
</event>
<event>
 5    1  0.1537976E+002  0.1361150E+01  0.7818608E-02  0.3671244E+00
         11   -1    0    0    0    0  0.00000000000E+00  0.00000000000E+00  0.39999999674E+01  0.40000000000E+01  0.51100000000E-03 0.  1.
    9000002   -1    0    0    0    0 -0.00000000000E+00 -0.00000000000E+00  0.00000000000E+00  0.93800000000E+00  0.93800000000E+00 0.  1.
         11    1    1    2    0    0  0.47287739713E+00  0.45250887822E-01  0.33790993257E+01  0.34123266535E+01  0.51100000000E-03 0.  1.
    9000002    1    1    2    0    0 -0.11768941002E+00  0.78290861806E-01  0.21560429458E+00  0.97278438933E+00  0.93800000000E+00 0.  1.
         22    1    1    2    0    0 -0.35518798711E+00 -0.12354174963E+00  0.40529634704E+00  0.55288895722E+00  0.00000000000E+00 0.  1.
</event>
<event>
 5    1  0.1537976E+002  0.1595054E+01  0.7818608E-02  0.3358750E+00
         11   -1    0    0    0    0  0.00000000000E+00  0.00000000000E+00  0.39999999674E+01  0.40000000000E+01  0.51100000000E-03 0. -1.
    9000002   -1    0    0    0    0 -0.00000000000E+00 -0.00000000000E+00  0.00000000000E+00  0.93800000000E+00  0.93800000000E+00 0. -1.
         11    1    1    2    0    0 -0.44359307569E-01 -0.50723957938E-01  0.25833415138E+00  0.26697839419E+00  0.51100000000E-03 0. -1.
    9000002    1    1    2    0    0  0.33239818973E+00  0.23819787569E+00  0.11681023173E+00  0.10299103916E+01  0.93800000000E+00 0. -1.
         22    1    1    2    0    0 -0.28803888216E+00 -0.18747391775E+00  0.36248555842E+01  0.36411112142E+01  0.00000000000E+00 0. -1.
</event>
<event>
 5    1  0.1537976E+002  0.1487501E+01  0.7818608E-02  0.3485313E+00
         11   -1    0    0    0    0  0.00000000000E+00  0.00000000000E+00  0.39999999674E+01  0.40000000000E+01  0.51100000000E-03 0. -1.
    9000002   -1    0    0    0    0 -0.00000000000E+00 -0.00000000000E+00  0.00000000000E+00  0.93800000000E+00  0.93800000000E+00 0. -1.
         11    1    1    2    0    0  0.33390625711E+00  0.24413038621E+00  0.15061921376E+01  0.15619564817E+01  0.51100000000E-03 0. -1.
    9000002    1    1    2    0    0 -0.95127637919E-01  0.33665829161E-01  0.93600559292E-01  0.94804415522E+00  0.93800000000E+00 0. -1.
         22    1    1    2    0    0 -0.23877861919E+00 -0.27779621537E+00  0.24002072704E+01  0.24279993631E+01  0.00000000000E+00 0. -1.
</event>
<event>
 5    1  0.1537976E+002  0.1562704E+01  0.7818608E-02  0.3394865E+00
         11   -1    0    0    0    0  0.00000000000E+00  0.00000000000E+00  0.39999999674E+01  0.40000000000E+01  0.51100000000E-03 0. -1.
    9000002   -1    0    0    0    0 -0.00000000000E+00 -0.00000000000E+00  0.00000000000E+00  0.93800000000E+00  0.93800000000E+00 0. -1.
         11    1    1    2    0    0 -0.13080263012E+00 -0.30439305874E-01  0.45633846900E+00  0.47568996079E+00  0.51100000000E-03 0. -1.
    9000002    1    1    2    0    0 -0.86976201456E-01 -0.14986757470E+00  0.47835509111E-01  0.95506930926E+00  0.93800000000E+00 0. -1.
         22    1    1    2    0    0  0.21777883158E+00  0.18030688058E+00  0.34958259892E+01  0.35072407299E+01  0.00000000000E+00 0. -1.
</event>
<event>
 5    1  0.1537976E+002  0.1599677E+01  0.7818608E-02  0.3353714E+00
         11   -1    0    0    0    0  0.00000000000E+00  0.00000000000E+00  0.39999999674E+01  0.40000000000E+01  0.51100000000E-03 0. -1.
    9000002   -1    0    0    0    0 -0.00000000000E+00 -0.00000000000E+00  0.00000000000E+00  0.93800000000E+00  0.93800000000E+00 0. -1.
         11    1    1    2    0    0  0.36962472430E+00  0.81783007422E-01  0.16384249295E+01  0.16815907373E+01  0.51100000000E-03 0.  1.
    9000002    1    1    2    0    0 -0.79301398806E+00 -0.17537186367E+00  0.48793340190E+00  0.13332477191E+01  0.93800000000E+00 0. -1.
         22    1    1    2    0    0  0.42338926376E+00  0.93588856245E-01  0.18736416360E+01  0.19231615436E+01  0.00000000000E+00 0. -1.
</event>
<event>
 5    1  0.1537976E+002  0.1589541E+01  0.7818608E-02  0.3364795E+00
         11   -1    0    0    0    0  0.00000000000E+00  0.00000000000E+00  0.39999999674E+01  0.40000000000E+01  0.51100000000E-03 0. -1.
    9000002   -1    0    0    0    0 -0.00000000000E+00 -0.00000000000E+00  0.00000000000E+00  0.93800000000E+00  0.93800000000E+00 0. -1.
         11    1    1    2    0    0  0.10562746553E+00 -0.16364875281E+00  0.10689145869E+01  0.10865158678E+01  0.51100000000E-03 0. -1.
    9000002    1    1    2    0    0 -0.34317290847E+00  0.20195167321E+00  0.11539329302E+00  0.10255299779E+01  0.93800000000E+00 0. -1.
         22    1    1    2    0    0  0.23754544293E+00 -0.38302920396E-01  0.28156920875E+01  0.28259541544E+01  0.00000000000E+00 0. -1.
</event>
<event>
 5    1  0.1537976E+002  0.1599441E+01  0.7818608E-02  0.3353970E+00
         11   -1    0    0    0    0  0.00000000000E+00  0.00000000000E+00  0.39999999674E+01  0.40000000000E+01  0.51100000000E-03 0. -1.
    9000002   -1    0    0    0    0 -0.00000000000E+00 -0.00000000000E+00  0.00000000000E+00  0.93800000000E+00  0.93800000000E+00 0.  1.
         11    1    1    2    0    0  0.23661044137E-01  0.24112234518E-01  0.65580597805E+00  0.65667570903E+00  0.51100000000E-03 0. -1.
    9000002    1    1    2    0    0 -0.20367873104E+00 -0.20090991728E+00  0.54717631271E-01  0.98218523686E+00  0.93800000000E+00 0.  1.
         22    1    1    2    0    0  0.18001768690E+00  0.17679768277E+00  0.32894763580E+01  0.32991390541E+01  0.00000000000E+00 0. -1.
</event>
<event>
 5    1  0.1537976E+002  0.1580181E+01  0.7818608E-02  0.3375159E+00
         11   -1    0    0    0    0  0.00000000000E+00  0.00000000000E+00  0.39999999674E+01  0.40000000000E+01  0.51100000000E-03 0. -1.
    9000002   -1    0    0    0    0 -0.00000000000E+00 -0.00000000000E+00  0.00000000000E+00  0.93800000000E+00  0.93800000000E+00 0.  1.
         11    1    1    2    0    0 -0.36167822616E+00  0.17586072326E+00  0.23717234047E+01  0.24055789953E+01  0.51100000000E-03 0. -1.
    9000002    1    1    2    0    0  0.35465364004E+00 -0.41389120910E+00  0.22355525036E+00  0.11076579288E+01  0.93800000000E+00 0.  1.
         22    1    1    2    0    0  0.70245861167E-02  0.23803048584E+00  0.14047213123E+01  0.14247630758E+01  0.00000000000E+00 0. -1.
</event>
<event>
 5    1  0.1537976E+002  0.1599018E+01  0.7818608E-02  0.3354430E+00
         11   -1    0    0    0    0  0.00000000000E+00  0.00000000000E+00  0.39999999674E+01  0.40000000000E+01  0.51100000000E-03 0.  1.
    9000002   -1    0    0    0    0 -0.00000000000E+00 -0.00000000000E+00  0.00000000000E+00  0.93800000000E+00  0.93800000000E+00 0.  1.
         11    1    1    2    0    0  0.90476638495E-02  0.33771020592E-02  0.50480640529E-01  0.51398650067E-01  0.51100000000E-03 0.  1.
    9000002    1    1    2    0    0 -0.17289022090E+00 -0.16672171768E+00  0.38794245908E-01  0.96903877794E+00  0.93800000000E+00 0.  1.
         22    1    1    2    0    0  0.16384255705E+00  0.16334461562E+00  0.39107250809E+01  0.39175625720E+01  0.00000000000E+00 0.  1.
</event>
<event>
 5    1  0.1537976E+002  0.1594848E+01  0.7818608E-02  0.3358974E+00
         11   -1    0    0    0    0  0.00000000000E+00  0.00000000000E+00  0.39999999674E+01  0.40000000000E+01  0.51100000000E-03 0. -1.
    9000002   -1    0    0    0    0 -0.00000000000E+00 -0.00000000000E+00  0.00000000000E+00  0.93800000000E+00  0.93800000000E+00 0. -1.
         11    1    1    2    0    0 -0.14474860981E-01 -0.46460452523E-01  0.16336857151E+00  0.17046303567E+00  0.51100000000E-03 0. -1.
    9000002    1    1    2    0    0  0.20972224275E+00  0.30781256866E+00  0.97214285421E-01  0.10139164728E+01  0.93800000000E+00 0. -1.
         22    1    1    2    0    0 -0.19524738177E+00 -0.26135211614E+00  0.37394171104E+01  0.37536204915E+01  0.00000000000E+00 0. -1.
</event>
<event>
 5    1  0.1537976E+002  0.1599592E+01  0.7818608E-02  0.3353807E+00
         11   -1    0    0    0    0  0.00000000000E+00  0.00000000000E+00  0.39999999674E+01  0.40000000000E+01  0.51100000000E-03 0. -1.
    9000002   -1    0    0    0    0 -0.00000000000E+00 -0.00000000000E+00  0.00000000000E+00  0.93800000000E+00  0.93800000000E+00 0.  1.
         11    1    1    2    0    0 -0.73648967623E-01 -0.97111983127E-01  0.13639364019E+01  0.13693712708E+01  0.51100000000E-03 0. -1.
    9000002    1    1    2    0    0  0.20811700171E+00  0.30848267525E+00  0.93153059638E-01  0.10134079829E+01  0.93800000000E+00 0.  1.
         22    1    1    2    0    0 -0.13446803409E+00 -0.21137069212E+00  0.25429105058E+01  0.25552207463E+01  0.00000000000E+00 0. -1.
</event>
<event>
 5    1  0.1537976E+002  0.1598490E+01  0.7818608E-02  0.3355004E+00
         11   -1    0    0    0    0  0.00000000000E+00  0.00000000000E+00  0.39999999674E+01  0.40000000000E+01  0.51100000000E-03 0.  1.
    9000002   -1    0    0    0    0 -0.00000000000E+00 -0.00000000000E+00  0.00000000000E+00  0.93800000000E+00  0.93800000000E+00 0.  1.
         11    1    1    2    0    0 -0.52940429916E-01  0.36946569245E+00  0.21071185363E+01  0.21399197121E+01  0.51100000000E-03 0.  1.
    9000002    1    1    2    0    0  0.59911548673E-01 -0.59228481134E+00  0.24818646254E+00  0.11383458225E+01  0.93800000000E+00 0.  1.
         22    1    1    2    0    0 -0.69711187570E-02  0.22281911889E+00  0.16446949685E+01  0.16597344654E+01  0.00000000000E+00 0. -1.
</event>
<event>
 5    1  0.1537976E+002  0.1599676E+01  0.7818608E-02  0.3353715E+00
         11   -1    0    0    0    0  0.00000000000E+00  0.00000000000E+00  0.39999999674E+01  0.40000000000E+01  0.51100000000E-03 0.  1.
    9000002   -1    0    0    0    0 -0.00000000000E+00 -0.00000000000E+00  0.00000000000E+00  0.93800000000E+00  0.93800000000E+00 0.  1.
         11    1    1    2    0    0  0.43348383884E-01  0.44001704276E-01  0.84920830709E+00  0.85145184380E+00  0.51100000000E-03 0.  1.
    9000002    1    1    2    0    0 -0.20462037876E+00 -0.20660783208E+00  0.56361622636E-01  0.98365488266E+00  0.93800000000E+00 0.  1.
         22    1    1    2    0    0  0.16127199488E+00  0.16260612780E+00  0.30944300376E+01  0.31028932735E+01  0.00000000000E+00 0.  1.
</event>
<event>
 5    1  0.1537976E+002  0.1599666E+01  0.7818608E-02  0.3353726E+00
         11   -1    0    0    0    0  0.00000000000E+00  0.00000000000E+00  0.39999999674E+01  0.40000000000E+01  0.51100000000E-03 0. -1.
    9000002   -1    0    0    0    0 -0.00000000000E+00 -0.00000000000E+00  0.00000000000E+00  0.93800000000E+00  0.93800000000E+00 0. -1.
         11    1    1    2    0    0  0.52799269034E+00  0.13251912131E+00  0.23677232904E+01  0.24294961287E+01  0.51100000000E-03 0. -1.
    9000002    1    1    2    0    0 -0.78862554495E+00 -0.19579946431E+00  0.48848912301E+00  0.13336916074E+01  0.93800000000E+00 0. -1.
         22    1    1    2    0    0  0.26063285461E+00  0.63280343001E-01  0.11437875540E+01  0.11748122638E+01  0.00000000000E+00 0. -1.
</event>
<event>
 5    1  0.1537976E+002  0.1599640E+01  0.7818608E-02  0.3353754E+00
         11   -1    0    0    0    0  0.00000000000E+00  0.00000000000E+00  0.39999999674E+01  0.40000000000E+01  0.51100000000E-03 0.  1.
    9000002   -1    0    0    0    0 -0.00000000000E+00 -0.00000000000E+00  0.00000000000E+00  0.93800000000E+00  0.93800000000E+00 0.  1.
         11    1    1    2    0    0 -0.16862204730E-01 -0.55463861096E-02  0.25161234079E+00  0.25223823562E+00  0.51100000000E-03 0.  1.
    9000002    1    1    2    0    0  0.30227729329E+00  0.46459101274E-01  0.62458322200E-01  0.98857222910E+00  0.93800000000E+00 0.  1.
         22    1    1    2    0    0 -0.28541508856E+00 -0.40912715165E-01  0.36859293044E+01  0.36971895353E+01  0.00000000000E+00 0.  1.
</event>
<event>
 5    1  0.1537976E+002  0.1594854E+01  0.7818608E-02  0.3358968E+00
         11   -1    0    0    0    0  0.00000000000E+00  0.00000000000E+00  0.39999999674E+01  0.40000000000E+01  0.51100000000E-03 0.  1.
    9000002   -1    0    0    0    0 -0.00000000000E+00 -0.00000000000E+00  0.00000000000E+00  0.93800000000E+00  0.93800000000E+00 0.  1.
         11    1    1    2    0    0  0.41844197309E-02  0.16867938949E+00  0.11565726824E+01  0.11688160149E+01  0.51100000000E-03 0.  1.
    9000002    1    1    2    0    0  0.10581866814E+00 -0.34102465940E+00  0.89465085569E-01  0.10076425013E+01  0.93800000000E+00 0.  1.
         22    1    1    2    0    0 -0.11000308787E+00  0.17234526991E+00  0.27539621994E+01  0.27615414839E+01  0.00000000000E+00 0. -1.
</event>
<event>
 5    1  0.1537976E+002  0.1599663E+01  0.7818608E-02  0.3353729E+00
         11   -1    0    0    0    0  0.00000000000E+00  0.00000000000E+00  0.39999999674E+01  0.40000000000E+01  0.51100000000E-03 0.  1.
    9000002   -1    0    0    0    0 -0.00000000000E+00 -0.00000000000E+00  0.00000000000E+00  0.93800000000E+00  0.93800000000E+00 0. -1.
         11    1    1    2    0    0  0.36779292544E-01 -0.21622570454E+00  0.16211026657E+01  0.16358729735E+01  0.51100000000E-03 0.  1.
    9000002    1    1    2    0    0 -0.88236433663E-01  0.49944787255E+00  0.17631827119E+00  0.10808172733E+01  0.93800000000E+00 0. -1.
         22    1    1    2    0    0  0.51457141119E-01 -0.28322216801E+00  0.22025790305E+01  0.22213097532E+01  0.00000000000E+00 0.  1.
</event>
<event>
 5    1  0.1537976E+002  0.1581874E+01  0.7818608E-02  0.3373275E+00
         11   -1    0    0    0    0  0.00000000000E+00  0.00000000000E+00  0.39999999674E+01  0.40000000000E+01  0.51100000000E-03 0. -1.
    9000002   -1    0    0    0    0 -0.00000000000E+00 -0.00000000000E+00  0.00000000000E+00  0.93800000000E+00  0.93800000000E+00 0.  1.
         11    1    1    2    0    0 -0.40332354904E-01  0.12942550289E+00  0.19444434332E+01  0.19491634579E+01  0.51100000000E-03 0. -1.
    9000002    1    1    2    0    0  0.20160919343E+00  0.40791074181E-01  0.41509467440E-01  0.96118531746E+00  0.93800000000E+00 0.  1.
         22    1    1    2    0    0 -0.16127683853E+00 -0.17021657707E+00  0.20140470668E+01  0.20276512247E+01  0.00000000000E+00 0.  1.
</event>
<event>
 5    1  0.1537976E+002  0.1583367E+01  0.7818608E-02  0.3371617E+00
         11   -1    0    0    0    0  0.00000000000E+00  0.00000000000E+00  0.39999999674E+01  0.40000000000E+01  0.51100000000E-03 0.  1.
    9000002   -1    0    0    0    0 -0.00000000000E+00 -0.00000000000E+00  0.00000000000E+00  0.93800000000E+00  0.93800000000E+00 0.  1.
         11    1    1    2    0    0  0.10411813262E+00  0.42185579059E-01  0.12371990859E+01  0.12422890356E+01  0.51100000000E-03 0.  1.
    9000002    1    1    2    0    0  0.12198475458E+00 -0.11045044638E+00  0.30077551527E-01  0.95280021020E+00  0.93800000000E+00 0.  1.
         22    1    1    2    0    0 -0.22610288720E+00  0.68264867316E-01  0.27327233299E+01  0.27429107542E+01  0.00000000000E+00 0.  1.
</event>
<event>
 5    1  0.1537976E+002  0.1599231E+01  0.7818608E-02  0.3354199E+00
         11   -1    0    0    0    0  0.00000000000E+00  0.00000000000E+00  0.39999999674E+01  0.40000000000E+01  0.51100000000E-03 0. -1.
    9000002   -1    0    0    0    0 -0.00000000000E+00 -0.00000000000E+00  0.00000000000E+00  0.93800000000E+00  0.93800000000E+00 0.  1.
         11    1    1    2    0    0 -0.64856227753E-01  0.45897914157E-01  0.82118109433E+00  0.82501612082E+00  0.51100000000E-03 0. -1.
    9000002    1    1    2    0    0  0.29595209582E+00 -0.31419329709E+00  0.12658158554E+00  0.10402749486E+01  0.93800000000E+00 0.  1.
         22    1    1    2    0    0 -0.23109586806E+00  0.26829538293E+00  0.30522372875E+01  0.30727089305E+01  0.00000000000E+00 0. -1.
</event>
<event>
 5    1  0.1537976E+002  0.1599641E+01  0.7818608E-02  0.3353753E+00
         11   -1    0    0    0    0  0.00000000000E+00  0.00000000000E+00  0.39999999674E+01  0.40000000000E+01  0.51100000000E-03 0. -1.
    9000002   -1    0    0    0    0 -0.00000000000E+00 -0.00000000000E+00  0.00000000000E+00  0.93800000000E+00  0.93800000000E+00 0. -1.
         11    1    1    2    0    0 -0.49049722683E-01  0.21239774315E+00  0.12600065127E+01  0.12787241101E+01  0.51100000000E-03 0. -1.
    9000002    1    1    2    0    0  0.16428081791E+00 -0.62331647142E+00  0.29286540413E+00  0.11752130682E+01  0.93800000000E+00 0. -1.
         22    1    1    2    0    0 -0.11523109523E+00  0.41091872827E+00  0.24471280505E+01  0.24840628217E+01  0.00000000000E+00 0. -1.
</event>
<event>
 5    1  0.1537976E+002  0.1529535E+01  0.7818608E-02  0.3433584E+00
         11   -1    0    0    0    0  0.00000000000E+00  0.00000000000E+00  0.39999999674E+01  0.40000000000E+01  0.51100000000E-03 0.  1.
    9000002   -1    0    0    0    0 -0.00000000000E+00 -0.00000000000E+00  0.00000000000E+00  0.93800000000E+00  0.93800000000E+00 0. -1.
         11    1    1    2    0    0  0.30656411205E+00 -0.41530135455E-02  0.99547810160E+00  0.10416216752E+01  0.51100000000E-03 0.  1.
    9000002    1    1    2    0    0 -0.11010024404E+00  0.61690190189E-01  0.63865147436E-01  0.94860450155E+00  0.93800000000E+00 0. -1.
         22    1    1    2    0    0 -0.19646386802E+00 -0.57537176643E-01  0.29406567183E+01  0.29477738233E+01  0.00000000000E+00 0.  1.
</event>
<event>
 5    1  0.1537976E+002  0.1522899E+01  0.7818608E-02  0.3441547E+00
         11   -1    0    0    0    0  0.00000000000E+00  0.00000000000E+00  0.39999999674E+01  0.40000000000E+01  0.51100000000E-03 0. -1.
    9000002   -1    0    0    0    0 -0.00000000000E+00 -0.00000000000E+00  0.00000000000E+00  0.93800000000E+00  0.93800000000E+00 0. -1.
         11    1    1    2    0    0  0.41792761193E+00  0.37377277878E-01  0.17097433311E+01  0.17604780797E+01  0.51100000000E-03 0. -1.
    9000002    1    1    2    0    0 -0.19734237399E+00 -0.92495427235E-01  0.91814610031E-01  0.96735378184E+00  0.93800000000E+00 0. -1.
         22    1    1    2    0    0 -0.22058523794E+00  0.55118149358E-01  0.21984420263E+01  0.22101681385E+01  0.00000000000E+00 0. -1.
</event>
<event>
 5    1  0.1537976E+002  0.1542269E+01  0.7818608E-02  0.3418509E+00
         11   -1    0    0    0    0  0.00000000000E+00  0.00000000000E+00  0.39999999674E+01  0.40000000000E+01  0.51100000000E-03 0.  1.
    9000002   -1    0    0    0    0 -0.00000000000E+00 -0.00000000000E+00  0.00000000000E+00  0.93800000000E+00  0.93800000000E+00 0. -1.
         11    1    1    2    0    0 -0.70887634950E-01  0.13575116475E+00  0.31690142264E+01  0.31727125404E+01  0.51100000000E-03 0.  1.
    9000002    1    1    2    0    0 -0.10880987421E+00  0.41506510848E-01  0.52226201435E-01  0.94664352070E+00  0.93800000000E+00 0. -1.
         22    1    1    2    0    0  0.17969750916E+00 -0.17725767560E+00  0.77875953950E+00  0.81864393892E+00  0.00000000000E+00 0.  1.
</event>
<event>
 5    1  0.1537976E+002  0.1599676E+01  0.7818608E-02  0.3353715E+00
         11   -1    0    0    0    0  0.00000000000E+00  0.00000000000E+00  0.39999999674E+01  0.40000000000E+01  0.51100000000E-03 0. -1.
    9000002   -1    0    0    0    0 -0.00000000000E+00 -0.00000000000E+00  0.00000000000E+00  0.93800000000E+00  0.93800000000E+00 0. -1.
         11    1    1    2    0    0 -0.46177425012E-02  0.28979464399E-01  0.38932978985E+00  0.39043447503E+00  0.51100000000E-03 0.  1.
    9000002    1    1    2    0    0  0.44823007740E-01 -0.29085847615E+00  0.57747113343E-01  0.98477737803E+00  0.93800000000E+00 0. -1.
         22    1    1    2    0    0 -0.40205265239E-01  0.26187901175E+00  0.35529230642E+01  0.35627881469E+01  0.00000000000E+00 0. -1.
</event>
<event>
 5    1  0.1537976E+002  0.1598392E+01  0.7818608E-02  0.3355111E+00
         11   -1    0    0    0    0  0.00000000000E+00  0.00000000000E+00  0.39999999674E+01  0.40000000000E+01  0.51100000000E-03 0. -1.
    9000002   -1    0    0    0    0 -0.00000000000E+00 -0.00000000000E+00  0.00000000000E+00  0.93800000000E+00  0.93800000000E+00 0.  1.
         11    1    1    2    0    0  0.35349006426E-01  0.36811712426E+00  0.24331365491E+01  0.24610797421E+01  0.51100000000E-03 0. -1.
    9000002    1    1    2    0    0 -0.11834755334E+00 -0.56358302181E+00  0.23146855747E+00  0.11247460420E+01  0.93800000000E+00 0.  1.
         22    1    1    2    0    0  0.82998546914E-01  0.19546589755E+00  0.13353948608E+01  0.13521742159E+01  0.00000000000E+00 0. -1.
</event>
<event>
 5    1  0.1537976E+002  0.1599122E+01  0.7818608E-02  0.3354317E+00
         11   -1    0    0    0    0  0.00000000000E+00  0.00000000000E+00  0.39999999674E+01  0.40000000000E+01  0.51100000000E-03 0. -1.
    9000002   -1    0    0    0    0 -0.00000000000E+00 -0.00000000000E+00  0.00000000000E+00  0.93800000000E+00  0.93800000000E+00 0. -1.
         11    1    1    2    0    0 -0.90098768218E-01 -0.16229974610E+00  0.14068071688E+01  0.14190016445E+01  0.51100000000E-03 0. -1.
    9000002    1    1    2    0    0  0.20967234927E+00  0.50391417735E+00  0.20611247920E+00  0.11046349380E+01  0.93800000000E+00 0. -1.
         22    1    1    2    0    0 -0.11957358105E+00 -0.34161443125E+00  0.23870803193E+01  0.24143634175E+01  0.00000000000E+00 0. -1.
</event>
<event>
 5    1  0.1537976E+002  0.1577203E+01  0.7818608E-02  0.3378484E+00
         11   -1    0    0    0    0  0.00000000000E+00  0.00000000000E+00  0.39999999674E+01  0.40000000000E+01  0.51100000000E-03 0.  1.
    9000002   -1    0    0    0    0 -0.00000000000E+00 -0.00000000000E+00  0.00000000000E+00  0.93800000000E+00  0.93800000000E+00 0. -1.
         11    1    1    2    0    0  0.89871046527E-01 -0.24129413304E-01  0.73827150004E+00  0.74411296353E+00  0.51100000000E-03 0.  1.
    9000002    1    1    2    0    0 -0.23445075363E+00 -0.57029998131E+00  0.28935942072E+00  0.11592161571E+01  0.93800000000E+00 0. -1.
         22    1    1    2    0    0  0.14457970711E+00  0.59442939461E+00  0.29723690466E+01  0.30346708794E+01  0.00000000000E+00 0.  1.
</event>
<event>
 5    1  0.1537976E+002  0.1599672E+01  0.7818608E-02  0.3353719E+00
         11   -1    0    0    0    0  0.00000000000E+00  0.00000000000E+00  0.39999999674E+01  0.40000000000E+01  0.51100000000E-03 0. -1.
    9000002   -1    0    0    0    0 -0.00000000000E+00 -0.00000000000E+00  0.00000000000E+00  0.93800000000E+00  0.93800000000E+00 0. -1.
         11    1    1    2    0    0 -0.40388874921E-01 -0.11131909575E+00  0.13326779850E+01  0.13379290247E+01  0.51100000000E-03 0. -1.
    9000002    1    1    2    0    0  0.12174211804E+00  0.33370591261E+00  0.84658490550E-01  0.10065743089E+01  0.93800000000E+00 0. -1.
         22    1    1    2    0    0 -0.81353243114E-01 -0.22238681685E+00  0.25826634919E+01  0.25934966664E+01  0.00000000000E+00 0. -1.
</event>
<event>
 5    1  0.1537976E+002  0.1556500E+01  0.7818608E-02  0.3401973E+00
         11   -1    0    0    0    0  0.00000000000E+00  0.00000000000E+00  0.39999999674E+01  0.40000000000E+01  0.51100000000E-03 0.  1.
    9000002   -1    0    0    0    0 -0.00000000000E+00 -0.00000000000E+00  0.00000000000E+00  0.93800000000E+00  0.93800000000E+00 0.  1.
         11    1    1    2    0    0 -0.13602931166E+00 -0.32086596623E+00  0.92497997955E+00  0.98845696194E+00  0.51100000000E-03 0.  1.
    9000002    1    1    2    0    0  0.11417938741E-01  0.58338095542E+00  0.28020129533E+00  0.11396580515E+01  0.93800000000E+00 0.  1.
         22    1    1    2    0    0  0.12461137292E+00 -0.26251498919E+00  0.27948186925E+01  0.28098849866E+01  0.00000000000E+00 0.  1.
</event>
<event>
 5    1  0.1537976E+002  0.1599530E+01  0.7818608E-02  0.3353874E+00
         11   -1    0    0    0    0  0.00000000000E+00  0.00000000000E+00  0.39999999674E+01  0.40000000000E+01  0.51100000000E-03 0.  1.
    9000002   -1    0    0    0    0 -0.00000000000E+00 -0.00000000000E+00  0.00000000000E+00  0.93800000000E+00  0.93800000000E+00 0. -1.
         11    1    1    2    0    0  0.88979524567E-01 -0.79680237355E-01  0.12023016824E+01  0.12082201342E+01  0.51100000000E-03 0.  1.
    9000002    1    1    2    0    0 -0.27143828508E+00  0.21975876331E+00  0.81895449399E-01  0.10042527178E+01  0.93800000000E+00 0. -1.
         22    1    1    2    0    0  0.18245876051E+00 -0.14007852596E+00  0.27158028356E+01  0.27255271480E+01  0.00000000000E+00 0. -1.
</event>
<event>
 5    1  0.1537976E+002  0.1530376E+01  0.7818608E-02  0.3432580E+00
         11   -1    0    0    0    0  0.00000000000E+00  0.00000000000E+00  0.39999999674E+01  0.40000000000E+01  0.51100000000E-03 0. -1.
    9000002   -1    0    0    0    0 -0.00000000000E+00 -0.00000000000E+00  0.00000000000E+00  0.93800000000E+00  0.93800000000E+00 0. -1.
         11    1    1    2    0    0 -0.30856624603E+00  0.50545715499E-01  0.13596324257E+01  0.13951231457E+01  0.51100000000E-03 0. -1.
    9000002    1    1    2    0    0  0.37282691079E-01  0.24983445411E-01  0.53359848905E-01  0.94058781891E+00  0.93800000000E+00 0. -1.
         22    1    1    2    0    0  0.27128355495E+00 -0.75529160910E-01  0.25870076928E+01  0.26022890354E+01  0.00000000000E+00 0. -1.
</event>
<event>
 5    1  0.1537976E+002  0.1599475E+01  0.7818608E-02  0.3353934E+00
         11   -1    0    0    0    0  0.00000000000E+00  0.00000000000E+00  0.39999999674E+01  0.40000000000E+01  0.51100000000E-03 0. -1.
    9000002   -1    0    0    0    0 -0.00000000000E+00 -0.00000000000E+00  0.00000000000E+00  0.93800000000E+00  0.93800000000E+00 0. -1.
         11    1    1    2    0    0  0.43231899451E-01 -0.27370483406E-01  0.81029631133E+00  0.81191040994E+00  0.51100000000E-03 0. -1.
    9000002    1    1    2    0    0 -0.19280752808E+00  0.19838046222E+00  0.51104194019E-01  0.97927789177E+00  0.93800000000E+00 0. -1.
         22    1    1    2    0    0  0.14957562863E+00 -0.17100997881E+00  0.31385994620E+01  0.31468116983E+01  0.00000000000E+00 0. -1.
</event>
<event>
 5    1  0.1537976E+002  0.1599671E+01  0.7818608E-02  0.3353721E+00
         11   -1    0    0    0    0  0.00000000000E+00  0.00000000000E+00  0.39999999674E+01  0.40000000000E+01  0.51100000000E-03 0.  1.
    9000002   -1    0    0    0    0 -0.00000000000E+00 -0.00000000000E+00  0.00000000000E+00  0.93800000000E+00  0.93800000000E+00 0.  1.
         11    1    1    2    0    0 -0.32352437275E-01  0.10289144696E+00  0.13052867345E+01  0.13097354888E+01  0.51100000000E-03 0.  1.
    9000002    1    1    2    0    0  0.91001331323E-01 -0.30464219649E+00  0.67558262904E-01  0.99272162718E+00  0.93800000000E+00 0.  1.
         22    1    1    2    0    0 -0.58648894048E-01  0.20175074953E+00  0.26271549699E+01  0.26355428841E+01  0.00000000000E+00 0.  1.
</event>
<event>
 5    1  0.1537976E+002  0.1599648E+01  0.7818608E-02  0.3353746E+00
         11   -1    0    0    0    0  0.00000000000E+00  0.00000000000E+00  0.39999999674E+01  0.40000000000E+01  0.51100000000E-03 0. -1.
    9000002   -1    0    0    0    0 -0.00000000000E+00 -0.00000000000E+00  0.00000000000E+00  0.93800000000E+00  0.93800000000E+00 0. -1.
         11    1    1    2    0    0 -0.24951438389E-01  0.16876323330E-01  0.59328140454E+00  0.59404584895E+00  0.51100000000E-03 0. -1.
    9000002    1    1    2    0    0  0.19728130209E+00 -0.11851655998E+00  0.35155928903E-01  0.96646056644E+00  0.93800000000E+00 0. -1.
         22    1    1    2    0    0 -0.17232986370E+00  0.10164023665E+00  0.33715626339E+01  0.33774935846E+01  0.00000000000E+00 0. -1.
</event>
<event>
 5    1  0.1537976E+002  0.1599050E+01  0.7818608E-02  0.3354395E+00
         11   -1    0    0    0    0  0.00000000000E+00  0.00000000000E+00  0.39999999674E+01  0.40000000000E+01  0.51100000000E-03 0.  1.
    9000002   -1    0    0    0    0 -0.00000000000E+00 -0.00000000000E+00  0.00000000000E+00  0.93800000000E+00  0.93800000000E+00 0.  1.
         11    1    1    2    0    0 -0.16111758733E-01 -0.29560466736E-01  0.32422036067E+00  0.32596397555E+00  0.51100000000E-03 0.  1.
    9000002    1    1    2    0    0 -0.13143193624E-02  0.39956701259E+00  0.10820640839E+00  0.10252844248E+01  0.93800000000E+00 0.  1.
         22    1    1    2    0    0  0.17426078095E-01 -0.37000654585E+00  0.35675731983E+01  0.35867515996E+01  0.00000000000E+00 0.  1.
</event>
<event>
 5    1  0.1537976E+002  0.1599675E+01  0.7818608E-02  0.3353716E+00
         11   -1    0    0    0    0  0.00000000000E+00  0.00000000000E+00  0.39999999674E+01  0.40000000000E+01  0.51100000000E-03 0. -1.
    9000002   -1    0    0    0    0 -0.00000000000E+00 -0.00000000000E+00  0.00000000000E+00  0.93800000000E+00  0.93800000000E+00 0.  1.
         11    1    1    2    0    0  0.10757634921E+00  0.87776209210E-01  0.16096604875E+01  0.16156374840E+01  0.51100000000E-03 0. -1.
    9000002    1    1    2    0    0 -0.26285532403E+00 -0.21814411311E+00  0.78165189612E-01  0.10013159203E+01  0.93800000000E+00 0.  1.
         22    1    1    2    0    0  0.15527897482E+00  0.13036790390E+00  0.23121742903E+01  0.23210465956E+01  0.00000000000E+00 0. -1.
</event>
<event>
 5    1  0.1537976E+002  0.1599369E+01  0.7818608E-02  0.3354049E+00
         11   -1    0    0    0    0  0.00000000000E+00  0.00000000000E+00  0.39999999674E+01  0.40000000000E+01  0.51100000000E-03 0. -1.
    9000002   -1    0    0    0    0 -0.00000000000E+00 -0.00000000000E+00  0.00000000000E+00  0.93800000000E+00  0.93800000000E+00 0.  1.
         11    1    1    2    0    0 -0.79986599336E-01 -0.55338899210E-01  0.11573483381E+01  0.11614282959E+01  0.51100000000E-03 0. -1.
    9000002    1    1    2    0    0  0.21313506837E+00  0.21666057033E+00  0.61884331364E-01  0.98794839469E+00  0.93800000000E+00 0.  1.
         22    1    1    2    0    0 -0.13314846904E+00 -0.16132167112E+00  0.27807672979E+01  0.27886233094E+01  0.00000000000E+00 0. -1.
</event>
<event>
 5    1  0.1537976E+002  0.1597315E+01  0.7818608E-02  0.3356282E+00
         11   -1    0    0    0    0  0.00000000000E+00  0.00000000000E+00  0.39999999674E+01  0.40000000000E+01  0.51100000000E-03 0. -1.
    9000002   -1    0    0    0    0 -0.00000000000E+00 -0.00000000000E+00  0.00000000000E+00  0.93800000000E+00  0.93800000000E+00 0. -1.
         11    1    1    2    0    0  0.45215013614E-02 -0.98155230274E-02  0.63707305916E-01  0.64619427535E-01  0.51100000000E-03 0. -1.
    9000002    1    1    2    0    0  0.23313917518E+00 -0.14771148717E+00  0.52535717006E-01  0.97917136396E+00  0.93800000000E+00 0. -1.
         22    1    1    2    0    0 -0.23766067654E+00  0.15752701019E+00  0.38837569444E+01  0.38942092085E+01  0.00000000000E+00 0. -1.
</event>
<event>
 5    1  0.1537976E+002  0.1599648E+01  0.7818608E-02  0.3353746E+00
         11   -1    0    0    0    0  0.00000000000E+00  0.00000000000E+00  0.39999999674E+01  0.40000000000E+01  0.51100000000E-03 0.  1.
    9000002   -1    0    0    0    0 -0.00000000000E+00 -0.00000000000E+00  0.00000000000E+00  0.93800000000E+00  0.93800000000E+00 0. -1.
         11    1    1    2    0    0 -0.13396360693E-01 -0.28695487838E-01  0.32072591851E+00  0.32228600563E+00  0.51100000000E-03 0.  1.
    9000002    1    1    2    0    0  0.17320557629E+00  0.30821778765E+00  0.83869195821E-01  0.10059206819E+01  0.93800000000E+00 0.  1.
         22    1    1    2    0    0 -0.15980921560E+00 -0.27952229981E+00  0.35954048530E+01  0.36097933125E+01  0.00000000000E+00 0.  1.
</event>
<event>
 5    1  0.1537976E+002  0.1581191E+01  0.7818608E-02  0.3374035E+00
         11   -1    0    0    0    0  0.00000000000E+00  0.00000000000E+00  0.39999999674E+01  0.40000000000E+01  0.51100000000E-03 0.  1.
    9000002   -1    0    0    0    0 -0.00000000000E+00 -0.00000000000E+00  0.00000000000E+00  0.93800000000E+00  0.93800000000E+00 0. -1.
         11    1    1    2    0    0 -0.59470166472E-01  0.28678663529E-01  0.19465216707E+00  0.20554535682E+00  0.51100000000E-03 0.  1.
    9000002    1    1    2    0    0 -0.21481167526E-01  0.18795636085E+00  0.37610091258E-01  0.95762599855E+00  0.93800000000E+00 0. -1.
         22    1    1    2    0    0  0.80951333998E-01 -0.21663502438E+00  0.37677377090E+01  0.37748286446E+01  0.00000000000E+00 0.  1.
</event>
<event>
 5    1  0.1537976E+002  0.1599673E+01  0.7818608E-02  0.3353718E+00
         11   -1    0    0    0    0  0.00000000000E+00  0.00000000000E+00  0.39999999674E+01  0.40000000000E+01  0.51100000000E-03 0.  1.
    9000002   -1    0    0    0    0 -0.00000000000E+00 -0.00000000000E+00  0.00000000000E+00  0.93800000000E+00  0.93800000000E+00 0. -1.
         11    1    1    2    0    0  0.70521887926E-01  0.17623007674E+00  0.10511912589E+01  0.10681917902E+01  0.51100000000E-03 0.  1.
    9000002    1    1    2    0    0 -0.24393877055E+00 -0.61230664872E+00  0.30723399126E+00  0.11868707938E+01  0.93800000000E+00 0. -1.
         22    1    1    2    0    0  0.17341688262E+00  0.43607657198E+00  0.26415747172E+01  0.26829374160E+01  0.00000000000E+00 0.  1.
</event>
<event>
 5    1  0.1537976E+002  0.1599657E+01  0.7818608E-02  0.3353736E+00
         11   -1    0    0    0    0  0.00000000000E+00  0.00000000000E+00  0.39999999674E+01  0.40000000000E+01  0.51100000000E-03 0. -1.
    9000002   -1    0    0    0    0 -0.00000000000E+00 -0.00000000000E+00  0.00000000000E+00  0.93800000000E+00  0.93800000000E+00 0.  1.
         11    1    1    2    0    0  0.29323361029E-02 -0.20503540237E-01  0.33947121802E+00  0.34010287082E+00  0.51100000000E-03 0. -1.
    9000002    1    1    2    0    0 -0.63734254384E-01  0.22034985737E+00  0.34915051773E-01  0.96627075691E+00  0.93800000000E+00 0.  1.
         22    1    1    2    0    0  0.60801918281E-01 -0.19984631713E+00  0.36256136976E+01  0.36316263723E+01  0.00000000000E+00 0. -1.
</event>
<event>
 5    1  0.1537976E+002  0.1599667E+01  0.7818608E-02  0.3353725E+00
         11   -1    0    0    0    0  0.00000000000E+00  0.00000000000E+00  0.39999999674E+01  0.40000000000E+01  0.51100000000E-03 0. -1.
    9000002   -1    0    0    0    0 -0.00000000000E+00 -0.00000000000E+00  0.00000000000E+00  0.93800000000E+00  0.93800000000E+00 0. -1.
         11    1    1    2    0    0 -0.13901280260E+00  0.18234687871E+00  0.18809886815E+01  0.18949125638E+01  0.51100000000E-03 0. -1.
    9000002    1    1    2    0    0  0.28208625926E+00 -0.38051447581E+00  0.15294339330E+00  0.10618849305E+01  0.93800000000E+00 0. -1.
         22    1    1    2    0    0 -0.14307345666E+00  0.19816759710E+00  0.19660678925E+01  0.19812025057E+01  0.00000000000E+00 0.  1.
</event>
<event>
 5    1  0.1537976E+002  0.1473579E+01  0.7818608E-02  0.3503149E+00
         11   -1    0    0    0    0  0.00000000000E+00  0.00000000000E+00  0.39999999674E+01  0.40000000000E+01  0.51100000000E-03 0.  1.
    9000002   -1    0    0    0    0 -0.00000000000E+00 -0.00000000000E+00  0.00000000000E+00  0.93800000000E+00  0.93800000000E+00 0.  1.
         11    1    1    2    0    0 -0.30972209808E+00  0.96329621931E-01  0.40386691925E+00  0.51799220427E+00  0.51100000000E-03 0.  1.
    9000002    1    1    2    0    0  0.30407305795E+00 -0.32720851416E+00  0.25350183272E+00  0.10694077873E+01  0.93800000000E+00 0.  1.
         22    1    1    2    0    0  0.56490401278E-02  0.23087889223E+00  0.33426312154E+01  0.33506000084E+01  0.00000000000E+00 0.  1.
</event>
<event>
 5    1  0.1537976E+002  0.1537863E+01  0.7818608E-02  0.3423695E+00
         11   -1    0    0    0    0  0.00000000000E+00  0.00000000000E+00  0.39999999674E+01  0.40000000000E+01  0.51100000000E-03 0.  1.
    9000002   -1    0    0    0    0 -0.00000000000E+00 -0.00000000000E+00  0.00000000000E+00  0.93800000000E+00  0.93800000000E+00 0. -1.
         11    1    1    2    0    0 -0.18787800861E+00  0.13126438809E+00  0.86318981088E+00  0.89309876073E+00  0.51100000000E-03 0.  1.
    9000002    1    1    2    0    0 -0.91106936438E-01  0.19502520732E-01  0.52228823340E-01  0.94406179468E+00  0.93800000000E+00 0. -1.
         22    1    1    2    0    0  0.27898494504E+00 -0.15076690882E+00  0.30845813331E+01  0.31008394446E+01  0.00000000000E+00 0.  1.
</event>
<event>
 5    1  0.1537976E+002  0.1598288E+01  0.7818608E-02  0.3355223E+00
         11   -1    0    0    0    0  0.00000000000E+00  0.00000000000E+00  0.39999999674E+01  0.40000000000E+01  0.51100000000E-03 0. -1.
    9000002   -1    0    0    0    0 -0.00000000000E+00 -0.00000000000E+00  0.00000000000E+00  0.93800000000E+00  0.93800000000E+00 0. -1.
         11    1    1    2    0    0  0.70635236831E-01  0.92863430909E-01  0.92588710862E+00  0.93320959731E+00  0.51100000000E-03 0. -1.
    9000002    1    1    2    0    0 -0.21782878068E+00 -0.52033413817E+00  0.22170822111E+00  0.11167790866E+01  0.93800000000E+00 0. -1.
         22    1    1    2    0    0  0.14719354385E+00  0.42747070726E+00  0.28524046376E+01  0.28880113161E+01  0.00000000000E+00 0. -1.
</event>
<event>
 5    1  0.1537976E+002  0.1599652E+01  0.7818608E-02  0.3353742E+00
         11   -1    0    0    0    0  0.00000000000E+00  0.00000000000E+00  0.39999999674E+01  0.40000000000E+01  0.51100000000E-03 0.  1.
    9000002   -1    0    0    0    0 -0.00000000000E+00 -0.00000000000E+00  0.00000000000E+00  0.93800000000E+00  0.93800000000E+00 0.  1.
         11    1    1    2    0    0  0.31427331641E-02  0.29510493274E-02  0.10846843336E+00  0.10855527449E+00  0.51100000000E-03 0.  1.
    9000002    1    1    2    0    0 -0.11841886909E+00 -0.17804281972E+00  0.30314305293E-01  0.96254102838E+00  0.93800000000E+00 0.  1.
         22    1    1    2    0    0  0.11527613593E+00  0.17509177040E+00  0.38612172287E+01  0.38669036971E+01  0.00000000000E+00 0.  1.
</event>
<event>
 5    1  0.1537976E+002  0.1539825E+01  0.7818608E-02  0.3421382E+00
         11   -1    0    0    0    0  0.00000000000E+00  0.00000000000E+00  0.39999999674E+01  0.40000000000E+01  0.51100000000E-03 0.  1.
    9000002   -1    0    0    0    0 -0.00000000000E+00 -0.00000000000E+00  0.00000000000E+00  0.93800000000E+00  0.93800000000E+00 0.  1.
         11    1    1    2    0    0  0.12996049404E+00  0.18534319172E+00  0.16730234104E+01  0.16882681722E+01  0.51100000000E-03 0.  1.
    9000002    1    1    2    0    0 -0.53456636482E+00  0.19316155048E+00  0.28398473537E+00  0.11329447969E+01  0.93800000000E+00 0. -1.
         22    1    1    2    0    0  0.40460587078E+00 -0.37850474220E+00  0.20429918216E+01  0.21167870308E+01  0.00000000000E+00 0.  1.
</event>
<event>
 5    1  0.1537976E+002  0.1589459E+01  0.7818608E-02  0.3364884E+00
         11   -1    0    0    0    0  0.00000000000E+00  0.00000000000E+00  0.39999999674E+01  0.40000000000E+01  0.51100000000E-03 0. -1.
    9000002   -1    0    0    0    0 -0.00000000000E+00 -0.00000000000E+00  0.00000000000E+00  0.93800000000E+00  0.93800000000E+00 0.  1.
         11    1    1    2    0    0 -0.22262410169E-01  0.70814502791E-01  0.10909265769E+01  0.10934492974E+01  0.51100000000E-03 0. -1.
    9000002    1    1    2    0    0 -0.13082856767E+00  0.75911507333E-01  0.22689498486E-01  0.95038807042E+00  0.93800000000E+00 0.  1.
         22    1    1    2    0    0  0.15309097783E+00 -0.14672601012E+00  0.28863838919E+01  0.28941626321E+01  0.00000000000E+00 0. -1.
</event>
<event>
 5    1  0.1537976E+002  0.1599675E+01  0.7818608E-02  0.3353716E+00
         11   -1    0    0    0    0  0.00000000000E+00  0.00000000000E+00  0.39999999674E+01  0.40000000000E+01  0.51100000000E-03 0.  1.
    9000002   -1    0    0    0    0 -0.00000000000E+00 -0.00000000000E+00  0.00000000000E+00  0.93800000000E+00  0.93800000000E+00 0.  1.
         11    1    1    2    0    0  0.14128621579E+00 -0.30131885268E+00  0.15535484647E+01  0.15887944924E+01  0.51100000000E-03 0.  1.
    9000002    1    1    2    0    0 -0.32335121068E+00  0.69078373589E+00  0.42336799972E+00  0.12809459936E+01  0.93800000000E+00 0.  1.
         22    1    1    2    0    0  0.18206499489E+00 -0.38946488321E+00  0.20230835029E+01  0.20682595140E+01  0.00000000000E+00 0. -1.
</event>
<event>
 5    1  0.1537976E+002  0.1599669E+01  0.7818608E-02  0.3353722E+00
         11   -1    0    0    0    0  0.00000000000E+00  0.00000000000E+00  0.39999999674E+01  0.40000000000E+01  0.51100000000E-03 0. -1.
    9000002   -1    0    0    0    0 -0.00000000000E+00 -0.00000000000E+00  0.00000000000E+00  0.93800000000E+00  0.93800000000E+00 0. -1.
         11    1    1    2    0    0  0.13723747530E+00 -0.17824469443E-01  0.14749510066E+01  0.14814292320E+01  0.51100000000E-03 0. -1.
    9000002    1    1    2    0    0 -0.36577832091E+00  0.55426251610E-01  0.91984762850E-01  0.10125073066E+01  0.93800000000E+00 0. -1.
         22    1    1    2    0    0  0.22854084561E+00 -0.37601782166E-01  0.24330641979E+01  0.24440634614E+01  0.00000000000E+00 0. -1.
</event>
<event>
 5    1  0.1537976E+002  0.1593789E+01  0.7818608E-02  0.3360133E+00
         11   -1    0    0    0    0  0.00000000000E+00  0.00000000000E+00  0.39999999674E+01  0.40000000000E+01  0.51100000000E-03 0.  1.
    9000002   -1    0    0    0    0 -0.00000000000E+00 -0.00000000000E+00  0.00000000000E+00  0.93800000000E+00  0.93800000000E+00 0. -1.
         11    1    1    2    0    0  0.21405056294E-01  0.91903101636E-03  0.42936372393E-01  0.47987646829E-01  0.51100000000E-03 0.  1.
    9000002    1    1    2    0    0 -0.17392904704E+00  0.20498779926E+00  0.52633219792E-01  0.97718246355E+00  0.93800000000E+00 0. -1.
         22    1    1    2    0    0  0.15252399074E+00 -0.20590683027E+00  0.39044303752E+01  0.39128298896E+01  0.00000000000E+00 0.  1.
</event>
<event>
 5    1  0.1537976E+002  0.1599677E+01  0.7818608E-02  0.3353714E+00
         11   -1    0    0    0    0  0.00000000000E+00  0.00000000000E+00  0.39999999674E+01  0.40000000000E+01  0.51100000000E-03 0. -1.
    9000002   -1    0    0    0    0 -0.00000000000E+00 -0.00000000000E+00  0.00000000000E+00  0.93800000000E+00  0.93800000000E+00 0. -1.
         11    1    1    2    0    0  0.32321241215E-01  0.13386200663E+00  0.14191387155E+01  0.14258045639E+01  0.51100000000E-03 0. -1.
    9000002    1    1    2    0    0 -0.88868302806E-01 -0.36682740586E+00  0.95823339881E-01  0.10156210087E+01  0.93800000000E+00 0. -1.
         22    1    1    2    0    0  0.56547061590E-01  0.23296539923E+00  0.24850379120E+01  0.24965744274E+01  0.00000000000E+00 0. -1.
</event>
<event>
 5    1  0.1537976E+002  0.1599653E+01  0.7818608E-02  0.3353740E+00
         11   -1    0    0    0    0  0.00000000000E+00  0.00000000000E+00  0.39999999674E+01  0.40000000000E+01  0.51100000000E-03 0. -1.
    9000002   -1    0    0    0    0 -0.00000000000E+00 -0.00000000000E+00  0.00000000000E+00  0.93800000000E+00  0.93800000000E+00 0. -1.
         11    1    1    2    0    0 -0.36997762294E-01 -0.17754711839E+00  0.10250207897E+01  0.10409417342E+01  0.51100000000E-03 0. -1.
    9000002    1    1    2    0    0  0.14901958703E+00  0.64872098371E+00  0.31385489148E+00  0.11922225652E+01  0.93800000000E+00 0. -1.
         22    1    1    2    0    0 -0.11202182474E+00 -0.47117386532E+00  0.26611242862E+01  0.27048357006E+01  0.00000000000E+00 0. -1.
</event>
<event>
 5    1  0.1537976E+002  0.1599065E+01  0.7818608E-02  0.3354379E+00
         11   -1    0    0    0    0  0.00000000000E+00  0.00000000000E+00  0.39999999674E+01  0.40000000000E+01  0.51100000000E-03 0. -1.
    9000002   -1    0    0    0    0 -0.00000000000E+00 -0.00000000000E+00  0.00000000000E+00  0.93800000000E+00  0.93800000000E+00 0. -1.
         11    1    1    2    0    0 -0.20585551150E+00  0.31285612671E+00  0.23567456617E+01  0.23863163711E+01  0.51100000000E-03 0. -1.
    9000002    1    1    2    0    0  0.28879515170E+00 -0.52219968918E+00  0.24888095384E+00  0.11392457523E+01  0.93800000000E+00 0. -1.
         22    1    1    2    0    0 -0.82939640199E-01  0.20934356247E+00  0.13943733518E+01  0.14124378766E+01  0.00000000000E+00 0. -1.
</event>
<event>
 5    1  0.1537976E+002  0.1599582E+01  0.7818608E-02  0.3353817E+00
         11   -1    0    0    0    0  0.00000000000E+00  0.00000000000E+00  0.39999999674E+01  0.40000000000E+01  0.51100000000E-03 0.  1.
    9000002   -1    0    0    0    0 -0.00000000000E+00 -0.00000000000E+00  0.00000000000E+00  0.93800000000E+00  0.93800000000E+00 0. -1.
         11    1    1    2    0    0  0.11007669211E-01 -0.74750545454E-01  0.10631427804E+01  0.10658243971E+01  0.51100000000E-03 0.  1.
    9000002    1    1    2    0    0 -0.49003548888E-01  0.31426057531E+00  0.67678242681E-01  0.99276653929E+00  0.93800000000E+00 0. -1.
         22    1    1    2    0    0  0.37995879677E-01 -0.23951002986E+00  0.28691789443E+01  0.28794090637E+01  0.00000000000E+00 0.  1.
</event>
<event>
 5    1  0.1537976E+002  0.1599653E+01  0.7818608E-02  0.3353740E+00
         11   -1    0    0    0    0  0.00000000000E+00  0.00000000000E+00  0.39999999674E+01  0.40000000000E+01  0.51100000000E-03 0. -1.
    9000002   -1    0    0    0    0 -0.00000000000E+00 -0.00000000000E+00  0.00000000000E+00  0.93800000000E+00  0.93800000000E+00 0.  1.
         11    1    1    2    0    0  0.26665775843E+00  0.60650013647E-01  0.18890421047E+01  0.19087339046E+01  0.51100000000E-03 0. -1.
    9000002    1    1    2    0    0 -0.53104299645E+00 -0.11104296387E+00  0.20303599521E+00  0.11024539987E+01  0.93800000000E+00 0.  1.
         22    1    1    2    0    0  0.26438523802E+00  0.50392950226E-01  0.19079218675E+01  0.19268120967E+01  0.00000000000E+00 0. -1.
</event>
<event>
 5    1  0.1537976E+002  0.1598946E+01  0.7818608E-02  0.3354508E+00
         11   -1    0    0    0    0  0.00000000000E+00  0.00000000000E+00  0.39999999674E+01  0.40000000000E+01  0.51100000000E-03 0. -1.
    9000002   -1    0    0    0    0 -0.00000000000E+00 -0.00000000000E+00  0.00000000000E+00  0.93800000000E+00  0.93800000000E+00 0.  1.
         11    1    1    2    0    0  0.10220845117E+00  0.20869331325E+00  0.20136905763E+01  0.20270543813E+01  0.51100000000E-03 0. -1.
    9000002    1    1    2    0    0 -0.24601219633E+00 -0.36309337604E+00  0.13105627756E+00  0.10437329871E+01  0.93800000000E+00 0.  1.
         22    1    1    2    0    0  0.14380374517E+00  0.15440006279E+00  0.18552531135E+01  0.18672126316E+01  0.00000000000E+00 0. -1.
</event>
<event>
 5    1  0.1537976E+002  0.1599667E+01  0.7818608E-02  0.3353725E+00
         11   -1    0    0    0    0  0.00000000000E+00  0.00000000000E+00  0.39999999674E+01  0.40000000000E+01  0.51100000000E-03 0. -1.
    9000002   -1    0    0    0    0 -0.00000000000E+00 -0.00000000000E+00  0.00000000000E+00  0.93800000000E+00  0.93800000000E+00 0.  1.
         11    1    1    2    0    0 -0.27737857646E-01 -0.10862822840E-01  0.44332757201E+00  0.44432756711E+00  0.51100000000E-03 0. -1.
    9000002    1    1    2    0    0  0.23030416386E+00  0.84963020190E-01  0.40023208358E-01  0.97041464328E+00  0.93800000000E+00 0.  1.
         22    1    1    2    0    0 -0.20256630622E+00 -0.74100197350E-01  0.35166491870E+01  0.35232577896E+01  0.00000000000E+00 0. -1.
</event>
<event>
 5    1  0.1537976E+002  0.1594735E+01  0.7818608E-02  0.3359097E+00
         11   -1    0    0    0    0  0.00000000000E+00  0.00000000000E+00  0.39999999674E+01  0.40000000000E+01  0.51100000000E-03 0.  1.
    9000002   -1    0    0    0    0 -0.00000000000E+00 -0.00000000000E+00  0.00000000000E+00  0.93800000000E+00  0.93800000000E+00 0. -1.
         11    1    1    2    0    0 -0.23008064110E-01 -0.20290584477E-01  0.18108326535E+00  0.18366406546E+00  0.51100000000E-03 0.  1.
    9000002    1    1    2    0    0  0.60100259969E-01 -0.19040930008E+00  0.30104567924E-01  0.95948841984E+00  0.93800000000E+00 0. -1.
         22    1    1    2    0    0 -0.37092195859E-01  0.21069988456E+00  0.37888121341E+01  0.37948475147E+01  0.00000000000E+00 0.  1.
</event>
<event>
 5    1  0.1537976E+002  0.1593083E+01  0.7818608E-02  0.3360906E+00
         11   -1    0    0    0    0  0.00000000000E+00  0.00000000000E+00  0.39999999674E+01  0.40000000000E+01  0.51100000000E-03 0.  1.
    9000002   -1    0    0    0    0 -0.00000000000E+00 -0.00000000000E+00  0.00000000000E+00  0.93800000000E+00  0.93800000000E+00 0.  1.
         11    1    1    2    0    0  0.10279186469E+00  0.12447824883E-01  0.94507163074E+00  0.95072696614E+00  0.51100000000E-03 0.  1.
    9000002    1    1    2    0    0 -0.21802121982E+00  0.22536367752E+00  0.70893777473E-01  0.99156036988E+00  0.93800000000E+00 0.  1.
         22    1    1    2    0    0  0.11522935512E+00 -0.23781150240E+00  0.29840345591E+01  0.29957126640E+01  0.00000000000E+00 0.  1.
</event>
<event>
 5    1  0.1537976E+002  0.1597658E+01  0.7818608E-02  0.3355910E+00
         11   -1    0    0    0    0  0.00000000000E+00  0.00000000000E+00  0.39999999674E+01  0.40000000000E+01  0.51100000000E-03 0.  1.
    9000002   -1    0    0    0    0 -0.00000000000E+00 -0.00000000000E+00  0.00000000000E+00  0.93800000000E+00  0.93800000000E+00 0. -1.
         11    1    1    2    0    0  0.64020689451E-01  0.64569173945E-01  0.69975799880E+00  0.70564108788E+00  0.51100000000E-03 0.  1.
    9000002    1    1    2    0    0 -0.15593559561E+00 -0.25076109651E+00  0.59723191418E-01  0.98519434484E+00  0.93800000000E+00 0. -1.
         22    1    1    2    0    0  0.91914906158E-01  0.18619192257E+00  0.32405187771E+01  0.32471645673E+01  0.00000000000E+00 0.  1.
</event>
<event>
 5    1  0.1537976E+002  0.1599676E+01  0.7818608E-02  0.3353715E+00
         11   -1    0    0    0    0  0.00000000000E+00  0.00000000000E+00  0.39999999674E+01  0.40000000000E+01  0.51100000000E-03 0.  1.
    9000002   -1    0    0    0    0 -0.00000000000E+00 -0.00000000000E+00  0.00000000000E+00  0.93800000000E+00  0.93800000000E+00 0.  1.
         11    1    1    2    0    0 -0.17031634667E-01 -0.29512116901E-02  0.27281201781E+00  0.27335955153E+00  0.51100000000E-03 0.  1.
    9000002    1    1    2    0    0  0.24759570348E+00  0.45206752491E-01  0.42086901346E-01  0.97209186300E+00  0.93800000000E+00 0.  1.
         22    1    1    2    0    0 -0.23056406882E+00 -0.42255540801E-01  0.36851010482E+01  0.36925485855E+01  0.00000000000E+00 0.  1.
</event>
<event>
 5    1  0.1537976E+002  0.1596179E+01  0.7818608E-02  0.3357521E+00
         11   -1    0    0    0    0  0.00000000000E+00  0.00000000000E+00  0.39999999674E+01  0.40000000000E+01  0.51100000000E-03 0. -1.
    9000002   -1    0    0    0    0 -0.00000000000E+00 -0.00000000000E+00  0.00000000000E+00  0.93800000000E+00  0.93800000000E+00 0. -1.
         11    1    1    2    0    0  0.25771569763E-01 -0.55250392425E-01  0.40071861870E+00  0.40533005337E+00  0.51100000000E-03 0. -1.
    9000002    1    1    2    0    0 -0.24530748954E+00  0.11965652545E+00  0.52282403409E-01  0.97830000420E+00  0.93800000000E+00 0. -1.
         22    1    1    2    0    0  0.21953591978E+00 -0.64406133024E-01  0.35469989452E+01  0.35543699424E+01  0.00000000000E+00 0. -1.
</event>
<event>
 5    1  0.1537976E+002  0.1505431E+01  0.7818608E-02  0.3462868E+00
         11   -1    0    0    0    0  0.00000000000E+00  0.00000000000E+00  0.39999999674E+01  0.40000000000E+01  0.51100000000E-03 0.  1.
    9000002   -1    0    0    0    0 -0.00000000000E+00 -0.00000000000E+00  0.00000000000E+00  0.93800000000E+00  0.93800000000E+00 0.  1.
         11    1    1    2    0    0  0.32662469242E-01 -0.13470563488E+00  0.74937864518E-01  0.15757026885E+00  0.51100000000E-03 0.  1.
    9000002    1    1    2    0    0 -0.10493682792E+00  0.39115985005E+00  0.19410459540E+00  0.10399703650E+01  0.93800000000E+00 0.  1.
         22    1    1    2    0    0  0.72274358679E-01 -0.25645421517E+00  0.37309575074E+01  0.37404593661E+01  0.00000000000E+00 0.  1.
</event>
<event>
 5    1  0.1537976E+002  0.1599641E+01  0.7818608E-02  0.3353753E+00
         11   -1    0    0    0    0  0.00000000000E+00  0.00000000000E+00  0.39999999674E+01  0.40000000000E+01  0.51100000000E-03 0.  1.
    9000002   -1    0    0    0    0 -0.00000000000E+00 -0.00000000000E+00  0.00000000000E+00  0.93800000000E+00  0.93800000000E+00 0. -1.
         11    1    1    2    0    0 -0.19592938965E+00  0.72408226911E-01  0.16482178673E+01  0.16614011184E+01  0.51100000000E-03 0.  1.
    9000002    1    1    2    0    0  0.44085206956E+00 -0.16707917711E+00  0.15148320151E+00  0.10606871164E+01  0.93800000000E+00 0. -1.
         22    1    1    2    0    0 -0.24492267991E+00  0.94670950196E-01  0.22002988986E+01  0.22159117652E+01  0.00000000000E+00 0.  1.
</event>
<event>
 5    1  0.1537976E+002  0.1599605E+01  0.7818608E-02  0.3353792E+00
         11   -1    0    0    0    0  0.00000000000E+00  0.00000000000E+00  0.39999999674E+01  0.40000000000E+01  0.51100000000E-03 0.  1.
    9000002   -1    0    0    0    0 -0.00000000000E+00 -0.00000000000E+00  0.00000000000E+00  0.93800000000E+00  0.93800000000E+00 0.  1.
         11    1    1    2    0    0 -0.32828357784E+00 -0.19466544909E+00  0.21609339063E+01  0.21943792637E+01  0.51100000000E-03 0.  1.
    9000002    1    1    2    0    0  0.57683351817E+00  0.33525618673E+00  0.31550910610E+00  0.11935340860E+01  0.93800000000E+00 0.  1.
         22    1    1    2    0    0 -0.24854994033E+00 -0.14059073764E+00  0.15235569550E+01  0.15500866503E+01  0.00000000000E+00 0.  1.
</event>
<event>
 5    1  0.1537976E+002  0.1599675E+01  0.7818608E-02  0.3353716E+00
         11   -1    0    0    0    0  0.00000000000E+00  0.00000000000E+00  0.39999999674E+01  0.40000000000E+01  0.51100000000E-03 0. -1.
    9000002   -1    0    0    0    0 -0.00000000000E+00 -0.00000000000E+00  0.00000000000E+00  0.93800000000E+00  0.93800000000E+00 0.  1.
         11    1    1    2    0    0  0.84659590180E-02  0.11707198220E-01  0.14262149599E+00  0.14335230445E+00  0.51100000000E-03 0.  1.
    9000002    1    1    2    0    0 -0.23935793898E+00 -0.31723931111E+00  0.10649498635E+00  0.10242647048E+01  0.93800000000E+00 0.  1.
         22    1    1    2    0    0  0.23089197996E+00  0.30553211289E+00  0.37508834850E+01  0.37703829907E+01  0.00000000000E+00 0. -1.
</event>
<event>
 5    1  0.1537976E+002  0.1599628E+01  0.7818608E-02  0.3353767E+00
         11   -1    0    0    0    0  0.00000000000E+00  0.00000000000E+00  0.39999999674E+01  0.40000000000E+01  0.51100000000E-03 0.  1.
    9000002   -1    0    0    0    0 -0.00000000000E+00 -0.00000000000E+00  0.00000000000E+00  0.93800000000E+00  0.93800000000E+00 0.  1.
         11    1    1    2    0    0  0.45279992046E-01 -0.11683684324E-01  0.49328168908E+00  0.49549356410E+00  0.51100000000E-03 0.  1.
    9000002    1    1    2    0    0 -0.40079952222E+00  0.89044872377E-01  0.11390099954E+00  0.10302362273E+01  0.93800000000E+00 0.  1.
         22    1    1    2    0    0  0.35551953017E+00 -0.77361188053E-01  0.33928172787E+01  0.34122702086E+01  0.00000000000E+00 0.  1.
</event>
<event>
 5    1  0.1537976E+002  0.1599677E+01  0.7818608E-02  0.3353714E+00
         11   -1    0    0    0    0  0.00000000000E+00  0.00000000000E+00  0.39999999674E+01  0.40000000000E+01  0.51100000000E-03 0. -1.
    9000002   -1    0    0    0    0 -0.00000000000E+00 -0.00000000000E+00  0.00000000000E+00  0.93800000000E+00  0.93800000000E+00 0. -1.
         11    1    1    2    0    0  0.90238588002E-02  0.96568830825E-01  0.10539718965E+01  0.10584252400E+01  0.51100000000E-03 0.  1.
    9000002    1    1    2    0    0 -0.33168822483E-01 -0.35849955735E+00  0.87010754057E-01  0.10084825109E+01  0.93800000000E+00 0. -1.
         22    1    1    2    0    0  0.24144963683E-01  0.26193072652E+00  0.28590173168E+01  0.28710922491E+01  0.00000000000E+00 0. -1.
</event>
<event>
 5    1  0.1537976E+002  0.1598767E+01  0.7818608E-02  0.3354702E+00
         11   -1    0    0    0    0  0.00000000000E+00  0.00000000000E+00  0.39999999674E+01  0.40000000000E+01  0.51100000000E-03 0.  1.
    9000002   -1    0    0    0    0 -0.00000000000E+00 -0.00000000000E+00  0.00000000000E+00  0.93800000000E+00  0.93800000000E+00 0. -1.
         11    1    1    2    0    0  0.16854914740E-01  0.84308949596E-01  0.57358450246E+00  0.57999269799E+00  0.51100000000E-03 0.  1.
    9000002    1    1    2    0    0 -0.11760584420E+00 -0.39535844378E+00  0.11571383155E+00  0.10311998470E+01  0.93800000000E+00 0. -1.
         22    1    1    2    0    0  0.10075092946E+00  0.31104949418E+00  0.33107016334E+01  0.33268074550E+01  0.00000000000E+00 0.  1.
</event>
<event>
 5    1  0.1537976E+002  0.1584982E+01  0.7818608E-02  0.3369826E+00
         11   -1    0    0    0    0  0.00000000000E+00  0.00000000000E+00  0.39999999674E+01  0.40000000000E+01  0.51100000000E-03 0. -1.
    9000002   -1    0    0    0    0 -0.00000000000E+00 -0.00000000000E+00  0.00000000000E+00  0.93800000000E+00  0.93800000000E+00 0.  1.
         11    1    1    2    0    0 -0.69279738678E-01  0.70263467925E-01  0.10725598118E+01  0.10770893408E+01  0.51100000000E-03 0. -1.
    9000002    1    1    2    0    0 -0.24815982059E-01  0.12817112869E+00  0.22117784697E-01  0.94729977705E+00  0.93800000000E+00 0.  1.
         22    1    1    2    0    0  0.94095720736E-01 -0.19843459662E+00  0.29053223709E+01  0.29136108821E+01  0.00000000000E+00 0.  1.
</event>
<event>
 5    1  0.1537976E+002  0.1597621E+01  0.7818608E-02  0.3355949E+00
         11   -1    0    0    0    0  0.00000000000E+00  0.00000000000E+00  0.39999999674E+01  0.40000000000E+01  0.51100000000E-03 0.  1.
    9000002   -1    0    0    0    0 -0.00000000000E+00 -0.00000000000E+00  0.00000000000E+00  0.93800000000E+00  0.93800000000E+00 0. -1.
         11    1    1    2    0    0 -0.12885710139E-01 -0.49687742043E-01  0.54105156050E+00  0.54348133866E+00  0.51100000000E-03 0.  1.
    9000002    1    1    2    0    0  0.20959077825E+00  0.11466111690E+00  0.39448483103E-01  0.96874952845E+00  0.93800000000E+00 0. -1.
         22    1    1    2    0    0 -0.19670506811E+00 -0.64973374857E-01  0.34194999238E+01  0.34257691329E+01  0.00000000000E+00 0.  1.
</event>
<event>
 5    1  0.1537976E+002  0.1577701E+01  0.7818608E-02  0.3377927E+00
         11   -1    0    0    0    0  0.00000000000E+00  0.00000000000E+00  0.39999999674E+01  0.40000000000E+01  0.51100000000E-03 0.  1.
    9000002   -1    0    0    0    0 -0.00000000000E+00 -0.00000000000E+00  0.00000000000E+00  0.93800000000E+00  0.93800000000E+00 0.  1.
         11    1    1    2    0    0 -0.62288782511E-01 -0.24972004327E+00  0.11282467275E+01  0.11572298526E+01  0.51100000000E-03 0.  1.
    9000002    1    1    2    0    0 -0.22086408097E+00  0.49512436546E+00  0.22360246664E+00  0.11062419006E+01  0.93800000000E+00 0.  1.
         22    1    1    2    0    0  0.28315286348E+00 -0.24540432219E+00  0.26481507732E+01  0.26745282468E+01  0.00000000000E+00 0.  1.
</event>
<event>
 5    1  0.1537976E+002  0.1597253E+01  0.7818608E-02  0.3356350E+00
         11   -1    0    0    0    0  0.00000000000E+00  0.00000000000E+00  0.39999999674E+01  0.40000000000E+01  0.51100000000E-03 0. -1.
    9000002   -1    0    0    0    0 -0.00000000000E+00 -0.00000000000E+00  0.00000000000E+00  0.93800000000E+00  0.93800000000E+00 0. -1.
         11    1    1    2    0    0 -0.81053749153E-03 -0.33225409546E-01  0.37688030919E+00  0.37834324811E+00  0.51100000000E-03 0. -1.
    9000002    1    1    2    0    0 -0.22941788728E+00  0.71865013645E-01  0.40213531571E-01  0.96915338070E+00  0.93800000000E+00 0. -1.
         22    1    1    2    0    0  0.23022842477E+00 -0.38639604099E-01  0.35829061266E+01  0.35905033712E+01  0.00000000000E+00 0. -1.
</event>
<event>
 5    1  0.1537976E+002  0.1592966E+01  0.7818608E-02  0.3361033E+00
         11   -1    0    0    0    0  0.00000000000E+00  0.00000000000E+00  0.39999999674E+01  0.40000000000E+01  0.51100000000E-03 0.  1.
    9000002   -1    0    0    0    0 -0.00000000000E+00 -0.00000000000E+00  0.00000000000E+00  0.93800000000E+00  0.93800000000E+00 0. -1.
         11    1    1    2    0    0 -0.73473932973E-01  0.15108063660E-01  0.26799512047E+00  0.27829537928E+00  0.51100000000E-03 0.  1.
    9000002    1    1    2    0    0  0.33208695398E+00 -0.31009572225E+00  0.14614135564E+00  0.10524459120E+01  0.93800000000E+00 0. -1.
         22    1    1    2    0    0 -0.25861302100E+00  0.29498765859E+00  0.35858634913E+01  0.36072587087E+01  0.00000000000E+00 0.  1.
</event>
<event>
 5    1  0.1537976E+002  0.1599676E+01  0.7818608E-02  0.3353715E+00
         11   -1    0    0    0    0  0.00000000000E+00  0.00000000000E+00  0.39999999674E+01  0.40000000000E+01  0.51100000000E-03 0.  1.
    9000002   -1    0    0    0    0 -0.00000000000E+00 -0.00000000000E+00  0.00000000000E+00  0.93800000000E+00  0.93800000000E+00 0. -1.
         11    1    1    2    0    0  0.15182549328E+00 -0.19767362065E-02  0.15931819269E+01  0.16004011376E+01  0.51100000000E-03 0.  1.
    9000002    1    1    2    0    0 -0.37461471630E+00  0.65275990703E-02  0.94392931162E-01  0.10144618380E+01  0.93800000000E+00 0. -1.
         22    1    1    2    0    0  0.22278922302E+00 -0.45508628638E-02  0.23124251093E+01  0.23231370245E+01  0.00000000000E+00 0.  1.
</event>
<event>
 5    1  0.1537976E+002  0.1599653E+01  0.7818608E-02  0.3353740E+00
         11   -1    0    0    0    0  0.00000000000E+00  0.00000000000E+00  0.39999999674E+01  0.40000000000E+01  0.51100000000E-03 0. -1.
    9000002   -1    0    0    0    0 -0.00000000000E+00 -0.00000000000E+00  0.00000000000E+00  0.93800000000E+00  0.93800000000E+00 0. -1.
         11    1    1    2    0    0  0.67918630447E-01 -0.44093659782E-01  0.88991901950E+00  0.89359572156E+00  0.51100000000E-03 0. -1.
    9000002    1    1    2    0    0 -0.31869560695E+00  0.20005319705E+00  0.95243162591E-01  0.10151371491E+01  0.93800000000E+00 0. -1.
         22    1    1    2    0    0  0.25077697650E+00 -0.15595953727E+00  0.30148377853E+01  0.30292671293E+01  0.00000000000E+00 0. -1.
</event>
<event>
 5    1  0.1537976E+002  0.1599676E+01  0.7818608E-02  0.3353716E+00
         11   -1    0    0    0    0  0.00000000000E+00  0.00000000000E+00  0.39999999674E+01  0.40000000000E+01  0.51100000000E-03 0.  1.
    9000002   -1    0    0    0    0 -0.00000000000E+00 -0.00000000000E+00  0.00000000000E+00  0.93800000000E+00  0.93800000000E+00 0. -1.
         11    1    1    2    0    0 -0.27583868763E-02 -0.15596682583E-01  0.20043227719E+00  0.20105776301E+00  0.51100000000E-03 0. -1.
    9000002    1    1    2    0    0  0.46494038483E-01  0.30254572763E+00  0.62542484737E-01  0.98866130465E+00  0.93800000000E+00 0. -1.
         22    1    1    2    0    0 -0.43735651607E-01 -0.28694904505E+00  0.37370252054E+01  0.37482809323E+01  0.00000000000E+00 0.  1.
</event>
<event>
 5    1  0.1537976E+002  0.1597848E+01  0.7818608E-02  0.3355702E+00
         11   -1    0    0    0    0  0.00000000000E+00  0.00000000000E+00  0.39999999674E+01  0.40000000000E+01  0.51100000000E-03 0. -1.
    9000002   -1    0    0    0    0 -0.00000000000E+00 -0.00000000000E+00  0.00000000000E+00  0.93800000000E+00  0.93800000000E+00 0.  1.
         11    1    1    2    0    0 -0.67760778306E-02 -0.11205311994E-01  0.14198136186E+00  0.14258486065E+00  0.51100000000E-03 0. -1.
    9000002    1    1    2    0    0  0.58142684475E+00 -0.33717172311E-01  0.23757100000E+00  0.11293706228E+01  0.93800000000E+00 0.  1.
         22    1    1    2    0    0 -0.57465076692E+00  0.44922484305E-01  0.36204476055E+01  0.36660445166E+01  0.00000000000E+00 0. -1.
</event>
<event>
 5    1  0.1537976E+002  0.1599663E+01  0.7818608E-02  0.3353729E+00
         11   -1    0    0    0    0  0.00000000000E+00  0.00000000000E+00  0.39999999674E+01  0.40000000000E+01  0.51100000000E-03 0.  1.
    9000002   -1    0    0    0    0 -0.00000000000E+00 -0.00000000000E+00  0.00000000000E+00  0.93800000000E+00  0.93800000000E+00 0. -1.
         11    1    1    2    0    0 -0.62634366542E-01  0.35287428504E-01  0.75548498284E+00  0.75889794234E+00  0.51100000000E-03 0.  1.
    9000002    1    1    2    0    0  0.30694077699E+00 -0.17722452875E+00  0.84283265869E-01  0.10062647977E+01  0.93800000000E+00 0. -1.
         22    1    1    2    0    0 -0.24430641045E+00  0.14193710024E+00  0.31602317187E+01  0.31728372600E+01  0.00000000000E+00 0.  1.
</event>
<event>
 5    1  0.1537976E+002  0.1599664E+01  0.7818608E-02  0.3353728E+00
         11   -1    0    0    0    0  0.00000000000E+00  0.00000000000E+00  0.39999999674E+01  0.40000000000E+01  0.51100000000E-03 0. -1.
    9000002   -1    0    0    0    0 -0.00000000000E+00 -0.00000000000E+00  0.00000000000E+00  0.93800000000E+00  0.93800000000E+00 0.  1.
         11    1    1    2    0    0 -0.25141479436E-01 -0.37838371004E-01  0.68758900515E+00  0.68908833790E+00  0.51100000000E-03 0. -1.
    9000002    1    1    2    0    0  0.13369220876E+00  0.23254817486E+00  0.47876306964E-01  0.97677448834E+00  0.93800000000E+00 0.  1.
         22    1    1    2    0    0 -0.10855072932E+00 -0.19470980386E+00  0.32645346552E+01  0.32721371738E+01  0.00000000000E+00 0. -1.
</event>
<event>
 5    1  0.1537976E+002  0.1594306E+01  0.7818608E-02  0.3359567E+00
         11   -1    0    0    0    0  0.00000000000E+00  0.00000000000E+00  0.39999999674E+01  0.40000000000E+01  0.51100000000E-03 0.  1.
    9000002   -1    0    0    0    0 -0.00000000000E+00 -0.00000000000E+00  0.00000000000E+00  0.93800000000E+00  0.93800000000E+00 0. -1.
         11    1    1    2    0    0  0.64136266148E-02 -0.17600698982E+00  0.22960246391E+01  0.23027698538E+01  0.51100000000E-03 0.  1.
    9000002    1    1    2    0    0 -0.15630077244E+00  0.32738109331E+00  0.92743738303E-01  0.10099770852E+01  0.93800000000E+00 0. -1.
         22    1    1    2    0    0  0.14988714583E+00 -0.15137410349E+00  0.16112315899E+01  0.16252530609E+01  0.00000000000E+00 0.  1.
</event>
<event>
 5    1  0.1537976E+002  0.1599676E+01  0.7818608E-02  0.3353716E+00
         11   -1    0    0    0    0  0.00000000000E+00  0.00000000000E+00  0.39999999674E+01  0.40000000000E+01  0.51100000000E-03 0. -1.
    9000002   -1    0    0    0    0 -0.00000000000E+00 -0.00000000000E+00  0.00000000000E+00  0.93800000000E+00  0.93800000000E+00 0.  1.
         11    1    1    2    0    0  0.74644334404E-01  0.12152362897E-01  0.82637128826E+00  0.82982481511E+00  0.51100000000E-03 0. -1.
    9000002    1    1    2    0    0 -0.35682657499E+00 -0.61831191400E-01  0.88057660940E-01  0.10093297046E+01  0.93800000000E+00 0.  1.
         22    1    1    2    0    0  0.28218224059E+00  0.49678828503E-01  0.30855710182E+01  0.30988454803E+01  0.00000000000E+00 0. -1.
</event>
<event>
 5    1  0.1537976E+002  0.1599535E+01  0.7818608E-02  0.3353868E+00
         11   -1    0    0    0    0  0.00000000000E+00  0.00000000000E+00  0.39999999674E+01  0.40000000000E+01  0.51100000000E-03 0. -1.
    9000002   -1    0    0    0    0 -0.00000000000E+00 -0.00000000000E+00  0.00000000000E+00  0.93800000000E+00  0.93800000000E+00 0. -1.
         11    1    1    2    0    0 -0.13884788872E+00  0.11857638591E-01  0.12406858945E+01  0.12484875208E+01  0.51100000000E-03 0. -1.
    9000002    1    1    2    0    0  0.44194590312E+00  0.36856813931E-02  0.13263084778E+00  0.10453538670E+01  0.93800000000E+00 0. -1.
         22    1    1    2    0    0 -0.30309801440E+00 -0.15543319984E-01  0.26266832251E+01  0.26441586121E+01  0.00000000000E+00 0. -1.
</event>
<event>
 5    1  0.1537976E+002  0.1599335E+01  0.7818608E-02  0.3354085E+00
         11   -1    0    0    0    0  0.00000000000E+00  0.00000000000E+00  0.39999999674E+01  0.40000000000E+01  0.51100000000E-03 0.  1.
    9000002   -1    0    0    0    0 -0.00000000000E+00 -0.00000000000E+00  0.00000000000E+00  0.93800000000E+00  0.93800000000E+00 0. -1.
         11    1    1    2    0    0  0.17621806791E+00 -0.10852339299E+00  0.18663862905E+01  0.18778253861E+01  0.51100000000E-03 0.  1.
    9000002    1    1    2    0    0 -0.34405531665E+00  0.26593996548E+00  0.12844353096E+00  0.10418444542E+01  0.93800000000E+00 0. -1.
         22    1    1    2    0    0  0.16783724875E+00 -0.15741657249E+00  0.20051701459E+01  0.20183301597E+01  0.00000000000E+00 0.  1.
</event>
<event>
 5    1  0.1537976E+002  0.1598478E+01  0.7818608E-02  0.3355017E+00
         11   -1    0    0    0    0  0.00000000000E+00  0.00000000000E+00  0.39999999674E+01  0.40000000000E+01  0.51100000000E-03 0. -1.
    9000002   -1    0    0    0    0 -0.00000000000E+00 -0.00000000000E+00  0.00000000000E+00  0.93800000000E+00  0.93800000000E+00 0. -1.
         11    1    1    2    0    0  0.21596161411E+00 -0.16678481080E-01  0.19100231401E+01  0.19222659148E+01  0.51100000000E-03 0. -1.
    9000002    1    1    2    0    0 -0.50499430450E+00  0.74762512031E-01  0.17981097202E+00  0.10829518302E+01  0.93800000000E+00 0. -1.
         22    1    1    2    0    0  0.28903269038E+00 -0.58084030951E-01  0.19101658552E+01  0.19327822550E+01  0.00000000000E+00 0. -1.
</event>
<event>
 5    1  0.1537976E+002  0.1566313E+01  0.7818608E-02  0.3390758E+00
         11   -1    0    0    0    0  0.00000000000E+00  0.00000000000E+00  0.39999999674E+01  0.40000000000E+01  0.51100000000E-03 0.  1.
    9000002   -1    0    0    0    0 -0.00000000000E+00 -0.00000000000E+00  0.00000000000E+00  0.93800000000E+00  0.93800000000E+00 0.  1.
         11    1    1    2    0    0  0.13925455386E+00 -0.68934337640E-01  0.65023879939E+00  0.66854658105E+00  0.51100000000E-03 0.  1.
    9000002    1    1    2    0    0  0.88115845527E-01  0.83116960868E-01  0.34545528714E-01  0.94641968754E+00  0.93800000000E+00 0.  1.
         22    1    1    2    0    0 -0.22737039938E+00 -0.14182623228E-01  0.33152156393E+01  0.33230337314E+01  0.00000000000E+00 0.  1.
</event>
<event>
 5    1  0.1537976E+002  0.1599671E+01  0.7818608E-02  0.3353720E+00
         11   -1    0    0    0    0  0.00000000000E+00  0.00000000000E+00  0.39999999674E+01  0.40000000000E+01  0.51100000000E-03 0. -1.
    9000002   -1    0    0    0    0 -0.00000000000E+00 -0.00000000000E+00  0.00000000000E+00  0.93800000000E+00  0.93800000000E+00 0. -1.
         11    1    1    2    0    0 -0.20287037758E-01  0.10044146924E+00  0.54341121225E+00  0.55298829948E+00  0.51100000000E-03 0. -1.
    9000002    1    1    2    0    0  0.14963042776E+00 -0.67252419356E+00  0.33825413021E+00  0.12119974886E+01  0.93800000000E+00 0. -1.
         22    1    1    2    0    0 -0.12934339001E+00  0.57208272432E+00  0.31183346249E+01  0.31730142119E+01  0.00000000000E+00 0. -1.
</event>
<event>
 5    1  0.1537976E+002  0.1598141E+01  0.7818608E-02  0.3355384E+00
         11   -1    0    0    0    0  0.00000000000E+00  0.00000000000E+00  0.39999999674E+01  0.40000000000E+01  0.51100000000E-03 0. -1.
    9000002   -1    0    0    0    0 -0.00000000000E+00 -0.00000000000E+00  0.00000000000E+00  0.93800000000E+00  0.93800000000E+00 0.  1.
         11    1    1    2    0    0 -0.54193238158E-01 -0.80918498708E-01  0.14112948670E+01  0.14146512549E+01  0.51100000000E-03 0. -1.
    9000002    1    1    2    0    0  0.27570696639E+00  0.21193955066E+00  0.82302985852E-01  0.10037681435E+01  0.93800000000E+00 0.  1.
         22    1    1    2    0    0 -0.22151372823E+00 -0.13102105195E+00  0.25064021146E+01  0.25195806016E+01  0.00000000000E+00 0.  1.
</event>
<event>
 5    1  0.1537976E+002  0.1599677E+01  0.7818608E-02  0.3353714E+00
         11   -1    0    0    0    0  0.00000000000E+00  0.00000000000E+00  0.39999999674E+01  0.40000000000E+01  0.51100000000E-03 0. -1.
    9000002   -1    0    0    0    0 -0.00000000000E+00 -0.00000000000E+00  0.00000000000E+00  0.93800000000E+00  0.93800000000E+00 0.  1.
         11    1    1    2    0    0  0.30681705907E-01  0.38726473283E-01  0.69312463496E+00  0.69488353522E+00  0.51100000000E-03 0.  1.
    9000002    1    1    2    0    0 -0.17580198139E+00 -0.22149388444E+00  0.53263578717E-01  0.98114570086E+00  0.93800000000E+00 0.  1.
         22    1    1    2    0    0  0.14512027549E+00  0.18276741116E+00  0.32536117537E+01  0.32619707639E+01  0.00000000000E+00 0. -1.
</event>
<event>
 5    1  0.1537976E+002  0.1593393E+01  0.7818608E-02  0.3360566E+00
         11   -1    0    0    0    0  0.00000000000E+00  0.00000000000E+00  0.39999999674E+01  0.40000000000E+01  0.51100000000E-03 0. -1.
    9000002   -1    0    0    0    0 -0.00000000000E+00 -0.00000000000E+00  0.00000000000E+00  0.93800000000E+00  0.93800000000E+00 0.  1.
         11    1    1    2    0    0  0.44958278386E-01  0.47993502474E-03  0.15931278789E+01  0.15937622711E+01  0.51100000000E-03 0. -1.
    9000002    1    1    2    0    0 -0.48504983342E-01 -0.22515339172E+00  0.39965625491E-01  0.96668921295E+00  0.93800000000E+00 0.  1.
         22    1    1    2    0    0  0.35467049560E-02  0.22467345669E+00  0.23669064630E+01  0.23775485160E+01  0.00000000000E+00 0. -1.
</event>
<event>
 5    1  0.1537976E+002  0.1598268E+01  0.7818608E-02  0.3355245E+00
         11   -1    0    0    0    0  0.00000000000E+00  0.00000000000E+00  0.39999999674E+01  0.40000000000E+01  0.51100000000E-03 0.  1.
    9000002   -1    0    0    0    0 -0.00000000000E+00 -0.00000000000E+00  0.00000000000E+00  0.93800000000E+00  0.93800000000E+00 0. -1.
         11    1    1    2    0    0  0.16410580579E+00  0.52984058384E+00  0.27656968691E+01  0.28207696100E+01  0.51100000000E-03 0.  1.
    9000002    1    1    2    0    0 -0.23059803957E+00 -0.73045937737E+00  0.42918040062E+00  0.12848292393E+01  0.93800000000E+00 0. -1.
         22    1    1    2    0    0  0.66492233777E-01  0.20061879353E+00  0.80512269759E+00  0.83240115067E+00  0.00000000000E+00 0. -1.
</event>
<event>
 5    1  0.1537976E+002  0.1593898E+01  0.7818608E-02  0.3360013E+00
         11   -1    0    0    0    0  0.00000000000E+00  0.00000000000E+00  0.39999999674E+01  0.40000000000E+01  0.51100000000E-03 0. -1.
    9000002   -1    0    0    0    0 -0.00000000000E+00 -0.00000000000E+00  0.00000000000E+00  0.93800000000E+00  0.93800000000E+00 0.  1.
         11    1    1    2    0    0  0.25167800452E-01 -0.17497606934E-01  0.23003045214E+00  0.23206433259E+00  0.51100000000E-03 0. -1.
    9000002    1    1    2    0    0  0.15105043272E+00 -0.14769491651E+00  0.33927756269E-01  0.96209412961E+00  0.93800000000E+00 0.  1.
         22    1    1    2    0    0 -0.17621823318E+00  0.16519252345E+00  0.37360417590E+01  0.37438415378E+01  0.00000000000E+00 0. -1.
</event>
<event>
 5    1  0.1537976E+002  0.1599598E+01  0.7818608E-02  0.3353800E+00
         11   -1    0    0    0    0  0.00000000000E+00  0.00000000000E+00  0.39999999674E+01  0.40000000000E+01  0.51100000000E-03 0. -1.
    9000002   -1    0    0    0    0 -0.00000000000E+00 -0.00000000000E+00  0.00000000000E+00  0.93800000000E+00  0.93800000000E+00 0.  1.
         11    1    1    2    0    0  0.42991981346E+00  0.45965629170E+00  0.25776729260E+01  0.26533964889E+01  0.51100000000E-03 0. -1.
    9000002    1    1    2    0    0 -0.58895648898E+00 -0.61503654213E+00  0.54429052696E+00  0.13788531002E+01  0.93800000000E+00 0.  1.
         22    1    1    2    0    0  0.15903667552E+00  0.15538025044E+00  0.87803651441E+00  0.90575041099E+00  0.00000000000E+00 0. -1.
</event>
<event>
 5    1  0.1537976E+002  0.1599673E+01  0.7818608E-02  0.3353719E+00
         11   -1    0    0    0    0  0.00000000000E+00  0.00000000000E+00  0.39999999674E+01  0.40000000000E+01  0.51100000000E-03 0.  1.
    9000002   -1    0    0    0    0 -0.00000000000E+00 -0.00000000000E+00  0.00000000000E+00  0.93800000000E+00  0.93800000000E+00 0.  1.
         11    1    1    2    0    0  0.17265591470E-01  0.26979091618E-01  0.44883042230E+00  0.44997220040E+00  0.51100000000E-03 0.  1.
    9000002    1    1    2    0    0 -0.14018148513E+00 -0.24348217597E+00  0.52571222396E-01  0.98058255757E+00  0.93800000000E+00 0.  1.
         22    1    1    2    0    0  0.12291589366E+00  0.21650308435E+00  0.34985983227E+01  0.35074452420E+01  0.00000000000E+00 0.  1.
</event>
<event>
 5    1  0.1537976E+002  0.1599676E+01  0.7818608E-02  0.3353715E+00
         11   -1    0    0    0    0  0.00000000000E+00  0.00000000000E+00  0.39999999674E+01  0.40000000000E+01  0.51100000000E-03 0. -1.
    9000002   -1    0    0    0    0 -0.00000000000E+00 -0.00000000000E+00  0.00000000000E+00  0.93800000000E+00  0.93800000000E+00 0. -1.
         11    1    1    2    0    0 -0.15769526399E+00 -0.40259048725E+00  0.25068471894E+01  0.25438612362E+01  0.51100000000E-03 0. -1.
    9000002    1    1    2    0    0  0.23328709821E+00  0.59495056575E+00  0.28743334041E+00  0.11708334515E+01  0.93800000000E+00 0. -1.
         22    1    1    2    0    0 -0.75591834221E-01 -0.19236007851E+00  0.12057194375E+01  0.12233053124E+01  0.00000000000E+00 0. -1.
</event>
<event>
 5    1  0.1537976E+002  0.1599674E+01  0.7818608E-02  0.3353718E+00
         11   -1    0    0    0    0  0.00000000000E+00  0.00000000000E+00  0.39999999674E+01  0.40000000000E+01  0.51100000000E-03 0. -1.
    9000002   -1    0    0    0    0 -0.00000000000E+00 -0.00000000000E+00  0.00000000000E+00  0.93800000000E+00  0.93800000000E+00 0. -1.
         11    1    1    2    0    0  0.12327704632E+00  0.52840857199E-01  0.14622152264E+01  0.14683538456E+01  0.51100000000E-03 0. -1.
    9000002    1    1    2    0    0 -0.32511691777E+00 -0.13866442367E+00  0.83800927981E-01  0.10058804244E+01  0.93800000000E+00 0. -1.
         22    1    1    2    0    0  0.20183987145E+00  0.85823566467E-01  0.24539838130E+01  0.24637657301E+01  0.00000000000E+00 0.  1.
</event>
<event>
 5    1  0.1537976E+002  0.1599509E+01  0.7818608E-02  0.3353896E+00
         11   -1    0    0    0    0  0.00000000000E+00  0.00000000000E+00  0.39999999674E+01  0.40000000000E+01  0.51100000000E-03 0.  1.
    9000002   -1    0    0    0    0 -0.00000000000E+00 -0.00000000000E+00  0.00000000000E+00  0.93800000000E+00  0.93800000000E+00 0. -1.
         11    1    1    2    0    0  0.26064354260E-01  0.45269048034E-01  0.56006723363E+00  0.56249818184E+00  0.51100000000E-03 0.  1.
    9000002    1    1    2    0    0 -0.17671294628E+00 -0.38927711917E+00  0.12387395575E+00  0.10382451049E+01  0.93800000000E+00 0. -1.
         22    1    1    2    0    0  0.15064859202E+00  0.34400807114E+00  0.33160587780E+01  0.33372567133E+01  0.00000000000E+00 0.  1.
</event>
<event>
 5    1  0.1537976E+002  0.1599289E+01  0.7818608E-02  0.3354136E+00
         11   -1    0    0    0    0  0.00000000000E+00  0.00000000000E+00  0.39999999674E+01  0.40000000000E+01  0.51100000000E-03 0. -1.
    9000002   -1    0    0    0    0 -0.00000000000E+00 -0.00000000000E+00  0.00000000000E+00  0.93800000000E+00  0.93800000000E+00 0. -1.
         11    1    1    2    0    0 -0.12934812167E-01  0.28942130308E-01  0.29743760993E+00  0.29912263236E+00  0.51100000000E-03 0. -1.
    9000002    1    1    2    0    0  0.18719799282E+00 -0.21817830138E+00  0.55372781277E-01  0.98262658453E+00  0.93800000000E+00 0. -1.
         22    1    1    2    0    0 -0.17426318065E+00  0.18923617108E+00  0.36471895762E+01  0.36562507831E+01  0.00000000000E+00 0. -1.
</event>
<event>
 5    1  0.1537976E+002  0.1599663E+01  0.7818608E-02  0.3353729E+00
         11   -1    0    0    0    0  0.00000000000E+00  0.00000000000E+00  0.39999999674E+01  0.40000000000E+01  0.51100000000E-03 0. -1.
    9000002   -1    0    0    0    0 -0.00000000000E+00 -0.00000000000E+00  0.00000000000E+00  0.93800000000E+00  0.93800000000E+00 0.  1.
         11    1    1    2    0    0  0.20849057175E-01 -0.34146560100E+00  0.22545446413E+01  0.22803519993E+01  0.51100000000E-03 0. -1.
    9000002    1    1    2    0    0 -0.30541805305E-01  0.56605110719E+00  0.22269469263E+00  0.11183843632E+01  0.93800000000E+00 0.  1.
         22    1    1    2    0    0  0.96927481300E-02 -0.22458550619E+00  0.15227606334E+01  0.15392636375E+01  0.00000000000E+00 0.  1.
</event>
<event>
 5    1  0.1537976E+002  0.1594859E+01  0.7818608E-02  0.3358962E+00
         11   -1    0    0    0    0  0.00000000000E+00  0.00000000000E+00  0.39999999674E+01  0.40000000000E+01  0.51100000000E-03 0. -1.
    9000002   -1    0    0    0    0 -0.00000000000E+00 -0.00000000000E+00  0.00000000000E+00  0.93800000000E+00  0.93800000000E+00 0. -1.
         11    1    1    2    0    0  0.12108504950E-01  0.18124755549E-01  0.61676135240E+00  0.61714661920E+00  0.51100000000E-03 0. -1.
    9000002    1    1    2    0    0 -0.30198086098E+00  0.19895733262E+00  0.91719408793E-01  0.10094715997E+01  0.93800000000E+00 0. -1.
         22    1    1    2    0    0  0.28987235603E+00 -0.21708208817E+00  0.32915192062E+01  0.33113817811E+01  0.00000000000E+00 0. -1.
</event>
<event>
 5    1  0.1537976E+002  0.1599663E+01  0.7818608E-02  0.3353730E+00
         11   -1    0    0    0    0  0.00000000000E+00  0.00000000000E+00  0.39999999674E+01  0.40000000000E+01  0.51100000000E-03 0. -1.
    9000002   -1    0    0    0    0 -0.00000000000E+00 -0.00000000000E+00  0.00000000000E+00  0.93800000000E+00  0.93800000000E+00 0. -1.
         11    1    1    2    0    0 -0.75096871395E-02  0.94412224886E-02  0.21053194052E+00  0.21087790587E+00  0.51100000000E-03 0. -1.
    9000002    1    1    2    0    0  0.17368164939E+00 -0.15841375721E+00  0.36679191442E-01  0.96770325870E+00  0.93800000000E+00 0. -1.
         22    1    1    2    0    0 -0.16617196225E+00  0.14897253472E+00  0.37527888354E+01  0.37594188354E+01  0.00000000000E+00 0. -1.
</event>
<event>
 5    1  0.1537976E+002  0.1575908E+01  0.7818608E-02  0.3379935E+00
         11   -1    0    0    0    0  0.00000000000E+00  0.00000000000E+00  0.39999999674E+01  0.40000000000E+01  0.51100000000E-03 0. -1.
    9000002   -1    0    0    0    0 -0.00000000000E+00 -0.00000000000E+00  0.00000000000E+00  0.93800000000E+00  0.93800000000E+00 0.  1.
         11    1    1    2    0    0 -0.14439724040E+00  0.89044995570E-02  0.94093833941E+00  0.95199531135E+00  0.51100000000E-03 0. -1.
    9000002    1    1    2    0    0 -0.19808502193E-01  0.18277223402E+00  0.40284558455E-01  0.95669478515E+00  0.93800000000E+00 0.  1.
         22    1    1    2    0    0  0.16420574259E+00 -0.19167673358E+00  0.30187770695E+01  0.30293099035E+01  0.00000000000E+00 0. -1.
</event>
<event>
 5    1  0.1537976E+002  0.1599677E+01  0.7818608E-02  0.3353714E+00
         11   -1    0    0    0    0  0.00000000000E+00  0.00000000000E+00  0.39999999674E+01  0.40000000000E+01  0.51100000000E-03 0.  1.
    9000002   -1    0    0    0    0 -0.00000000000E+00 -0.00000000000E+00  0.00000000000E+00  0.93800000000E+00  0.93800000000E+00 0.  1.
         11    1    1    2    0    0  0.51153876646E-01  0.39658991025E+00  0.24602495964E+01  0.24925345762E+01  0.51100000000E-03 0. -1.
    9000002    1    1    2    0    0 -0.77740916287E-01 -0.60312479001E+00  0.25846324788E+00  0.11473667299E+01  0.93800000000E+00 0.  1.
         22    1    1    2    0    0  0.26587039640E-01  0.20653487976E+00  0.12812871231E+01  0.12980986939E+01  0.00000000000E+00 0.  1.
</event>
<event>
 5    1  0.1537976E+002  0.1599325E+01  0.7818608E-02  0.3354096E+00
         11   -1    0    0    0    0  0.00000000000E+00  0.00000000000E+00  0.39999999674E+01  0.40000000000E+01  0.51100000000E-03 0.  1.
    9000002   -1    0    0    0    0 -0.00000000000E+00 -0.00000000000E+00  0.00000000000E+00  0.93800000000E+00  0.93800000000E+00 0. -1.
         11    1    1    2    0    0 -0.20516506840E+00 -0.15104431884E+00  0.19207809378E+01  0.19376033556E+01  0.51100000000E-03 0.  1.
    9000002    1    1    2    0    0  0.39470657055E+00  0.26013345209E+00  0.15260674505E+00  0.10614120352E+01  0.93800000000E+00 0. -1.
         22    1    1    2    0    0 -0.18954150215E+00 -0.10908913324E+00  0.19266122845E+01  0.19389846092E+01  0.00000000000E+00 0.  1.
</event>
<event>
 5    1  0.1537976E+002  0.1592071E+01  0.7818608E-02  0.3362014E+00
         11   -1    0    0    0    0  0.00000000000E+00  0.00000000000E+00  0.39999999674E+01  0.40000000000E+01  0.51100000000E-03 0. -1.
    9000002   -1    0    0    0    0 -0.00000000000E+00 -0.00000000000E+00  0.00000000000E+00  0.93800000000E+00  0.93800000000E+00 0. -1.
         11    1    1    2    0    0  0.34203369960E-02  0.12985986668E+00  0.84530269164E+00  0.85522639418E+00  0.51100000000E-03 0. -1.
    9000002    1    1    2    0    0 -0.32998447097E+00 -0.35045359659E+00  0.16490440948E+00  0.10671199271E+01  0.93800000000E+00 0. -1.
         22    1    1    2    0    0  0.32656413398E+00  0.22059372990E+00  0.29897928662E+01  0.30156536788E+01  0.00000000000E+00 0. -1.
</event>
<event>
 5    1  0.1537976E+002  0.1584399E+01  0.7818608E-02  0.3370472E+00
         11   -1    0    0    0    0  0.00000000000E+00  0.00000000000E+00  0.39999999674E+01  0.40000000000E+01  0.51100000000E-03 0.  1.
    9000002   -1    0    0    0    0 -0.00000000000E+00 -0.00000000000E+00  0.00000000000E+00  0.93800000000E+00  0.93800000000E+00 0. -1.
         11    1    1    2    0    0  0.63843005837E-01  0.16160668667E+00  0.23609845283E+01  0.23673700291E+01  0.51100000000E-03 0.  1.
    9000002    1    1    2    0    0  0.12998799945E+00 -0.31933525563E+00  0.92025281106E-01  0.10035858398E+01  0.93800000000E+00 0. -1.
         22    1    1    2    0    0 -0.19383100529E+00  0.15772856896E+00  0.15469901580E+01  0.15670441311E+01  0.00000000000E+00 0.  1.
</event>
<event>
 5    1  0.1537976E+002  0.1599663E+01  0.7818608E-02  0.3353729E+00
         11   -1    0    0    0    0  0.00000000000E+00  0.00000000000E+00  0.39999999674E+01  0.40000000000E+01  0.51100000000E-03 0. -1.
    9000002   -1    0    0    0    0 -0.00000000000E+00 -0.00000000000E+00  0.00000000000E+00  0.93800000000E+00  0.93800000000E+00 0. -1.
         11    1    1    2    0    0 -0.95294560198E-01 -0.10433216531E-01  0.10995579227E+01  0.11037290391E+01  0.51100000000E-03 0. -1.
    9000002    1    1    2    0    0  0.33220814849E+00  0.49012366189E-01  0.75504936105E-01  0.99915437313E+00  0.93800000000E+00 0. -1.
         22    1    1    2    0    0 -0.23691358829E+00 -0.38579149658E-01  0.28249371085E+01  0.28351165878E+01  0.00000000000E+00 0. -1.
</event>
<event>
 5    1  0.1537976E+002  0.1599676E+01  0.7818608E-02  0.3353715E+00
         11   -1    0    0    0    0  0.00000000000E+00  0.00000000000E+00  0.39999999674E+01  0.40000000000E+01  0.51100000000E-03 0. -1.
    9000002   -1    0    0    0    0 -0.00000000000E+00 -0.00000000000E+00  0.00000000000E+00  0.93800000000E+00  0.93800000000E+00 0.  1.
         11    1    1    2    0    0 -0.10526826758E-01  0.13825322559E-01  0.25934565969E+00  0.25992765521E+00  0.51100000000E-03 0.  1.
    9000002    1    1    2    0    0  0.16019690659E+00 -0.20979028890E+00  0.46335842557E-01  0.97553371264E+00  0.93800000000E+00 0.  1.
         22    1    1    2    0    0 -0.14967007983E+00  0.19596496634E+00  0.36943184651E+01  0.37025386321E+01  0.00000000000E+00 0. -1.
</event>
<event>
 5    1  0.1537976E+002  0.1599677E+01  0.7818608E-02  0.3353714E+00
         11   -1    0    0    0    0  0.00000000000E+00  0.00000000000E+00  0.39999999674E+01  0.40000000000E+01  0.51100000000E-03 0.  1.
    9000002   -1    0    0    0    0 -0.00000000000E+00 -0.00000000000E+00  0.00000000000E+00  0.93800000000E+00  0.93800000000E+00 0. -1.
         11    1    1    2    0    0 -0.80926034148E-01  0.37678114905E-01  0.98629662883E+00  0.99032821050E+00  0.51100000000E-03 0. -1.
    9000002    1    1    2    0    0  0.32294967810E+00 -0.15034889915E+00  0.85147928817E-01  0.10069734137E+01  0.93800000000E+00 0. -1.
         22    1    1    2    0    0 -0.24202364395E+00  0.11267078424E+00  0.29285554097E+01  0.29406983758E+01  0.00000000000E+00 0.  1.
</event>
<event>
 5    1  0.1537976E+002  0.1564284E+01  0.7818608E-02  0.3393065E+00
         11   -1    0    0    0    0  0.00000000000E+00  0.00000000000E+00  0.39999999674E+01  0.40000000000E+01  0.51100000000E-03 0.  1.
    9000002   -1    0    0    0    0 -0.00000000000E+00 -0.00000000000E+00  0.00000000000E+00  0.93800000000E+00  0.93800000000E+00 0.  1.
         11    1    1    2    0    0 -0.13802443160E-01  0.16455103035E+00  0.77474135087E+00  0.79214390794E+00  0.51100000000E-03 0.  1.
    9000002    1    1    2    0    0  0.57381011430E+00 -0.68017024443E-01  0.26710022330E+00  0.11336096736E+01  0.93800000000E+00 0.  1.
         22    1    1    2    0    0 -0.56000767114E+00 -0.96534005912E-01  0.29581583932E+01  0.30122464184E+01  0.00000000000E+00 0.  1.
</event>
<event>
 5    1  0.1537976E+002  0.1599534E+01  0.7818608E-02  0.3353869E+00
         11   -1    0    0    0    0  0.00000000000E+00  0.00000000000E+00  0.39999999674E+01  0.40000000000E+01  0.51100000000E-03 0.  1.
    9000002   -1    0    0    0    0 -0.00000000000E+00 -0.00000000000E+00  0.00000000000E+00  0.93800000000E+00  0.93800000000E+00 0.  1.
         11    1    1    2    0    0  0.20843389793E+00  0.45266761840E-01  0.18831950339E+01  0.18952354910E+01  0.51100000000E-03 0.  1.
    9000002    1    1    2    0    0 -0.41247147096E+00 -0.69022158263E-01  0.11837521906E+00  0.10338053323E+01  0.93800000000E+00 0.  1.
         22    1    1    2    0    0  0.20403757304E+00  0.23755396423E-01  0.19984297144E+01  0.20089591767E+01  0.00000000000E+00 0.  1.
</event>
<event>
 5    1  0.1537976E+002  0.1599638E+01  0.7818608E-02  0.3353756E+00
         11   -1    0    0    0    0  0.00000000000E+00  0.00000000000E+00  0.39999999674E+01  0.40000000000E+01  0.51100000000E-03 0.  1.
    9000002   -1    0    0    0    0 -0.00000000000E+00 -0.00000000000E+00  0.00000000000E+00  0.93800000000E+00  0.93800000000E+00 0.  1.
         11    1    1    2    0    0 -0.88463711521E-02 -0.83472297163E-02  0.19381674026E+00  0.19419867263E+00  0.51100000000E-03 0.  1.
    9000002    1    1    2    0    0  0.19274457143E+00  0.10663747546E+00  0.32193122705E-01  0.96405519455E+00  0.93800000000E+00 0.  1.
         22    1    1    2    0    0 -0.18389820028E+00 -0.98290245739E-01  0.37739901044E+01  0.37797461328E+01  0.00000000000E+00 0.  1.
</event>
<event>
 5    1  0.1537976E+002  0.1599669E+01  0.7818608E-02  0.3353722E+00
         11   -1    0    0    0    0  0.00000000000E+00  0.00000000000E+00  0.39999999674E+01  0.40000000000E+01  0.51100000000E-03 0.  1.
    9000002   -1    0    0    0    0 -0.00000000000E+00 -0.00000000000E+00  0.00000000000E+00  0.93800000000E+00  0.93800000000E+00 0. -1.
         11    1    1    2    0    0 -0.10052532456E+00  0.11185755760E+00  0.16473730482E+01  0.16542235868E+01  0.51100000000E-03 0.  1.
    9000002    1    1    2    0    0  0.24406395990E+00 -0.27114459955E+00  0.89391464004E-01  0.10104065737E+01  0.93800000000E+00 0. -1.
         22    1    1    2    0    0 -0.14353863534E+00  0.15928704194E+00  0.22632354552E+01  0.22733698395E+01  0.00000000000E+00 0.  1.
</event>
<event>
 5    1  0.1537976E+002  0.1554043E+01  0.7818608E-02  0.3404806E+00
         11   -1    0    0    0    0  0.00000000000E+00  0.00000000000E+00  0.39999999674E+01  0.40000000000E+01  0.51100000000E-03 0.  1.
    9000002   -1    0    0    0    0 -0.00000000000E+00 -0.00000000000E+00  0.00000000000E+00  0.93800000000E+00  0.93800000000E+00 0.  1.
         11    1    1    2    0    0  0.63666001611E-01 -0.25648470590E+00  0.16749020758E+01  0.16956223013E+01  0.51100000000E-03 0.  1.
    9000002    1    1    2    0    0 -0.96858742255E-01  0.81749100189E-02  0.40296910786E-01  0.94388361895E+00  0.93800000000E+00 0.  1.
         22    1    1    2    0    0  0.33192740644E-01  0.24830979589E+00  0.22848009808E+01  0.22984940798E+01  0.00000000000E+00 0.  1.
</event>
<event>
 5    1  0.1537976E+002  0.1598175E+01  0.7818608E-02  0.3355347E+00
         11   -1    0    0    0    0  0.00000000000E+00  0.00000000000E+00  0.39999999674E+01  0.40000000000E+01  0.51100000000E-03 0.  1.
    9000002   -1    0    0    0    0 -0.00000000000E+00 -0.00000000000E+00  0.00000000000E+00  0.93800000000E+00  0.93800000000E+00 0. -1.
         11    1    1    2    0    0  0.38313715979E-01 -0.49539667657E-01  0.11276240559E+01  0.11293619402E+01  0.51100000000E-03 0.  1.
    9000002    1    1    2    0    0 -0.24380781330E+00  0.74507038457E-01  0.44342308615E-01  0.97303843138E+00  0.93800000000E+00 0. -1.
         22    1    1    2    0    0  0.20549409732E+00 -0.24967370801E-01  0.28280336029E+01  0.28355996284E+01  0.00000000000E+00 0.  1.
</event>
<event>
 5    1  0.1537976E+002  0.1599677E+01  0.7818608E-02  0.3353714E+00
         11   -1    0    0    0    0  0.00000000000E+00  0.00000000000E+00  0.39999999674E+01  0.40000000000E+01  0.51100000000E-03 0. -1.
    9000002   -1    0    0    0    0 -0.00000000000E+00 -0.00000000000E+00  0.00000000000E+00  0.93800000000E+00  0.93800000000E+00 0. -1.
         11    1    1    2    0    0  0.24514480866E-02  0.74515968532E-01  0.91417966176E+00  0.91721499893E+00  0.51100000000E-03 0. -1.
    9000002    1    1    2    0    0 -0.11555548721E-01 -0.32224199430E+00  0.69513198920E-01  0.99430856298E+00  0.93800000000E+00 0. -1.
         22    1    1    2    0    0  0.91041006349E-02  0.24772602577E+00  0.30163071067E+01  0.30264764381E+01  0.00000000000E+00 0. -1.
</event>
<event>
 5    1  0.1537976E+002  0.1599645E+01  0.7818608E-02  0.3353749E+00
         11   -1    0    0    0    0  0.00000000000E+00  0.00000000000E+00  0.39999999674E+01  0.40000000000E+01  0.51100000000E-03 0. -1.
    9000002   -1    0    0    0    0 -0.00000000000E+00 -0.00000000000E+00  0.00000000000E+00  0.93800000000E+00  0.93800000000E+00 0. -1.
         11    1    1    2    0    0  0.24564275057E+00  0.23997957053E-01  0.16373752535E+01  0.16558726535E+01  0.51100000000E-03 0. -1.
    9000002    1    1    2    0    0 -0.55705156782E+00 -0.43976286440E-01  0.21605881846E+00  0.11129985517E+01  0.93800000000E+00 0. -1.
         22    1    1    2    0    0  0.31140881725E+00  0.19978329387E-01  0.21465658954E+01  0.21691287948E+01  0.00000000000E+00 0. -1.
</event>
<event>
 5    1  0.1537976E+002  0.1571382E+01  0.7818608E-02  0.3385022E+00
         11   -1    0    0    0    0  0.00000000000E+00  0.00000000000E+00  0.39999999674E+01  0.40000000000E+01  0.51100000000E-03 0. -1.
    9000002   -1    0    0    0    0 -0.00000000000E+00 -0.00000000000E+00  0.00000000000E+00  0.93800000000E+00  0.93800000000E+00 0.  1.
         11    1    1    2    0    0  0.75288512801E-01  0.13110190231E+00  0.90958771280E+00  0.92206623262E+00  0.51100000000E-03 0. -1.
    9000002    1    1    2    0    0  0.11490606486E-01  0.88450485242E-01  0.26153250504E-01  0.94259403504E+00  0.93800000000E+00 0.  1.
         22    1    1    2    0    0 -0.86779119288E-01 -0.21955238755E+00  0.30642590041E+01  0.30733397323E+01  0.00000000000E+00 0. -1.
</event>
<event>
 5    1  0.1537976E+002  0.1598649E+01  0.7818608E-02  0.3354831E+00
         11   -1    0    0    0    0  0.00000000000E+00  0.00000000000E+00  0.39999999674E+01  0.40000000000E+01  0.51100000000E-03 0.  1.
    9000002   -1    0    0    0    0 -0.00000000000E+00 -0.00000000000E+00  0.00000000000E+00  0.93800000000E+00  0.93800000000E+00 0.  1.
         11    1    1    2    0    0 -0.55576931778E-01  0.18515784694E-01  0.58464633990E+00  0.58757402385E+00  0.51100000000E-03 0.  1.
    9000002    1    1    2    0    0  0.26069750021E+00 -0.27061525655E+00  0.95795607527E-01  0.10149958631E+01  0.93800000000E+00 0.  1.
         22    1    1    2    0    0 -0.20512056843E+00  0.25209947185E+00  0.33195580199E+01  0.33354301130E+01  0.00000000000E+00 0.  1.
</event>
<event>
 5    1  0.1537976E+002  0.1573797E+01  0.7818608E-02  0.3382303E+00
         11   -1    0    0    0    0  0.00000000000E+00  0.00000000000E+00  0.39999999674E+01  0.40000000000E+01  0.51100000000E-03 0. -1.
    9000002   -1    0    0    0    0 -0.00000000000E+00 -0.00000000000E+00  0.00000000000E+00  0.93800000000E+00  0.93800000000E+00 0. -1.
         11    1    1    2    0    0 -0.56140692877E-01  0.56382724498E-01  0.29281437417E+01  0.29292246111E+01  0.51100000000E-03 0. -1.
    9000002    1    1    2    0    0  0.54107176608E-01  0.15373208610E+00  0.36967923177E-01  0.95277057480E+00  0.93800000000E+00 0. -1.
         22    1    1    2    0    0  0.20335162692E-02 -0.21011481060E+00  0.10348883025E+01  0.10560048141E+01  0.00000000000E+00 0. -1.
</event>
<event>
 5    1  0.1537976E+002  0.1585142E+01  0.7818608E-02  0.3369649E+00
         11   -1    0    0    0    0  0.00000000000E+00  0.00000000000E+00  0.39999999674E+01  0.40000000000E+01  0.51100000000E-03 0. -1.
    9000002   -1    0    0    0    0 -0.00000000000E+00 -0.00000000000E+00  0.00000000000E+00  0.93800000000E+00  0.93800000000E+00 0.  1.
         11    1    1    2    0    0  0.11462113883E+00  0.74334623654E-01  0.58018540188E+00  0.59605285287E+00  0.51100000000E-03 0. -1.
    9000002    1    1    2    0    0 -0.40666321480E+00  0.99611906087E-01  0.13089365005E+00  0.10355069530E+01  0.93800000000E+00 0.  1.
         22    1    1    2    0    0  0.29204207597E+00 -0.17394652974E+00  0.32889209154E+01  0.33064401941E+01  0.00000000000E+00 0. -1.
</event>
<event>
 5    1  0.1537976E+002  0.1598067E+01  0.7818608E-02  0.3355464E+00
         11   -1    0    0    0    0  0.00000000000E+00  0.00000000000E+00  0.39999999674E+01  0.40000000000E+01  0.51100000000E-03 0.  1.
    9000002   -1    0    0    0    0 -0.00000000000E+00 -0.00000000000E+00  0.00000000000E+00  0.93800000000E+00  0.93800000000E+00 0. -1.
         11    1    1    2    0    0 -0.16171650382E+00  0.91243389720E-01  0.11575743128E+01  0.11723720120E+01  0.51100000000E-03 0.  1.
    9000002    1    1    2    0    0  0.39038198052E+00 -0.27944967103E+00  0.15869642030E+00  0.10656072274E+01  0.93800000000E+00 0. -1.
         22    1    1    2    0    0 -0.22866547670E+00  0.18820628131E+00  0.26837292343E+01  0.27000207606E+01  0.00000000000E+00 0.  1.
</event>
<event>
 5    1  0.1537976E+002  0.1587921E+01  0.7818608E-02  0.3366579E+00
         11   -1    0    0    0    0  0.00000000000E+00  0.00000000000E+00  0.39999999674E+01  0.40000000000E+01  0.51100000000E-03 0. -1.
    9000002   -1    0    0    0    0 -0.00000000000E+00 -0.00000000000E+00  0.00000000000E+00  0.93800000000E+00  0.93800000000E+00 0.  1.
         11    1    1    2    0    0 -0.74591198614E-01 -0.48490817877E-01  0.12083229406E+01  0.12115939074E+01  0.51100000000E-03 0. -1.
    9000002    1    1    2    0    0 -0.14888482285E+00  0.14021470904E+00  0.36574303429E-01  0.96073333177E+00  0.93800000000E+00 0.  1.
         22    1    1    2    0    0  0.22347602147E+00 -0.91723891160E-01  0.27551027233E+01  0.27656727609E+01  0.00000000000E+00 0. -1.
</event>
<event>
 5    1  0.1537976E+002  0.1535595E+01  0.7818608E-02  0.3426376E+00
         11   -1    0    0    0    0  0.00000000000E+00  0.00000000000E+00  0.39999999674E+01  0.40000000000E+01  0.51100000000E-03 0.  1.
    9000002   -1    0    0    0    0 -0.00000000000E+00 -0.00000000000E+00  0.00000000000E+00  0.93800000000E+00  0.93800000000E+00 0. -1.
         11    1    1    2    0    0 -0.10138954319E+00  0.96490552112E-01  0.22079977305E+00  0.26142506960E+00  0.51100000000E-03 0.  1.
    9000002    1    1    2    0    0 -0.44245747504E-01  0.85463901956E-01  0.54401495315E-01  0.94449207906E+00  0.93800000000E+00 0. -1.
         22    1    1    2    0    0  0.14563529070E+00 -0.18195445407E+00  0.37247986990E+01  0.37320828513E+01  0.00000000000E+00 0.  1.
</event>
<event>
 5    1  0.1537976E+002  0.1599673E+01  0.7818608E-02  0.3353718E+00
         11   -1    0    0    0    0  0.00000000000E+00  0.00000000000E+00  0.39999999674E+01  0.40000000000E+01  0.51100000000E-03 0. -1.
    9000002   -1    0    0    0    0 -0.00000000000E+00 -0.00000000000E+00  0.00000000000E+00  0.93800000000E+00  0.93800000000E+00 0. -1.
         11    1    1    2    0    0  0.94477210333E-01 -0.65330036833E-01  0.13356888863E+01  0.13406188941E+01  0.51100000000E-03 0.  1.
    9000002    1    1    2    0    0 -0.27657810649E+00  0.18542140903E+00  0.74211393272E-01  0.99811215743E+00  0.93800000000E+00 0. -1.
         22    1    1    2    0    0  0.18210089616E+00 -0.12009137219E+00  0.25900996877E+01  0.25992689485E+01  0.00000000000E+00 0. -1.
</event>
<event>
 5    1  0.1537976E+002  0.1530233E+01  0.7818608E-02  0.3432751E+00
         11   -1    0    0    0    0  0.00000000000E+00  0.00000000000E+00  0.39999999674E+01  0.40000000000E+01  0.51100000000E-03 0. -1.
    9000002   -1    0    0    0    0 -0.00000000000E+00 -0.00000000000E+00  0.00000000000E+00  0.93800000000E+00  0.93800000000E+00 0. -1.
         11    1    1    2    0    0 -0.78246877715E-01 -0.22320507774E+00  0.26039176557E+01  0.26146377377E+01  0.51100000000E-03 0. -1.
    9000002    1    1    2    0    0  0.19221974222E+00 -0.10989294427E+00  0.86921194194E-01  0.96769012731E+00  0.93800000000E+00 0. -1.
         22    1    1    2    0    0 -0.11397286450E+00  0.33309802201E+00  0.13091611175E+01  0.13556721350E+01  0.00000000000E+00 0. -1.
</event>
<event>
 5    1  0.1537976E+002  0.1594554E+01  0.7818608E-02  0.3359296E+00
         11   -1    0    0    0    0  0.00000000000E+00  0.00000000000E+00  0.39999999674E+01  0.40000000000E+01  0.51100000000E-03 0. -1.
    9000002   -1    0    0    0    0 -0.00000000000E+00 -0.00000000000E+00  0.00000000000E+00  0.93800000000E+00  0.93800000000E+00 0. -1.
         11    1    1    2    0    0  0.57645388872E-01 -0.14344955039E+00  0.93869937836E+00  0.95134512581E+00  0.51100000000E-03 0. -1.
    9000002    1    1    2    0    0 -0.25161232612E+00  0.28855245770E+00  0.10287780157E+00  0.10183315401E+01  0.93800000000E+00 0. -1.
         22    1    1    2    0    0  0.19396693725E+00 -0.14510290731E+00  0.29584227874E+01  0.29683233341E+01  0.00000000000E+00 0. -1.
</event>
<event>
 5    1  0.1537976E+002  0.1599661E+01  0.7818608E-02  0.3353731E+00
         11   -1    0    0    0    0  0.00000000000E+00  0.00000000000E+00  0.39999999674E+01  0.40000000000E+01  0.51100000000E-03 0.  1.
    9000002   -1    0    0    0    0 -0.00000000000E+00 -0.00000000000E+00  0.00000000000E+00  0.93800000000E+00  0.93800000000E+00 0. -1.
         11    1    1    2    0    0  0.35413533521E-02 -0.40102460053E-02  0.13518966769E+00  0.13529645460E+00  0.51100000000E-03 0.  1.
    9000002    1    1    2    0    0 -0.14131363562E+00  0.15011989421E+00  0.28162065001E-01  0.96080311623E+00  0.93800000000E+00 0. -1.
         22    1    1    2    0    0  0.13777228227E+00 -0.14610964820E+00  0.38366482347E+01  0.38419004292E+01  0.00000000000E+00 0.  1.
</event>
<event>
 5    1  0.1537976E+002  0.1599674E+01  0.7818608E-02  0.3353717E+00
         11   -1    0    0    0    0  0.00000000000E+00  0.00000000000E+00  0.39999999674E+01  0.40000000000E+01  0.51100000000E-03 0. -1.
    9000002   -1    0    0    0    0 -0.00000000000E+00 -0.00000000000E+00  0.00000000000E+00  0.93800000000E+00  0.93800000000E+00 0.  1.
         11    1    1    2    0    0 -0.41234424800E-03 -0.17896356483E-01  0.20147249376E+00  0.20226684470E+00  0.51100000000E-03 0. -1.
    9000002    1    1    2    0    0  0.56741545764E-02  0.33504963575E+00  0.75173200261E-01  0.99889211854E+00  0.93800000000E+00 0.  1.
         22    1    1    2    0    0 -0.52618103284E-02 -0.31715327927E+00  0.37233542733E+01  0.37368410368E+01  0.00000000000E+00 0. -1.
</event>
<event>
 5    1  0.1537976E+002  0.1543371E+01  0.7818608E-02  0.3417217E+00
         11   -1    0    0    0    0  0.00000000000E+00  0.00000000000E+00  0.39999999674E+01  0.40000000000E+01  0.51100000000E-03 0. -1.
    9000002   -1    0    0    0    0 -0.00000000000E+00 -0.00000000000E+00  0.00000000000E+00  0.93800000000E+00  0.93800000000E+00 0. -1.
         11    1    1    2    0    0 -0.16164150981E+00  0.14775758349E+00  0.79660038465E+00  0.82615538195E+00  0.51100000000E-03 0. -1.
    9000002    1    1    2    0    0 -0.81648502101E-01 -0.10840022685E-01  0.46638873546E-01  0.94276358039E+00  0.93800000000E+00 0. -1.
         22    1    1    2    0    0  0.24329001191E+00 -0.13691756081E+00  0.31567607092E+01  0.31690810377E+01  0.00000000000E+00 0. -1.
</event>
<event>
 5    1  0.1537976E+002  0.1599677E+01  0.7818608E-02  0.3353714E+00
         11   -1    0    0    0    0  0.00000000000E+00  0.00000000000E+00  0.39999999674E+01  0.40000000000E+01  0.51100000000E-03 0.  1.
    9000002   -1    0    0    0    0 -0.00000000000E+00 -0.00000000000E+00  0.00000000000E+00  0.93800000000E+00  0.93800000000E+00 0. -1.
         11    1    1    2    0    0  0.26836556375E+00  0.33573377162E+00  0.24366052131E+01  0.24742236089E+01  0.51100000000E-03 0.  1.
    9000002    1    1    2    0    0 -0.40716131287E+00 -0.51002273858E+00  0.30072734482E+00  0.11816024985E+01  0.93800000000E+00 0. -1.
         22    1    1    2    0    0  0.13879574912E+00  0.17428896696E+00  0.12626674094E+01  0.12821738926E+01  0.00000000000E+00 0. -1.
</event>
<event>
 5    1  0.1537976E+002  0.1599675E+01  0.7818608E-02  0.3353716E+00
         11   -1    0    0    0    0  0.00000000000E+00  0.00000000000E+00  0.39999999674E+01  0.40000000000E+01  0.51100000000E-03 0. -1.
    9000002   -1    0    0    0    0 -0.00000000000E+00 -0.00000000000E+00  0.00000000000E+00  0.93800000000E+00  0.93800000000E+00 0.  1.
         11    1    1    2    0    0  0.95774803709E-01 -0.10993098465E+00  0.13395013369E+01  0.13474129757E+01  0.51100000000E-03 0. -1.
    9000002    1    1    2    0    0 -0.28137938589E+00  0.32069498521E+00  0.12321462037E+00  0.10378080145E+01  0.93800000000E+00 0.  1.
         22    1    1    2    0    0  0.18560458218E+00 -0.21076400057E+00  0.25372840101E+01  0.25527790098E+01  0.00000000000E+00 0. -1.
</event>
<event>
 5    1  0.1537976E+002  0.1599671E+01  0.7818608E-02  0.3353721E+00
         11   -1    0    0    0    0  0.00000000000E+00  0.00000000000E+00  0.39999999674E+01  0.40000000000E+01  0.51100000000E-03 0. -1.
    9000002   -1    0    0    0    0 -0.00000000000E+00 -0.00000000000E+00  0.00000000000E+00  0.93800000000E+00  0.93800000000E+00 0.  1.
         11    1    1    2    0    0  0.20970900901E-01 -0.11006627639E+00  0.12598477061E+01  0.12648204883E+01  0.51100000000E-03 0. -1.
    9000002    1    1    2    0    0 -0.63242570758E-01  0.35046636910E+00  0.85101336117E-01  0.10069322400E+01  0.93800000000E+00 0.  1.
         22    1    1    2    0    0  0.42271669857E-01 -0.24040009270E+00  0.26550509251E+01  0.26662472717E+01  0.00000000000E+00 0. -1.
</event>
<event>
 5    1  0.1537976E+002  0.1599646E+01  0.7818608E-02  0.3353747E+00
         11   -1    0    0    0    0  0.00000000000E+00  0.00000000000E+00  0.39999999674E+01  0.40000000000E+01  0.51100000000E-03 0. -1.
    9000002   -1    0    0    0    0 -0.00000000000E+00 -0.00000000000E+00  0.00000000000E+00  0.93800000000E+00  0.93800000000E+00 0. -1.
         11    1    1    2    0    0  0.84899175044E-01  0.26575405418E-01  0.10765631991E+01  0.10802327087E+01  0.51100000000E-03 0. -1.
    9000002    1    1    2    0    0 -0.33087358133E+00 -0.96498707432E-01  0.79627555586E-01  0.10024838527E+01  0.93800000000E+00 0. -1.
         22    1    1    2    0    0  0.24597440629E+00  0.69923302015E-01  0.28438092126E+01  0.28552834386E+01  0.00000000000E+00 0. -1.
</event>
<event>
 5    1  0.1537976E+002  0.1598649E+01  0.7818608E-02  0.3354831E+00
         11   -1    0    0    0    0  0.00000000000E+00  0.00000000000E+00  0.39999999674E+01  0.40000000000E+01  0.51100000000E-03 0.  1.
    9000002   -1    0    0    0    0 -0.00000000000E+00 -0.00000000000E+00  0.00000000000E+00  0.93800000000E+00  0.93800000000E+00 0.  1.
         11    1    1    2    0    0 -0.44570594648E-01 -0.61415864147E-02  0.82073790307E+00  0.82197033015E+00  0.51100000000E-03 0.  1.
    9000002    1    1    2    0    0  0.21936252506E+00 -0.12115316517E+00  0.42503956844E-01  0.97182745031E+00  0.93800000000E+00 0.  1.
         22    1    1    2    0    0 -0.17479193041E+00  0.12729475158E+00  0.31367581074E+01  0.31442022195E+01  0.00000000000E+00 0.  1.
</event>
<event>
 5    1  0.1537976E+002  0.1493212E+01  0.7818608E-02  0.3478100E+00
         11   -1    0    0    0    0  0.00000000000E+00  0.00000000000E+00  0.39999999674E+01  0.40000000000E+01  0.51100000000E-03 0. -1.
    9000002   -1    0    0    0    0 -0.00000000000E+00 -0.00000000000E+00  0.00000000000E+00  0.93800000000E+00  0.93800000000E+00 0. -1.
         11    1    1    2    0    0  0.12406422275E+00  0.52196009155E+00  0.19930741934E+01  0.20640201719E+01  0.51100000000E-03 0. -1.
    9000002    1    1    2    0    0 -0.19221118029E+00 -0.25016071501E+00  0.15586501626E+00  0.10018300377E+01  0.93800000000E+00 0. -1.
         22    1    1    2    0    0  0.68146957540E-01 -0.27179937654E+00  0.18510607577E+01  0.18721497904E+01  0.00000000000E+00 0. -1.
</event>
<event>
 5    1  0.1537976E+002  0.1581946E+01  0.7818608E-02  0.3373195E+00
         11   -1    0    0    0    0  0.00000000000E+00  0.00000000000E+00  0.39999999674E+01  0.40000000000E+01  0.51100000000E-03 0.  1.
    9000002   -1    0    0    0    0 -0.00000000000E+00 -0.00000000000E+00  0.00000000000E+00  0.93800000000E+00  0.93800000000E+00 0. -1.
         11    1    1    2    0    0  0.16668762652E-02  0.12170826021E-01  0.21295554492E+01  0.21295909419E+01  0.51100000000E-03 0.  1.
    9000002    1    1    2    0    0  0.29056375541E+00 -0.54964847263E-01  0.72293167645E-01  0.98616364386E+00  0.93800000000E+00 0. -1.
         22    1    1    2    0    0 -0.29223063167E+00  0.42794021242E-01  0.17981513505E+01  0.18222454142E+01  0.00000000000E+00 0.  1.
</event>
<event>
 5    1  0.1537976E+002  0.1599055E+01  0.7818608E-02  0.3354389E+00
         11   -1    0    0    0    0  0.00000000000E+00  0.00000000000E+00  0.39999999674E+01  0.40000000000E+01  0.51100000000E-03 0. -1.
    9000002   -1    0    0    0    0 -0.00000000000E+00 -0.00000000000E+00  0.00000000000E+00  0.93800000000E+00  0.93800000000E+00 0. -1.
         11    1    1    2    0    0 -0.66008219099E-01  0.11121708714E+00  0.11372532168E+01  0.11445835338E+01  0.51100000000E-03 0. -1.
    9000002    1    1    2    0    0  0.14862707921E+00 -0.33052979285E+00  0.88692479081E-01  0.10094802170E+01  0.93800000000E+00 0. -1.
         22    1    1    2    0    0 -0.82618860116E-01  0.21931270571E+00  0.27740542715E+01  0.27839362493E+01  0.00000000000E+00 0. -1.
</event>
<event>
 5    1  0.1537976E+002  0.1599655E+01  0.7818608E-02  0.3353738E+00
         11   -1    0    0    0    0  0.00000000000E+00  0.00000000000E+00  0.39999999674E+01  0.40000000000E+01  0.51100000000E-03 0. -1.
    9000002   -1    0    0    0    0 -0.00000000000E+00 -0.00000000000E+00  0.00000000000E+00  0.93800000000E+00  0.93800000000E+00 0.  1.
         11    1    1    2    0    0  0.83207888269E-01 -0.19984209506E-01  0.10253633579E+01  0.10289281793E+01  0.51100000000E-03 0. -1.
    9000002    1    1    2    0    0 -0.30131671471E+00  0.70114837072E-01  0.63922177454E-01  0.98976658749E+00  0.93800000000E+00 0.  1.
         22    1    1    2    0    0  0.21810882644E+00 -0.50130627567E-01  0.29107144320E+01  0.29193052332E+01  0.00000000000E+00 0. -1.
</event>
<event>
 5    1  0.1537976E+002  0.1594099E+01  0.7818608E-02  0.3359793E+00
         11   -1    0    0    0    0  0.00000000000E+00  0.00000000000E+00  0.39999999674E+01  0.40000000000E+01  0.51100000000E-03 0. -1.
    9000002   -1    0    0    0    0 -0.00000000000E+00 -0.00000000000E+00  0.00000000000E+00  0.93800000000E+00  0.93800000000E+00 0. -1.
         11    1    1    2    0    0 -0.17157285443E+00  0.29212373594E-02  0.11007074700E+01  0.11140031300E+01  0.51100000000E-03 0. -1.
    9000002    1    1    2    0    0  0.39098011440E+00 -0.20194689924E+00  0.13612788158E+00  0.10449989474E+01  0.93800000000E+00 0. -1.
         22    1    1    2    0    0 -0.21940725997E+00  0.19902566188E+00  0.27631646157E+01  0.27789979225E+01  0.00000000000E+00 0.  1.
</event>
<event>
 5    1  0.1537976E+002  0.1553672E+01  0.7818608E-02  0.3405234E+00
         11   -1    0    0    0    0  0.00000000000E+00  0.00000000000E+00  0.39999999674E+01  0.40000000000E+01  0.51100000000E-03 0. -1.
    9000002   -1    0    0    0    0 -0.00000000000E+00 -0.00000000000E+00  0.00000000000E+00  0.93800000000E+00  0.93800000000E+00 0.  1.
         11    1    1    2    0    0 -0.10114370986E+00  0.20866573773E+00  0.18788575699E+01  0.18931131686E+01  0.51100000000E-03 0. -1.
    9000002    1    1    2    0    0  0.98467838110E-01  0.91140496631E-01  0.46495463318E-01  0.94868769012E+00  0.93800000000E+00 0.  1.
         22    1    1    2    0    0  0.26758717542E-02 -0.29980623436E+00  0.20746469342E+01  0.20961991413E+01  0.00000000000E+00 0. -1.
</event>
<event>
 5    1  0.1537976E+002  0.1599662E+01  0.7818608E-02  0.3353730E+00
         11   -1    0    0    0    0  0.00000000000E+00  0.00000000000E+00  0.39999999674E+01  0.40000000000E+01  0.51100000000E-03 0. -1.
    9000002   -1    0    0    0    0 -0.00000000000E+00 -0.00000000000E+00  0.00000000000E+00  0.93800000000E+00  0.93800000000E+00 0. -1.
         11    1    1    2    0    0  0.12143534593E+00 -0.88312567472E-01  0.13251553940E+01  0.13336351571E+01  0.51100000000E-03 0. -1.
    9000002    1    1    2    0    0 -0.36673528711E+00  0.25893138438E+00  0.13687406964E+00  0.10488654554E+01  0.93800000000E+00 0. -1.
         22    1    1    2    0    0  0.24529994118E+00 -0.17061881690E+00  0.25379705037E+01  0.25554993875E+01  0.00000000000E+00 0. -1.
</event>
<event>
 5    1  0.1537976E+002  0.1538823E+01  0.7818608E-02  0.3422563E+00
         11   -1    0    0    0    0  0.00000000000E+00  0.00000000000E+00  0.39999999674E+01  0.40000000000E+01  0.51100000000E-03 0.  1.
    9000002   -1    0    0    0    0 -0.00000000000E+00 -0.00000000000E+00  0.00000000000E+00  0.93800000000E+00  0.93800000000E+00 0.  1.
         11    1    1    2    0    0 -0.14406117990E+00 -0.21962994396E-01  0.28397778450E+00  0.31918590177E+00  0.51100000000E-03 0.  1.
    9000002    1    1    2    0    0 -0.15983639851E+00  0.30619214802E-01  0.64002940319E-01  0.95416224353E+00  0.93800000000E+00 0.  1.
         22    1    1    2    0    0  0.30389757841E+00 -0.86562204065E-02  0.36520192425E+01  0.36646518547E+01  0.00000000000E+00 0.  1.
</event>
<event>
 5    1  0.1537976E+002  0.1599543E+01  0.7818608E-02  0.3353859E+00
         11   -1    0    0    0    0  0.00000000000E+00  0.00000000000E+00  0.39999999674E+01  0.40000000000E+01  0.51100000000E-03 0.  1.
    9000002   -1    0    0    0    0 -0.00000000000E+00 -0.00000000000E+00  0.00000000000E+00  0.93800000000E+00  0.93800000000E+00 0. -1.
         11    1    1    2    0    0 -0.44630547948E-01 -0.36819260899E-01  0.70982200308E+00  0.71217629907E+00  0.51100000000E-03 0.  1.
    9000002    1    1    2    0    0  0.30461048872E+00  0.20921192635E+00  0.91875799020E-01  0.10123449720E+01  0.93800000000E+00 0. -1.
         22    1    1    2    0    0 -0.25997994077E+00 -0.17239266545E+00  0.31983021653E+01  0.32134787289E+01  0.00000000000E+00 0.  1.
</event>
<event>
 5    1  0.1537976E+002  0.1599677E+01  0.7818608E-02  0.3353714E+00
         11   -1    0    0    0    0  0.00000000000E+00  0.00000000000E+00  0.39999999674E+01  0.40000000000E+01  0.51100000000E-03 0. -1.
    9000002   -1    0    0    0    0 -0.00000000000E+00 -0.00000000000E+00  0.00000000000E+00  0.93800000000E+00  0.93800000000E+00 0. -1.
         11    1    1    2    0    0 -0.89972183960E-01 -0.57652342909E-01  0.13005265530E+01  0.13049093312E+01  0.51100000000E-03 0. -1.
    9000002    1    1    2    0    0  0.27210759654E+00  0.17345695695E+00  0.69619293034E-01  0.99439464297E+00  0.93800000000E+00 0. -1.
         22    1    1    2    0    0 -0.18213541258E+00 -0.11580461404E+00  0.26298541213E+01  0.26386960258E+01  0.00000000000E+00 0.  1.
</event>
<event>
 5    1  0.1537976E+002  0.1596564E+01  0.7818608E-02  0.3357101E+00
         11   -1    0    0    0    0  0.00000000000E+00  0.00000000000E+00  0.39999999674E+01  0.40000000000E+01  0.51100000000E-03 0.  1.
    9000002   -1    0    0    0    0 -0.00000000000E+00 -0.00000000000E+00  0.00000000000E+00  0.93800000000E+00  0.93800000000E+00 0. -1.
         11    1    1    2    0    0  0.32587776733E-01 -0.28201744997E-01  0.50861416139E+00  0.51043699700E+00  0.51100000000E-03 0.  1.
    9000002    1    1    2    0    0 -0.38116044225E+00 -0.10453857302E+00  0.10788990213E+00  0.10235701378E+01  0.93800000000E+00 0. -1.
         22    1    1    2    0    0  0.34857266552E+00  0.13274031802E+00  0.33834959038E+01  0.34039928652E+01  0.00000000000E+00 0.  1.
</event>
<event>
 5    1  0.1537976E+002  0.1599674E+01  0.7818608E-02  0.3353718E+00
         11   -1    0    0    0    0  0.00000000000E+00  0.00000000000E+00  0.39999999674E+01  0.40000000000E+01  0.51100000000E-03 0. -1.
    9000002   -1    0    0    0    0 -0.00000000000E+00 -0.00000000000E+00  0.00000000000E+00  0.93800000000E+00  0.93800000000E+00 0.  1.
         11    1    1    2    0    0  0.62993157392E-01  0.45537954886E-01  0.11076073034E+01  0.11103315013E+01  0.51100000000E-03 0. -1.
    9000002    1    1    2    0    0 -0.22879580388E+00 -0.16759661625E+00  0.53583040158E-01  0.98140271441E+00  0.93800000000E+00 0.  1.
         22    1    1    2    0    0  0.16580264649E+00  0.12205866136E+00  0.28388096238E+01  0.28462657843E+01  0.00000000000E+00 0. -1.
</event>
<event>
 5    1  0.1537976E+002  0.1599668E+01  0.7818608E-02  0.3353724E+00
         11   -1    0    0    0    0  0.00000000000E+00  0.00000000000E+00  0.39999999674E+01  0.40000000000E+01  0.51100000000E-03 0.  1.
    9000002   -1    0    0    0    0 -0.00000000000E+00 -0.00000000000E+00  0.00000000000E+00  0.93800000000E+00  0.93800000000E+00 0. -1.
         11    1    1    2    0    0 -0.86537453401E-01  0.12900928404E-01  0.11888833802E+01  0.11920986191E+01  0.51100000000E-03 0.  1.
    9000002    1    1    2    0    0  0.29218448958E+00 -0.52275033125E-01  0.58765182143E-01  0.98559718023E+00  0.93800000000E+00 0. -1.
         22    1    1    2    0    0 -0.20564703618E+00  0.39374104721E-01  0.27523514050E+01  0.27603042006E+01  0.00000000000E+00 0.  1.
</event>
<event>
 5    1  0.1537976E+002  0.1599548E+01  0.7818608E-02  0.3353854E+00
         11   -1    0    0    0    0  0.00000000000E+00  0.00000000000E+00  0.39999999674E+01  0.40000000000E+01  0.51100000000E-03 0.  1.
    9000002   -1    0    0    0    0 -0.00000000000E+00 -0.00000000000E+00  0.00000000000E+00  0.93800000000E+00  0.93800000000E+00 0.  1.
         11    1    1    2    0    0  0.88690874484E-01  0.16256724980E+00  0.16687634955E+01  0.16790074589E+01  0.51100000000E-03 0.  1.
    9000002    1    1    2    0    0 -0.21160679326E+00 -0.40656816566E+00  0.14296958975E+00  0.10537359308E+01  0.93800000000E+00 0.  1.
         22    1    1    2    0    0  0.12291591878E+00  0.24400091586E+00  0.21882668821E+01  0.22052566103E+01  0.00000000000E+00 0.  1.
</event>
<event>
 5    1  0.1537976E+002  0.1599626E+01  0.7818608E-02  0.3353769E+00
         11   -1    0    0    0    0  0.00000000000E+00  0.00000000000E+00  0.39999999674E+01  0.40000000000E+01  0.51100000000E-03 0. -1.
    9000002   -1    0    0    0    0 -0.00000000000E+00 -0.00000000000E+00  0.00000000000E+00  0.93800000000E+00  0.93800000000E+00 0. -1.
         11    1    1    2    0    0  0.32076630090E+00  0.30005731829E+00  0.24591581302E+01  0.24980761366E+01  0.51100000000E-03 0. -1.
    9000002    1    1    2    0    0 -0.47613082060E+00 -0.46120715979E+00  0.31109972742E+00  0.11899746396E+01  0.93800000000E+00 0. -1.
         22    1    1    2    0    0  0.15536451970E+00  0.16114984150E+00  0.12297421098E+01  0.12499492238E+01  0.00000000000E+00 0. -1.
</event>
<event>
 5    1  0.1537976E+002  0.1592504E+01  0.7818608E-02  0.3361540E+00
         11   -1    0    0    0    0  0.00000000000E+00  0.00000000000E+00  0.39999999674E+01  0.40000000000E+01  0.51100000000E-03 0. -1.
    9000002   -1    0    0    0    0 -0.00000000000E+00 -0.00000000000E+00  0.00000000000E+00  0.93800000000E+00  0.93800000000E+00 0.  1.
         11    1    1    2    0    0  0.51691882178E-01 -0.41379742214E-01  0.89441154046E+00  0.89685929698E+00  0.51100000000E-03 0. -1.
    9000002    1    1    2    0    0 -0.50890015889E+00  0.38627202255E+00  0.29476725270E+00  0.11725686250E+01  0.93800000000E+00 0.  1.
         22    1    1    2    0    0  0.45720827672E+00 -0.34489228034E+00  0.28108211742E+01  0.28685720780E+01  0.00000000000E+00 0. -1.
</event>
<event>
 5    1  0.1537976E+002  0.1599138E+01  0.7818608E-02  0.3354300E+00
         11   -1    0    0    0    0  0.00000000000E+00  0.00000000000E+00  0.39999999674E+01  0.40000000000E+01  0.51100000000E-03 0.  1.
    9000002   -1    0    0    0    0 -0.00000000000E+00 -0.00000000000E+00  0.00000000000E+00  0.93800000000E+00  0.93800000000E+00 0.  1.
         11    1    1    2    0    0 -0.86566651248E-02 -0.10043467340E-01  0.44656272529E-01  0.46585973044E-01  0.51100000000E-03 0.  1.
    9000002    1    1    2    0    0  0.35426888410E+00  0.48078356733E+00  0.24922760259E+00  0.11395690759E+01  0.93800000000E+00 0.  1.
         22    1    1    2    0    0 -0.34561221897E+00 -0.47074009999E+00  0.37061160922E+01  0.37518449511E+01  0.00000000000E+00 0.  1.
</event>
<event>
 5    1  0.1537976E+002  0.1599675E+01  0.7818608E-02  0.3353717E+00
         11   -1    0    0    0    0  0.00000000000E+00  0.00000000000E+00  0.39999999674E+01  0.40000000000E+01  0.51100000000E-03 0.  1.
    9000002   -1    0    0    0    0 -0.00000000000E+00 -0.00000000000E+00  0.00000000000E+00  0.93800000000E+00  0.93800000000E+00 0. -1.
         11    1    1    2    0    0  0.37500065246E-01 -0.10955356815E+00  0.81742966039E+00  0.82559054622E+00  0.51100000000E-03 0.  1.
    9000002    1    1    2    0    0 -0.17035766512E+00  0.50421288563E+00  0.19499939045E+00  0.10959567192E+01  0.93800000000E+00 0. -1.
         22    1    1    2    0    0  0.13285759987E+00 -0.39465931748E+00  0.29875709165E+01  0.30164527346E+01  0.00000000000E+00 0.  1.
</event>
<event>
 5    1  0.1537976E+002  0.1568247E+01  0.7818608E-02  0.3388565E+00
         11   -1    0    0    0    0  0.00000000000E+00  0.00000000000E+00  0.39999999674E+01  0.40000000000E+01  0.51100000000E-03 0.  1.
    9000002   -1    0    0    0    0 -0.00000000000E+00 -0.00000000000E+00  0.00000000000E+00  0.93800000000E+00  0.93800000000E+00 0. -1.
         11    1    1    2    0    0 -0.89117246575E-02  0.29194544098E+00  0.23804895939E+01  0.23983416201E+01  0.51100000000E-03 0.  1.
    9000002    1    1    2    0    0  0.32248941418E+00 -0.34324432363E+00  0.17928927449E+00  0.10648026728E+01  0.93800000000E+00 0. -1.
         22    1    1    2    0    0 -0.31357768952E+00  0.51298882648E-01  0.14402210990E+01  0.14748557071E+01  0.00000000000E+00 0.  1.
</event>
<event>
 5    1  0.1537976E+002  0.1599675E+01  0.7818608E-02  0.3353716E+00
         11   -1    0    0    0    0  0.00000000000E+00  0.00000000000E+00  0.39999999674E+01  0.40000000000E+01  0.51100000000E-03 0. -1.
    9000002   -1    0    0    0    0 -0.00000000000E+00 -0.00000000000E+00  0.00000000000E+00  0.93800000000E+00  0.93800000000E+00 0.  1.
         11    1    1    2    0    0 -0.26723650370E-01  0.15928799685E+00  0.11519613594E+01  0.11632291495E+01  0.51100000000E-03 0. -1.
    9000002    1    1    2    0    0  0.84829272075E-01 -0.52274593160E+00  0.19298407644E+00  0.10943245260E+01  0.93800000000E+00 0.  1.
         22    1    1    2    0    0 -0.58105621705E-01  0.36345793475E+00  0.26550545315E+01  0.26804463246E+01  0.00000000000E+00 0. -1.
</event>
<event>
 5    1  0.1537976E+002  0.1598923E+01  0.7818608E-02  0.3354534E+00
         11   -1    0    0    0    0  0.00000000000E+00  0.00000000000E+00  0.39999999674E+01  0.40000000000E+01  0.51100000000E-03 0.  1.
    9000002   -1    0    0    0    0 -0.00000000000E+00 -0.00000000000E+00  0.00000000000E+00  0.93800000000E+00  0.93800000000E+00 0. -1.
         11    1    1    2    0    0 -0.54656203904E-01  0.14884192267E-01  0.80541279901E+00  0.80740254999E+00  0.51100000000E-03 0.  1.
    9000002    1    1    2    0    0  0.28761393356E+00  0.56036249812E-01  0.57831327397E-01  0.98440352422E+00  0.93800000000E+00 0. -1.
         22    1    1    2    0    0 -0.23295772965E+00 -0.70920442079E-01  0.31367558410E+01  0.31461939258E+01  0.00000000000E+00 0.  1.
</event>
<event>
 5    1  0.1537976E+002  0.1599677E+01  0.7818608E-02  0.3353714E+00
         11   -1    0    0    0    0  0.00000000000E+00  0.00000000000E+00  0.39999999674E+01  0.40000000000E+01  0.51100000000E-03 0.  1.
    9000002   -1    0    0    0    0 -0.00000000000E+00 -0.00000000000E+00  0.00000000000E+00  0.93800000000E+00  0.93800000000E+00 0. -1.
         11    1    1    2    0    0 -0.31319669427E+00 -0.25770114596E+00  0.24595096011E+01  0.24927273795E+01  0.51100000000E-03 0.  1.
    9000002    1    1    2    0    0  0.47657371242E+00  0.39069661703E+00  0.26590254440E+00  0.11533926101E+01  0.93800000000E+00 0. -1.
         22    1    1    2    0    0 -0.16337701815E+00 -0.13299547107E+00  0.12745878219E+01  0.12918800104E+01  0.00000000000E+00 0.  1.
</event>
<event>
 5    1  0.1537976E+002  0.1599675E+01  0.7818608E-02  0.3353716E+00
         11   -1    0    0    0    0  0.00000000000E+00  0.00000000000E+00  0.39999999674E+01  0.40000000000E+01  0.51100000000E-03 0.  1.
    9000002   -1    0    0    0    0 -0.00000000000E+00 -0.00000000000E+00  0.00000000000E+00  0.93800000000E+00  0.93800000000E+00 0.  1.
         11    1    1    2    0    0 -0.18522569598E-01 -0.73559117564E-03  0.28985477367E+00  0.29044737495E+00  0.51100000000E-03 0.  1.
    9000002    1    1    2    0    0  0.24192569953E+00  0.88474480060E-02  0.38910100432E-01  0.96951756938E+00  0.93800000000E+00 0.  1.
         22    1    1    2    0    0 -0.22340312993E+00 -0.81118568304E-02  0.36712350933E+01  0.36780350557E+01  0.00000000000E+00 0.  1.
</event>
<event>
 5    1  0.1537976E+002  0.1599674E+01  0.7818608E-02  0.3353717E+00
         11   -1    0    0    0    0  0.00000000000E+00  0.00000000000E+00  0.39999999674E+01  0.40000000000E+01  0.51100000000E-03 0.  1.
    9000002   -1    0    0    0    0 -0.00000000000E+00 -0.00000000000E+00  0.00000000000E+00  0.93800000000E+00  0.93800000000E+00 0. -1.
         11    1    1    2    0    0  0.40503910440E-01  0.37391817487E-01  0.81725686026E+00  0.81911400400E+00  0.51100000000E-03 0.  1.
    9000002    1    1    2    0    0 -0.20306311523E+00 -0.18350626632E+00  0.49858548773E-01  0.97838594299E+00  0.93800000000E+00 0. -1.
         22    1    1    2    0    0  0.16255920479E+00  0.14611444884E+00  0.31328845583E+01  0.31405000530E+01  0.00000000000E+00 0.  1.
</event>
<event>
 5    1  0.1537976E+002  0.1594275E+01  0.7818608E-02  0.3359600E+00
         11   -1    0    0    0    0  0.00000000000E+00  0.00000000000E+00  0.39999999674E+01  0.40000000000E+01  0.51100000000E-03 0. -1.
    9000002   -1    0    0    0    0 -0.00000000000E+00 -0.00000000000E+00  0.00000000000E+00  0.93800000000E+00  0.93800000000E+00 0. -1.
         11    1    1    2    0    0 -0.22426032895E-01 -0.74208114328E-01  0.14668322638E+01  0.14688794786E+01  0.51100000000E-03 0. -1.
    9000002    1    1    2    0    0  0.25075094742E+00  0.70301001318E-01  0.49246422033E-01  0.97472430897E+00  0.93800000000E+00 0. -1.
         22    1    1    2    0    0 -0.22832491453E+00  0.39071130105E-02  0.24839212815E+01  0.24943962125E+01  0.00000000000E+00 0.  1.
</event>
<event>
 5    1  0.1537976E+002  0.1599676E+01  0.7818608E-02  0.3353715E+00
         11   -1    0    0    0    0  0.00000000000E+00  0.00000000000E+00  0.39999999674E+01  0.40000000000E+01  0.51100000000E-03 0. -1.
    9000002   -1    0    0    0    0 -0.00000000000E+00 -0.00000000000E+00  0.00000000000E+00  0.93800000000E+00  0.93800000000E+00 0.  1.
         11    1    1    2    0    0 -0.27711779908E+00 -0.99433630599E-01  0.20675447064E+01  0.20884019478E+01  0.51100000000E-03 0. -1.
    9000002    1    1    2    0    0  0.50999971949E+00  0.18455604547E+00  0.20288634650E+00  0.11023463691E+01  0.93800000000E+00 0.  1.
         22    1    1    2    0    0 -0.23288192041E+00 -0.85122414868E-01  0.17295689144E+01  0.17472516831E+01  0.00000000000E+00 0. -1.
</event>
<event>
 5    1  0.1537976E+002  0.1599663E+01  0.7818608E-02  0.3353730E+00
         11   -1    0    0    0    0  0.00000000000E+00  0.00000000000E+00  0.39999999674E+01  0.40000000000E+01  0.51100000000E-03 0.  1.
    9000002   -1    0    0    0    0 -0.00000000000E+00 -0.00000000000E+00  0.00000000000E+00  0.93800000000E+00  0.93800000000E+00 0.  1.
         11    1    1    2    0    0  0.17771873637E-01  0.10927856600E+00  0.12866393512E+01  0.12913941016E+01  0.51100000000E-03 0.  1.
    9000002    1    1    2    0    0 -0.47489840193E-01 -0.32241332906E+00  0.71041613875E-01  0.99553832200E+00  0.93800000000E+00 0.  1.
         22    1    1    2    0    0  0.29717966556E-01  0.21313476306E+00  0.26423190022E+01  0.26510675764E+01  0.00000000000E+00 0.  1.
</event>
<event>
 5    1  0.1537976E+002  0.1599677E+01  0.7818608E-02  0.3353714E+00
         11   -1    0    0    0    0  0.00000000000E+00  0.00000000000E+00  0.39999999674E+01  0.40000000000E+01  0.51100000000E-03 0.  1.
    9000002   -1    0    0    0    0 -0.00000000000E+00 -0.00000000000E+00  0.00000000000E+00  0.93800000000E+00  0.93800000000E+00 0. -1.
         11    1    1    2    0    0  0.11135728738E+00  0.92961087777E-01  0.12804323453E+01  0.12886230874E+01  0.51100000000E-03 0.  1.
    9000002    1    1    2    0    0 -0.33474756914E+00 -0.28109403149E+00  0.12952970682E+00  0.10429246064E+01  0.93800000000E+00 0. -1.
         22    1    1    2    0    0  0.22339028176E+00  0.18813294371E+00  0.25900379152E+01  0.26064523063E+01  0.00000000000E+00 0.  1.
</event>
<event>
 5    1  0.1537976E+002  0.1599608E+01  0.7818608E-02  0.3353789E+00
         11   -1    0    0    0    0  0.00000000000E+00  0.00000000000E+00  0.39999999674E+01  0.40000000000E+01  0.51100000000E-03 0. -1.
    9000002   -1    0    0    0    0 -0.00000000000E+00 -0.00000000000E+00  0.00000000000E+00  0.93800000000E+00  0.93800000000E+00 0.  1.
         11    1    1    2    0    0  0.55241448669E-02  0.20237837778E-02  0.78634675104E-01  0.78856103930E-01  0.51100000000E-03 0. -1.
    9000002    1    1    2    0    0 -0.39282785389E+00 -0.16587014445E+00  0.12313683681E+00  0.10377057908E+01  0.93800000000E+00 0.  1.
         22    1    1    2    0    0  0.38730370902E+00  0.16384636067E+00  0.37982284554E+01  0.38214381053E+01  0.00000000000E+00 0. -1.
</event>
<event>
 5    1  0.1537976E+002  0.1566084E+01  0.7818608E-02  0.3391018E+00
         11   -1    0    0    0    0  0.00000000000E+00  0.00000000000E+00  0.39999999674E+01  0.40000000000E+01  0.51100000000E-03 0.  1.
    9000002   -1    0    0    0    0 -0.00000000000E+00 -0.00000000000E+00  0.00000000000E+00  0.93800000000E+00  0.93800000000E+00 0. -1.
         11    1    1    2    0    0 -0.17413971716E+00 -0.16302210009E+00  0.19141867994E+01  0.19289925376E+01  0.51100000000E-03 0.  1.
    9000002    1    1    2    0    0  0.12162817950E+00 -0.51283414900E-01  0.36599032854E-01  0.94794878126E+00  0.93800000000E+00 0. -1.
         22    1    1    2    0    0  0.52511537655E-01  0.21430551499E+00  0.20492141351E+01  0.20610586811E+01  0.00000000000E+00 0.  1.
</event>
<event>
 5    1  0.2064149E+002  0.1561294E+01  0.7818608E-02  0.3396476E+00
         11   -1    0    0    0    0  0.00000000000E+00  0.00000000000E+00  0.39999999674E+01  0.40000000000E+01  0.51100000000E-03 0. -1.
    9000002   -1    0    0    0    0 -0.00000000000E+00 -0.00000000000E+00  0.00000000000E+00  0.93800000000E+00  0.93800000000E+00 0. -1.
         11    1    1    2    0    0  0.18379184767E+00  0.95638506228E-01  0.11107806276E+01  0.11299380651E+01  0.51100000000E-03 0. -1.
    9000002    1    1    2    0    0 -0.16497105274E-01  0.62849092248E-01  0.31198403004E-01  0.94076538161E+00  0.93800000000E+00 0. -1.
         22    1    1    2    0    0 -0.16729474240E+00 -0.15848759848E+00  0.28580209368E+01  0.28672965533E+01  0.00000000000E+00 0. -1.
</event>
<event>
 5    1  0.1537976E+002  0.1499905E+01  0.7818608E-02  0.3469724E+00
         11   -1    0    0    0    0  0.00000000000E+00  0.00000000000E+00  0.39999999674E+01  0.40000000000E+01  0.51100000000E-03 0.  1.
    9000002   -1    0    0    0    0 -0.00000000000E+00 -0.00000000000E+00  0.00000000000E+00  0.93800000000E+00  0.93800000000E+00 0.  1.
         11    1    1    2    0    0 -0.99574277903E-01  0.12082670376E+00  0.12557443989E+00  0.20070707570E+00  0.51100000000E-03 0.  1.
    9000002    1    1    2    0    0  0.27458525499E+00  0.74378915123E-01  0.13587747177E+00  0.98956352631E+00  0.93800000000E+00 0.  1.
         22    1    1    2    0    0 -0.17501097709E+00 -0.19520561889E+00  0.37385480557E+01  0.37477293980E+01  0.00000000000E+00 0.  1.
</event>
<event>
 5    1  0.1537976E+002  0.1597630E+01  0.7818608E-02  0.3355940E+00
         11   -1    0    0    0    0  0.00000000000E+00  0.00000000000E+00  0.39999999674E+01  0.40000000000E+01  0.51100000000E-03 0.  1.
    9000002   -1    0    0    0    0 -0.00000000000E+00 -0.00000000000E+00  0.00000000000E+00  0.93800000000E+00  0.93800000000E+00 0. -1.
         11    1    1    2    0    0 -0.14059928431E+00  0.66247082444E-01  0.11228359794E+01  0.11335421177E+01  0.51100000000E-03 0.  1.
    9000002    1    1    2    0    0  0.32519205136E+00 -0.17712061589E+00  0.93825604589E-01  0.10128024619E+01  0.93800000000E+00 0. -1.
         22    1    1    2    0    0 -0.18459276705E+00  0.11087353345E+00  0.27833383833E+01  0.27916554204E+01  0.00000000000E+00 0.  1.
</event>
<event>
 5    1  0.1537976E+002  0.1599677E+01  0.7818608E-02  0.3353715E+00
         11   -1    0    0    0    0  0.00000000000E+00  0.00000000000E+00  0.39999999674E+01  0.40000000000E+01  0.51100000000E-03 0. -1.
    9000002   -1    0    0    0    0 -0.00000000000E+00 -0.00000000000E+00  0.00000000000E+00  0.93800000000E+00  0.93800000000E+00 0.  1.
         11    1    1    2    0    0 -0.26959785505E-01  0.22097382175E+00  0.10752097678E+01  0.10980130080E+01  0.51100000000E-03 0.  1.
    9000002    1    1    2    0    0  0.92464940215E-01 -0.73857230850E+00  0.40096015024E+00  0.12627952574E+01  0.93800000000E+00 0.  1.
         22    1    1    2    0    0 -0.65505154710E-01  0.51759848675E+00  0.25238300494E+01  0.25771917346E+01  0.00000000000E+00 0. -1.
</event>
<event>
 5    1  0.1537976E+002  0.1599087E+01  0.7818608E-02  0.3354354E+00
         11   -1    0    0    0    0  0.00000000000E+00  0.00000000000E+00  0.39999999674E+01  0.40000000000E+01  0.51100000000E-03 0. -1.
    9000002   -1    0    0    0    0 -0.00000000000E+00 -0.00000000000E+00  0.00000000000E+00  0.93800000000E+00  0.93800000000E+00 0. -1.
         11    1    1    2    0    0  0.12556242023E+00 -0.15417903560E+00  0.14468591105E+01  0.14604583675E+01  0.51100000000E-03 0. -1.
    9000002    1    1    2    0    0 -0.33543774209E+00  0.33437113466E+00  0.15342432378E+00  0.10619348180E+01  0.93800000000E+00 0. -1.
         22    1    1    2    0    0  0.20987532186E+00 -0.18019209907E+00  0.23997165331E+01  0.24156068145E+01  0.00000000000E+00 0. -1.
</event>
<event>
 5    1  0.1537976E+002  0.1598389E+01  0.7818608E-02  0.3355113E+00
         11   -1    0    0    0    0  0.00000000000E+00  0.00000000000E+00  0.39999999674E+01  0.40000000000E+01  0.51100000000E-03 0. -1.
    9000002   -1    0    0    0    0 -0.00000000000E+00 -0.00000000000E+00  0.00000000000E+00  0.93800000000E+00  0.93800000000E+00 0.  1.
         11    1    1    2    0    0  0.63925423777E-01 -0.82239013531E-01  0.43520968226E+00  0.44750133386E+00  0.51100000000E-03 0. -1.
    9000002    1    1    2    0    0 -0.36491764824E+00  0.53741767084E+00  0.29909864885E+00  0.11795281449E+01  0.93800000000E+00 0.  1.
         22    1    1    2    0    0  0.30099222447E+00 -0.45517865731E+00  0.32656916363E+01  0.33109705212E+01  0.00000000000E+00 0. -1.
</event>
<event>
 5    1  0.1537976E+002  0.1599676E+01  0.7818608E-02  0.3353715E+00
         11   -1    0    0    0    0  0.00000000000E+00  0.00000000000E+00  0.39999999674E+01  0.40000000000E+01  0.51100000000E-03 0. -1.
    9000002   -1    0    0    0    0 -0.00000000000E+00 -0.00000000000E+00  0.00000000000E+00  0.93800000000E+00  0.93800000000E+00 0.  1.
         11    1    1    2    0    0 -0.13057548388E-01  0.10009067766E+00  0.13062193269E+01  0.13101136724E+01  0.51100000000E-03 0. -1.
    9000002    1    1    2    0    0  0.42729791372E-01 -0.30153444193E+00  0.61901059891E-01  0.98814199180E+00  0.93800000000E+00 0.  1.
         22    1    1    2    0    0 -0.29672242983E-01  0.20144376427E+00  0.26318795805E+01  0.26397443358E+01  0.00000000000E+00 0. -1.
</event>
<event>
 5    1  0.1537976E+002  0.1599672E+01  0.7818608E-02  0.3353719E+00
         11   -1    0    0    0    0  0.00000000000E+00  0.00000000000E+00  0.39999999674E+01  0.40000000000E+01  0.51100000000E-03 0.  1.
    9000002   -1    0    0    0    0 -0.00000000000E+00 -0.00000000000E+00  0.00000000000E+00  0.93800000000E+00  0.93800000000E+00 0. -1.
         11    1    1    2    0    0  0.95023179926E-02 -0.26903305892E-01  0.51895572057E+00  0.51973972616E+00  0.51100000000E-03 0.  1.
    9000002    1    1    2    0    0 -0.77760806713E-01  0.21773154778E+00  0.35463373985E-01  0.96672406655E+00  0.93800000000E+00 0. -1.
         22    1    1    2    0    0  0.68258488720E-01 -0.19082824188E+00  0.34455808728E+01  0.34515362073E+01  0.00000000000E+00 0.  1.
</event>
<event>
 5    1  0.1537976E+002  0.1581863E+01  0.7818608E-02  0.3373287E+00
         11   -1    0    0    0    0  0.00000000000E+00  0.00000000000E+00  0.39999999674E+01  0.40000000000E+01  0.51100000000E-03 0.  1.
    9000002   -1    0    0    0    0 -0.00000000000E+00 -0.00000000000E+00  0.00000000000E+00  0.93800000000E+00  0.93800000000E+00 0. -1.
         11    1    1    2    0    0  0.18794908028E+00 -0.70708174464E-02  0.25901425415E+01  0.25969623601E+01  0.51100000000E-03 0.  1.
    9000002    1    1    2    0    0 -0.36442539311E+00 -0.20043998582E+00  0.13207161921E+00  0.10345380455E+01  0.93800000000E+00 0. -1.
         22    1    1    2    0    0  0.17647631284E+00  0.20751080327E+00  0.12777858066E+01  0.13064995944E+01  0.00000000000E+00 0.  1.
</event>
<event>
 5    1  0.1537976E+002  0.1599654E+01  0.7818608E-02  0.3353739E+00
         11   -1    0    0    0    0  0.00000000000E+00  0.00000000000E+00  0.39999999674E+01  0.40000000000E+01  0.51100000000E-03 0. -1.
    9000002   -1    0    0    0    0 -0.00000000000E+00 -0.00000000000E+00  0.00000000000E+00  0.93800000000E+00  0.93800000000E+00 0.  1.
         11    1    1    2    0    0 -0.59326350123E-01  0.11144902031E+00  0.13531790050E+01  0.13590563567E+01  0.51100000000E-03 0. -1.
    9000002    1    1    2    0    0  0.17319188871E+00 -0.33728518145E+00  0.96734356147E-01  0.10163455414E+01  0.93800000000E+00 0.  1.
         22    1    1    2    0    0 -0.11386553859E+00  0.22583616114E+00  0.25500866062E+01  0.25625981019E+01  0.00000000000E+00 0. -1.
</event>
<event>
 5    1  0.1537976E+002  0.1589673E+01  0.7818608E-02  0.3364649E+00
         11   -1    0    0    0    0  0.00000000000E+00  0.00000000000E+00  0.39999999674E+01  0.40000000000E+01  0.51100000000E-03 0. -1.
    9000002   -1    0    0    0    0 -0.00000000000E+00 -0.00000000000E+00  0.00000000000E+00  0.93800000000E+00  0.93800000000E+00 0. -1.
         11    1    1    2    0    0  0.82392131994E-02 -0.21440212466E-02  0.18901581334E-02  0.87358617217E-02  0.51100000000E-03 0. -1.
    9000002    1    1    2    0    0  0.16579426939E+00 -0.21551218109E+00  0.56960988360E-01  0.97827490725E+00  0.93800000000E+00 0. -1.
         22    1    1    2    0    0 -0.17403348259E+00  0.21765620234E+00  0.39411488209E+01  0.39509892310E+01  0.00000000000E+00 0. -1.
</event>
<event>
 5    1  0.1537976E+002  0.1588626E+01  0.7818608E-02  0.3365802E+00
         11   -1    0    0    0    0  0.00000000000E+00  0.00000000000E+00  0.39999999674E+01  0.40000000000E+01  0.51100000000E-03 0.  1.
    9000002   -1    0    0    0    0 -0.00000000000E+00 -0.00000000000E+00  0.00000000000E+00  0.93800000000E+00  0.93800000000E+00 0.  1.
         11    1    1    2    0    0 -0.25945692574E-01 -0.51373870257E-01  0.18174293665E+00  0.19063895103E+00  0.51100000000E-03 0.  1.
    9000002    1    1    2    0    0 -0.25280551769E+00  0.27651679254E+00  0.10348176769E+00  0.10153445930E+01  0.93800000000E+00 0.  1.
         22    1    1    2    0    0  0.27875121027E+00 -0.22514292228E+00  0.37147752630E+01  0.37320164559E+01  0.00000000000E+00 0.  1.
</event>
<event>
 5    1  0.1537976E+002  0.1599676E+01  0.7818608E-02  0.3353715E+00
         11   -1    0    0    0    0  0.00000000000E+00  0.00000000000E+00  0.39999999674E+01  0.40000000000E+01  0.51100000000E-03 0. -1.
    9000002   -1    0    0    0    0 -0.00000000000E+00 -0.00000000000E+00  0.00000000000E+00  0.93800000000E+00  0.93800000000E+00 0.  1.
         11    1    1    2    0    0 -0.54834738456E-01 -0.38762249191E-01  0.78992513422E+00  0.79277445676E+00  0.51100000000E-03 0. -1.
    9000002    1    1    2    0    0  0.26941207861E+00  0.19505093896E+00  0.74039429445E-01  0.99797473615E+00  0.93800000000E+00 0.  1.
         22    1    1    2    0    0 -0.21457734015E+00 -0.15628868976E+00  0.31360354037E+01  0.31472508071E+01  0.00000000000E+00 0. -1.
</event>
<event>
 5    1  0.1537976E+002  0.1549868E+01  0.7818608E-02  0.3409639E+00
         11   -1    0    0    0    0  0.00000000000E+00  0.00000000000E+00  0.39999999674E+01  0.40000000000E+01  0.51100000000E-03 0. -1.
    9000002   -1    0    0    0    0 -0.00000000000E+00 -0.00000000000E+00  0.00000000000E+00  0.93800000000E+00  0.93800000000E+00 0. -1.
         11    1    1    2    0    0  0.81180324934E-01  0.31708847492E+00  0.19974075229E+01  0.20240485221E+01  0.51100000000E-03 0. -1.
    9000002    1    1    2    0    0 -0.24991596074E-01 -0.11354057042E+00  0.46315694507E-01  0.94631135709E+00  0.93800000000E+00 0. -1.
         22    1    1    2    0    0 -0.56188728859E-01 -0.20354790449E+00  0.19562767500E+01  0.19676401208E+01  0.00000000000E+00 0. -1.
</event>
<event>
 5    1  0.1537976E+002  0.1599295E+01  0.7818608E-02  0.3354129E+00
         11   -1    0    0    0    0  0.00000000000E+00  0.00000000000E+00  0.39999999674E+01  0.40000000000E+01  0.51100000000E-03 0.  1.
    9000002   -1    0    0    0    0 -0.00000000000E+00 -0.00000000000E+00  0.00000000000E+00  0.93800000000E+00  0.93800000000E+00 0. -1.
         11    1    1    2    0    0 -0.34351306961E-01  0.29800645801E-03  0.33710186773E+00  0.33884809494E+00  0.51100000000E-03 0.  1.
    9000002    1    1    2    0    0  0.41475769707E+00 -0.15419047354E+00  0.13316556579E+00  0.10456460765E+01  0.93800000000E+00 0. -1.
         22    1    1    2    0    0 -0.38040639011E+00  0.15389246708E+00  0.35297325338E+01  0.35535058285E+01  0.00000000000E+00 0.  1.
</event>
<event>
 5    1  0.1537976E+002  0.1599481E+01  0.7818608E-02  0.3353927E+00
         11   -1    0    0    0    0  0.00000000000E+00  0.00000000000E+00  0.39999999674E+01  0.40000000000E+01  0.51100000000E-03 0. -1.
    9000002   -1    0    0    0    0 -0.00000000000E+00 -0.00000000000E+00  0.00000000000E+00  0.93800000000E+00  0.93800000000E+00 0. -1.
         11    1    1    2    0    0 -0.10628315274E+00  0.10700867871E-02  0.14766074791E+01  0.14804280334E+01  0.51100000000E-03 0. -1.
    9000002    1    1    2    0    0  0.32047703232E+00  0.19180349106E-01  0.69056582174E-01  0.99382404156E+00  0.93800000000E+00 0. -1.
         22    1    1    2    0    0 -0.21419387958E+00 -0.20250435893E-01  0.24543359061E+01  0.24637479250E+01  0.00000000000E+00 0. -1.
</event>
<event>
 5    1  0.1537976E+002  0.1599676E+01  0.7818608E-02  0.3353715E+00
         11   -1    0    0    0    0  0.00000000000E+00  0.00000000000E+00  0.39999999674E+01  0.40000000000E+01  0.51100000000E-03 0.  1.
    9000002   -1    0    0    0    0 -0.00000000000E+00 -0.00000000000E+00  0.00000000000E+00  0.93800000000E+00  0.93800000000E+00 0.  1.
         11    1    1    2    0    0 -0.58303877433E-01  0.29787731035E-01  0.88688098305E+00  0.88929454640E+00  0.51100000000E-03 0.  1.
    9000002    1    1    2    0    0  0.26319600142E+00 -0.13497537860E+00  0.58344216690E-01  0.98526064349E+00  0.93800000000E+00 0.  1.
         22    1    1    2    0    0 -0.20489212399E+00  0.10518764757E+00  0.30547747676E+01  0.30634448101E+01  0.00000000000E+00 0.  1.
</event>
<event>
 5    1  0.1537976E+002  0.1599638E+01  0.7818608E-02  0.3353757E+00
         11   -1    0    0    0    0  0.00000000000E+00  0.00000000000E+00  0.39999999674E+01  0.40000000000E+01  0.51100000000E-03 0. -1.
    9000002   -1    0    0    0    0 -0.00000000000E+00 -0.00000000000E+00  0.00000000000E+00  0.93800000000E+00  0.93800000000E+00 0. -1.
         11    1    1    2    0    0  0.61129903312E-01 -0.20836783281E-01  0.83683490731E+00  0.83932351321E+00  0.51100000000E-03 0. -1.
    9000002    1    1    2    0    0 -0.29678990408E+00  0.70556521947E-01  0.62143382726E-01  0.98831587560E+00  0.93800000000E+00 0. -1.
         22    1    1    2    0    0  0.23566000077E+00 -0.49719738666E-01  0.31010216773E+01  0.31103606112E+01  0.00000000000E+00 0. -1.
</event>
<event>
 5    1  0.1537976E+002  0.1599564E+01  0.7818608E-02  0.3353837E+00
         11   -1    0    0    0    0  0.00000000000E+00  0.00000000000E+00  0.39999999674E+01  0.40000000000E+01  0.51100000000E-03 0. -1.
    9000002   -1    0    0    0    0 -0.00000000000E+00 -0.00000000000E+00  0.00000000000E+00  0.93800000000E+00  0.93800000000E+00 0. -1.
         11    1    1    2    0    0 -0.17244367011E+00  0.17550567253E+00  0.17804783571E+01  0.17973988154E+01  0.51100000000E-03 0. -1.
    9000002    1    1    2    0    0  0.34441163773E+00 -0.36821400051E+00  0.17423979158E+00  0.10790757301E+01  0.93800000000E+00 0. -1.
         22    1    1    2    0    0 -0.17196796762E+00  0.19270832798E+00  0.20452818187E+01  0.20615254545E+01  0.00000000000E+00 0. -1.
</event>
<event>
 5    1  0.1537976E+002  0.1599675E+01  0.7818608E-02  0.3353716E+00
         11   -1    0    0    0    0  0.00000000000E+00  0.00000000000E+00  0.39999999674E+01  0.40000000000E+01  0.51100000000E-03 0.  1.
    9000002   -1    0    0    0    0 -0.00000000000E+00 -0.00000000000E+00  0.00000000000E+00  0.93800000000E+00  0.93800000000E+00 0.  1.
         11    1    1    2    0    0  0.81546514499E-01 -0.73496428749E-01  0.80971288609E+00  0.81712103026E+00  0.51100000000E-03 0. -1.
    9000002    1    1    2    0    0 -0.37826824583E+00  0.34650311767E+00  0.18054314706E+00  0.10842467912E+01  0.93800000000E+00 0.  1.
         22    1    1    2    0    0  0.29672173133E+00 -0.27300668892E+00  0.30097439342E+01  0.30366321785E+01  0.00000000000E+00 0.  1.
</event>
<event>
 5    1  0.1537976E+002  0.1599627E+01  0.7818608E-02  0.3353768E+00
         11   -1    0    0    0    0  0.00000000000E+00  0.00000000000E+00  0.39999999674E+01  0.40000000000E+01  0.51100000000E-03 0.  1.
    9000002   -1    0    0    0    0 -0.00000000000E+00 -0.00000000000E+00  0.00000000000E+00  0.93800000000E+00  0.93800000000E+00 0. -1.
         11    1    1    2    0    0 -0.49277282040E-01 -0.61131221724E+00  0.12784328554E+01  0.14179286668E+01  0.51100000000E-03 0.  1.
    9000002    1    1    2    0    0  0.11456979080E+00  0.12144037663E+01  0.14643784937E+01  0.21241824586E+01  0.93800000000E+00 0. -1.
         22    1    1    2    0    0 -0.65292508762E-01 -0.60309154904E+00  0.12571886182E+01  0.13958888745E+01  0.00000000000E+00 0. -1.
</event>
<event>
 5    1  0.1537976E+002  0.1597649E+01  0.7818608E-02  0.3355919E+00
         11   -1    0    0    0    0  0.00000000000E+00  0.00000000000E+00  0.39999999674E+01  0.40000000000E+01  0.51100000000E-03 0. -1.
    9000002   -1    0    0    0    0 -0.00000000000E+00 -0.00000000000E+00  0.00000000000E+00  0.93800000000E+00  0.93800000000E+00 0. -1.
         11    1    1    2    0    0  0.47140125398E-01 -0.73876793262E-01  0.63223134702E+00  0.63827635808E+00  0.51100000000E-03 0. -1.
    9000002    1    1    2    0    0 -0.21756084294E+00  0.22268921246E+00  0.66326785921E-01  0.99053846380E+00  0.93800000000E+00 0. -1.
         22    1    1    2    0    0  0.17042071755E+00 -0.14881241920E+00  0.33014418344E+01  0.33091851781E+01  0.00000000000E+00 0. -1.
</event>
<event>
 5    1  0.1537976E+002  0.1599677E+01  0.7818608E-02  0.3353714E+00
         11   -1    0    0    0    0  0.00000000000E+00  0.00000000000E+00  0.39999999674E+01  0.40000000000E+01  0.51100000000E-03 0.  1.
    9000002   -1    0    0    0    0 -0.00000000000E+00 -0.00000000000E+00  0.00000000000E+00  0.93800000000E+00  0.93800000000E+00 0.  1.
         11    1    1    2    0    0 -0.10153686967E+00 -0.50662172685E+00  0.20945393808E+01  0.21573295503E+01  0.51100000000E-03 0.  1.
    9000002    1    1    2    0    0  0.16785924565E+00  0.83648180664E+00  0.54657205270E+00  0.13807474599E+01  0.93800000000E+00 0.  1.
         22    1    1    2    0    0 -0.66322375975E-01 -0.32986007978E+00  0.13588885339E+01  0.13999229898E+01  0.00000000000E+00 0. -1.
</event>
<event>
 5    1  0.1537976E+002  0.1599676E+01  0.7818608E-02  0.3353715E+00
         11   -1    0    0    0    0  0.00000000000E+00  0.00000000000E+00  0.39999999674E+01  0.40000000000E+01  0.51100000000E-03 0.  1.
    9000002   -1    0    0    0    0 -0.00000000000E+00 -0.00000000000E+00  0.00000000000E+00  0.93800000000E+00  0.93800000000E+00 0.  1.
         11    1    1    2    0    0 -0.15798183239E-01 -0.20898161219E-01  0.20206861378E+00  0.20376040227E+00  0.51100000000E-03 0. -1.
    9000002    1    1    2    0    0  0.29784514987E+00  0.39794077259E+00  0.16904986897E+00  0.10749374168E+01  0.93800000000E+00 0.  1.
         22    1    1    2    0    0 -0.28204696663E+00 -0.37704261137E+00  0.36288814846E+01  0.36593021810E+01  0.00000000000E+00 0.  1.
</event>
<event>
 5    1  0.1537976E+002  0.1481737E+01  0.7818608E-02  0.3492653E+00
         11   -1    0    0    0    0  0.00000000000E+00  0.00000000000E+00  0.39999999674E+01  0.40000000000E+01  0.51100000000E-03 0.  1.
    9000002   -1    0    0    0    0 -0.00000000000E+00 -0.00000000000E+00  0.00000000000E+00  0.93800000000E+00  0.93800000000E+00 0.  1.
         11    1    1    2    0    0  0.15440132809E+00 -0.19470428658E+00  0.36176549563E+00  0.43888958096E+00  0.51100000000E-03 0.  1.
    9000002    1    1    2    0    0 -0.69513695865E-01 -0.65582120659E-01  0.97585658569E-01  0.94789246712E+00  0.93800000000E+00 0.  1.
         22    1    1    2    0    0 -0.84887632226E-01  0.26028640723E+00  0.35406488132E+01  0.35512179519E+01  0.00000000000E+00 0.  1.
</event>
<event>
 5    1  0.1537976E+002  0.1598786E+01  0.7818608E-02  0.3354682E+00
         11   -1    0    0    0    0  0.00000000000E+00  0.00000000000E+00  0.39999999674E+01  0.40000000000E+01  0.51100000000E-03 0. -1.
    9000002   -1    0    0    0    0 -0.00000000000E+00 -0.00000000000E+00  0.00000000000E+00  0.93800000000E+00  0.93800000000E+00 0. -1.
         11    1    1    2    0    0  0.31082098202E-01  0.75973646418E-01  0.14301595468E+01  0.14325134143E+01  0.51100000000E-03 0. -1.
    9000002    1    1    2    0    0 -0.20555364088E-01 -0.27923439737E+00  0.52894320425E-01  0.98032452831E+00  0.93800000000E+00 0. -1.
         22    1    1    2    0    0 -0.10526734115E-01  0.20326075096E+00  0.25169461002E+01  0.25251620574E+01  0.00000000000E+00 0. -1.
</event>
<event>
 5    1  0.1537976E+002  0.1599677E+01  0.7818608E-02  0.3353714E+00
         11   -1    0    0    0    0  0.00000000000E+00  0.00000000000E+00  0.39999999674E+01  0.40000000000E+01  0.51100000000E-03 0.  1.
    9000002   -1    0    0    0    0 -0.00000000000E+00 -0.00000000000E+00  0.00000000000E+00  0.93800000000E+00  0.93800000000E+00 0.  1.
         11    1    1    2    0    0 -0.14389857014E+00 -0.68793306411E-01  0.16579176257E+01  0.16655721036E+01  0.51100000000E-03 0. -1.
    9000002    1    1    2    0    0  0.33990315424E+00  0.16093340903E+00  0.95117600536E-01  0.10150492965E+01  0.93800000000E+00 0.  1.
         22    1    1    2    0    0 -0.19600458410E+00 -0.92140102620E-01  0.22469647411E+01  0.22573785999E+01  0.00000000000E+00 0.  1.
</event>
<event>
 5    1  0.1537976E+002  0.1599609E+01  0.7818608E-02  0.3353788E+00
         11   -1    0    0    0    0  0.00000000000E+00  0.00000000000E+00  0.39999999674E+01  0.40000000000E+01  0.51100000000E-03 0.  1.
    9000002   -1    0    0    0    0 -0.00000000000E+00 -0.00000000000E+00  0.00000000000E+00  0.93800000000E+00  0.93800000000E+00 0.  1.
         11    1    1    2    0    0  0.13274129703E-01 -0.23535034857E-02  0.29665559958E+00  0.29696219857E+00  0.51100000000E-03 0.  1.
    9000002    1    1    2    0    0 -0.22368893122E+00 -0.20806458448E-01  0.33516637050E-01  0.96510984433E+00  0.93800000000E+00 0.  1.
         22    1    1    2    0    0  0.21041480152E+00  0.23159961934E-01  0.36698277307E+01  0.36759279571E+01  0.00000000000E+00 0.  1.
</event>
<event>
 5    1  0.1537976E+002  0.1599668E+01  0.7818608E-02  0.3353724E+00
         11   -1    0    0    0    0  0.00000000000E+00  0.00000000000E+00  0.39999999674E+01  0.40000000000E+01  0.51100000000E-03 0.  1.
    9000002   -1    0    0    0    0 -0.00000000000E+00 -0.00000000000E+00  0.00000000000E+00  0.93800000000E+00  0.93800000000E+00 0. -1.
         11    1    1    2    0    0 -0.11577244500E+00  0.79526538192E-02  0.14458196239E+01  0.14504692860E+01  0.51100000000E-03 0.  1.
    9000002    1    1    2    0    0  0.31971114399E+00 -0.13680305022E-01  0.68452718394E-01  0.99344458376E+00  0.93800000000E+00 0. -1.
         22    1    1    2    0    0 -0.20393869900E+00  0.57276512031E-02  0.24857276251E+01  0.24940861302E+01  0.00000000000E+00 0.  1.
</event>
<event>
 5    1  0.1537976E+002  0.1599387E+01  0.7818608E-02  0.3354029E+00
         11   -1    0    0    0    0  0.00000000000E+00  0.00000000000E+00  0.39999999674E+01  0.40000000000E+01  0.51100000000E-03 0.  1.
    9000002   -1    0    0    0    0 -0.00000000000E+00 -0.00000000000E+00  0.00000000000E+00  0.93800000000E+00  0.93800000000E+00 0.  1.
         11    1    1    2    0    0  0.26013351104E-01 -0.19037353537E-01  0.46301024711E+00  0.46413130181E+00  0.51100000000E-03 0.  1.
    9000002    1    1    2    0    0 -0.25279823639E+00  0.54273696056E-01  0.44661981730E-01  0.97400784135E+00  0.93800000000E+00 0.  1.
         22    1    1    2    0    0  0.22678488528E+00 -0.35236342519E-01  0.34923277385E+01  0.34998608568E+01  0.00000000000E+00 0.  1.
</event>
<event>
 5    1  0.1537976E+002  0.1589578E+01  0.7818608E-02  0.3364754E+00
         11   -1    0    0    0    0  0.00000000000E+00  0.00000000000E+00  0.39999999674E+01  0.40000000000E+01  0.51100000000E-03 0. -1.
    9000002   -1    0    0    0    0 -0.00000000000E+00 -0.00000000000E+00  0.00000000000E+00  0.93800000000E+00  0.93800000000E+00 0. -1.
         11    1    1    2    0    0  0.13786347575E+00 -0.95013106068E-01  0.58429716423E+00  0.60781351212E+00  0.51100000000E-03 0. -1.
    9000002    1    1    2    0    0 -0.35155916604E+00  0.41925859389E+00  0.21623307568E+00  0.11072363609E+01  0.93800000000E+00 0. -1.
         22    1    1    2    0    0  0.21369569029E+00 -0.32424548782E+00  0.31994697274E+01  0.32229501270E+01  0.00000000000E+00 0. -1.
</event>
<event>
 5    1  0.1537976E+002  0.1599632E+01  0.7818608E-02  0.3353763E+00
         11   -1    0    0    0    0  0.00000000000E+00  0.00000000000E+00  0.39999999674E+01  0.40000000000E+01  0.51100000000E-03 0.  1.
    9000002   -1    0    0    0    0 -0.00000000000E+00 -0.00000000000E+00  0.00000000000E+00  0.93800000000E+00  0.93800000000E+00 0. -1.
         11    1    1    2    0    0  0.29000516529E-03  0.24367947854E-05  0.29105287486E-01  0.29111217590E-01  0.51100000000E-03 0.  1.
    9000002    1    1    2    0    0 -0.19323366568E+00 -0.85120789241E-01  0.29570496309E-01  0.96192682288E+00  0.93800000000E+00 0. -1.
         22    1    1    2    0    0  0.19294366052E+00  0.85118352446E-01  0.39413241836E+01  0.39469619595E+01  0.00000000000E+00 0.  1.
</event>
<event>
 5    1  0.1537976E+002  0.1598444E+01  0.7818608E-02  0.3355054E+00
         11   -1    0    0    0    0  0.00000000000E+00  0.00000000000E+00  0.39999999674E+01  0.40000000000E+01  0.51100000000E-03 0. -1.
    9000002   -1    0    0    0    0 -0.00000000000E+00 -0.00000000000E+00  0.00000000000E+00  0.93800000000E+00  0.93800000000E+00 0.  1.
         11    1    1    2    0    0  0.33921610445E-01  0.65777673097E-01  0.92405809326E+00  0.92701725916E+00  0.51100000000E-03 0. -1.
    9000002    1    1    2    0    0 -0.25442657483E+00 -0.17444581396E+00  0.64505897718E-01  0.98952980492E+00  0.93800000000E+00 0.  1.
         22    1    1    2    0    0  0.22050496438E+00  0.10866814086E+00  0.30114359764E+01  0.30214529359E+01  0.00000000000E+00 0. -1.
</event>
<event>
 5    1  0.1537976E+002  0.1548192E+01  0.7818608E-02  0.3411587E+00
         11   -1    0    0    0    0  0.00000000000E+00  0.00000000000E+00  0.39999999674E+01  0.40000000000E+01  0.51100000000E-03 0. -1.
    9000002   -1    0    0    0    0 -0.00000000000E+00 -0.00000000000E+00  0.00000000000E+00  0.93800000000E+00  0.93800000000E+00 0.  1.
         11    1    1    2    0    0  0.12538106899E-01  0.20604252159E+00  0.61154835918E+00  0.64544742742E+00  0.51100000000E-03 0. -1.
    9000002    1    1    2    0    0  0.22351290067E+00 -0.75987429796E-01  0.77174377841E-01  0.97032571379E+00  0.93800000000E+00 0.  1.
         22    1    1    2    0    0 -0.23605100757E+00 -0.13005509180E+00  0.33112772303E+01  0.33222268588E+01  0.00000000000E+00 0. -1.
</event>
<event>
 5    1  0.1537976E+002  0.1599672E+01  0.7818608E-02  0.3353719E+00
         11   -1    0    0    0    0  0.00000000000E+00  0.00000000000E+00  0.39999999674E+01  0.40000000000E+01  0.51100000000E-03 0. -1.
    9000002   -1    0    0    0    0 -0.00000000000E+00 -0.00000000000E+00  0.00000000000E+00  0.93800000000E+00  0.93800000000E+00 0. -1.
         11    1    1    2    0    0 -0.27683171974E-01 -0.96644548896E-02  0.51104973220E+00  0.51189046641E+00  0.51100000000E-03 0. -1.
    9000002    1    1    2    0    0  0.22767244108E+00  0.74538562087E-01  0.38097798515E-01  0.96885818360E+00  0.93800000000E+00 0. -1.
         22    1    1    2    0    0 -0.19998926911E+00 -0.64874107197E-01  0.34508524366E+01  0.34572513500E+01  0.00000000000E+00 0. -1.
</event>
<event>
 5    1  0.1537976E+002  0.1599190E+01  0.7818608E-02  0.3354244E+00
         11   -1    0    0    0    0  0.00000000000E+00  0.00000000000E+00  0.39999999674E+01  0.40000000000E+01  0.51100000000E-03 0.  1.
    9000002   -1    0    0    0    0 -0.00000000000E+00 -0.00000000000E+00  0.00000000000E+00  0.93800000000E+00  0.93800000000E+00 0. -1.
         11    1    1    2    0    0 -0.59216874461E-01  0.59486194632E-01  0.87712359637E+00  0.88113069972E+00  0.51100000000E-03 0.  1.
    9000002    1    1    2    0    0  0.24292830113E+00 -0.17049116842E+00  0.59123672482E-01  0.98560692299E+00  0.93800000000E+00 0. -1.
         22    1    1    2    0    0 -0.18371142667E+00  0.11100497379E+00  0.30637526985E+01  0.30712623773E+01  0.00000000000E+00 0.  1.
</event>
<event>
 5    1  0.1537976E+002  0.1599552E+01  0.7818608E-02  0.3353849E+00
         11   -1    0    0    0    0  0.00000000000E+00  0.00000000000E+00  0.39999999674E+01  0.40000000000E+01  0.51100000000E-03 0. -1.
    9000002   -1    0    0    0    0 -0.00000000000E+00 -0.00000000000E+00  0.00000000000E+00  0.93800000000E+00  0.93800000000E+00 0. -1.
         11    1    1    2    0    0 -0.19478098345E-01  0.13451000618E+00  0.13749875810E+01  0.13816886217E+01  0.51100000000E-03 0. -1.
    9000002    1    1    2    0    0  0.19652118359E-01 -0.37458687235E+00  0.94715837462E-01  0.10146509846E+01  0.93800000000E+00 0. -1.
         22    1    1    2    0    0 -0.17402001437E-03  0.24007686616E+00  0.25302965489E+01  0.25416603937E+01  0.00000000000E+00 0.  1.
</event>
<event>
 5    1  0.1537976E+002  0.1503429E+01  0.7818608E-02  0.3465346E+00
         11   -1    0    0    0    0  0.00000000000E+00  0.00000000000E+00  0.39999999674E+01  0.40000000000E+01  0.51100000000E-03 0. -1.
    9000002   -1    0    0    0    0 -0.00000000000E+00 -0.00000000000E+00  0.00000000000E+00  0.93800000000E+00  0.93800000000E+00 0.  1.
         11    1    1    2    0    0 -0.13547251654E-01 -0.23930198896E+00  0.40059303873E+00  0.46682332177E+00  0.51100000000E-03 0. -1.
    9000002    1    1    2    0    0  0.28736509387E+00  0.49045763227E-01  0.13584857031E+00  0.99160628181E+00  0.93800000000E+00 0.  1.
         22    1    1    2    0    0 -0.27381784222E+00  0.19025622574E+00  0.34635583583E+01  0.34795703964E+01  0.00000000000E+00 0. -1.
</event>
<event>
 5    1  0.1537976E+002  0.1598764E+01  0.7818608E-02  0.3354706E+00
         11   -1    0    0    0    0  0.00000000000E+00  0.00000000000E+00  0.39999999674E+01  0.40000000000E+01  0.51100000000E-03 0. -1.
    9000002   -1    0    0    0    0 -0.00000000000E+00 -0.00000000000E+00  0.00000000000E+00  0.93800000000E+00  0.93800000000E+00 0. -1.
         11    1    1    2    0    0  0.23562851602E-01 -0.57194589465E-01  0.51458795413E+00  0.51829282524E+00  0.51100000000E-03 0. -1.
    9000002    1    1    2    0    0 -0.83063351147E-01  0.27709162929E+00  0.56479489948E-01  0.98321575664E+00  0.93800000000E+00 0. -1.
         22    1    1    2    0    0  0.59500499545E-01 -0.21989703982E+00  0.34289325233E+01  0.34364914181E+01  0.00000000000E+00 0. -1.
</event>
<event>
 5    1  0.1537976E+002  0.1582287E+01  0.7818608E-02  0.3372816E+00
         11   -1    0    0    0    0  0.00000000000E+00  0.00000000000E+00  0.39999999674E+01  0.40000000000E+01  0.51100000000E-03 0. -1.
    9000002   -1    0    0    0    0 -0.00000000000E+00 -0.00000000000E+00  0.00000000000E+00  0.93800000000E+00  0.93800000000E+00 0. -1.
         11    1    1    2    0    0  0.15727012856E+00 -0.94222718227E-01  0.15093517972E+01  0.15204456329E+01  0.51100000000E-03 0. -1.
    9000002    1    1    2    0    0 -0.40327327660E+00 -0.15512858960E+00  0.14143771104E+00  0.10423736571E+01  0.93800000000E+00 0. -1.
         22    1    1    2    0    0  0.24600314804E+00  0.24935130783E+00  0.23492104592E+01  0.23751807100E+01  0.00000000000E+00 0. -1.
</event>
<event>
 5    1  0.1537976E+002  0.1599320E+01  0.7818608E-02  0.3354102E+00
         11   -1    0    0    0    0  0.00000000000E+00  0.00000000000E+00  0.39999999674E+01  0.40000000000E+01  0.51100000000E-03 0. -1.
    9000002   -1    0    0    0    0 -0.00000000000E+00 -0.00000000000E+00  0.00000000000E+00  0.93800000000E+00  0.93800000000E+00 0. -1.
         11    1    1    2    0    0  0.15015191328E-01  0.17847190680E-01  0.11419394752E+00  0.11655255020E+00  0.51100000000E-03 0. -1.
    9000002    1    1    2    0    0 -0.49502311991E+00 -0.32864320571E+00  0.24637422471E+00  0.11373647192E+01  0.93800000000E+00 0. -1.
         22    1    1    2    0    0  0.48000792858E+00  0.31079601503E+00  0.36394317951E+01  0.36840827306E+01  0.00000000000E+00 0. -1.
</event>
<event>
 5    1  0.1537976E+002  0.1588912E+01  0.7818608E-02  0.3365486E+00
         11   -1    0    0    0    0  0.00000000000E+00  0.00000000000E+00  0.39999999674E+01  0.40000000000E+01  0.51100000000E-03 0.  1.
    9000002   -1    0    0    0    0 -0.00000000000E+00 -0.00000000000E+00  0.00000000000E+00  0.93800000000E+00  0.93800000000E+00 0. -1.
         11    1    1    2    0    0  0.27263407586E-01 -0.42758597920E-01  0.18472781146E+00  0.19156256559E+00  0.51100000000E-03 0.  1.
    9000002    1    1    2    0    0  0.28110839203E+00  0.17453721237E+00  0.81880490859E-01  0.99801482021E+00  0.93800000000E+00 0. -1.
         22    1    1    2    0    0 -0.30837179962E+00 -0.13177861445E+00  0.37333916650E+01  0.37484226142E+01  0.00000000000E+00 0.  1.
</event>
<event>
 5    1  0.1537976E+002  0.1598162E+01  0.7818608E-02  0.3355361E+00
         11   -1    0    0    0    0  0.00000000000E+00  0.00000000000E+00  0.39999999674E+01  0.40000000000E+01  0.51100000000E-03 0.  1.
    9000002   -1    0    0    0    0 -0.00000000000E+00 -0.00000000000E+00  0.00000000000E+00  0.93800000000E+00  0.93800000000E+00 0.  1.
         11    1    1    2    0    0  0.27659781491E-01  0.24828036921E-01  0.26254605424E+00  0.26516445208E+00  0.51100000000E-03 0.  1.
    9000002    1    1    2    0    0 -0.77144663088E-01 -0.27671655020E+00  0.56167586675E-01  0.98260986459E+00  0.93800000000E+00 0.  1.
         22    1    1    2    0    0  0.49484881597E-01  0.25188851328E+00  0.36812863264E+01  0.36902256833E+01  0.00000000000E+00 0.  1.
</event>
<event>
 5    1  0.1537976E+002  0.1599677E+01  0.7818608E-02  0.3353714E+00
         11   -1    0    0    0    0  0.00000000000E+00  0.00000000000E+00  0.39999999674E+01  0.40000000000E+01  0.51100000000E-03 0.  1.
    9000002   -1    0    0    0    0 -0.00000000000E+00 -0.00000000000E+00  0.00000000000E+00  0.93800000000E+00  0.93800000000E+00 0. -1.
         11    1    1    2    0    0  0.17857809687E+00  0.15736051607E+00  0.20097200243E+01  0.20237656253E+01  0.51100000000E-03 0.  1.
    9000002    1    1    2    0    0 -0.34289097904E+00 -0.30253604851E+00  0.14217296537E+00  0.10531663858E+01  0.93800000000E+00 0. -1.
         22    1    1    2    0    0  0.16431288217E+00  0.14517553244E+00  0.18481069776E+01  0.18610679889E+01  0.00000000000E+00 0.  1.
</event>
<event>
 5    1  0.1537976E+002  0.1584507E+01  0.7818608E-02  0.3370352E+00
         11   -1    0    0    0    0  0.00000000000E+00  0.00000000000E+00  0.39999999674E+01  0.40000000000E+01  0.51100000000E-03 0.  1.
    9000002   -1    0    0    0    0 -0.00000000000E+00 -0.00000000000E+00  0.00000000000E+00  0.93800000000E+00  0.93800000000E+00 0.  1.
         11    1    1    2    0    0 -0.23649951390E+00  0.32976196798E+00  0.20000935297E+01  0.20408452573E+01  0.51100000000E-03 0.  1.
    9000002    1    1    2    0    0  0.17922392089E+00 -0.53514205912E+00  0.23527146908E+00  0.11196851796E+01  0.93800000000E+00 0.  1.
         22    1    1    2    0    0  0.57275593007E-01  0.20538009114E+00  0.17646349685E+01  0.17774695631E+01  0.00000000000E+00 0. -1.
</event>
<event>
 5    1  0.1537976E+002  0.1599677E+01  0.7818608E-02  0.3353714E+00
         11   -1    0    0    0    0  0.00000000000E+00  0.00000000000E+00  0.39999999674E+01  0.40000000000E+01  0.51100000000E-03 0.  1.
    9000002   -1    0    0    0    0 -0.00000000000E+00 -0.00000000000E+00  0.00000000000E+00  0.93800000000E+00  0.93800000000E+00 0.  1.
         11    1    1    2    0    0 -0.93513044745E-01 -0.65557382441E+00  0.24063783295E+01  0.24958322569E+01  0.51100000000E-03 0.  1.
    9000002    1    1    2    0    0  0.13009379016E+00  0.91093929138E+00  0.65395221643E+00  0.14677303186E+01  0.93800000000E+00 0.  1.
         22    1    1    2    0    0 -0.36580745418E-01 -0.25536546697E+00  0.93966942142E+00  0.97443742447E+00  0.00000000000E+00 0.  1.
</event>
<event>
 5    1  0.1537976E+002  0.1599673E+01  0.7818608E-02  0.3353719E+00
         11   -1    0    0    0    0  0.00000000000E+00  0.00000000000E+00  0.39999999674E+01  0.40000000000E+01  0.51100000000E-03 0.  1.
    9000002   -1    0    0    0    0 -0.00000000000E+00 -0.00000000000E+00  0.00000000000E+00  0.93800000000E+00  0.93800000000E+00 0.  1.
         11    1    1    2    0    0 -0.38200702449E-01 -0.29131221212E-01  0.72917068973E+00  0.73075172090E+00  0.51100000000E-03 0.  1.
    9000002    1    1    2    0    0  0.19712208391E+00  0.15578521608E+00  0.41941470932E-01  0.97197182907E+00  0.93800000000E+00 0.  1.
         22    1    1    2    0    0 -0.15892138146E+00 -0.12665399487E+00  0.32288878067E+01  0.32352764500E+01  0.00000000000E+00 0.  1.
</event>
<event>
 5    1  0.1537976E+002  0.1597870E+01  0.7818608E-02  0.3355679E+00
         11   -1    0    0    0    0  0.00000000000E+00  0.00000000000E+00  0.39999999674E+01  0.40000000000E+01  0.51100000000E-03 0. -1.
    9000002   -1    0    0    0    0 -0.00000000000E+00 -0.00000000000E+00  0.00000000000E+00  0.93800000000E+00  0.93800000000E+00 0.  1.
         11    1    1    2    0    0  0.70231057193E-01 -0.40349749239E-01  0.68627934020E+00  0.69104276102E+00  0.51100000000E-03 0. -1.
    9000002    1    1    2    0    0 -0.32832205443E+00  0.20716089559E-01  0.73841574989E-01  0.99675528892E+00  0.93800000000E+00 0.  1.
         22    1    1    2    0    0  0.25809099724E+00  0.19633659680E-01  0.32398790522E+01  0.32502019501E+01  0.00000000000E+00 0. -1.
</event>
<event>
 5    1  0.1537976E+002  0.1541483E+01  0.7818608E-02  0.3419432E+00
         11   -1    0    0    0    0  0.00000000000E+00  0.00000000000E+00  0.39999999674E+01  0.40000000000E+01  0.51100000000E-03 0. -1.
    9000002   -1    0    0    0    0 -0.00000000000E+00 -0.00000000000E+00  0.00000000000E+00  0.93800000000E+00  0.93800000000E+00 0. -1.
         11    1    1    2    0    0 -0.49329980142E+00 -0.21139924747E+00  0.15482413448E+01  0.16386231595E+01  0.51100000000E-03 0. -1.
    9000002    1    1    2    0    0  0.54163467735E+00  0.79805901941E+00  0.84639708572E+00  0.15894962563E+01  0.93800000000E+00 0. -1.
         22    1    1    2    0    0 -0.48334875927E-01 -0.58665977194E+00  0.16053615368E+01  0.17098805842E+01  0.00000000000E+00 0. -1.
</event>
<event>
 5    1  0.1537976E+002  0.1599569E+01  0.7818608E-02  0.3353831E+00
         11   -1    0    0    0    0  0.00000000000E+00  0.00000000000E+00  0.39999999674E+01  0.40000000000E+01  0.51100000000E-03 0.  1.
    9000002   -1    0    0    0    0 -0.00000000000E+00 -0.00000000000E+00  0.00000000000E+00  0.93800000000E+00  0.93800000000E+00 0.  1.
         11    1    1    2    0    0  0.14595888540E-01 -0.10651508552E-01  0.36839191097E+00  0.36883513361E+00  0.51100000000E-03 0.  1.
    9000002    1    1    2    0    0 -0.16551460118E+00  0.19182925796E+00  0.42736652079E-01  0.97255538086E+00  0.93800000000E+00 0.  1.
         22    1    1    2    0    0  0.15091871264E+00 -0.18117774941E+00  0.35888714043E+01  0.35966094855E+01  0.00000000000E+00 0.  1.
</event>
<event>
 5    1  0.1537976E+002  0.1599415E+01  0.7818608E-02  0.3353999E+00
         11   -1    0    0    0    0  0.00000000000E+00  0.00000000000E+00  0.39999999674E+01  0.40000000000E+01  0.51100000000E-03 0. -1.
    9000002   -1    0    0    0    0 -0.00000000000E+00 -0.00000000000E+00  0.00000000000E+00  0.93800000000E+00  0.93800000000E+00 0. -1.
         11    1    1    2    0    0 -0.62811905467E+00 -0.43422395925E+00  0.23264948309E+01  0.24486041846E+01  0.51100000000E-03 0. -1.
    9000002    1    1    2    0    0  0.86310987215E+00  0.57749659669E+00  0.88871593275E+00  0.16577457524E+01  0.93800000000E+00 0. -1.
         22    1    1    2    0    0 -0.23499081748E+00 -0.14327263744E+00  0.78478920373E+00  0.83165006296E+00  0.00000000000E+00 0.  1.
</event>
<event>
 5    1  0.1537976E+002  0.1599549E+01  0.7818608E-02  0.3353853E+00
         11   -1    0    0    0    0  0.00000000000E+00  0.00000000000E+00  0.39999999674E+01  0.40000000000E+01  0.51100000000E-03 0.  1.
    9000002   -1    0    0    0    0 -0.00000000000E+00 -0.00000000000E+00  0.00000000000E+00  0.93800000000E+00  0.93800000000E+00 0. -1.
         11    1    1    2    0    0  0.27447133917E-01 -0.10138947012E+00  0.95424154687E+00  0.96000539618E+00  0.51100000000E-03 0.  1.
    9000002    1    1    2    0    0 -0.13538429178E+00  0.44982618801E+00  0.15043844887E+00  0.10597868808E+01  0.93800000000E+00 0. -1.
         22    1    1    2    0    0  0.10793715786E+00 -0.34843671789E+00  0.28953199716E+01  0.29182077230E+01  0.00000000000E+00 0.  1.
</event>
<event>
 5    1  0.1537976E+002  0.1599616E+01  0.7818608E-02  0.3353780E+00
         11   -1    0    0    0    0  0.00000000000E+00  0.00000000000E+00  0.39999999674E+01  0.40000000000E+01  0.51100000000E-03 0.  1.
    9000002   -1    0    0    0    0 -0.00000000000E+00 -0.00000000000E+00  0.00000000000E+00  0.93800000000E+00  0.93800000000E+00 0. -1.
         11    1    1    2    0    0 -0.13472739480E+00  0.70405212536E-01  0.15388045076E+01  0.15462949068E+01  0.51100000000E-03 0.  1.
    9000002    1    1    2    0    0  0.31913847300E+00 -0.18270087782E+00  0.90904859361E-01  0.10116010425E+01  0.93800000000E+00 0. -1.
         22    1    1    2    0    0 -0.18441107819E+00  0.11229566528E+00  0.23702906004E+01  0.23801040507E+01  0.00000000000E+00 0.  1.
</event>
<event>
 5    1  0.1537976E+002  0.1528215E+01  0.7818608E-02  0.3435162E+00
         11   -1    0    0    0    0  0.00000000000E+00  0.00000000000E+00  0.39999999674E+01  0.40000000000E+01  0.51100000000E-03 0. -1.
    9000002   -1    0    0    0    0 -0.00000000000E+00 -0.00000000000E+00  0.00000000000E+00  0.93800000000E+00  0.93800000000E+00 0.  1.
         11    1    1    2    0    0 -0.88178471381E-01 -0.19558159132E+00  0.59623486514E+00  0.63365911751E+00  0.51100000000E-03 0. -1.
    9000002    1    1    2    0    0 -0.13035398830E+00 -0.68765120470E-01  0.69029319208E-01  0.95201357709E+00  0.93800000000E+00 0.  1.
         22    1    1    2    0    0  0.21853245969E+00  0.26434671179E+00  0.33347357830E+01  0.33523273054E+01  0.00000000000E+00 0. -1.
</event>
<event>
 5    1  0.1537976E+002  0.1599676E+01  0.7818608E-02  0.3353715E+00
         11   -1    0    0    0    0  0.00000000000E+00  0.00000000000E+00  0.39999999674E+01  0.40000000000E+01  0.51100000000E-03 0. -1.
    9000002   -1    0    0    0    0 -0.00000000000E+00 -0.00000000000E+00  0.00000000000E+00  0.93800000000E+00  0.93800000000E+00 0.  1.
         11    1    1    2    0    0 -0.19348339575E-01  0.30812238443E-01  0.43285002470E+00  0.43437674579E+00  0.51100000000E-03 0. -1.
    9000002    1    1    2    0    0  0.17401205904E+00 -0.28268573681E+00  0.73742203252E-01  0.99773410036E+00  0.93800000000E+00 0.  1.
         22    1    1    2    0    0 -0.15466371946E+00  0.25187349836E+00  0.34934077394E+01  0.35058891538E+01  0.00000000000E+00 0. -1.
</event>
<event>
 5    1  0.1537976E+002  0.1599677E+01  0.7818608E-02  0.3353714E+00
         11   -1    0    0    0    0  0.00000000000E+00  0.00000000000E+00  0.39999999674E+01  0.40000000000E+01  0.51100000000E-03 0. -1.
    9000002   -1    0    0    0    0 -0.00000000000E+00 -0.00000000000E+00  0.00000000000E+00  0.93800000000E+00  0.93800000000E+00 0. -1.
         11    1    1    2    0    0  0.19914470100E+00  0.28286055249E-01  0.16524467753E+01  0.16646439016E+01  0.51100000000E-03 0. -1.
    9000002    1    1    2    0    0 -0.46283176697E+00 -0.65849456346E-01  0.14882795182E+00  0.10585571098E+01  0.93800000000E+00 0. -1.
         22    1    1    2    0    0  0.26368706598E+00  0.37563401097E-01  0.21987252403E+01  0.22147989886E+01  0.00000000000E+00 0. -1.
</event>
<event>
 5    1  0.1537976E+002  0.1599665E+01  0.7818608E-02  0.3353728E+00
         11   -1    0    0    0    0  0.00000000000E+00  0.00000000000E+00  0.39999999674E+01  0.40000000000E+01  0.51100000000E-03 0. -1.
    9000002   -1    0    0    0    0 -0.00000000000E+00 -0.00000000000E+00  0.00000000000E+00  0.93800000000E+00  0.93800000000E+00 0. -1.
         11    1    1    2    0    0  0.12910760682E+00 -0.86507658941E-01  0.12720058494E+01  0.12814645884E+01  0.51100000000E-03 0. -1.
    9000002    1    1    2    0    0 -0.38082016692E+00  0.26855166863E+00  0.14784732561E+00  0.10577555625E+01  0.93800000000E+00 0. -1.
         22    1    1    2    0    0  0.25171256009E+00 -0.18204400968E+00  0.25801467923E+01  0.25987798492E+01  0.00000000000E+00 0.  1.
</event>
<event>
 5    1  0.1537976E+002  0.1599669E+01  0.7818608E-02  0.3353723E+00
         11   -1    0    0    0    0  0.00000000000E+00  0.00000000000E+00  0.39999999674E+01  0.40000000000E+01  0.51100000000E-03 0.  1.
    9000002   -1    0    0    0    0 -0.00000000000E+00 -0.00000000000E+00  0.00000000000E+00  0.93800000000E+00  0.93800000000E+00 0. -1.
         11    1    1    2    0    0  0.88619786510E-01 -0.18977859285E-01  0.11837999779E+01  0.11872641974E+01  0.51100000000E-03 0.  1.
    9000002    1    1    2    0    0 -0.29145821605E+00  0.53384372480E-01  0.58557285200E-01  0.98542921541E+00  0.93800000000E+00 0. -1.
         22    1    1    2    0    0  0.20283842954E+00 -0.34406513195E-01  0.27576427043E+01  0.27653065872E+01  0.00000000000E+00 0.  1.
</event>
<event>
 5    1  0.1537976E+002  0.1596938E+01  0.7818608E-02  0.3356694E+00
         11   -1    0    0    0    0  0.00000000000E+00  0.00000000000E+00  0.39999999674E+01  0.40000000000E+01  0.51100000000E-03 0. -1.
    9000002   -1    0    0    0    0 -0.00000000000E+00 -0.00000000000E+00  0.00000000000E+00  0.93800000000E+00  0.93800000000E+00 0.  1.
         11    1    1    2    0    0 -0.15872902743E+00 -0.11415264512E-01  0.18416199732E+01  0.18484830535E+01  0.51100000000E-03 0. -1.
    9000002    1    1    2    0    0  0.30288734252E+00  0.15347313675E+00  0.79413744427E-01  0.10007223835E+01  0.93800000000E+00 0.  1.
         22    1    1    2    0    0 -0.14415831509E+00 -0.14205787224E+00  0.20789662498E+01  0.20887945630E+01  0.00000000000E+00 0.  1.
</event>
<event>
 5    1  0.1537976E+002  0.1524999E+01  0.7818608E-02  0.3439019E+00
         11   -1    0    0    0    0  0.00000000000E+00  0.00000000000E+00  0.39999999674E+01  0.40000000000E+01  0.51100000000E-03 0.  1.
    9000002   -1    0    0    0    0 -0.00000000000E+00 -0.00000000000E+00  0.00000000000E+00  0.93800000000E+00  0.93800000000E+00 0. -1.
         11    1    1    2    0    0 -0.23744301937E+00  0.10431729880E+00  0.19097746103E+01  0.19273039743E+01  0.51100000000E-03 0.  1.
    9000002    1    1    2    0    0 -0.78435178107E-01  0.15423551506E+00  0.77472907996E-01  0.95696746169E+00  0.93800000000E+00 0. -1.
         22    1    1    2    0    0  0.31587819748E+00 -0.25855281385E+00  0.20127524491E+01  0.20537285640E+01  0.00000000000E+00 0.  1.
</event>
<event>
 5    1  0.1537976E+002  0.1597694E+01  0.7818608E-02  0.3355870E+00
         11   -1    0    0    0    0  0.00000000000E+00  0.00000000000E+00  0.39999999674E+01  0.40000000000E+01  0.51100000000E-03 0.  1.
    9000002   -1    0    0    0    0 -0.00000000000E+00 -0.00000000000E+00  0.00000000000E+00  0.93800000000E+00  0.93800000000E+00 0.  1.
         11    1    1    2    0    0 -0.47640540776E-02 -0.59781564311E-02  0.81255095352E+00  0.81258707088E+00  0.51100000000E-03 0.  1.
    9000002    1    1    2    0    0  0.91484734799E-01  0.22882183526E+00  0.41845544779E-01  0.97073371148E+00  0.93800000000E+00 0.  1.
         22    1    1    2    0    0 -0.86720680721E-01 -0.22284367882E+00  0.31456034691E+01  0.31546792176E+01  0.00000000000E+00 0.  1.
</event>
<event>
 5    1  0.1537976E+002  0.1599544E+01  0.7818608E-02  0.3353859E+00
         11   -1    0    0    0    0  0.00000000000E+00  0.00000000000E+00  0.39999999674E+01  0.40000000000E+01  0.51100000000E-03 0.  1.
    9000002   -1    0    0    0    0 -0.00000000000E+00 -0.00000000000E+00  0.00000000000E+00  0.93800000000E+00  0.93800000000E+00 0.  1.
         11    1    1    2    0    0  0.17152078732E+00  0.98781094390E-01  0.89214352305E+00  0.91383664401E+00  0.51100000000E-03 0.  1.
    9000002    1    1    2    0    0 -0.64825425234E+00 -0.37329091769E+00  0.40557890784E+00  0.12664588171E+01  0.93800000000E+00 0.  1.
         22    1    1    2    0    0  0.47673346502E+00  0.27450982330E+00  0.27022775365E+01  0.27577045389E+01  0.00000000000E+00 0.  1.
</event>
<event>
 5    1  0.1537976E+002  0.1559134E+01  0.7818608E-02  0.3398948E+00
         11   -1    0    0    0    0  0.00000000000E+00  0.00000000000E+00  0.39999999674E+01  0.40000000000E+01  0.51100000000E-03 0.  1.
    9000002   -1    0    0    0    0 -0.00000000000E+00 -0.00000000000E+00  0.00000000000E+00  0.93800000000E+00  0.93800000000E+00 0. -1.
         11    1    1    2    0    0  0.22833555053E+00 -0.12924232337E+00  0.15333297706E+01  0.15556160029E+01  0.51100000000E-03 0.  1.
    9000002    1    1    2    0    0 -0.10422900901E+00 -0.35667987949E-01  0.38262786008E-01  0.94522163140E+00  0.93800000000E+00 0. -1.
         22    1    1    2    0    0 -0.12410654152E+00  0.16491031131E+00  0.24284074107E+01  0.24371623657E+01  0.00000000000E+00 0.  1.
</event>
<event>
 5    1  0.1537976E+002  0.1536036E+01  0.7818608E-02  0.3425855E+00
         11   -1    0    0    0    0  0.00000000000E+00  0.00000000000E+00  0.39999999674E+01  0.40000000000E+01  0.51100000000E-03 0. -1.
    9000002   -1    0    0    0    0 -0.00000000000E+00 -0.00000000000E+00  0.00000000000E+00  0.93800000000E+00  0.93800000000E+00 0. -1.
         11    1    1    2    0    0 -0.81839591064E-01 -0.40599715724E-01  0.74819429727E-01  0.11808583221E+00  0.51100000000E-03 0. -1.
    9000002    1    1    2    0    0 -0.29622897057E-01 -0.13951702321E+00  0.61865078528E-01  0.95079640499E+00  0.93800000000E+00 0. -1.
         22    1    1    2    0    0  0.11146248812E+00  0.18011673893E+00  0.38633154591E+01  0.38691177628E+01  0.00000000000E+00 0. -1.
</event>
<event>
 5    1  0.1537976E+002  0.1598171E+01  0.7818608E-02  0.3355351E+00
         11   -1    0    0    0    0  0.00000000000E+00  0.00000000000E+00  0.39999999674E+01  0.40000000000E+01  0.51100000000E-03 0.  1.
    9000002   -1    0    0    0    0 -0.00000000000E+00 -0.00000000000E+00  0.00000000000E+00  0.93800000000E+00  0.93800000000E+00 0. -1.
         11    1    1    2    0    0 -0.28264551611E+00  0.36077896204E+00  0.21468964906E+01  0.21952709969E+01  0.51100000000E-03 0.  1.
    9000002    1    1    2    0    0  0.52197785349E+00 -0.54463950224E+00  0.41492374040E+00  0.12732237735E+01  0.93800000000E+00 0. -1.
         22    1    1    2    0    0 -0.23933233738E+00  0.18386054021E+00  0.14381797364E+01  0.14695052297E+01  0.00000000000E+00 0.  1.
</event>
<event>
 5    1  0.1537976E+002  0.1580067E+01  0.7818608E-02  0.3375286E+00
         11   -1    0    0    0    0  0.00000000000E+00  0.00000000000E+00  0.39999999674E+01  0.40000000000E+01  0.51100000000E-03 0.  1.
    9000002   -1    0    0    0    0 -0.00000000000E+00 -0.00000000000E+00  0.00000000000E+00  0.93800000000E+00  0.93800000000E+00 0.  1.
         11    1    1    2    0    0 -0.63289776330E-01  0.14218314477E-03  0.26660195919E+01  0.26667707703E+01  0.51100000000E-03 0.  1.
    9000002    1    1    2    0    0 -0.93277936361E-01  0.14306621267E+00  0.33980451840E-01  0.95402693134E+00  0.93800000000E+00 0.  1.
         22    1    1    2    0    0  0.15656771269E+00 -0.14320839582E+00  0.12999999236E+01  0.13172022983E+01  0.00000000000E+00 0. -1.
</event>
<event>
 5    1  0.1537976E+002  0.1494796E+01  0.7818608E-02  0.3476111E+00
         11   -1    0    0    0    0  0.00000000000E+00  0.00000000000E+00  0.39999999674E+01  0.40000000000E+01  0.51100000000E-03 0. -1.
    9000002   -1    0    0    0    0 -0.00000000000E+00 -0.00000000000E+00  0.00000000000E+00  0.93800000000E+00  0.93800000000E+00 0. -1.
         11    1    1    2    0    0  0.12814028558E+00 -0.21568423547E+00  0.25562560777E+00  0.35816802578E+00  0.51100000000E-03 0. -1.
    9000002    1    1    2    0    0 -0.26750727481E+00  0.39607901305E+00  0.25522823563E+00  0.10832470535E+01  0.93800000000E+00 0. -1.
         22    1    1    2    0    0  0.13936698923E+00 -0.18039477758E+00  0.34891461240E+01  0.34965849207E+01  0.00000000000E+00 0. -1.
</event>
<event>
 5    1  0.1537976E+002  0.1586675E+01  0.7818608E-02  0.3367954E+00
         11   -1    0    0    0    0  0.00000000000E+00  0.00000000000E+00  0.39999999674E+01  0.40000000000E+01  0.51100000000E-03 0. -1.
    9000002   -1    0    0    0    0 -0.00000000000E+00 -0.00000000000E+00  0.00000000000E+00  0.93800000000E+00  0.93800000000E+00 0.  1.
         11    1    1    2    0    0 -0.16526826187E-01 -0.49731287866E-01  0.24695936625E+00  0.25245896038E+00  0.51100000000E-03 0. -1.
    9000002    1    1    2    0    0 -0.34092132635E+00 -0.83170211066E-01  0.93127984234E-01  0.10058138278E+01  0.93800000000E+00 0.  1.
         22    1    1    2    0    0  0.35744815253E+00  0.13290149893E+00  0.36599126169E+01  0.36797272118E+01  0.00000000000E+00 0. -1.
</event>
<event>
 5    1  0.1537976E+002  0.1584522E+01  0.7818608E-02  0.3370336E+00
         11   -1    0    0    0    0  0.00000000000E+00  0.00000000000E+00  0.39999999674E+01  0.40000000000E+01  0.51100000000E-03 0.  1.
    9000002   -1    0    0    0    0 -0.00000000000E+00 -0.00000000000E+00  0.00000000000E+00  0.93800000000E+00  0.93800000000E+00 0. -1.
         11    1    1    2    0    0  0.17413666311E+00 -0.38570588388E+00  0.17241169057E+01  0.17752948972E+01  0.51100000000E-03 0.  1.
    9000002    1    1    2    0    0 -0.13770810742E+00  0.61263898232E+00  0.29251104083E+00  0.11660603563E+01  0.93800000000E+00 0. -1.
         22    1    1    2    0    0 -0.36428555688E-01 -0.22693309844E+00  0.19833720208E+01  0.19966447465E+01  0.00000000000E+00 0.  1.
</event>
<event>
 5    1  0.1537976E+002  0.1599415E+01  0.7818608E-02  0.3353998E+00
         11   -1    0    0    0    0  0.00000000000E+00  0.00000000000E+00  0.39999999674E+01  0.40000000000E+01  0.51100000000E-03 0. -1.
    9000002   -1    0    0    0    0 -0.00000000000E+00 -0.00000000000E+00  0.00000000000E+00  0.93800000000E+00  0.93800000000E+00 0.  1.
         11    1    1    2    0    0 -0.72470494845E-01  0.55315197572E-01  0.82253466012E+00  0.82757191344E+00  0.51100000000E-03 0. -1.
    9000002    1    1    2    0    0  0.35226142044E+00 -0.33183042977E+00  0.16013236175E+00  0.10675607316E+01  0.93800000000E+00 0.  1.
         22    1    1    2    0    0 -0.27979092560E+00  0.27651523220E+00  0.30173329455E+01  0.30428673549E+01  0.00000000000E+00 0. -1.
</event>
<event>
 5    1  0.1537976E+002  0.1599481E+01  0.7818608E-02  0.3353927E+00
         11   -1    0    0    0    0  0.00000000000E+00  0.00000000000E+00  0.39999999674E+01  0.40000000000E+01  0.51100000000E-03 0.  1.
    9000002   -1    0    0    0    0 -0.00000000000E+00 -0.00000000000E+00  0.00000000000E+00  0.93800000000E+00  0.93800000000E+00 0. -1.
         11    1    1    2    0    0  0.74121488587E-03  0.75863497184E-02  0.91058875461E-01  0.91378783220E-01  0.51100000000E-03 0.  1.
    9000002    1    1    2    0    0 -0.24449280425E+00 -0.36152349400E+00  0.12928218962E+00  0.10426091562E+01  0.93800000000E+00 0. -1.
         22    1    1    2    0    0  0.24375158937E+00  0.35393714428E+00  0.37796589023E+01  0.38040120606E+01  0.00000000000E+00 0.  1.
</event>
<event>
 5    1  0.1537976E+002  0.1598899E+01  0.7818608E-02  0.3354560E+00
         11   -1    0    0    0    0  0.00000000000E+00  0.00000000000E+00  0.39999999674E+01  0.40000000000E+01  0.51100000000E-03 0. -1.
    9000002   -1    0    0    0    0 -0.00000000000E+00 -0.00000000000E+00  0.00000000000E+00  0.93800000000E+00  0.93800000000E+00 0. -1.
         11    1    1    2    0    0 -0.64307466397E-01 -0.10569507540E-01  0.57768547682E+00  0.58135009759E+00  0.51100000000E-03 0. -1.
    9000002    1    1    2    0    0  0.31164435113E+00  0.17508001147E+00  0.86375806202E-01  0.10075117825E+01  0.93800000000E+00 0. -1.
         22    1    1    2    0    0 -0.24733688473E+00 -0.16451050393E+00  0.33359386843E+01  0.33491381199E+01  0.00000000000E+00 0. -1.
</event>
<event>
 5    1  0.1537976E+002  0.1591224E+01  0.7818608E-02  0.3362944E+00
         11   -1    0    0    0    0  0.00000000000E+00  0.00000000000E+00  0.39999999674E+01  0.40000000000E+01  0.51100000000E-03 0.  1.
    9000002   -1    0    0    0    0 -0.00000000000E+00 -0.00000000000E+00  0.00000000000E+00  0.93800000000E+00  0.93800000000E+00 0.  1.
         11    1    1    2    0    0 -0.21352956842E+00 -0.23107133138E-01  0.80059092650E+00  0.82889981838E+00  0.51100000000E-03 0.  1.
    9000002    1    1    2    0    0  0.64831182241E+00 -0.15769718300E+00  0.32460637101E+00  0.11959890956E+01  0.93800000000E+00 0.  1.
         22    1    1    2    0    0 -0.43478225399E+00  0.18080431614E+00  0.28748026699E+01  0.29131110861E+01  0.00000000000E+00 0.  1.
</event>
<event>
 5    1  0.1537976E+002  0.1540981E+01  0.7818608E-02  0.3420021E+00
         11   -1    0    0    0    0  0.00000000000E+00  0.00000000000E+00  0.39999999674E+01  0.40000000000E+01  0.51100000000E-03 0. -1.
    9000002   -1    0    0    0    0 -0.00000000000E+00 -0.00000000000E+00  0.00000000000E+00  0.93800000000E+00  0.93800000000E+00 0. -1.
         11    1    1    2    0    0 -0.17784517711E-01  0.19788506573E+00  0.74968368242E+00  0.77556474464E+00  0.51100000000E-03 0. -1.
    9000002    1    1    2    0    0  0.76865031131E-02  0.16317228619E+00  0.62441465105E-01  0.95416309606E+00  0.93800000000E+00 0. -1.
         22    1    1    2    0    0  0.10098014598E-01 -0.36105735192E+00  0.31878748198E+01  0.32082721593E+01  0.00000000000E+00 0. -1.
</event>
<event>
 5    1  0.1537976E+002  0.1599677E+01  0.7818608E-02  0.3353714E+00
         11   -1    0    0    0    0  0.00000000000E+00  0.00000000000E+00  0.39999999674E+01  0.40000000000E+01  0.51100000000E-03 0. -1.
    9000002   -1    0    0    0    0 -0.00000000000E+00 -0.00000000000E+00  0.00000000000E+00  0.93800000000E+00  0.93800000000E+00 0.  1.
         11    1    1    2    0    0  0.28219524418E+00  0.93304569822E-01  0.21203729257E+01  0.21411028709E+01  0.51100000000E-03 0. -1.
    9000002    1    1    2    0    0 -0.50688802044E+00 -0.16703042116E+00  0.19613949337E+00  0.10968816380E+01  0.93800000000E+00 0.  1.
         22    1    1    2    0    0  0.22469277626E+00  0.73725851340E-01  0.16834875483E+01  0.17000154911E+01  0.00000000000E+00 0. -1.
</event>
<event>
 5    1  0.1537976E+002  0.1596490E+01  0.7818608E-02  0.3357182E+00
         11   -1    0    0    0    0  0.00000000000E+00  0.00000000000E+00  0.39999999674E+01  0.40000000000E+01  0.51100000000E-03 0.  1.
    9000002   -1    0    0    0    0 -0.00000000000E+00 -0.00000000000E+00  0.00000000000E+00  0.93800000000E+00  0.93800000000E+00 0.  1.
         11    1    1    2    0    0 -0.33273993206E-01 -0.26986650953E-02  0.49877365219E+00  0.49988984653E+00  0.51100000000E-03 0.  1.
    9000002    1    1    2    0    0  0.73846978958E-01 -0.28141719304E+00  0.58910841700E-01  0.98385136078E+00  0.93800000000E+00 0.  1.
         22    1    1    2    0    0 -0.40572985752E-01  0.28411585814E+00  0.34423154735E+01  0.34542587927E+01  0.00000000000E+00 0.  1.
</event>
<event>
 5    1  0.1537976E+002  0.1599609E+01  0.7818608E-02  0.3353788E+00
         11   -1    0    0    0    0  0.00000000000E+00  0.00000000000E+00  0.39999999674E+01  0.40000000000E+01  0.51100000000E-03 0. -1.
    9000002   -1    0    0    0    0 -0.00000000000E+00 -0.00000000000E+00  0.00000000000E+00  0.93800000000E+00  0.93800000000E+00 0.  1.
         11    1    1    2    0    0 -0.33917561198E-01  0.64111541068E-01  0.84874696648E+00  0.85184057480E+00  0.51100000000E-03 0. -1.
    9000002    1    1    2    0    0  0.12643197457E+00 -0.27549592136E+00  0.61367683454E-01  0.98767051158E+00  0.93800000000E+00 0.  1.
         22    1    1    2    0    0 -0.92514413377E-01  0.21138438029E+00  0.30898853174E+01  0.30984889136E+01  0.00000000000E+00 0. -1.
</event>
<event>
 5    1  0.1537976E+002  0.1591573E+01  0.7818608E-02  0.3362561E+00
         11   -1    0    0    0    0  0.00000000000E+00  0.00000000000E+00  0.39999999674E+01  0.40000000000E+01  0.51100000000E-03 0. -1.
    9000002   -1    0    0    0    0 -0.00000000000E+00 -0.00000000000E+00  0.00000000000E+00  0.93800000000E+00  0.93800000000E+00 0.  1.
         11    1    1    2    0    0  0.93507313483E-02 -0.13163169212E-01  0.11995185650E+01  0.11996273397E+01  0.51100000000E-03 0. -1.
    9000002    1    1    2    0    0  0.21141379257E+00  0.26253249819E+00  0.82579784347E-01  0.10001412526E+01  0.93800000000E+00 0.  1.
         22    1    1    2    0    0 -0.22076452392E+00 -0.24936932897E+00  0.27179016180E+01  0.27382314077E+01  0.00000000000E+00 0. -1.
</event>
<event>
 5    1  0.1537976E+002  0.1583275E+01  0.7818608E-02  0.3371719E+00
         11   -1    0    0    0    0  0.00000000000E+00  0.00000000000E+00  0.39999999674E+01  0.40000000000E+01  0.51100000000E-03 0.  1.
    9000002   -1    0    0    0    0 -0.00000000000E+00 -0.00000000000E+00  0.00000000000E+00  0.93800000000E+00  0.93800000000E+00 0.  1.
         11    1    1    2    0    0  0.34762388796E-01 -0.79063286272E-01  0.10509130791E+01  0.10544562522E+01  0.51100000000E-03 0.  1.
    9000002    1    1    2    0    0 -0.37788219869E-01 -0.20630462947E+00  0.41576788747E-01  0.96206142167E+00  0.93800000000E+00 0.  1.
         22    1    1    2    0    0  0.30258310726E-02  0.28536791574E+00  0.29075100995E+01  0.29214823261E+01  0.00000000000E+00 0.  1.
</event>
<event>
 5    1  0.1537976E+002  0.1599674E+01  0.7818608E-02  0.3353717E+00
         11   -1    0    0    0    0  0.00000000000E+00  0.00000000000E+00  0.39999999674E+01  0.40000000000E+01  0.51100000000E-03 0.  1.
    9000002   -1    0    0    0    0 -0.00000000000E+00 -0.00000000000E+00  0.00000000000E+00  0.93800000000E+00  0.93800000000E+00 0. -1.
         11    1    1    2    0    0  0.37320600926E+00 -0.40432605251E+00  0.24425699528E+01  0.25037792469E+01  0.51100000000E-03 0.  1.
    9000002    1    1    2    0    0 -0.54237989883E+00  0.58498085081E+00  0.46841456668E+00  0.13174349156E+01  0.93800000000E+00 0. -1.
         22    1    1    2    0    0  0.16917388956E+00 -0.18065479829E+00  0.10890154479E+01  0.11167858375E+01  0.00000000000E+00 0. -1.
</event>
<event>
 5    1  0.1537976E+002  0.1599652E+01  0.7818608E-02  0.3353741E+00
         11   -1    0    0    0    0  0.00000000000E+00  0.00000000000E+00  0.39999999674E+01  0.40000000000E+01  0.51100000000E-03 0. -1.
    9000002   -1    0    0    0    0 -0.00000000000E+00 -0.00000000000E+00  0.00000000000E+00  0.93800000000E+00  0.93800000000E+00 0.  1.
         11    1    1    2    0    0 -0.11476252451E+00 -0.19781197327E-01  0.13274469790E+01  0.13325454874E+01  0.51100000000E-03 0. -1.
    9000002    1    1    2    0    0  0.32284065083E+00  0.57901399951E-01  0.71983378123E-01  0.99629526982E+00  0.93800000000E+00 0.  1.
         22    1    1    2    0    0 -0.20807812633E+00 -0.38120202624E-01  0.26005696103E+01  0.26091592428E+01  0.00000000000E+00 0. -1.
</event>
<event>
 5    1  0.1537976E+002  0.1599510E+01  0.7818608E-02  0.3353895E+00
         11   -1    0    0    0    0  0.00000000000E+00  0.00000000000E+00  0.39999999674E+01  0.40000000000E+01  0.51100000000E-03 0. -1.
    9000002   -1    0    0    0    0 -0.00000000000E+00 -0.00000000000E+00  0.00000000000E+00  0.93800000000E+00  0.93800000000E+00 0.  1.
         11    1    1    2    0    0 -0.20496902793E+00 -0.62956564046E-01  0.18388879795E+01  0.18513468323E+01  0.51100000000E-03 0. -1.
    9000002    1    1    2    0    0  0.42687515063E+00  0.16452612427E+00  0.14245099595E+00  0.10532936561E+01  0.93800000000E+00 0.  1.
         22    1    1    2    0    0 -0.22190612269E+00 -0.10156956023E+00  0.20186609919E+01  0.20333595115E+01  0.00000000000E+00 0.  1.
</event>
<event>
 5    1  0.1537976E+002  0.1593240E+01  0.7818608E-02  0.3360733E+00
         11   -1    0    0    0    0  0.00000000000E+00  0.00000000000E+00  0.39999999674E+01  0.40000000000E+01  0.51100000000E-03 0. -1.
    9000002   -1    0    0    0    0 -0.00000000000E+00 -0.00000000000E+00  0.00000000000E+00  0.93800000000E+00  0.93800000000E+00 0. -1.
         11    1    1    2    0    0  0.16774670383E-01  0.37259343452E-01  0.95818177491E+00  0.95905277390E+00  0.51100000000E-03 0. -1.
    9000002    1    1    2    0    0  0.26651659746E+00 -0.93082281219E-01  0.58091017501E-01  0.98128180158E+00  0.93800000000E+00 0. -1.
         22    1    1    2    0    0 -0.28329126784E+00  0.55822937767E-01  0.29837271749E+01  0.29976654245E+01  0.00000000000E+00 0. -1.
</event>
<event>
 5    1  0.1537976E+002  0.1599418E+01  0.7818608E-02  0.3353996E+00
         11   -1    0    0    0    0  0.00000000000E+00  0.00000000000E+00  0.39999999674E+01  0.40000000000E+01  0.51100000000E-03 0. -1.
    9000002   -1    0    0    0    0 -0.00000000000E+00 -0.00000000000E+00  0.00000000000E+00  0.93800000000E+00  0.93800000000E+00 0. -1.
         11    1    1    2    0    0  0.23583386096E-01  0.53113814241E-01  0.88539415240E+00  0.88729945317E+00  0.51100000000E-03 0. -1.
    9000002    1    1    2    0    0 -0.40297467365E-01 -0.26835407115E+00  0.49200746255E-01  0.97770266790E+00  0.93800000000E+00 0. -1.
         22    1    1    2    0    0  0.16714081269E-01  0.21524025691E+00  0.30654050687E+01  0.30729978789E+01  0.00000000000E+00 0. -1.
</event>
<event>
 5    1  0.1537976E+002  0.1599672E+01  0.7818608E-02  0.3353720E+00
         11   -1    0    0    0    0  0.00000000000E+00  0.00000000000E+00  0.39999999674E+01  0.40000000000E+01  0.51100000000E-03 0.  1.
    9000002   -1    0    0    0    0 -0.00000000000E+00 -0.00000000000E+00  0.00000000000E+00  0.93800000000E+00  0.93800000000E+00 0.  1.
         11    1    1    2    0    0 -0.10364918757E+00 -0.39028257487E-01  0.12859111788E+01  0.12906719877E+01  0.51100000000E-03 0.  1.
    9000002    1    1    2    0    0  0.32334983117E+00  0.12160797566E+00  0.79985510362E-01  0.10027887589E+01  0.93800000000E+00 0.  1.
         22    1    1    2    0    0 -0.21970064360E+00 -0.82579718175E-01  0.26341032782E+01  0.26445392534E+01  0.00000000000E+00 0. -1.
</event>
<event>
 5    1  0.1537976E+002  0.1524947E+01  0.7818608E-02  0.3439081E+00
         11   -1    0    0    0    0  0.00000000000E+00  0.00000000000E+00  0.39999999674E+01  0.40000000000E+01  0.51100000000E-03 0.  1.
    9000002   -1    0    0    0    0 -0.00000000000E+00 -0.00000000000E+00  0.00000000000E+00  0.93800000000E+00  0.93800000000E+00 0. -1.
         11    1    1    2    0    0  0.24367865107E-01 -0.17125060874E+00  0.26065582075E+00  0.31282947728E+00  0.51100000000E-03 0.  1.
    9000002    1    1    2    0    0  0.23638313384E+00  0.73040545249E-01  0.10005057589E+00  0.97522614042E+00  0.93800000000E+00 0. -1.
         22    1    1    2    0    0 -0.26075099895E+00  0.98210063489E-01  0.36392935707E+01  0.36499443823E+01  0.00000000000E+00 0.  1.
</event>
<event>
 5    1  0.1537976E+002  0.1599674E+01  0.7818608E-02  0.3353718E+00
         11   -1    0    0    0    0  0.00000000000E+00  0.00000000000E+00  0.39999999674E+01  0.40000000000E+01  0.51100000000E-03 0.  1.
    9000002   -1    0    0    0    0 -0.00000000000E+00 -0.00000000000E+00  0.00000000000E+00  0.93800000000E+00  0.93800000000E+00 0. -1.
         11    1    1    2    0    0  0.18989650522E+00  0.20879986691E-01  0.18541788121E+01  0.18639946311E+01  0.51100000000E-03 0.  1.
    9000002    1    1    2    0    0 -0.39418498114E+00 -0.44437977087E-01  0.10609791601E+00  0.10239420398E+01  0.93800000000E+00 0. -1.
         22    1    1    2    0    0  0.20428847592E+00  0.23557990396E-01  0.20397232393E+01  0.20500633291E+01  0.00000000000E+00 0.  1.
</event>
<event>
 5    1  0.1537976E+002  0.1595338E+01  0.7818608E-02  0.3358439E+00
         11   -1    0    0    0    0  0.00000000000E+00  0.00000000000E+00  0.39999999674E+01  0.40000000000E+01  0.51100000000E-03 0. -1.
    9000002   -1    0    0    0    0 -0.00000000000E+00 -0.00000000000E+00  0.00000000000E+00  0.93800000000E+00  0.93800000000E+00 0.  1.
         11    1    1    2    0    0 -0.14058217330E+00  0.31305769733E-01  0.56045490429E+00  0.57866515320E+00  0.51100000000E-03 0. -1.
    9000002    1    1    2    0    0  0.59737674405E+00 -0.34028881287E-01  0.25401732028E+00  0.11412211609E+01  0.93800000000E+00 0.  1.
         22    1    1    2    0    0 -0.45679457075E+00  0.27231115542E-02  0.31855277428E+01  0.32181136859E+01  0.00000000000E+00 0. -1.
</event>
<event>
 5    1  0.1537976E+002  0.1558611E+01  0.7818608E-02  0.3399548E+00
         11   -1    0    0    0    0  0.00000000000E+00  0.00000000000E+00  0.39999999674E+01  0.40000000000E+01  0.51100000000E-03 0. -1.
    9000002   -1    0    0    0    0 -0.00000000000E+00 -0.00000000000E+00  0.00000000000E+00  0.93800000000E+00  0.93800000000E+00 0. -1.
         11    1    1    2    0    0  0.14914307851E+00  0.43555410901E-01  0.28387401367E+01  0.28429890180E+01  0.51100000000E-03 0. -1.
    9000002    1    1    2    0    0  0.59074006645E-01  0.91884903181E-01  0.38521994731E-01  0.94512460436E+00  0.93800000000E+00 0. -1.
         22    1    1    2    0    0 -0.20821708516E+00 -0.13544031408E+00  0.11227378359E+01  0.11498863776E+01  0.00000000000E+00 0.  1.
</event>
<event>
 5    1  0.1537976E+002  0.1599666E+01  0.7818608E-02  0.3353726E+00
         11   -1    0    0    0    0  0.00000000000E+00  0.00000000000E+00  0.39999999674E+01  0.40000000000E+01  0.51100000000E-03 0.  1.
    9000002   -1    0    0    0    0 -0.00000000000E+00 -0.00000000000E+00  0.00000000000E+00  0.93800000000E+00  0.93800000000E+00 0. -1.
         11    1    1    2    0    0 -0.74175962450E-02  0.60728229893E-01  0.84151641931E+00  0.84373756804E+00  0.51100000000E-03 0.  1.
    9000002    1    1    2    0    0  0.50145507828E-01 -0.28321993621E+00  0.55135544809E-01  0.98265560219E+00  0.93800000000E+00 0. -1.
         22    1    1    2    0    0 -0.42727911583E-01  0.22249170631E+00  0.31033480032E+01  0.31116068298E+01  0.00000000000E+00 0.  1.
</event>
<event>
 5    1  0.1537976E+002  0.1599543E+01  0.7818608E-02  0.3353860E+00
         11   -1    0    0    0    0  0.00000000000E+00  0.00000000000E+00  0.39999999674E+01  0.40000000000E+01  0.51100000000E-03 0.  1.
    9000002   -1    0    0    0    0 -0.00000000000E+00 -0.00000000000E+00  0.00000000000E+00  0.93800000000E+00  0.93800000000E+00 0.  1.
         11    1    1    2    0    0  0.46817189796E-01 -0.68759394310E-03  0.56554734272E+00  0.56748249314E+00  0.51100000000E-03 0.  1.
    9000002    1    1    2    0    0 -0.31750497591E+00 -0.62773716330E-01  0.70147181464E-01  0.99474347259E+00  0.93800000000E+00 0.  1.
         22    1    1    2    0    0  0.27068778611E+00  0.63461310273E-01  0.33643054432E+01  0.33757740343E+01  0.00000000000E+00 0.  1.
</event>
<event>
 5    1  0.1537976E+002  0.1597393E+01  0.7818608E-02  0.3356198E+00
         11   -1    0    0    0    0  0.00000000000E+00  0.00000000000E+00  0.39999999674E+01  0.40000000000E+01  0.51100000000E-03 0.  1.
    9000002   -1    0    0    0    0 -0.00000000000E+00 -0.00000000000E+00  0.00000000000E+00  0.93800000000E+00  0.93800000000E+00 0.  1.
         11    1    1    2    0    0 -0.16086902080E+00 -0.10262743261E-01  0.12585254342E+01  0.12688067999E+01  0.51100000000E-03 0.  1.
    9000002    1    1    2    0    0  0.39313477635E+00  0.16235570347E+00  0.12438086461E+00  0.10374145393E+01  0.93800000000E+00 0.  1.
         22    1    1    2    0    0 -0.23226575555E+00 -0.15209296021E+00  0.26170936685E+01  0.26317786608E+01  0.00000000000E+00 0.  1.
</event>
<event>
 5    1  0.1537976E+002  0.1599673E+01  0.7818608E-02  0.3353718E+00
         11   -1    0    0    0    0  0.00000000000E+00  0.00000000000E+00  0.39999999674E+01  0.40000000000E+01  0.51100000000E-03 0. -1.
    9000002   -1    0    0    0    0 -0.00000000000E+00 -0.00000000000E+00  0.00000000000E+00  0.93800000000E+00  0.93800000000E+00 0. -1.
         11    1    1    2    0    0 -0.28929463405E+00  0.36920562371E+00  0.24402899445E+01  0.24849586419E+01  0.51100000000E-03 0. -1.
    9000002    1    1    2    0    0  0.43550891205E+00 -0.55066100043E+00  0.35246044696E+00  0.12235064023E+01  0.93800000000E+00 0. -1.
         22    1    1    2    0    0 -0.14621427800E+00  0.18145537671E+00  0.12072495759E+01  0.12295349558E+01  0.00000000000E+00 0.  1.
</event>
<event>
 5    1  0.1537976E+002  0.1599675E+01  0.7818608E-02  0.3353716E+00
         11   -1    0    0    0    0  0.00000000000E+00  0.00000000000E+00  0.39999999674E+01  0.40000000000E+01  0.51100000000E-03 0. -1.
    9000002   -1    0    0    0    0 -0.00000000000E+00 -0.00000000000E+00  0.00000000000E+00  0.93800000000E+00  0.93800000000E+00 0.  1.
         11    1    1    2    0    0  0.58645244851E-02  0.81481845764E-03  0.97378253303E-01  0.97559427602E-01  0.51100000000E-03 0.  1.
    9000002    1    1    2    0    0 -0.23168889216E+00 -0.25058316156E-01  0.36032572986E-01  0.96718664604E+00  0.93800000000E+00 0.  1.
         22    1    1    2    0    0  0.22582436768E+00  0.24243497698E-01  0.38665891411E+01  0.38732539264E+01  0.00000000000E+00 0. -1.
</event>
<event>
 5    1  0.1537976E+002  0.1573947E+01  0.7818608E-02  0.3382135E+00
         11   -1    0    0    0    0  0.00000000000E+00  0.00000000000E+00  0.39999999674E+01  0.40000000000E+01  0.51100000000E-03 0.  1.
    9000002   -1    0    0    0    0 -0.00000000000E+00 -0.00000000000E+00  0.00000000000E+00  0.93800000000E+00  0.93800000000E+00 0. -1.
         11    1    1    2    0    0 -0.79634330104E-01 -0.75705250867E-02  0.27330839383E+01  0.27342543799E+01  0.51100000000E-03 0.  1.
    9000002    1    1    2    0    0 -0.14338375083E+00  0.34895468412E-01  0.33601416663E-01  0.95013138508E+00  0.93800000000E+00 0. -1.
         22    1    1    2    0    0  0.22301808094E+00 -0.27324943325E-01  0.12333146124E+01  0.12536142350E+01  0.00000000000E+00 0.  1.
</event>
<event>
 5    1  0.1537976E+002  0.1599677E+01  0.7818608E-02  0.3353714E+00
         11   -1    0    0    0    0  0.00000000000E+00  0.00000000000E+00  0.39999999674E+01  0.40000000000E+01  0.51100000000E-03 0. -1.
    9000002   -1    0    0    0    0 -0.00000000000E+00 -0.00000000000E+00  0.00000000000E+00  0.93800000000E+00  0.93800000000E+00 0.  1.
         11    1    1    2    0    0  0.31544061698E-01  0.28797428709E-01  0.56128761115E+00  0.56291061749E+00  0.51100000000E-03 0.  1.
    9000002    1    1    2    0    0 -0.22237675852E+00 -0.20237926617E+00  0.60316790391E-01  0.98685911117E+00  0.93800000000E+00 0.  1.
         22    1    1    2    0    0  0.19083269682E+00  0.17358183746E+00  0.33783955658E+01  0.33882302713E+01  0.00000000000E+00 0. -1.
</event>
<event>
 5    1  0.1537976E+002  0.1599559E+01  0.7818608E-02  0.3353842E+00
         11   -1    0    0    0    0  0.00000000000E+00  0.00000000000E+00  0.39999999674E+01  0.40000000000E+01  0.51100000000E-03 0.  1.
    9000002   -1    0    0    0    0 -0.00000000000E+00 -0.00000000000E+00  0.00000000000E+00  0.93800000000E+00  0.93800000000E+00 0.  1.
         11    1    1    2    0    0  0.28447508142E-02 -0.70100777027E-01  0.91162912433E+00  0.91432496028E+00  0.51100000000E-03 0.  1.
    9000002    1    1    2    0    0  0.32438735404E-01  0.28673374213E+00  0.55583522063E-01  0.98295576623E+00  0.93800000000E+00 0.  1.
         22    1    1    2    0    0 -0.35283486218E-01 -0.21663296510E+00  0.30327873210E+01  0.30407192735E+01  0.00000000000E+00 0.  1.
</event>
<event>
 5    1  0.1537976E+002  0.1599418E+01  0.7818608E-02  0.3353995E+00
         11   -1    0    0    0    0  0.00000000000E+00  0.00000000000E+00  0.39999999674E+01  0.40000000000E+01  0.51100000000E-03 0. -1.
    9000002   -1    0    0    0    0 -0.00000000000E+00 -0.00000000000E+00  0.00000000000E+00  0.93800000000E+00  0.93800000000E+00 0.  1.
         11    1    1    2    0    0 -0.10536532024E+00 -0.33016176802E-01  0.86552183807E+00  0.87253666509E+00  0.51100000000E-03 0. -1.
    9000002    1    1    2    0    0  0.40305702522E+00  0.17256489079E+00  0.13056488108E+00  0.10436114197E+01  0.93800000000E+00 0.  1.
         22    1    1    2    0    0 -0.29769170498E+00 -0.13954871398E+00  0.30039132482E+01  0.30218519152E+01  0.00000000000E+00 0. -1.
</event>
<event>
 5    1  0.1537976E+002  0.1591914E+01  0.7818608E-02  0.3362186E+00
         11   -1    0    0    0    0  0.00000000000E+00  0.00000000000E+00  0.39999999674E+01  0.40000000000E+01  0.51100000000E-03 0.  1.
    9000002   -1    0    0    0    0 -0.00000000000E+00 -0.00000000000E+00  0.00000000000E+00  0.93800000000E+00  0.93800000000E+00 0.  1.
         11    1    1    2    0    0  0.16460621177E+00  0.28333504437E-01  0.74936533806E+00  0.76775429887E+00  0.51100000000E-03 0.  1.
    9000002    1    1    2    0    0 -0.41343062450E+00 -0.19979311520E+00  0.15018198226E+00  0.10551022690E+01  0.93800000000E+00 0.  1.
         22    1    1    2    0    0  0.24882441273E+00  0.17145961077E+00  0.31004526470E+01  0.31151434322E+01  0.00000000000E+00 0.  1.
</event>
<event>
 5    1  0.1537976E+002  0.1597529E+01  0.7818608E-02  0.3356050E+00
         11   -1    0    0    0    0  0.00000000000E+00  0.00000000000E+00  0.39999999674E+01  0.40000000000E+01  0.51100000000E-03 0.  1.
    9000002   -1    0    0    0    0 -0.00000000000E+00 -0.00000000000E+00  0.00000000000E+00  0.93800000000E+00  0.93800000000E+00 0.  1.
         11    1    1    2    0    0 -0.32545542222E-01 -0.77486352062E-02  0.14069631674E+01  0.14073609591E+01  0.51100000000E-03 0.  1.
    9000002    1    1    2    0    0  0.23810324437E+00 -0.12555703068E-01  0.39368354950E-01  0.96863030514E+00  0.93800000000E+00 0.  1.
         22    1    1    2    0    0 -0.20555770215E+00  0.20304338274E-01  0.25536684450E+01  0.25620087357E+01  0.00000000000E+00 0. -1.
</event>
<event>
 5    1  0.1537976E+002  0.1599628E+01  0.7818608E-02  0.3353767E+00
         11   -1    0    0    0    0  0.00000000000E+00  0.00000000000E+00  0.39999999674E+01  0.40000000000E+01  0.51100000000E-03 0.  1.
    9000002   -1    0    0    0    0 -0.00000000000E+00 -0.00000000000E+00  0.00000000000E+00  0.93800000000E+00  0.93800000000E+00 0.  1.
         11    1    1    2    0    0  0.30124740255E-02 -0.29383576507E-01  0.40081298758E+00  0.40190021361E+00  0.51100000000E-03 0.  1.
    9000002    1    1    2    0    0 -0.52294885006E-01  0.33183331314E+00  0.75589842599E-01  0.99920264562E+00  0.93800000000E+00 0.  1.
         22    1    1    2    0    0  0.49282410980E-01 -0.30244973663E+00  0.35235971372E+01  0.35368971408E+01  0.00000000000E+00 0.  1.
</event>
<event>
 5    1  0.1537976E+002  0.1599674E+01  0.7818608E-02  0.3353718E+00
         11   -1    0    0    0    0  0.00000000000E+00  0.00000000000E+00  0.39999999674E+01  0.40000000000E+01  0.51100000000E-03 0.  1.
    9000002   -1    0    0    0    0 -0.00000000000E+00 -0.00000000000E+00  0.00000000000E+00  0.93800000000E+00  0.93800000000E+00 0.  1.
         11    1    1    2    0    0 -0.13380368229E-01  0.84517448945E-02  0.17770191498E+00  0.17840599193E+00  0.51100000000E-03 0.  1.
    9000002    1    1    2    0    0  0.27855533871E+00 -0.18263311959E+00  0.74259518049E-01  0.99815149608E+00  0.93800000000E+00 0.  1.
         22    1    1    2    0    0 -0.26517497048E+00  0.17418137470E+00  0.37480385343E+01  0.37614425120E+01  0.00000000000E+00 0.  1.
</event>
<event>
 5    1  0.1537976E+002  0.1599656E+01  0.7818608E-02  0.3353737E+00
         11   -1    0    0    0    0  0.00000000000E+00  0.00000000000E+00  0.39999999674E+01  0.40000000000E+01  0.51100000000E-03 0.  1.
    9000002   -1    0    0    0    0 -0.00000000000E+00 -0.00000000000E+00  0.00000000000E+00  0.93800000000E+00  0.93800000000E+00 0.  1.
         11    1    1    2    0    0 -0.99868948634E-02 -0.57669058200E-01  0.77256857261E+00  0.77478249777E+00  0.51100000000E-03 0.  1.
    9000002    1    1    2    0    0  0.39629523681E-01  0.31313926284E+00  0.66578641524E-01  0.99191905546E+00  0.93800000000E+00 0.  1.
         22    1    1    2    0    0 -0.29642628818E-01 -0.25547020464E+00  0.31608527532E+01  0.31712984468E+01  0.00000000000E+00 0.  1.
</event>
<event>
 5    1  0.1537976E+002  0.1599658E+01  0.7818608E-02  0.3353735E+00
         11   -1    0    0    0    0  0.00000000000E+00  0.00000000000E+00  0.39999999674E+01  0.40000000000E+01  0.51100000000E-03 0.  1.
    9000002   -1    0    0    0    0 -0.00000000000E+00 -0.00000000000E+00  0.00000000000E+00  0.93800000000E+00  0.93800000000E+00 0.  1.
         11    1    1    2    0    0  0.19746298209E-03  0.72205318626E-01  0.97950911787E+00  0.98216700216E+00  0.51100000000E-03 0.  1.
    9000002    1    1    2    0    0  0.15239162096E-01 -0.29942058002E+00  0.59977359251E-01  0.98657295697E+00  0.93800000000E+00 0.  1.
         22    1    1    2    0    0 -0.15436625078E-01  0.22721526139E+00  0.29605134902E+01  0.29692600409E+01  0.00000000000E+00 0.  1.
</event>
<event>
 5    1  0.1537976E+002  0.1599467E+01  0.7818608E-02  0.3353942E+00
         11   -1    0    0    0    0  0.00000000000E+00  0.00000000000E+00  0.39999999674E+01  0.40000000000E+01  0.51100000000E-03 0.  1.
    9000002   -1    0    0    0    0 -0.00000000000E+00 -0.00000000000E+00  0.00000000000E+00  0.93800000000E+00  0.93800000000E+00 0. -1.
         11    1    1    2    0    0  0.22133984254E-01 -0.19618677203E+00  0.19809420070E+01  0.19907563033E+01  0.51100000000E-03 0.  1.
    9000002    1    1    2    0    0 -0.61340221656E-01  0.41369292118E+00  0.11843730149E+00  0.10338161588E+01  0.93800000000E+00 0. -1.
         22    1    1    2    0    0  0.39206237402E-01 -0.21750614914E+00  0.19006206588E+01  0.19134275379E+01  0.00000000000E+00 0.  1.
</event>
<event>
 5    1  0.1537976E+002  0.1567364E+01  0.7818608E-02  0.3389565E+00
         11   -1    0    0    0    0  0.00000000000E+00  0.00000000000E+00  0.39999999674E+01  0.40000000000E+01  0.51100000000E-03 0. -1.
    9000002   -1    0    0    0    0 -0.00000000000E+00 -0.00000000000E+00  0.00000000000E+00  0.93800000000E+00  0.93800000000E+00 0. -1.
         11    1    1    2    0    0 -0.38369885183E-01  0.38968255667E-01  0.27098470956E+01  0.27103989219E+01  0.51100000000E-03 0. -1.
    9000002    1    1    2    0    0 -0.22211158899E+00  0.36419890887E-01  0.58444185715E-01  0.96639520345E+00  0.93800000000E+00 0. -1.
         22    1    1    2    0    0  0.26048147417E+00 -0.75388146554E-01  0.12317086860E+01  0.12612058746E+01  0.00000000000E+00 0. -1.
</event>
<event>
 5    1  0.1537976E+002  0.1598211E+01  0.7818608E-02  0.3355308E+00
         11   -1    0    0    0    0  0.00000000000E+00  0.00000000000E+00  0.39999999674E+01  0.40000000000E+01  0.51100000000E-03 0.  1.
    9000002   -1    0    0    0    0 -0.00000000000E+00 -0.00000000000E+00  0.00000000000E+00  0.93800000000E+00  0.93800000000E+00 0. -1.
         11    1    1    2    0    0 -0.53725303654E-02 -0.10436942438E-01  0.36092094156E-01  0.37956478124E-01  0.51100000000E-03 0.  1.
    9000002    1    1    2    0    0 -0.30764639630E-03  0.35483318040E+00  0.85652196323E-01  0.10065222200E+01  0.93800000000E+00 0. -1.
         22    1    1    2    0    0  0.56801767617E-02 -0.34439623796E+00  0.38782556769E+01  0.38935213019E+01  0.00000000000E+00 0.  1.
</event>
<event>
 5    1  0.1537976E+002  0.1599470E+01  0.7818608E-02  0.3353939E+00
         11   -1    0    0    0    0  0.00000000000E+00  0.00000000000E+00  0.39999999674E+01  0.40000000000E+01  0.51100000000E-03 0.  1.
    9000002   -1    0    0    0    0 -0.00000000000E+00 -0.00000000000E+00  0.00000000000E+00  0.93800000000E+00  0.93800000000E+00 0. -1.
         11    1    1    2    0    0  0.50288287980E-02  0.18688469342E+00  0.15275012343E+01  0.15388994313E+01  0.51100000000E-03 0.  1.
    9000002    1    1    2    0    0 -0.29762949390E-01 -0.43407169596E+00  0.12847214779E+00  0.10419468140E+01  0.93800000000E+00 0. -1.
         22    1    1    2    0    0  0.24734120592E-01  0.24718700254E+00  0.23440265853E+01  0.23571537547E+01  0.00000000000E+00 0.  1.
</event>
<event>
 5    1  0.1537976E+002  0.1592536E+01  0.7818608E-02  0.3361505E+00
         11   -1    0    0    0    0  0.00000000000E+00  0.00000000000E+00  0.39999999674E+01  0.40000000000E+01  0.51100000000E-03 0.  1.
    9000002   -1    0    0    0    0 -0.00000000000E+00 -0.00000000000E+00  0.00000000000E+00  0.93800000000E+00  0.93800000000E+00 0. -1.
         11    1    1    2    0    0 -0.53764209217E-02 -0.50963471886E-01  0.57667570091E+00  0.57894844893E+00  0.51100000000E-03 0.  1.
    9000002    1    1    2    0    0 -0.31326488137E+00  0.37522478021E-02  0.71209869025E-01  0.99149574417E+00  0.93800000000E+00 0. -1.
         22    1    1    2    0    0  0.31864130229E+00  0.47211224084E-01  0.33521143974E+01  0.33675558069E+01  0.00000000000E+00 0.  1.
</event>
<event>
 5    1  0.1537976E+002  0.1599675E+01  0.7818608E-02  0.3353717E+00
         11   -1    0    0    0    0  0.00000000000E+00  0.00000000000E+00  0.39999999674E+01  0.40000000000E+01  0.51100000000E-03 0. -1.
    9000002   -1    0    0    0    0 -0.00000000000E+00 -0.00000000000E+00  0.00000000000E+00  0.93800000000E+00  0.93800000000E+00 0.  1.
         11    1    1    2    0    0  0.10576263324E+00  0.23896314970E-01  0.90279134331E+00  0.90927951651E+00  0.51100000000E-03 0. -1.
    9000002    1    1    2    0    0 -0.44910394932E+00 -0.95941191316E-01  0.14343913217E+00  0.10541906157E+01  0.93800000000E+00 0.  1.
         22    1    1    2    0    0  0.34334131608E+00  0.72044876346E-01  0.29537694919E+01  0.29745298678E+01  0.00000000000E+00 0. -1.
</event>
<event>
 5    1  0.1537976E+002  0.1599421E+01  0.7818608E-02  0.3353992E+00
         11   -1    0    0    0    0  0.00000000000E+00  0.00000000000E+00  0.39999999674E+01  0.40000000000E+01  0.51100000000E-03 0. -1.
    9000002   -1    0    0    0    0 -0.00000000000E+00 -0.00000000000E+00  0.00000000000E+00  0.93800000000E+00  0.93800000000E+00 0. -1.
         11    1    1    2    0    0  0.20854214570E-01 -0.46258485964E-02  0.62231564243E+00  0.62268235616E+00  0.51100000000E-03 0. -1.
    9000002    1    1    2    0    0 -0.22223415802E+00  0.32740904636E-01  0.33652350320E-01  0.96510956296E+00  0.93800000000E+00 0. -1.
         22    1    1    2    0    0  0.20137994345E+00 -0.28115056039E-01  0.33440319746E+01  0.33502080809E+01  0.00000000000E+00 0. -1.
</event>
<event>
 5    1  0.1537976E+002  0.1599666E+01  0.7818608E-02  0.3353726E+00
         11   -1    0    0    0    0  0.00000000000E+00  0.00000000000E+00  0.39999999674E+01  0.40000000000E+01  0.51100000000E-03 0.  1.
    9000002   -1    0    0    0    0 -0.00000000000E+00 -0.00000000000E+00  0.00000000000E+00  0.93800000000E+00  0.93800000000E+00 0. -1.
         11    1    1    2    0    0 -0.23428751567E+00 -0.32831051598E+00  0.23181306082E+01  0.23529573334E+01  0.51100000000E-03 0.  1.
    9000002    1    1    2    0    0  0.37599792887E+00  0.53031824955E+00  0.29823354471E+00  0.11795758286E+01  0.93800000000E+00 0. -1.
         22    1    1    2    0    0 -0.14171041320E+00 -0.20200773357E+00  0.13836358144E+01  0.14054668380E+01  0.00000000000E+00 0.  1.
</event>
<event>
 5    1  0.1537976E+002  0.1599666E+01  0.7818608E-02  0.3353726E+00
         11   -1    0    0    0    0  0.00000000000E+00  0.00000000000E+00  0.39999999674E+01  0.40000000000E+01  0.51100000000E-03 0.  1.
    9000002   -1    0    0    0    0 -0.00000000000E+00 -0.00000000000E+00  0.00000000000E+00  0.93800000000E+00  0.93800000000E+00 0. -1.
         11    1    1    2    0    0 -0.98477313757E-03  0.39620777236E-02  0.43881170353E-01  0.44073643718E-01  0.51100000000E-03 0. -1.
    9000002    1    1    2    0    0  0.98812612204E-01 -0.40820553924E+00  0.11930611386E+00  0.10346369621E+01  0.93800000000E+00 0. -1.
         22    1    1    2    0    0 -0.97827839066E-01  0.40424346151E+00  0.38368126831E+01  0.38592893942E+01  0.00000000000E+00 0.  1.
</event>
<event>
 5    1  0.1537976E+002  0.1599669E+01  0.7818608E-02  0.3353722E+00
         11   -1    0    0    0    0  0.00000000000E+00  0.00000000000E+00  0.39999999674E+01  0.40000000000E+01  0.51100000000E-03 0. -1.
    9000002   -1    0    0    0    0 -0.00000000000E+00 -0.00000000000E+00  0.00000000000E+00  0.93800000000E+00  0.93800000000E+00 0. -1.
         11    1    1    2    0    0 -0.42598143333E-01 -0.46837157514E-01  0.79066974244E+00  0.79320062019E+00  0.51100000000E-03 0. -1.
    9000002    1    1    2    0    0  0.20442718917E+00  0.24397693560E+00  0.67713833124E-01  0.99284660647E+00  0.93800000000E+00 0. -1.
         22    1    1    2    0    0 -0.16182904584E+00 -0.19713977808E+00  0.31416163918E+01  0.31519527733E+01  0.00000000000E+00 0. -1.
</event>
<event>
 5    1  0.1537976E+002  0.1567150E+01  0.7818608E-02  0.3389808E+00
         11   -1    0    0    0    0  0.00000000000E+00  0.00000000000E+00  0.39999999674E+01  0.40000000000E+01  0.51100000000E-03 0. -1.
    9000002   -1    0    0    0    0 -0.00000000000E+00 -0.00000000000E+00  0.00000000000E+00  0.93800000000E+00  0.93800000000E+00 0. -1.
         11    1    1    2    0    0  0.57145649209E-02  0.18459955294E+00  0.10460267006E+01  0.10622060868E+01  0.51100000000E-03 0. -1.
    9000002    1    1    2    0    0 -0.20121518034E+00  0.42079693450E-02  0.51612949350E-01  0.96073573492E+00  0.93800000000E+00 0. -1.
         22    1    1    2    0    0  0.19550061542E+00 -0.18880752228E+00  0.29023603174E+01  0.29150581783E+01  0.00000000000E+00 0. -1.
</event>
<event>
 5    1  0.1537976E+002  0.1599481E+01  0.7818608E-02  0.3353927E+00
         11   -1    0    0    0    0  0.00000000000E+00  0.00000000000E+00  0.39999999674E+01  0.40000000000E+01  0.51100000000E-03 0. -1.
    9000002   -1    0    0    0    0 -0.00000000000E+00 -0.00000000000E+00  0.00000000000E+00  0.93800000000E+00  0.93800000000E+00 0.  1.
         11    1    1    2    0    0  0.31476536630E-01 -0.44481178188E-02  0.55859662567E+00  0.55950067868E+00  0.51100000000E-03 0. -1.
    9000002    1    1    2    0    0 -0.20686347407E+00  0.11305503768E+00  0.37027068088E-01  0.96787857824E+00  0.93800000000E+00 0.  1.
         22    1    1    2    0    0  0.17538693744E+00 -0.10860691986E+00  0.34043762736E+01  0.34106207431E+01  0.00000000000E+00 0. -1.
</event>
<event>
 5    1  0.1537976E+002  0.1599675E+01  0.7818608E-02  0.3353716E+00
         11   -1    0    0    0    0  0.00000000000E+00  0.00000000000E+00  0.39999999674E+01  0.40000000000E+01  0.51100000000E-03 0. -1.
    9000002   -1    0    0    0    0 -0.00000000000E+00 -0.00000000000E+00  0.00000000000E+00  0.93800000000E+00  0.93800000000E+00 0. -1.
         11    1    1    2    0    0 -0.57721261070E-01 -0.63789501044E-01  0.11675769247E+01  0.11707420640E+01  0.51100000000E-03 0. -1.
    9000002    1    1    2    0    0  0.20026042682E+00  0.21677196688E+00  0.58077276232E-01  0.98504380318E+00  0.93800000000E+00 0. -1.
         22    1    1    2    0    0 -0.14253916575E+00 -0.15298246584E+00  0.27743457665E+01  0.27822141328E+01  0.00000000000E+00 0. -1.
</event>
<event>
 5    1  0.1537976E+002  0.1599607E+01  0.7818608E-02  0.3353790E+00
         11   -1    0    0    0    0  0.00000000000E+00  0.00000000000E+00  0.39999999674E+01  0.40000000000E+01  0.51100000000E-03 0. -1.
    9000002   -1    0    0    0    0 -0.00000000000E+00 -0.00000000000E+00  0.00000000000E+00  0.93800000000E+00  0.93800000000E+00 0. -1.
         11    1    1    2    0    0  0.25356309512E-01  0.77398666049E-01  0.10134457355E+01  0.10167133400E+01  0.51100000000E-03 0. -1.
    9000002    1    1    2    0    0 -0.13181947052E+00 -0.30528459642E+00  0.74058341676E-01  0.99794974602E+00  0.93800000000E+00 0. -1.
         22    1    1    2    0    0  0.10646316101E+00  0.22788593037E+00  0.29124958902E+01  0.29233369140E+01  0.00000000000E+00 0. -1.
</event>
<event>
 5    1  0.1537976E+002  0.1599670E+01  0.7818608E-02  0.3353722E+00
         11   -1    0    0    0    0  0.00000000000E+00  0.00000000000E+00  0.39999999674E+01  0.40000000000E+01  0.51100000000E-03 0.  1.
    9000002   -1    0    0    0    0 -0.00000000000E+00 -0.00000000000E+00  0.00000000000E+00  0.93800000000E+00  0.93800000000E+00 0.  1.
         11    1    1    2    0    0  0.50108273020E-01  0.39149550214E-01  0.79508400641E+00  0.79762294643E+00  0.51100000000E-03 0.  1.
    9000002    1    1    2    0    0 -0.25141931698E+00 -0.20546501363E+00  0.70506672602E-01  0.99510940889E+00  0.93800000000E+00 0.  1.
         22    1    1    2    0    0  0.20131104396E+00  0.16631546341E+00  0.31344092884E+01  0.31452676447E+01  0.00000000000E+00 0.  1.
</event>
<event>
 5    1  0.1537976E+002  0.1586964E+01  0.7818608E-02  0.3367634E+00
         11   -1    0    0    0    0  0.00000000000E+00  0.00000000000E+00  0.39999999674E+01  0.40000000000E+01  0.51100000000E-03 0. -1.
    9000002   -1    0    0    0    0 -0.00000000000E+00 -0.00000000000E+00  0.00000000000E+00  0.93800000000E+00  0.93800000000E+00 0. -1.
         11    1    1    2    0    0 -0.51101717149E-02  0.17040605165E-01  0.19452832723E+01  0.19453646873E+01  0.51100000000E-03 0. -1.
    9000002    1    1    2    0    0 -0.11990949765E-01  0.24052775339E+00  0.48240847648E-01  0.96962289701E+00  0.93800000000E+00 0. -1.
         22    1    1    2    0    0  0.17101121480E-01 -0.25756835855E+00  0.20064758474E+01  0.20230124157E+01  0.00000000000E+00 0. -1.
</event>
<event>
 5    1  0.1537976E+002  0.1599669E+01  0.7818608E-02  0.3353723E+00
         11   -1    0    0    0    0  0.00000000000E+00  0.00000000000E+00  0.39999999674E+01  0.40000000000E+01  0.51100000000E-03 0.  1.
    9000002   -1    0    0    0    0 -0.00000000000E+00 -0.00000000000E+00  0.00000000000E+00  0.93800000000E+00  0.93800000000E+00 0. -1.
         11    1    1    2    0    0 -0.81380895453E-02  0.41199779705E-01  0.63500000505E+00  0.63638739607E+00  0.51100000000E-03 0.  1.
    9000002    1    1    2    0    0  0.61474559174E-01 -0.24524692884E+00  0.42480524130E-01  0.97240617669E+00  0.93800000000E+00 0. -1.
         22    1    1    2    0    0 -0.53336469629E-01  0.20404714914E+00  0.33225194382E+01  0.33292064272E+01  0.00000000000E+00 0.  1.
</event>
<event>
 5    1  0.1537976E+002  0.1558111E+01  0.7818608E-02  0.3400122E+00
         11   -1    0    0    0    0  0.00000000000E+00  0.00000000000E+00  0.39999999674E+01  0.40000000000E+01  0.51100000000E-03 0.  1.
    9000002   -1    0    0    0    0 -0.00000000000E+00 -0.00000000000E+00  0.00000000000E+00  0.93800000000E+00  0.93800000000E+00 0.  1.
         11    1    1    2    0    0 -0.14424861983E+00 -0.23914666628E+00  0.17034901469E+01  0.17262322364E+01  0.51100000000E-03 0.  1.
    9000002    1    1    2    0    0 -0.64585982746E-01  0.15634250896E+00  0.50411819875E-01  0.95446303273E+00  0.93800000000E+00 0.  1.
         22    1    1    2    0    0  0.20883460258E+00  0.82804157327E-01  0.22460980006E+01  0.22573047308E+01  0.00000000000E+00 0.  1.
</event>
<event>
 5    1  0.1537976E+002  0.1599677E+01  0.7818608E-02  0.3353714E+00
         11   -1    0    0    0    0  0.00000000000E+00  0.00000000000E+00  0.39999999674E+01  0.40000000000E+01  0.51100000000E-03 0. -1.
    9000002   -1    0    0    0    0 -0.00000000000E+00 -0.00000000000E+00  0.00000000000E+00  0.93800000000E+00  0.93800000000E+00 0.  1.
         11    1    1    2    0    0  0.11726245461E-01  0.71774875710E-01  0.98015322271E+00  0.98284776986E+00  0.51100000000E-03 0. -1.
    9000002    1    1    2    0    0 -0.49035551479E-01 -0.29008751423E+00  0.57711511643E-01  0.98474863280E+00  0.93800000000E+00 0.  1.
         22    1    1    2    0    0  0.37309306017E-01  0.21831263852E+00  0.29621352330E+01  0.29704035973E+01  0.00000000000E+00 0. -1.
</event>
<event>
 5    1  0.1537976E+002  0.1599575E+01  0.7818608E-02  0.3353825E+00
         11   -1    0    0    0    0  0.00000000000E+00  0.00000000000E+00  0.39999999674E+01  0.40000000000E+01  0.51100000000E-03 0. -1.
    9000002   -1    0    0    0    0 -0.00000000000E+00 -0.00000000000E+00  0.00000000000E+00  0.93800000000E+00  0.93800000000E+00 0.  1.
         11    1    1    2    0    0 -0.24823033479E-01 -0.12960105858E+00  0.14426835527E+01  0.14487058748E+01  0.51100000000E-03 0. -1.
    9000002    1    1    2    0    0  0.91387765574E-01  0.37110326098E+00  0.98391333156E-01  0.10176414931E+01  0.93800000000E+00 0.  1.
         22    1    1    2    0    0 -0.66564732095E-01 -0.24150220239E+00  0.24589250815E+01  0.24716526321E+01  0.00000000000E+00 0. -1.
</event>
<event>
 5    1  0.1537976E+002  0.1598156E+01  0.7818608E-02  0.3355367E+00
         11   -1    0    0    0    0  0.00000000000E+00  0.00000000000E+00  0.39999999674E+01  0.40000000000E+01  0.51100000000E-03 0. -1.
    9000002   -1    0    0    0    0 -0.00000000000E+00 -0.00000000000E+00  0.00000000000E+00  0.93800000000E+00  0.93800000000E+00 0.  1.
         11    1    1    2    0    0 -0.85949717114E-01  0.58309311401E-01  0.68818564372E+00  0.69597921737E+00  0.51100000000E-03 0. -1.
    9000002    1    1    2    0    0  0.32755074934E+00 -0.20285646712E+00  0.10119431793E+00  0.10190802371E+01  0.93800000000E+00 0.  1.
         22    1    1    2    0    0 -0.24160103223E+00  0.14454715572E+00  0.32106200057E+01  0.32229405455E+01  0.00000000000E+00 0. -1.
</event>
<event>
 5    1  0.1537976E+002  0.1599675E+01  0.7818608E-02  0.3353716E+00
         11   -1    0    0    0    0  0.00000000000E+00  0.00000000000E+00  0.39999999674E+01  0.40000000000E+01  0.51100000000E-03 0. -1.
    9000002   -1    0    0    0    0 -0.00000000000E+00 -0.00000000000E+00  0.00000000000E+00  0.93800000000E+00  0.93800000000E+00 0. -1.
         11    1    1    2    0    0  0.49380973689E-01 -0.95446426586E-02  0.80086869004E+00  0.80244657179E+00  0.51100000000E-03 0. -1.
    9000002    1    1    2    0    0 -0.25056612090E+00  0.45478970228E-01  0.43097505250E-01  0.97290961175E+00  0.93800000000E+00 0. -1.
         22    1    1    2    0    0  0.20118514722E+00 -0.35934327569E-01  0.31560337721E+01  0.31626438165E+01  0.00000000000E+00 0. -1.
</event>
<event>
 5    1  0.1537976E+002  0.1494771E+01  0.7818608E-02  0.3476142E+00
         11   -1    0    0    0    0  0.00000000000E+00  0.00000000000E+00  0.39999999674E+01  0.40000000000E+01  0.51100000000E-03 0. -1.
    9000002   -1    0    0    0    0 -0.00000000000E+00 -0.00000000000E+00  0.00000000000E+00  0.93800000000E+00  0.93800000000E+00 0. -1.
         11    1    1    2    0    0 -0.26654370267E+00  0.37144320985E-01  0.12344431673E+00  0.29608108090E+00  0.51100000000E-03 0. -1.
    9000002    1    1    2    0    0  0.33216228797E+00 -0.39381505762E+00  0.39379060080E+00  0.11403232535E+01  0.93800000000E+00 0. -1.
         22    1    1    2    0    0 -0.65618585301E-01  0.35667073663E+00  0.34827650498E+01  0.35015956656E+01  0.00000000000E+00 0. -1.
</event>
<event>
 5    1  0.1537976E+002  0.1599670E+01  0.7818608E-02  0.3353721E+00
         11   -1    0    0    0    0  0.00000000000E+00  0.00000000000E+00  0.39999999674E+01  0.40000000000E+01  0.51100000000E-03 0. -1.
    9000002   -1    0    0    0    0 -0.00000000000E+00 -0.00000000000E+00  0.00000000000E+00  0.93800000000E+00  0.93800000000E+00 0.  1.
         11    1    1    2    0    0 -0.78955305071E-02  0.11804025010E+00  0.13208412628E+01  0.13261288560E+01  0.51100000000E-03 0. -1.
    9000002    1    1    2    0    0  0.22922620920E-01 -0.35838512219E+00  0.86566177683E-01  0.10081185672E+01  0.93800000000E+00 0.  1.
         22    1    1    2    0    0 -0.15027090413E-01  0.24034487210E+00  0.25925925268E+01  0.26037525768E+01  0.00000000000E+00 0. -1.
</event>
<event>
 5    1  0.1537976E+002  0.1594687E+01  0.7818608E-02  0.3359151E+00
         11   -1    0    0    0    0  0.00000000000E+00  0.00000000000E+00  0.39999999674E+01  0.40000000000E+01  0.51100000000E-03 0.  1.
    9000002   -1    0    0    0    0 -0.00000000000E+00 -0.00000000000E+00  0.00000000000E+00  0.93800000000E+00  0.93800000000E+00 0. -1.
         11    1    1    2    0    0  0.34948762764E-01 -0.51932605810E-01  0.30745550089E+00  0.31376353789E+00  0.51100000000E-03 0.  1.
    9000002    1    1    2    0    0 -0.11952936004E-01  0.27173445102E+00  0.53094427444E-01  0.97808256440E+00  0.93800000000E+00 0. -1.
         22    1    1    2    0    0 -0.22995826760E-01 -0.21980184521E+00  0.36394500390E+01  0.36461538977E+01  0.00000000000E+00 0.  1.
</event>
<event>
 5    1  0.1537976E+002  0.1598882E+01  0.7818608E-02  0.3354578E+00
         11   -1    0    0    0    0  0.00000000000E+00  0.00000000000E+00  0.39999999674E+01  0.40000000000E+01  0.51100000000E-03 0. -1.
    9000002   -1    0    0    0    0 -0.00000000000E+00 -0.00000000000E+00  0.00000000000E+00  0.93800000000E+00  0.93800000000E+00 0. -1.
         11    1    1    2    0    0 -0.74364672491E-01 -0.42638718451E-01  0.13471593624E+01  0.13498839853E+01  0.51100000000E-03 0. -1.
    9000002    1    1    2    0    0  0.18439207622E+00  0.21306607528E+00  0.53497087332E-01  0.98086876215E+00  0.93800000000E+00 0. -1.
         22    1    1    2    0    0 -0.11002740373E+00 -0.17042735683E+00  0.25993435176E+01  0.26072472526E+01  0.00000000000E+00 0. -1.
</event>
<event>
 5    1  0.1537976E+002  0.1599494E+01  0.7818608E-02  0.3353912E+00
         11   -1    0    0    0    0  0.00000000000E+00  0.00000000000E+00  0.39999999674E+01  0.40000000000E+01  0.51100000000E-03 0. -1.
    9000002   -1    0    0    0    0 -0.00000000000E+00 -0.00000000000E+00  0.00000000000E+00  0.93800000000E+00  0.93800000000E+00 0. -1.
         11    1    1    2    0    0 -0.49980921774E-01 -0.99125498594E-01  0.13854262868E+01  0.13898669772E+01  0.51100000000E-03 0. -1.
    9000002    1    1    2    0    0  0.10348994255E+00  0.30307462403E+00  0.68700439915E-01  0.99354322824E+00  0.93800000000E+00 0. -1.
         22    1    1    2    0    0 -0.53509020772E-01 -0.20394912544E+00  0.25458732406E+01  0.25545897945E+01  0.00000000000E+00 0. -1.
</event>
<event>
 5    1  0.1537976E+002  0.1599661E+01  0.7818608E-02  0.3353731E+00
         11   -1    0    0    0    0  0.00000000000E+00  0.00000000000E+00  0.39999999674E+01  0.40000000000E+01  0.51100000000E-03 0.  1.
    9000002   -1    0    0    0    0 -0.00000000000E+00 -0.00000000000E+00  0.00000000000E+00  0.93800000000E+00  0.93800000000E+00 0. -1.
         11    1    1    2    0    0 -0.69996200773E-01 -0.54028384897E-01  0.94370586182E+00  0.94783941111E+00  0.51100000000E-03 0.  1.
    9000002    1    1    2    0    0  0.29480295516E+00  0.23970219195E+00  0.97147868118E-01  0.10166846273E+01  0.93800000000E+00 0. -1.
         22    1    1    2    0    0 -0.22480675439E+00 -0.18567380706E+00  0.29591462374E+01  0.29734759615E+01  0.00000000000E+00 0.  1.
</event>
<event>
 5    1  0.1537976E+002  0.1588780E+01  0.7818608E-02  0.3365632E+00
         11   -1    0    0    0    0  0.00000000000E+00  0.00000000000E+00  0.39999999674E+01  0.40000000000E+01  0.51100000000E-03 0.  1.
    9000002   -1    0    0    0    0 -0.00000000000E+00 -0.00000000000E+00  0.00000000000E+00  0.93800000000E+00  0.93800000000E+00 0. -1.
         11    1    1    2    0    0 -0.10415284061E+00 -0.21726002103E-01  0.50574351279E+00  0.51681388838E+00  0.51100000000E-03 0.  1.
    9000002    1    1    2    0    0  0.15830211064E+00  0.25669585867E+00  0.69269851985E-01  0.98772194189E+00  0.93800000000E+00 0. -1.
         22    1    1    2    0    0 -0.54149270030E-01 -0.23496985656E+00  0.34249866026E+01  0.34334641697E+01  0.00000000000E+00 0.  1.
</event>
<event>
 5    1  0.1537976E+002  0.1599646E+01  0.7818608E-02  0.3353747E+00
         11   -1    0    0    0    0  0.00000000000E+00  0.00000000000E+00  0.39999999674E+01  0.40000000000E+01  0.51100000000E-03 0. -1.
    9000002   -1    0    0    0    0 -0.00000000000E+00 -0.00000000000E+00  0.00000000000E+00  0.93800000000E+00  0.93800000000E+00 0.  1.
         11    1    1    2    0    0  0.36283649194E-01 -0.20780464089E-01  0.67036303208E+00  0.67166597858E+00  0.51100000000E-03 0. -1.
    9000002    1    1    2    0    0 -0.23055892669E+00  0.14666695709E+00  0.49718065482E-01  0.97825584640E+00  0.93800000000E+00 0.  1.
         22    1    1    2    0    0  0.19427527750E+00 -0.12588649300E+00  0.32799188698E+01  0.32880781750E+01  0.00000000000E+00 0. -1.
</event>
<event>
 5    1  0.1537976E+002  0.1599584E+01  0.7818608E-02  0.3353815E+00
         11   -1    0    0    0    0  0.00000000000E+00  0.00000000000E+00  0.39999999674E+01  0.40000000000E+01  0.51100000000E-03 0.  1.
    9000002   -1    0    0    0    0 -0.00000000000E+00 -0.00000000000E+00  0.00000000000E+00  0.93800000000E+00  0.93800000000E+00 0. -1.
         11    1    1    2    0    0 -0.30981100811E-01  0.17654924610E-01  0.55477514447E+00  0.55592018043E+00  0.51100000000E-03 0.  1.
    9000002    1    1    2    0    0  0.22479607951E+00 -0.68669951720E-01  0.36731432609E-01  0.96769935299E+00  0.93800000000E+00 0. -1.
         22    1    1    2    0    0 -0.19381497870E+00  0.51015027110E-01  0.34084933903E+01  0.34143804666E+01  0.00000000000E+00 0.  1.
</event>
<event>
 5    1  0.1537976E+002  0.1599431E+01  0.7818608E-02  0.3353981E+00
         11   -1    0    0    0    0  0.00000000000E+00  0.00000000000E+00  0.39999999674E+01  0.40000000000E+01  0.51100000000E-03 0. -1.
    9000002   -1    0    0    0    0 -0.00000000000E+00 -0.00000000000E+00  0.00000000000E+00  0.93800000000E+00  0.93800000000E+00 0.  1.
         11    1    1    2    0    0  0.76976169116E-01  0.11198511689E+00  0.14251957604E+01  0.14316596011E+01  0.51100000000E-03 0. -1.
    9000002    1    1    2    0    0 -0.22133931071E+00 -0.25902487643E+00  0.77954840901E-01  0.10010024647E+01  0.93800000000E+00 0.  1.
         22    1    1    2    0    0  0.14436314160E+00  0.14703975954E+00  0.24968493661E+01  0.25053379342E+01  0.00000000000E+00 0. -1.
</event>
<event>
 5    1  0.1537976E+002  0.1584094E+01  0.7818608E-02  0.3370810E+00
         11   -1    0    0    0    0  0.00000000000E+00  0.00000000000E+00  0.39999999674E+01  0.40000000000E+01  0.51100000000E-03 0. -1.
    9000002   -1    0    0    0    0 -0.00000000000E+00 -0.00000000000E+00  0.00000000000E+00  0.93800000000E+00  0.93800000000E+00 0. -1.
         11    1    1    2    0    0 -0.61949651331E+00 -0.29949018605E+00  0.15873061497E+01  0.17300321892E+01  0.51100000000E-03 0. -1.
    9000002    1    1    2    0    0  0.93019775694E+00  0.44789304823E+00  0.90801539728E+00  0.16643953891E+01  0.93800000000E+00 0. -1.
         22    1    1    2    0    0 -0.31070124363E+00 -0.14840286218E+00  0.15046784203E+01  0.15435724217E+01  0.00000000000E+00 0.  1.
</event>
<event>
 5    1  0.1599206E+002  0.1599648E+01  0.7818608E-02  0.3353745E+00
         11   -1    0    0    0    0  0.00000000000E+00  0.00000000000E+00  0.39999999674E+01  0.40000000000E+01  0.51100000000E-03 0. -1.
    9000002   -1    0    0    0    0 -0.00000000000E+00 -0.00000000000E+00  0.00000000000E+00  0.93800000000E+00  0.93800000000E+00 0. -1.
         11    1    1    2    0    0 -0.16120985427E+00  0.53099175664E+00  0.24944172415E+01  0.25553979139E+01  0.51100000000E-03 0. -1.
    9000002    1    1    2    0    0  0.23208477390E+00 -0.76033905557E+00  0.46477793381E+00  0.13144737918E+01  0.93800000000E+00 0. -1.
         22    1    1    2    0    0 -0.70874919629E-01  0.22934729893E+00  0.10408047921E+01  0.10681282942E+01  0.00000000000E+00 0. -1.
</event>
<event>
 5    1  0.1537976E+002  0.1578273E+01  0.7818608E-02  0.3377288E+00
         11   -1    0    0    0    0  0.00000000000E+00  0.00000000000E+00  0.39999999674E+01  0.40000000000E+01  0.51100000000E-03 0. -1.
    9000002   -1    0    0    0    0 -0.00000000000E+00 -0.00000000000E+00  0.00000000000E+00  0.93800000000E+00  0.93800000000E+00 0. -1.
         11    1    1    2    0    0 -0.13755599554E-01  0.10933142713E+00  0.26396198066E+01  0.26419189167E+01  0.51100000000E-03 0. -1.
    9000002    1    1    2    0    0 -0.46809658024E-01 -0.39426033615E+00  0.12427751377E+00  0.10261195141E+01  0.93800000000E+00 0. -1.
         22    1    1    2    0    0  0.60565257578E-01  0.28492890901E+00  0.12361026470E+01  0.12699615693E+01  0.00000000000E+00 0. -1.
</event>
<event>
 5    1  0.1537976E+002  0.1567045E+01  0.7818608E-02  0.3389927E+00
         11   -1    0    0    0    0  0.00000000000E+00  0.00000000000E+00  0.39999999674E+01  0.40000000000E+01  0.51100000000E-03 0.  1.
    9000002   -1    0    0    0    0 -0.00000000000E+00 -0.00000000000E+00  0.00000000000E+00  0.93800000000E+00  0.93800000000E+00 0.  1.
         11    1    1    2    0    0  0.20087786259E-02  0.11488413048E+00  0.20092558420E+01  0.20125386203E+01  0.51100000000E-03 0.  1.
    9000002    1    1    2    0    0 -0.39497128470E-01  0.20036855808E+00  0.52521663960E-01  0.96141047811E+00  0.93800000000E+00 0.  1.
         22    1    1    2    0    0  0.37488349844E-01 -0.31525268857E+00  0.19382224614E+01  0.19640509016E+01  0.00000000000E+00 0.  1.
</event>
<event>
 5    1  0.1537976E+002  0.1592360E+01  0.7818608E-02  0.3361698E+00
         11   -1    0    0    0    0  0.00000000000E+00  0.00000000000E+00  0.39999999674E+01  0.40000000000E+01  0.51100000000E-03 0. -1.
    9000002   -1    0    0    0    0 -0.00000000000E+00 -0.00000000000E+00  0.00000000000E+00  0.93800000000E+00  0.93800000000E+00 0. -1.
         11    1    1    2    0    0 -0.84999856434E-01 -0.15248200195E+00  0.99150344098E+00  0.10067547224E+01  0.51100000000E-03 0. -1.
    9000002    1    1    2    0    0  0.84127593757E-02  0.45339136655E+00  0.14610003572E+00  0.10520569026E+01  0.93800000000E+00 0. -1.
         22    1    1    2    0    0  0.76587097058E-01 -0.30090936461E+00  0.28623964907E+01  0.28791883750E+01  0.00000000000E+00 0. -1.
</event>
<event>
 5    1  0.1537976E+002  0.1588101E+01  0.7818608E-02  0.3366380E+00
         11   -1    0    0    0    0  0.00000000000E+00  0.00000000000E+00  0.39999999674E+01  0.40000000000E+01  0.51100000000E-03 0.  1.
    9000002   -1    0    0    0    0 -0.00000000000E+00 -0.00000000000E+00  0.00000000000E+00  0.93800000000E+00  0.93800000000E+00 0.  1.
         11    1    1    2    0    0  0.32258023385E-01 -0.11809403658E-01  0.11346908285E+00  0.11855604570E+00  0.51100000000E-03 0.  1.
    9000002    1    1    2    0    0  0.35405673956E+00  0.61991246550E-01  0.96156240749E-01  0.10091031226E+01  0.93800000000E+00 0.  1.
         22    1    1    2    0    0 -0.38631476294E+00 -0.50181842893E-01  0.37903746438E+01  0.38103408317E+01  0.00000000000E+00 0.  1.
</event>
<event>
 5    1  0.1537976E+002  0.1570970E+01  0.7818608E-02  0.3385487E+00
         11   -1    0    0    0    0  0.00000000000E+00  0.00000000000E+00  0.39999999674E+01  0.40000000000E+01  0.51100000000E-03 0.  1.
    9000002   -1    0    0    0    0 -0.00000000000E+00 -0.00000000000E+00  0.00000000000E+00  0.93800000000E+00  0.93800000000E+00 0.  1.
         11    1    1    2    0    0 -0.88387981167E-01 -0.15482694636E+00  0.14892767943E+01  0.14999098139E+01  0.51100000000E-03 0.  1.
    9000002    1    1    2    0    0 -0.92125002933E-01  0.10241578998E-02  0.26823572523E-01  0.94289531185E+00  0.93800000000E+00 0.  1.
         22    1    1    2    0    0  0.18051298410E+00  0.15380278847E+00  0.24838996005E+01  0.24951948742E+01  0.00000000000E+00 0.  1.
</event>
<event>
 5    1  0.1537976E+002  0.1599671E+01  0.7818608E-02  0.3353721E+00
         11   -1    0    0    0    0  0.00000000000E+00  0.00000000000E+00  0.39999999674E+01  0.40000000000E+01  0.51100000000E-03 0. -1.
    9000002   -1    0    0    0    0 -0.00000000000E+00 -0.00000000000E+00  0.00000000000E+00  0.93800000000E+00  0.93800000000E+00 0. -1.
         11    1    1    2    0    0  0.19983724520E-01 -0.11408434933E+00  0.11090056559E+01  0.11150373958E+01  0.51100000000E-03 0. -1.
    9000002    1    1    2    0    0 -0.75102691851E-01  0.39252386421E+00  0.10773127730E+00  0.10252635887E+01  0.93800000000E+00 0. -1.
         22    1    1    2    0    0  0.55118967330E-01 -0.27843951488E+00  0.27832630342E+01  0.27976990155E+01  0.00000000000E+00 0. -1.
</event>
<event>
 5    1  0.1537976E+002  0.1599357E+01  0.7818608E-02  0.3354062E+00
         11   -1    0    0    0    0  0.00000000000E+00  0.00000000000E+00  0.39999999674E+01  0.40000000000E+01  0.51100000000E-03 0.  1.
    9000002   -1    0    0    0    0 -0.00000000000E+00 -0.00000000000E+00  0.00000000000E+00  0.93800000000E+00  0.93800000000E+00 0. -1.
         11    1    1    2    0    0 -0.70190609349E-03  0.40475994358E-03  0.25797089153E-02  0.27518215537E-02  0.51100000000E-03 0.  1.
    9000002    1    1    2    0    0 -0.19736533025E+00  0.20096496984E+00  0.53089714709E-01  0.98081726662E+00  0.93800000000E+00 0. -1.
         22    1    1    2    0    0  0.19806723634E+00 -0.20136972979E+00  0.39443305437E+01  0.39544309118E+01  0.00000000000E+00 0.  1.
</event>
<event>
 5    1  0.1537976E+002  0.1599675E+01  0.7818608E-02  0.3353716E+00
         11   -1    0    0    0    0  0.00000000000E+00  0.00000000000E+00  0.39999999674E+01  0.40000000000E+01  0.51100000000E-03 0.  1.
    9000002   -1    0    0    0    0 -0.00000000000E+00 -0.00000000000E+00  0.00000000000E+00  0.93800000000E+00  0.93800000000E+00 0. -1.
         11    1    1    2    0    0 -0.28218525448E+00  0.33083150021E+00  0.23527210271E+01  0.23925665073E+01  0.51100000000E-03 0.  1.
    9000002    1    1    2    0    0  0.43874305293E+00 -0.51827805741E+00  0.32773555541E+00  0.12034792086E+01  0.93800000000E+00 0. -1.
         22    1    1    2    0    0 -0.15655779846E+00  0.18744655721E+00  0.13195433849E+01  0.13419542841E+01  0.00000000000E+00 0.  1.
</event>
<event>
 5    1  0.1537976E+002  0.1594640E+01  0.7818608E-02  0.3359202E+00
         11   -1    0    0    0    0  0.00000000000E+00  0.00000000000E+00  0.39999999674E+01  0.40000000000E+01  0.51100000000E-03 0.  1.
    9000002   -1    0    0    0    0 -0.00000000000E+00 -0.00000000000E+00  0.00000000000E+00  0.93800000000E+00  0.93800000000E+00 0. -1.
         11    1    1    2    0    0  0.10595185256E+00 -0.13474233230E+00  0.16700052180E+01  0.16787790148E+01  0.51100000000E-03 0.  1.
    9000002    1    1    2    0    0 -0.33006099916E+00  0.13546636327E+00  0.89498666135E-01  0.10075442472E+01  0.93800000000E+00 0. -1.
         22    1    1    2    0    0  0.22410914660E+00 -0.72403097352E-03  0.22404960832E+01  0.22516767381E+01  0.00000000000E+00 0.  1.
</event>
<event>
 5    1  0.1537976E+002  0.1599675E+01  0.7818608E-02  0.3353716E+00
         11   -1    0    0    0    0  0.00000000000E+00  0.00000000000E+00  0.39999999674E+01  0.40000000000E+01  0.51100000000E-03 0. -1.
    9000002   -1    0    0    0    0 -0.00000000000E+00 -0.00000000000E+00  0.00000000000E+00  0.93800000000E+00  0.93800000000E+00 0.  1.
         11    1    1    2    0    0  0.73891047423E-02  0.13872668322E+00  0.12069540523E+01  0.12149230580E+01  0.51100000000E-03 0. -1.
    9000002    1    1    2    0    0 -0.19048076655E-01 -0.44454319058E+00  0.13436794295E+00  0.10468429785E+01  0.93800000000E+00 0.  1.
         22    1    1    2    0    0  0.11658971913E-01  0.30581650737E+00  0.26586779721E+01  0.26762339635E+01  0.00000000000E+00 0. -1.
</event>
<event>
 5    1  0.1537976E+002  0.1579896E+01  0.7818608E-02  0.3375477E+00
         11   -1    0    0    0    0  0.00000000000E+00  0.00000000000E+00  0.39999999674E+01  0.40000000000E+01  0.51100000000E-03 0.  1.
    9000002   -1    0    0    0    0 -0.00000000000E+00 -0.00000000000E+00  0.00000000000E+00  0.93800000000E+00  0.93800000000E+00 0.  1.
         11    1    1    2    0    0 -0.19366067539E+00 -0.28051473462E+00  0.22564197220E+01  0.22820217344E+01  0.51100000000E-03 0.  1.
    9000002    1    1    2    0    0  0.45889207048E+00  0.64476808460E+00  0.48576858518E+00  0.13198950464E+01  0.93800000000E+00 0.  1.
         22    1    1    2    0    0 -0.26523139509E+00 -0.36425334998E+00  0.12578116602E+01  0.13360832191E+01  0.00000000000E+00 0.  1.
</event>
<event>
 5    1  0.1537976E+002  0.1599675E+01  0.7818608E-02  0.3353716E+00
         11   -1    0    0    0    0  0.00000000000E+00  0.00000000000E+00  0.39999999674E+01  0.40000000000E+01  0.51100000000E-03 0.  1.
    9000002   -1    0    0    0    0 -0.00000000000E+00 -0.00000000000E+00  0.00000000000E+00  0.93800000000E+00  0.93800000000E+00 0.  1.
         11    1    1    2    0    0  0.46248133967E-02 -0.14366786719E+00  0.10861615530E+01  0.10956317928E+01  0.51100000000E-03 0.  1.
    9000002    1    1    2    0    0 -0.18075113352E-01  0.50984786872E+00  0.17848022138E+00  0.10825759781E+01  0.93800000000E+00 0.  1.
         22    1    1    2    0    0  0.13450299955E-01 -0.36618000153E+00  0.27353581930E+01  0.27597922291E+01  0.00000000000E+00 0.  1.
</event>
<event>
 5    1  0.1537976E+002  0.1599667E+01  0.7818608E-02  0.3353725E+00
         11   -1    0    0    0    0  0.00000000000E+00  0.00000000000E+00  0.39999999674E+01  0.40000000000E+01  0.51100000000E-03 0.  1.
    9000002   -1    0    0    0    0 -0.00000000000E+00 -0.00000000000E+00  0.00000000000E+00  0.93800000000E+00  0.93800000000E+00 0. -1.
         11    1    1    2    0    0  0.38429301003E-01  0.69357530286E-01  0.11306660134E+01  0.11334430613E+01  0.51100000000E-03 0.  1.
    9000002    1    1    2    0    0 -0.13607659574E+00 -0.25401529068E+00  0.55345738689E-01  0.98282641326E+00  0.93800000000E+00 0. -1.
         22    1    1    2    0    0  0.97647294738E-01  0.18465776040E+00  0.28139882153E+01  0.28217305255E+01  0.00000000000E+00 0.  1.
</event>
<event>
 5    1  0.1537976E+002  0.1599531E+01  0.7818608E-02  0.3353872E+00
         11   -1    0    0    0    0  0.00000000000E+00  0.00000000000E+00  0.39999999674E+01  0.40000000000E+01  0.51100000000E-03 0.  1.
    9000002   -1    0    0    0    0 -0.00000000000E+00 -0.00000000000E+00  0.00000000000E+00  0.93800000000E+00  0.93800000000E+00 0.  1.
         11    1    1    2    0    0  0.34112257257E-01  0.84882954533E-03  0.39180991406E+00  0.39329332118E+00  0.51100000000E-03 0.  1.
    9000002    1    1    2    0    0 -0.33853740931E+00  0.78588651204E-01  0.81082182099E-01  0.10035945764E+01  0.93800000000E+00 0.  1.
         22    1    1    2    0    0  0.30442515206E+00 -0.79437480749E-01  0.35271078712E+01  0.35411121024E+01  0.00000000000E+00 0.  1.
</event>
<event>
 5    1  0.1537976E+002  0.1583161E+01  0.7818608E-02  0.3371845E+00
         11   -1    0    0    0    0  0.00000000000E+00  0.00000000000E+00  0.39999999674E+01  0.40000000000E+01  0.51100000000E-03 0. -1.
    9000002   -1    0    0    0    0 -0.00000000000E+00 -0.00000000000E+00  0.00000000000E+00  0.93800000000E+00  0.93800000000E+00 0. -1.
         11    1    1    2    0    0 -0.10465166868E+00  0.62301218141E-01  0.18339061330E+01  0.18379459675E+01  0.51100000000E-03 0. -1.
    9000002    1    1    2    0    0 -0.10726074704E+00 -0.13420890301E+00  0.31876595437E-01  0.95413679042E+00  0.93800000000E+00 0. -1.
         22    1    1    2    0    0  0.21191241572E+00  0.71907684871E-01  0.21342172389E+01  0.21459172421E+01  0.00000000000E+00 0.  1.
</event>
<event>
 5    1  0.1537976E+002  0.1599619E+01  0.7818608E-02  0.3353777E+00
         11   -1    0    0    0    0  0.00000000000E+00  0.00000000000E+00  0.39999999674E+01  0.40000000000E+01  0.51100000000E-03 0.  1.
    9000002   -1    0    0    0    0 -0.00000000000E+00 -0.00000000000E+00  0.00000000000E+00  0.93800000000E+00  0.93800000000E+00 0.  1.
         11    1    1    2    0    0  0.69421829644E-01 -0.52610564231E-01  0.91317708059E+00  0.91732213727E+00  0.51100000000E-03 0.  1.
    9000002    1    1    2    0    0 -0.26877504495E+00  0.24209123550E+00  0.87897647891E-01  0.10091670762E+01  0.93800000000E+00 0.  1.
         22    1    1    2    0    0  0.19935321530E+00 -0.18948067127E+00  0.29989252389E+01  0.30115107866E+01  0.00000000000E+00 0.  1.
</event>
<event>
 5    1  0.1537976E+002  0.1599676E+01  0.7818608E-02  0.3353715E+00
         11   -1    0    0    0    0  0.00000000000E+00  0.00000000000E+00  0.39999999674E+01  0.40000000000E+01  0.51100000000E-03 0.  1.
    9000002   -1    0    0    0    0 -0.00000000000E+00 -0.00000000000E+00  0.00000000000E+00  0.93800000000E+00  0.93800000000E+00 0. -1.
         11    1    1    2    0    0  0.47660021551E-01 -0.29610559259E-01  0.81422252730E+00  0.81615369138E+00  0.51100000000E-03 0. -1.
    9000002    1    1    2    0    0 -0.23102088099E+00  0.13912869687E+00  0.48388837499E-01  0.97719645995E+00  0.93800000000E+00 0. -1.
         22    1    1    2    0    0  0.18336085944E+00 -0.10951813761E+00  0.31373886026E+01  0.31446498487E+01  0.00000000000E+00 0.  1.
</event>
<event>
 5    1  0.1537976E+002  0.1599665E+01  0.7818608E-02  0.3353727E+00
         11   -1    0    0    0    0  0.00000000000E+00  0.00000000000E+00  0.39999999674E+01  0.40000000000E+01  0.51100000000E-03 0. -1.
    9000002   -1    0    0    0    0 -0.00000000000E+00 -0.00000000000E+00  0.00000000000E+00  0.93800000000E+00  0.93800000000E+00 0.  1.
         11    1    1    2    0    0  0.66867696212E-01 -0.15699935816E-01  0.78881974397E+00  0.79180466429E+00  0.51100000000E-03 0. -1.
    9000002    1    1    2    0    0 -0.33920788024E+00  0.62694838363E-01  0.79751689456E-01  0.10025951131E+01  0.93800000000E+00 0.  1.
         22    1    1    2    0    0  0.27234018403E+00 -0.46994902546E-01  0.31314285339E+01  0.31436002226E+01  0.00000000000E+00 0. -1.
</event>
<event>
 5    1  0.1537976E+002  0.1515032E+01  0.7818608E-02  0.3451084E+00
         11   -1    0    0    0    0  0.00000000000E+00  0.00000000000E+00  0.39999999674E+01  0.40000000000E+01  0.51100000000E-03 0.  1.
    9000002   -1    0    0    0    0 -0.00000000000E+00 -0.00000000000E+00  0.00000000000E+00  0.93800000000E+00  0.93800000000E+00 0. -1.
         11    1    1    2    0    0  0.17196022916E+00  0.23345424256E+00  0.28474680365E+01  0.28621924610E+01  0.51100000000E-03 0.  1.
    9000002    1    1    2    0    0 -0.16780054345E+00  0.10398604557E+00  0.92086774522E-01  0.96296110726E+00  0.93800000000E+00 0. -1.
         22    1    1    2    0    0 -0.41596857139E-02 -0.33744028813E+00  0.10604451563E+01  0.11128464317E+01  0.00000000000E+00 0.  1.
</event>
<event>
 5    1  0.1537976E+002  0.1518739E+01  0.7818608E-02  0.3446576E+00
         11   -1    0    0    0    0  0.00000000000E+00  0.00000000000E+00  0.39999999674E+01  0.40000000000E+01  0.51100000000E-03 0. -1.
    9000002   -1    0    0    0    0 -0.00000000000E+00 -0.00000000000E+00  0.00000000000E+00  0.93800000000E+00  0.93800000000E+00 0. -1.
         11    1    1    2    0    0 -0.19786395908E+00 -0.29178824356E+00  0.16535875821E+01  0.16907521043E+01  0.51100000000E-03 0. -1.
    9000002    1    1    2    0    0 -0.17528002105E-01  0.54913103863E-01  0.63410850710E-01  0.94190637317E+00  0.93800000000E+00 0. -1.
         22    1    1    2    0    0  0.21539196119E+00  0.23687513970E+00  0.22830015345E+01  0.23053415225E+01  0.00000000000E+00 0.  1.
</event>
<event>
 5    1  0.1537976E+002  0.1597326E+01  0.7818608E-02  0.3356270E+00
         11   -1    0    0    0    0  0.00000000000E+00  0.00000000000E+00  0.39999999674E+01  0.40000000000E+01  0.51100000000E-03 0.  1.
    9000002   -1    0    0    0    0 -0.00000000000E+00 -0.00000000000E+00  0.00000000000E+00  0.93800000000E+00  0.93800000000E+00 0. -1.
         11    1    1    2    0    0  0.27424790722E+00 -0.18402151218E-01  0.25209599837E+01  0.25359002453E+01  0.51100000000E-03 0.  1.
    9000002    1    1    2    0    0 -0.49330764949E+00 -0.86177833648E-02  0.16856341586E+00  0.10731655643E+01  0.93800000000E+00 0. -1.
         22    1    1    2    0    0  0.21905974227E+00  0.27019934583E-01  0.13104765678E+01  0.13289341904E+01  0.00000000000E+00 0.  1.
</event>
<event>
 5    1  0.1537976E+002  0.1596288E+01  0.7818608E-02  0.3357402E+00
         11   -1    0    0    0    0  0.00000000000E+00  0.00000000000E+00  0.39999999674E+01  0.40000000000E+01  0.51100000000E-03 0. -1.
    9000002   -1    0    0    0    0 -0.00000000000E+00 -0.00000000000E+00  0.00000000000E+00  0.93800000000E+00  0.93800000000E+00 0.  1.
         11    1    1    2    0    0  0.20763831124E-01  0.97102773941E-02  0.20198010516E+00  0.20327727411E+00  0.51100000000E-03 0. -1.
    9000002    1    1    2    0    0  0.19478245071E+00 -0.24954120204E+00  0.69639027375E-01  0.99242360349E+00  0.93800000000E+00 0.  1.
         22    1    1    2    0    0 -0.21554628184E+00  0.23983092464E+00  0.37283808348E+01  0.37422991224E+01  0.00000000000E+00 0. -1.
</event>
<event>
 5    1  0.1537976E+002  0.1582576E+01  0.7818608E-02  0.3372495E+00
         11   -1    0    0    0    0  0.00000000000E+00  0.00000000000E+00  0.39999999674E+01  0.40000000000E+01  0.51100000000E-03 0.  1.
    9000002   -1    0    0    0    0 -0.00000000000E+00 -0.00000000000E+00  0.00000000000E+00  0.93800000000E+00  0.93800000000E+00 0. -1.
         11    1    1    2    0    0  0.86038056750E-01 -0.25622309744E+00  0.69695780665E+00  0.74753144967E+00  0.51100000000E-03 0.  1.
    9000002    1    1    2    0    0 -0.22394990695E+00  0.69442845821E+00  0.40387066738E+00  0.12551254759E+01  0.93800000000E+00 0. -1.
         22    1    1    2    0    0  0.13791185020E+00 -0.43820536078E+00  0.28991714933E+01  0.29353430744E+01  0.00000000000E+00 0.  1.
</event>
<event>
 5    1  0.1537976E+002  0.1599645E+01  0.7818608E-02  0.3353748E+00
         11   -1    0    0    0    0  0.00000000000E+00  0.00000000000E+00  0.39999999674E+01  0.40000000000E+01  0.51100000000E-03 0. -1.
    9000002   -1    0    0    0    0 -0.00000000000E+00 -0.00000000000E+00  0.00000000000E+00  0.93800000000E+00  0.93800000000E+00 0. -1.
         11    1    1    2    0    0  0.31886605363E+00  0.12574197222E+00  0.23008473840E+01  0.23262384980E+01  0.51100000000E-03 0. -1.
    9000002    1    1    2    0    0 -0.52799632953E+00 -0.21600496952E+00  0.22570821000E+00  0.11208150904E+01  0.93800000000E+00 0. -1.
         22    1    1    2    0    0  0.20913027590E+00  0.90262997291E-01  0.14734443734E+01  0.14909464116E+01  0.00000000000E+00 0. -1.
</event>
<event>
 5    1  0.1537976E+002  0.1510690E+01  0.7818608E-02  0.3456393E+00
         11   -1    0    0    0    0  0.00000000000E+00  0.00000000000E+00  0.39999999674E+01  0.40000000000E+01  0.51100000000E-03 0. -1.
    9000002   -1    0    0    0    0 -0.00000000000E+00 -0.00000000000E+00  0.00000000000E+00  0.93800000000E+00  0.93800000000E+00 0. -1.
         11    1    1    2    0    0  0.33831106923E-01  0.23356644084E+00  0.42387113954E+00  0.48514413337E+00  0.51100000000E-03 0. -1.
    9000002    1    1    2    0    0  0.11592677586E+00 -0.82201389124E-01  0.81996069309E-01  0.95224127253E+00  0.93800000000E+00 0. -1.
         22    1    1    2    0    0 -0.14975788278E+00 -0.15136505172E+00  0.34941327585E+01  0.35006145941E+01  0.00000000000E+00 0. -1.
</event>
<event>
 5    1  0.1537976E+002  0.1599177E+01  0.7818608E-02  0.3354258E+00
         11   -1    0    0    0    0  0.00000000000E+00  0.00000000000E+00  0.39999999674E+01  0.40000000000E+01  0.51100000000E-03 0.  1.
    9000002   -1    0    0    0    0 -0.00000000000E+00 -0.00000000000E+00  0.00000000000E+00  0.93800000000E+00  0.93800000000E+00 0.  1.
         11    1    1    2    0    0 -0.20879875101E-01 -0.67584182786E-01  0.64833490519E+00  0.65218249083E+00  0.51100000000E-03 0.  1.
    9000002    1    1    2    0    0  0.21158359492E+00  0.32196757902E+00  0.10034660013E+00  0.10189917466E+01  0.93800000000E+00 0.  1.
         22    1    1    2    0    0 -0.19070371982E+00 -0.25438339624E+00  0.32513184620E+01  0.32668257625E+01  0.00000000000E+00 0.  1.
</event>
<event>
 5    1  0.1537976E+002  0.1594398E+01  0.7818608E-02  0.3359467E+00
         11   -1    0    0    0    0  0.00000000000E+00  0.00000000000E+00  0.39999999674E+01  0.40000000000E+01  0.51100000000E-03 0.  1.
    9000002   -1    0    0    0    0 -0.00000000000E+00 -0.00000000000E+00  0.00000000000E+00  0.93800000000E+00  0.93800000000E+00 0.  1.
         11    1    1    2    0    0  0.19797466540E+00  0.17665005888E-01  0.50807402432E+00  0.54556896529E+00  0.51100000000E-03 0.  1.
    9000002    1    1    2    0    0 -0.93258319819E+00  0.11841579422E+00  0.69784113107E+00  0.15001866438E+01  0.93800000000E+00 0.  1.
         22    1    1    2    0    0  0.73460853279E+00 -0.13608080011E+00  0.27940848120E+01  0.28922443910E+01  0.00000000000E+00 0.  1.
</event>
<event>
 5    1  0.1537976E+002  0.1521133E+01  0.7818608E-02  0.3443678E+00
         11   -1    0    0    0    0  0.00000000000E+00  0.00000000000E+00  0.39999999674E+01  0.40000000000E+01  0.51100000000E-03 0. -1.
    9000002   -1    0    0    0    0 -0.00000000000E+00 -0.00000000000E+00  0.00000000000E+00  0.93800000000E+00  0.93800000000E+00 0.  1.
         11    1    1    2    0    0 -0.53615608358E-01 -0.26809299728E+00  0.14416449015E+01  0.14673407142E+01  0.51100000000E-03 0. -1.
    9000002    1    1    2    0    0  0.11249075409E+00 -0.15474414199E+00  0.85386400743E-01  0.96111120931E+00  0.93800000000E+00 0.  1.
         22    1    1    2    0    0 -0.58875145734E-01  0.42283713927E+00  0.24729686652E+01  0.25095480764E+01  0.00000000000E+00 0. -1.
</event>
<event>
 5    1  0.1537976E+002  0.1599666E+01  0.7818608E-02  0.3353726E+00
         11   -1    0    0    0    0  0.00000000000E+00  0.00000000000E+00  0.39999999674E+01  0.40000000000E+01  0.51100000000E-03 0. -1.
    9000002   -1    0    0    0    0 -0.00000000000E+00 -0.00000000000E+00  0.00000000000E+00  0.93800000000E+00  0.93800000000E+00 0. -1.
         11    1    1    2    0    0  0.49951907839E-01 -0.11207022651E+00  0.12685235503E+01  0.12744438738E+01  0.51100000000E-03 0. -1.
    9000002    1    1    2    0    0 -0.15154814777E+00  0.33423138563E+00  0.90485302410E-01  0.10112907842E+01  0.93800000000E+00 0. -1.
         22    1    1    2    0    0  0.10159623993E+00 -0.22216115913E+00  0.26409911146E+01  0.26522653420E+01  0.00000000000E+00 0.  1.
</event>
<event>
 5    1  0.1537976E+002  0.1584813E+01  0.7818608E-02  0.3370014E+00
         11   -1    0    0    0    0  0.00000000000E+00  0.00000000000E+00  0.39999999674E+01  0.40000000000E+01  0.51100000000E-03 0. -1.
    9000002   -1    0    0    0    0 -0.00000000000E+00 -0.00000000000E+00  0.00000000000E+00  0.93800000000E+00  0.93800000000E+00 0.  1.
         11    1    1    2    0    0 -0.44081381590E-01 -0.34710438541E-01  0.18455423108E+01  0.18463950457E+01  0.51100000000E-03 0. -1.
    9000002    1    1    2    0    0 -0.15624217305E+00 -0.11526463729E+00  0.36148357546E-01  0.95856572910E+00  0.93800000000E+00 0.  1.
         22    1    1    2    0    0  0.20032355464E+00  0.14997507584E+00  0.21183092990E+01  0.21330392252E+01  0.00000000000E+00 0. -1.
</event>
<event>
 5    1  0.1537976E+002  0.1571530E+01  0.7818608E-02  0.3384856E+00
         11   -1    0    0    0    0  0.00000000000E+00  0.00000000000E+00  0.39999999674E+01  0.40000000000E+01  0.51100000000E-03 0. -1.
    9000002   -1    0    0    0    0 -0.00000000000E+00 -0.00000000000E+00  0.00000000000E+00  0.93800000000E+00  0.93800000000E+00 0.  1.
         11    1    1    2    0    0  0.89639236578E-01  0.14558436809E+00  0.79803952876E+00  0.81614787358E+00  0.51100000000E-03 0. -1.
    9000002    1    1    2    0    0  0.14245135005E+00 -0.16861709990E+00  0.53862650539E-01  0.96512657130E+00  0.93800000000E+00 0.  1.
         22    1    1    2    0    0 -0.23209058662E+00  0.23032731811E-01  0.31480977881E+01  0.31567255551E+01  0.00000000000E+00 0. -1.
</event>
<event>
 5    1  0.1537976E+002  0.1599675E+01  0.7818608E-02  0.3353716E+00
         11   -1    0    0    0    0  0.00000000000E+00  0.00000000000E+00  0.39999999674E+01  0.40000000000E+01  0.51100000000E-03 0.  1.
    9000002   -1    0    0    0    0 -0.00000000000E+00 -0.00000000000E+00  0.00000000000E+00  0.93800000000E+00  0.93800000000E+00 0. -1.
         11    1    1    2    0    0 -0.18201936693E+00 -0.80214986442E-01  0.18870437742E+01  0.18974983428E+01  0.51100000000E-03 0.  1.
    9000002    1    1    2    0    0  0.37202447499E+00  0.16660993189E+00  0.11219141585E+00  0.10288789983E+01  0.93800000000E+00 0. -1.
         22    1    1    2    0    0 -0.19000510806E+00 -0.86394945443E-01  0.20007647773E+01  0.20116226589E+01  0.00000000000E+00 0.  1.
</event>
<event>
 5    1  0.1537976E+002  0.1598214E+01  0.7818608E-02  0.3355305E+00
         11   -1    0    0    0    0  0.00000000000E+00  0.00000000000E+00  0.39999999674E+01  0.40000000000E+01  0.51100000000E-03 0.  1.
    9000002   -1    0    0    0    0 -0.00000000000E+00 -0.00000000000E+00  0.00000000000E+00  0.93800000000E+00  0.93800000000E+00 0.  1.
         11    1    1    2    0    0  0.17030371822E-02  0.12492254634E+00  0.81414492409E+00  0.82367515530E+00  0.51100000000E-03 0.  1.
    9000002    1    1    2    0    0 -0.80471222956E-03 -0.41573313889E+00  0.11805386294E+00  0.10327707417E+01  0.93800000000E+00 0.  1.
         22    1    1    2    0    0 -0.89832495264E-03  0.29081059256E+00  0.30678011803E+01  0.30815541030E+01  0.00000000000E+00 0.  1.
</event>
<event>
 5    1  0.1537976E+002  0.1524280E+01  0.7818608E-02  0.3439883E+00
         11   -1    0    0    0    0  0.00000000000E+00  0.00000000000E+00  0.39999999674E+01  0.40000000000E+01  0.51100000000E-03 0. -1.
    9000002   -1    0    0    0    0 -0.00000000000E+00 -0.00000000000E+00  0.00000000000E+00  0.93800000000E+00  0.93800000000E+00 0. -1.
         11    1    1    2    0    0  0.22489411655E-01 -0.29425665132E+00  0.11050296324E+01  0.11437584973E+01  0.51100000000E-03 0. -1.
    9000002    1    1    2    0    0  0.11469349758E+00  0.52505619419E-02  0.66067585008E-01  0.94730728519E+00  0.93800000000E+00 0. -1.
         22    1    1    2    0    0 -0.13718290923E+00  0.28900608938E+00  0.28289027499E+01  0.28469342175E+01  0.00000000000E+00 0. -1.
</event>
<event>
 5    1  0.1537976E+002  0.1533657E+01  0.7818608E-02  0.3428674E+00
         11   -1    0    0    0    0  0.00000000000E+00  0.00000000000E+00  0.39999999674E+01  0.40000000000E+01  0.51100000000E-03 0. -1.
    9000002   -1    0    0    0    0 -0.00000000000E+00 -0.00000000000E+00  0.00000000000E+00  0.93800000000E+00  0.93800000000E+00 0.  1.
         11    1    1    2    0    0  0.38071314704E-01 -0.15640371087E-01  0.30614871439E+01  0.30617638445E+01  0.51100000000E-03 0. -1.
    9000002    1    1    2    0    0 -0.25827221941E+00  0.26255324712E+00  0.14701846239E+00  0.10183796812E+01  0.93800000000E+00 0.  1.
         22    1    1    2    0    0  0.22020090470E+00 -0.24691287603E+00  0.79149436105E+00  0.85785647422E+00  0.00000000000E+00 0. -1.
</event>
<event>
 5    1  0.1537976E+002  0.1590578E+01  0.7818608E-02  0.3363653E+00
         11   -1    0    0    0    0  0.00000000000E+00  0.00000000000E+00  0.39999999674E+01  0.40000000000E+01  0.51100000000E-03 0. -1.
    9000002   -1    0    0    0    0 -0.00000000000E+00 -0.00000000000E+00  0.00000000000E+00  0.93800000000E+00  0.93800000000E+00 0.  1.
         11    1    1    2    0    0  0.82131961362E-01  0.54806505338E-01  0.38026527352E+00  0.39287574559E+00  0.51100000000E-03 0. -1.
    9000002    1    1    2    0    0 -0.25620099720E+00 -0.17478967786E+00  0.71426208038E-01  0.99052313736E+00  0.93800000000E+00 0.  1.
         22    1    1    2    0    0  0.17406903584E+00  0.11998317252E+00  0.35483084858E+01  0.35546011171E+01  0.00000000000E+00 0. -1.
</event>
<event>
 5    1  0.1537976E+002  0.1582897E+01  0.7818608E-02  0.3372138E+00
         11   -1    0    0    0    0  0.00000000000E+00  0.00000000000E+00  0.39999999674E+01  0.40000000000E+01  0.51100000000E-03 0. -1.
    9000002   -1    0    0    0    0 -0.00000000000E+00 -0.00000000000E+00  0.00000000000E+00  0.93800000000E+00  0.93800000000E+00 0.  1.
         11    1    1    2    0    0 -0.70767995739E-01 -0.59995052648E-01  0.11941957215E+01  0.11977943053E+01  0.51100000000E-03 0. -1.
    9000002    1    1    2    0    0 -0.10898547906E+00 -0.12821843260E+00  0.31266482478E-01  0.95348801462E+00  0.93800000000E+00 0.  1.
         22    1    1    2    0    0  0.17975347480E+00  0.18821348525E+00  0.27745377634E+01  0.27867176800E+01  0.00000000000E+00 0. -1.
</event>
<event>
 5    1  0.1537976E+002  0.1547538E+01  0.7818608E-02  0.3412349E+00
         11   -1    0    0    0    0  0.00000000000E+00  0.00000000000E+00  0.39999999674E+01  0.40000000000E+01  0.51100000000E-03 0. -1.
    9000002   -1    0    0    0    0 -0.00000000000E+00 -0.00000000000E+00  0.00000000000E+00  0.93800000000E+00  0.93800000000E+00 0.  1.
         11    1    1    2    0    0  0.15436241953E+00 -0.35716464722E-01  0.29006327535E+01  0.29049568077E+01  0.51100000000E-03 0. -1.
    9000002    1    1    2    0    0  0.11639228780E+00  0.10680720420E+00  0.56088394290E-01  0.95286140204E+00  0.93800000000E+00 0.  1.
         22    1    1    2    0    0 -0.27075470733E+00 -0.71090739479E-01  0.10432788195E+01  0.10801817903E+01  0.00000000000E+00 0. -1.
</event>
<event>
 5    1  0.1537976E+002  0.1599666E+01  0.7818608E-02  0.3353726E+00
         11   -1    0    0    0    0  0.00000000000E+00  0.00000000000E+00  0.39999999674E+01  0.40000000000E+01  0.51100000000E-03 0.  1.
    9000002   -1    0    0    0    0 -0.00000000000E+00 -0.00000000000E+00  0.00000000000E+00  0.93800000000E+00  0.93800000000E+00 0.  1.
         11    1    1    2    0    0  0.26645109456E-01 -0.24578774365E+00  0.21189082198E+01  0.21332824196E+01  0.51100000000E-03 0.  1.
    9000002    1    1    2    0    0 -0.54715828642E-01  0.44414253116E+00  0.13597074866E+00  0.10481357042E+01  0.93800000000E+00 0.  1.
         22    1    1    2    0    0  0.28070719187E-01 -0.19835478751E+00  0.17451209989E+01  0.17565818762E+01  0.00000000000E+00 0.  1.
</event>
<event>
 5    1  0.1537976E+002  0.1599676E+01  0.7818608E-02  0.3353715E+00
         11   -1    0    0    0    0  0.00000000000E+00  0.00000000000E+00  0.39999999674E+01  0.40000000000E+01  0.51100000000E-03 0. -1.
    9000002   -1    0    0    0    0 -0.00000000000E+00 -0.00000000000E+00  0.00000000000E+00  0.93800000000E+00  0.93800000000E+00 0. -1.
         11    1    1    2    0    0 -0.83451140967E-01  0.57826913468E-01  0.10112907359E+01  0.10163745661E+01  0.51100000000E-03 0. -1.
    9000002    1    1    2    0    0  0.31993134354E+00 -0.22528150737E+00  0.10316081949E+00  0.10215644751E+01  0.93800000000E+00 0. -1.
         22    1    1    2    0    0 -0.23648020257E+00  0.16745459390E+00  0.28855484120E+01  0.29000609588E+01  0.00000000000E+00 0. -1.
</event>
<event>
 5    1  0.1537976E+002  0.1597297E+01  0.7818608E-02  0.3356302E+00
         11   -1    0    0    0    0  0.00000000000E+00  0.00000000000E+00  0.39999999674E+01  0.40000000000E+01  0.51100000000E-03 0.  1.
    9000002   -1    0    0    0    0 -0.00000000000E+00 -0.00000000000E+00  0.00000000000E+00  0.93800000000E+00  0.93800000000E+00 0.  1.
         11    1    1    2    0    0  0.10501206320E+00 -0.72792174476E-02  0.13015239116E+01  0.13057738220E+01  0.51100000000E-03 0.  1.
    9000002    1    1    2    0    0 -0.44650537317E+00  0.11592869775E+00  0.14685686762E+00  0.10555649913E+01  0.93800000000E+00 0.  1.
         22    1    1    2    0    0  0.34149330997E+00 -0.10864948030E+00  0.25516191881E+01  0.25766611868E+01  0.00000000000E+00 0.  1.
</event>
<event>
 5    1  0.1537976E+002  0.1568118E+01  0.7818608E-02  0.3388711E+00
         11   -1    0    0    0    0  0.00000000000E+00  0.00000000000E+00  0.39999999674E+01  0.40000000000E+01  0.51100000000E-03 0. -1.
    9000002   -1    0    0    0    0 -0.00000000000E+00 -0.00000000000E+00  0.00000000000E+00  0.93800000000E+00  0.93800000000E+00 0. -1.
         11    1    1    2    0    0 -0.53316804495E-01 -0.46606386934E-01  0.28538011840E+01  0.28546797186E+01  0.51100000000E-03 0. -1.
    9000002    1    1    2    0    0 -0.17999557609E-02 -0.19100164128E+00  0.48101001119E-01  0.95845843578E+00  0.93800000000E+00 0. -1.
         22    1    1    2    0    0  0.55116760256E-01  0.23760802822E+00  0.10980977823E+01  0.11248618456E+01  0.00000000000E+00 0. -1.
</event>
<event>
 5    1  0.1537976E+002  0.1599402E+01  0.7818608E-02  0.3354012E+00
         11   -1    0    0    0    0  0.00000000000E+00  0.00000000000E+00  0.39999999674E+01  0.40000000000E+01  0.51100000000E-03 0. -1.
    9000002   -1    0    0    0    0 -0.00000000000E+00 -0.00000000000E+00  0.00000000000E+00  0.93800000000E+00  0.93800000000E+00 0. -1.
         11    1    1    2    0    0 -0.98658293179E-02 -0.62265391466E-02  0.22461506956E+00  0.22491841848E+00  0.51100000000E-03 0. -1.
    9000002    1    1    2    0    0  0.18642732341E+00  0.27029164282E+00  0.72341525060E-01  0.99643866612E+00  0.93800000000E+00 0. -1.
         22    1    1    2    0    0 -0.17656149410E+00 -0.26406510367E+00  0.37030433727E+01  0.37166429154E+01  0.00000000000E+00 0. -1.
</event>
<event>
 5    1  0.1537976E+002  0.1599124E+01  0.7818608E-02  0.3354315E+00
         11   -1    0    0    0    0  0.00000000000E+00  0.00000000000E+00  0.39999999674E+01  0.40000000000E+01  0.51100000000E-03 0. -1.
    9000002   -1    0    0    0    0 -0.00000000000E+00 -0.00000000000E+00  0.00000000000E+00  0.93800000000E+00  0.93800000000E+00 0.  1.
         11    1    1    2    0    0 -0.15111300780E-02 -0.13549733398E-01  0.14283562667E+00  0.14348573503E+00  0.51100000000E-03 0. -1.
    9000002    1    1    2    0    0  0.17800693724E+00  0.11712633091E+00  0.30500255175E-01  0.96238210325E+00  0.93800000000E+00 0.  1.
         22    1    1    2    0    0 -0.17649580716E+00 -0.10357659751E+00  0.38266640855E+01  0.38321321617E+01  0.00000000000E+00 0. -1.
</event>
<event>
 5    1  0.1537976E+002  0.1599655E+01  0.7818608E-02  0.3353738E+00
         11   -1    0    0    0    0  0.00000000000E+00  0.00000000000E+00  0.39999999674E+01  0.40000000000E+01  0.51100000000E-03 0. -1.
    9000002   -1    0    0    0    0 -0.00000000000E+00 -0.00000000000E+00  0.00000000000E+00  0.93800000000E+00  0.93800000000E+00 0.  1.
         11    1    1    2    0    0 -0.26609250787E-02  0.12817938124E-01  0.19839320840E+00  0.19882531609E+00  0.51100000000E-03 0. -1.
    9000002    1    1    2    0    0  0.32475957538E-01 -0.29874486091E+00  0.60262696654E-01  0.98680229648E+00  0.93800000000E+00 0.  1.
         22    1    1    2    0    0 -0.29815032459E-01  0.28592692278E+00  0.37413440623E+01  0.37523723874E+01  0.00000000000E+00 0. -1.
</event>
<event>
 5    1  0.1537976E+002  0.1562674E+01  0.7818608E-02  0.3394900E+00
         11   -1    0    0    0    0  0.00000000000E+00  0.00000000000E+00  0.39999999674E+01  0.40000000000E+01  0.51100000000E-03 0.  1.
    9000002   -1    0    0    0    0 -0.00000000000E+00 -0.00000000000E+00  0.00000000000E+00  0.93800000000E+00  0.93800000000E+00 0. -1.
         11    1    1    2    0    0 -0.52667808499E-01  0.19701381632E+00  0.11182790251E+01  0.11367218573E+01  0.51100000000E-03 0.  1.
    9000002    1    1    2    0    0 -0.21678054724E+00 -0.77675135775E-01  0.63765142883E-01  0.96795517759E+00  0.93800000000E+00 0. -1.
         22    1    1    2    0    0  0.26944835574E+00 -0.11933868055E+00  0.28179557994E+01  0.28333229651E+01  0.00000000000E+00 0.  1.
</event>
<event>
 5    1  0.1537976E+002  0.1599667E+01  0.7818608E-02  0.3353725E+00
         11   -1    0    0    0    0  0.00000000000E+00  0.00000000000E+00  0.39999999674E+01  0.40000000000E+01  0.51100000000E-03 0.  1.
    9000002   -1    0    0    0    0 -0.00000000000E+00 -0.00000000000E+00  0.00000000000E+00  0.93800000000E+00  0.93800000000E+00 0.  1.
         11    1    1    2    0    0  0.29587085912E-01  0.49546898555E-01  0.68707547813E+00  0.68949493442E+00  0.51100000000E-03 0.  1.
    9000002    1    1    2    0    0 -0.18544005965E+00 -0.28214003919E+00  0.76338032308E-01  0.99983124207E+00  0.93800000000E+00 0.  1.
         22    1    1    2    0    0  0.15585297374E+00  0.23259314064E+00  0.32365864569E+01  0.32486738235E+01  0.00000000000E+00 0.  1.
</event>
<event>
 5    1  0.1537976E+002  0.1593808E+01  0.7818608E-02  0.3360111E+00
         11   -1    0    0    0    0  0.00000000000E+00  0.00000000000E+00  0.39999999674E+01  0.40000000000E+01  0.51100000000E-03 0. -1.
    9000002   -1    0    0    0    0 -0.00000000000E+00 -0.00000000000E+00  0.00000000000E+00  0.93800000000E+00  0.93800000000E+00 0. -1.
         11    1    1    2    0    0  0.41402218189E-01 -0.11977131408E+00  0.47855308631E+00  0.49504810765E+00  0.51100000000E-03 0. -1.
    9000002    1    1    2    0    0 -0.69804418942E-01  0.53012419699E+00  0.20238999804E+00  0.10985035423E+01  0.93800000000E+00 0. -1.
         22    1    1    2    0    0  0.28402200753E-01 -0.41035288291E+00  0.33190568830E+01  0.33444483500E+01  0.00000000000E+00 0. -1.
</event>
<event>
 5    1  0.1537976E+002  0.1584874E+01  0.7818608E-02  0.3369946E+00
         11   -1    0    0    0    0  0.00000000000E+00  0.00000000000E+00  0.39999999674E+01  0.40000000000E+01  0.51100000000E-03 0. -1.
    9000002   -1    0    0    0    0 -0.00000000000E+00 -0.00000000000E+00  0.00000000000E+00  0.93800000000E+00  0.93800000000E+00 0. -1.
         11    1    1    2    0    0  0.22782261049E-02 -0.84649924981E-01  0.10484578357E+01  0.10518720903E+01  0.51100000000E-03 0. -1.
    9000002    1    1    2    0    0  0.49940578242E-01 -0.16468687811E+00  0.30650512630E-01  0.95414845968E+00  0.93800000000E+00 0. -1.
         22    1    1    2    0    0 -0.52218804347E-01  0.24933680309E+00  0.29208916191E+01  0.29319794500E+01  0.00000000000E+00 0. -1.
</event>
<event>
 5    1  0.1537976E+002  0.1595508E+01  0.7818608E-02  0.3358253E+00
         11   -1    0    0    0    0  0.00000000000E+00  0.00000000000E+00  0.39999999674E+01  0.40000000000E+01  0.51100000000E-03 0.  1.
    9000002   -1    0    0    0    0 -0.00000000000E+00 -0.00000000000E+00  0.00000000000E+00  0.93800000000E+00  0.93800000000E+00 0.  1.
         11    1    1    2    0    0 -0.14527928729E-01 -0.18073812001E+00  0.13344730511E+01  0.13467352798E+01  0.51100000000E-03 0.  1.
    9000002    1    1    2    0    0 -0.12457011239E+00  0.39029644754E+00  0.11686135231E+00  0.10302182320E+01  0.93800000000E+00 0.  1.
         22    1    1    2    0    0  0.13909804112E+00 -0.20955832753E+00  0.25486655639E+01  0.25610464882E+01  0.00000000000E+00 0.  1.
</event>
<event>
 5    1  0.1537976E+002  0.1584549E+01  0.7818608E-02  0.3370306E+00
         11   -1    0    0    0    0  0.00000000000E+00  0.00000000000E+00  0.39999999674E+01  0.40000000000E+01  0.51100000000E-03 0.  1.
    9000002   -1    0    0    0    0 -0.00000000000E+00 -0.00000000000E+00  0.00000000000E+00  0.93800000000E+00  0.93800000000E+00 0. -1.
         11    1    1    2    0    0  0.11944031938E+00  0.11729615929E-01  0.15318518484E+01  0.15365461009E+01  0.51100000000E-03 0.  1.
    9000002    1    1    2    0    0  0.13240299127E-02  0.17647101944E+00  0.31925795965E-01  0.95499059168E+00  0.93800000000E+00 0. -1.
         22    1    1    2    0    0 -0.12076434929E+00 -0.18820063537E+00  0.24362223230E+01  0.24464633074E+01  0.00000000000E+00 0.  1.
</event>
<event>
 5    1  0.1537976E+002  0.1599677E+01  0.7818608E-02  0.3353714E+00
         11   -1    0    0    0    0  0.00000000000E+00  0.00000000000E+00  0.39999999674E+01  0.40000000000E+01  0.51100000000E-03 0.  1.
    9000002   -1    0    0    0    0 -0.00000000000E+00 -0.00000000000E+00  0.00000000000E+00  0.93800000000E+00  0.93800000000E+00 0. -1.
         11    1    1    2    0    0  0.46916850209E-01 -0.13313995353E+00  0.12677959379E+01  0.12756309182E+01  0.51100000000E-03 0.  1.
    9000002    1    1    2    0    0 -0.14349250228E+00  0.40636002119E+00  0.12579221243E+00  0.10398972284E+01  0.93800000000E+00 0. -1.
         22    1    1    2    0    0  0.96575652073E-01 -0.27322006765E+00  0.26064118170E+01  0.26224718534E+01  0.00000000000E+00 0.  1.
</event>
<event>
 5    1  0.1537976E+002  0.1599676E+01  0.7818608E-02  0.3353715E+00
         11   -1    0    0    0    0  0.00000000000E+00  0.00000000000E+00  0.39999999674E+01  0.40000000000E+01  0.51100000000E-03 0. -1.
    9000002   -1    0    0    0    0 -0.00000000000E+00 -0.00000000000E+00  0.00000000000E+00  0.93800000000E+00  0.93800000000E+00 0.  1.
         11    1    1    2    0    0 -0.30494327541E+00 -0.95734629858E-01  0.18291096726E+01  0.18568247025E+01  0.51100000000E-03 0. -1.
    9000002    1    1    2    0    0  0.61709178406E+00  0.19599320750E+00  0.29564070170E+00  0.11774816482E+01  0.93800000000E+00 0.  1.
         22    1    1    2    0    0 -0.31214850865E+00 -0.10025857764E+00  0.18752495931E+01  0.19036936493E+01  0.00000000000E+00 0. -1.
</event>
<event>
 5    1  0.1537976E+002  0.1592519E+01  0.7818608E-02  0.3361523E+00
         11   -1    0    0    0    0  0.00000000000E+00  0.00000000000E+00  0.39999999674E+01  0.40000000000E+01  0.51100000000E-03 0.  1.
    9000002   -1    0    0    0    0 -0.00000000000E+00 -0.00000000000E+00  0.00000000000E+00  0.93800000000E+00  0.93800000000E+00 0. -1.
         11    1    1    2    0    0 -0.40291283299E-01 -0.22952804601E-02  0.20592729977E+01  0.20596684675E+01  0.51100000000E-03 0.  1.
    9000002    1    1    2    0    0  0.27141584734E+00  0.25022104114E-01  0.54988125621E-01  0.97834572715E+00  0.93800000000E+00 0. -1.
         22    1    1    2    0    0 -0.23112456404E+00 -0.22726823654E-01  0.18857388441E+01  0.18999858054E+01  0.00000000000E+00 0.  1.
</event>
<event>
 5    1  0.1537976E+002  0.1599666E+01  0.7818608E-02  0.3353726E+00
         11   -1    0    0    0    0  0.00000000000E+00  0.00000000000E+00  0.39999999674E+01  0.40000000000E+01  0.51100000000E-03 0. -1.
    9000002   -1    0    0    0    0 -0.00000000000E+00 -0.00000000000E+00  0.00000000000E+00  0.93800000000E+00  0.93800000000E+00 0.  1.
         11    1    1    2    0    0 -0.30320580930E-01  0.16511787185E-01  0.54491385917E+00  0.54600673236E+00  0.51100000000E-03 0. -1.
    9000002    1    1    2    0    0  0.23877070257E+00 -0.12512390665E+00  0.48356008977E-01  0.97716413362E+00  0.93800000000E+00 0.  1.
         22    1    1    2    0    0 -0.20845012164E+00  0.10861211947E+00  0.34067300992E+01  0.34148291340E+01  0.00000000000E+00 0. -1.
</event>
<event>
 5    1  0.1537976E+002  0.1598155E+01  0.7818608E-02  0.3355368E+00
         11   -1    0    0    0    0  0.00000000000E+00  0.00000000000E+00  0.39999999674E+01  0.40000000000E+01  0.51100000000E-03 0.  1.
    9000002   -1    0    0    0    0 -0.00000000000E+00 -0.00000000000E+00  0.00000000000E+00  0.93800000000E+00  0.93800000000E+00 0.  1.
         11    1    1    2    0    0 -0.16238243157E+00  0.83947460613E-01  0.13952508252E+01  0.14071746006E+01  0.51100000000E-03 0.  1.
    9000002    1    1    2    0    0  0.42744604683E+00 -0.10957569931E+00  0.13338670300E+00  0.10451569114E+01  0.93800000000E+00 0.  1.
         22    1    1    2    0    0 -0.26506361526E+00  0.25628238695E-01  0.24713624391E+01  0.24856684880E+01  0.00000000000E+00 0.  1.
</event>
<event>
 5    1  0.1537976E+002  0.1599365E+01  0.7818608E-02  0.3354053E+00
         11   -1    0    0    0    0  0.00000000000E+00  0.00000000000E+00  0.39999999674E+01  0.40000000000E+01  0.51100000000E-03 0.  1.
    9000002   -1    0    0    0    0 -0.00000000000E+00 -0.00000000000E+00  0.00000000000E+00  0.93800000000E+00  0.93800000000E+00 0. -1.
         11    1    1    2    0    0 -0.97030702650E-02 -0.96652999432E-02  0.38660435531E+00  0.38684720015E+00  0.51100000000E-03 0.  1.
    9000002    1    1    2    0    0  0.31024740128E-01  0.20903904498E+00  0.29821569942E-01  0.96197358740E+00  0.93800000000E+00 0. -1.
         22    1    1    2    0    0 -0.21321669863E-01 -0.19937374504E+00  0.35835740421E+01  0.35891792125E+01  0.00000000000E+00 0.  1.
</event>
<event>
 5    1  0.1537976E+002  0.1568735E+01  0.7818608E-02  0.3388013E+00
         11   -1    0    0    0    0  0.00000000000E+00  0.00000000000E+00  0.39999999674E+01  0.40000000000E+01  0.51100000000E-03 0.  1.
    9000002   -1    0    0    0    0 -0.00000000000E+00 -0.00000000000E+00  0.00000000000E+00  0.93800000000E+00  0.93800000000E+00 0. -1.
         11    1    1    2    0    0  0.12259574410E-01  0.43166183962E-01  0.41044043926E-01  0.60815222316E-01  0.51100000000E-03 0.  1.
    9000002    1    1    2    0    0  0.14204506259E+00  0.18915276885E+00  0.61026093788E-01  0.96929033519E+00  0.93800000000E+00 0. -1.
         22    1    1    2    0    0 -0.15430463700E+00 -0.23231895281E+00  0.38979298296E+01  0.39078944425E+01  0.00000000000E+00 0.  1.
</event>
<event>
 5    1  0.1537976E+002  0.1598033E+01  0.7818608E-02  0.3355501E+00
         11   -1    0    0    0    0  0.00000000000E+00  0.00000000000E+00  0.39999999674E+01  0.40000000000E+01  0.51100000000E-03 0. -1.
    9000002   -1    0    0    0    0 -0.00000000000E+00 -0.00000000000E+00  0.00000000000E+00  0.93800000000E+00  0.93800000000E+00 0. -1.
         11    1    1    2    0    0  0.57314503241E-01  0.10452603513E+00  0.11358869725E+01  0.11421252645E+01  0.51100000000E-03 0. -1.
    9000002    1    1    2    0    0 -0.49255615750E-01 -0.32565066989E+00  0.73881805128E-01  0.99688364196E+00  0.93800000000E+00 0. -1.
         22    1    1    2    0    0 -0.80588874905E-02  0.22112463476E+00  0.27902311897E+01  0.27989910936E+01  0.00000000000E+00 0. -1.
</event>
<event>
 5    1  0.1537976E+002  0.1587236E+01  0.7818608E-02  0.3367335E+00
         11   -1    0    0    0    0  0.00000000000E+00  0.00000000000E+00  0.39999999674E+01  0.40000000000E+01  0.51100000000E-03 0. -1.
    9000002   -1    0    0    0    0 -0.00000000000E+00 -0.00000000000E+00  0.00000000000E+00  0.93800000000E+00  0.93800000000E+00 0. -1.
         11    1    1    2    0    0  0.32532265652E+00 -0.32644725959E+00  0.17769417755E+01  0.18357355416E+01  0.51100000000E-03 0. -1.
    9000002    1    1    2    0    0 -0.39306132085E+00  0.60193660280E+00  0.38573116731E+00  0.12431642728E+01  0.93800000000E+00 0. -1.
         22    1    1    2    0    0  0.67738664323E-01 -0.27548934321E+00  0.18373270245E+01  0.18591001856E+01  0.00000000000E+00 0.  1.
</event>
<event>
 5    1  0.1537976E+002  0.1599677E+01  0.7818608E-02  0.3353714E+00
         11   -1    0    0    0    0  0.00000000000E+00  0.00000000000E+00  0.39999999674E+01  0.40000000000E+01  0.51100000000E-03 0. -1.
    9000002   -1    0    0    0    0 -0.00000000000E+00 -0.00000000000E+00  0.00000000000E+00  0.93800000000E+00  0.93800000000E+00 0. -1.
         11    1    1    2    0    0  0.10381053619E+00  0.11571528774E+00  0.12031765173E+01  0.12131779128E+01  0.51100000000E-03 0. -1.
    9000002    1    1    2    0    0 -0.33177581864E+00 -0.36839095858E+00  0.16813633863E+00  0.10741978033E+01  0.93800000000E+00 0. -1.
         22    1    1    2    0    0  0.22796528245E+00  0.25267567084E+00  0.26286871114E+01  0.26506242839E+01  0.00000000000E+00 0. -1.
</event>
<event>
 5    1  0.1537976E+002  0.1599405E+01  0.7818608E-02  0.3354009E+00
         11   -1    0    0    0    0  0.00000000000E+00  0.00000000000E+00  0.39999999674E+01  0.40000000000E+01  0.51100000000E-03 0. -1.
    9000002   -1    0    0    0    0 -0.00000000000E+00 -0.00000000000E+00  0.00000000000E+00  0.93800000000E+00  0.93800000000E+00 0.  1.
         11    1    1    2    0    0  0.18241248497E+00  0.10546893730E+00  0.20962879940E+01  0.21068511163E+01  0.51100000000E-03 0. -1.
    9000002    1    1    2    0    0 -0.36277042940E+00 -0.22169978834E+00  0.12256055137E+00  0.10371201808E+01  0.93800000000E+00 0.  1.
         22    1    1    2    0    0  0.18035794444E+00  0.11623085104E+00  0.17811514220E+01  0.17940287029E+01  0.00000000000E+00 0. -1.
</event>
<event>
 5    1  0.1537976E+002  0.1599671E+01  0.7818608E-02  0.3353720E+00
         11   -1    0    0    0    0  0.00000000000E+00  0.00000000000E+00  0.39999999674E+01  0.40000000000E+01  0.51100000000E-03 0.  1.
    9000002   -1    0    0    0    0 -0.00000000000E+00 -0.00000000000E+00  0.00000000000E+00  0.93800000000E+00  0.93800000000E+00 0.  1.
         11    1    1    2    0    0 -0.40659931311E-03  0.68076844904E-02  0.10024335681E+00  0.10047637333E+00  0.51100000000E-03 0. -1.
    9000002    1    1    2    0    0 -0.68181806905E-02 -0.28785806730E+00  0.55253210943E-01  0.98275412582E+00  0.93800000000E+00 0.  1.
         22    1    1    2    0    0  0.72247800036E-02  0.28105038281E+00  0.38445033996E+01  0.38547695009E+01  0.00000000000E+00 0.  1.
</event>
<event>
 5    1  0.1537976E+002  0.1597199E+01  0.7818608E-02  0.3356409E+00
         11   -1    0    0    0    0  0.00000000000E+00  0.00000000000E+00  0.39999999674E+01  0.40000000000E+01  0.51100000000E-03 0. -1.
    9000002   -1    0    0    0    0 -0.00000000000E+00 -0.00000000000E+00  0.00000000000E+00  0.93800000000E+00  0.93800000000E+00 0.  1.
         11    1    1    2    0    0 -0.11621909533E+00 -0.15412759364E-02  0.10270051945E+01  0.10335614081E+01  0.51100000000E-03 0. -1.
    9000002    1    1    2    0    0  0.28453093986E+00 -0.11621278801E+00  0.65010768576E-01  0.98920860685E+00  0.93800000000E+00 0.  1.
         22    1    1    2    0    0 -0.16831184453E+00  0.11775406395E+00  0.29079840043E+01  0.29152299851E+01  0.00000000000E+00 0. -1.
</event>
<event>
 5    1  0.1537976E+002  0.1597758E+01  0.7818608E-02  0.3355801E+00
         11   -1    0    0    0    0  0.00000000000E+00  0.00000000000E+00  0.39999999674E+01  0.40000000000E+01  0.51100000000E-03 0.  1.
    9000002   -1    0    0    0    0 -0.00000000000E+00 -0.00000000000E+00  0.00000000000E+00  0.93800000000E+00  0.93800000000E+00 0. -1.
         11    1    1    2    0    0 -0.10724510010E+00  0.33181836498E-01  0.17384380675E+01  0.17420590465E+01  0.51100000000E-03 0.  1.
    9000002    1    1    2    0    0  0.31744744791E+00 -0.16525008072E+00  0.87509425407E-01  0.10077610684E+01  0.93800000000E+00 0. -1.
         22    1    1    2    0    0 -0.21020234781E+00  0.13206824422E+00  0.21740524745E+01  0.21881798852E+01  0.00000000000E+00 0.  1.
</event>
<event>
 5    1  0.1537976E+002  0.1599095E+01  0.7818608E-02  0.3354347E+00
         11   -1    0    0    0    0  0.00000000000E+00  0.00000000000E+00  0.39999999674E+01  0.40000000000E+01  0.51100000000E-03 0. -1.
    9000002   -1    0    0    0    0 -0.00000000000E+00 -0.00000000000E+00  0.00000000000E+00  0.93800000000E+00  0.93800000000E+00 0. -1.
         11    1    1    2    0    0 -0.23469570980E-01  0.90337625164E-02  0.23067816234E+00  0.23204548117E+00  0.51100000000E-03 0. -1.
    9000002    1    1    2    0    0  0.27682758607E+00  0.42610009396E-01  0.52692361673E-01  0.98034157837E+00  0.93800000000E+00 0. -1.
         22    1    1    2    0    0 -0.25335801509E+00 -0.51643771913E-01  0.37166294433E+01  0.37256129405E+01  0.00000000000E+00 0. -1.
</event>
<event>
 5    1  0.1537976E+002  0.1598152E+01  0.7818608E-02  0.3355372E+00
         11   -1    0    0    0    0  0.00000000000E+00  0.00000000000E+00  0.39999999674E+01  0.40000000000E+01  0.51100000000E-03 0.  1.
    9000002   -1    0    0    0    0 -0.00000000000E+00 -0.00000000000E+00  0.00000000000E+00  0.93800000000E+00  0.93800000000E+00 0. -1.
         11    1    1    2    0    0  0.56441263292E-02 -0.63798082995E-01  0.50132932375E+00  0.50540419817E+00  0.51100000000E-03 0.  1.
    9000002    1    1    2    0    0 -0.83389357372E-01  0.25831044169E+00  0.50205484321E-01  0.97777433995E+00  0.93800000000E+00 0. -1.
         22    1    1    2    0    0  0.77745231043E-01 -0.19451235869E+00  0.34484651593E+01  0.34548214619E+01  0.00000000000E+00 0. -1.
</event>
<event>
 5    1  0.1537976E+002  0.1597051E+01  0.7818608E-02  0.3356570E+00
         11   -1    0    0    0    0  0.00000000000E+00  0.00000000000E+00  0.39999999674E+01  0.40000000000E+01  0.51100000000E-03 0. -1.
    9000002   -1    0    0    0    0 -0.00000000000E+00 -0.00000000000E+00  0.00000000000E+00  0.93800000000E+00  0.93800000000E+00 0. -1.
         11    1    1    2    0    0 -0.42205108676E-01  0.74081492285E-02  0.10927431110E+01  0.10935830648E+01  0.51100000000E-03 0. -1.
    9000002    1    1    2    0    0  0.34518542907E+00  0.17346944348E-01  0.82168270571E-01  0.10030202000E+01  0.93800000000E+00 0. -1.
         22    1    1    2    0    0 -0.30298032040E+00 -0.24755093576E-01  0.28250885858E+01  0.28413967352E+01  0.00000000000E+00 0. -1.
</event>
<event>
 5    1  0.1537976E+002  0.1599012E+01  0.7818608E-02  0.3354436E+00
         11   -1    0    0    0    0  0.00000000000E+00  0.00000000000E+00  0.39999999674E+01  0.40000000000E+01  0.51100000000E-03 0.  1.
    9000002   -1    0    0    0    0 -0.00000000000E+00 -0.00000000000E+00  0.00000000000E+00  0.93800000000E+00  0.93800000000E+00 0. -1.
         11    1    1    2    0    0  0.12144188571E-01  0.25290032625E-01  0.59447455227E+00  0.59513638897E+00  0.51100000000E-03 0.  1.
    9000002    1    1    2    0    0  0.55649686032E-01 -0.22481855401E+00  0.36088809705E-01  0.96684366470E+00  0.93800000000E+00 0. -1.
         22    1    1    2    0    0 -0.67793874603E-01  0.19952852138E+00  0.33694366054E+01  0.33760199463E+01  0.00000000000E+00 0.  1.
</event>
<event>
 5    1  0.1537976E+002  0.1472252E+01  0.7818608E-02  0.3504867E+00
         11   -1    0    0    0    0  0.00000000000E+00  0.00000000000E+00  0.39999999674E+01  0.40000000000E+01  0.51100000000E-03 0.  1.
    9000002   -1    0    0    0    0 -0.00000000000E+00 -0.00000000000E+00  0.00000000000E+00  0.93800000000E+00  0.93800000000E+00 0.  1.
         11    1    1    2    0    0 -0.26090303146E+00 -0.19372873296E+00  0.16000057170E+01  0.16326725849E+01  0.51100000000E-03 0.  1.
    9000002    1    1    2    0    0 -0.53226396514E+00  0.42414859211E+00  0.55719256635E+00  0.12858905524E+01  0.93800000000E+00 0.  1.
         22    1    1    2    0    0  0.79316699660E+00 -0.23041985915E+00  0.18428016840E+01  0.20194368627E+01  0.00000000000E+00 0.  1.
</event>
<event>
 5    1  0.1537976E+002  0.1554120E+01  0.7818608E-02  0.3404717E+00
         11   -1    0    0    0    0  0.00000000000E+00  0.00000000000E+00  0.39999999674E+01  0.40000000000E+01  0.51100000000E-03 0.  1.
    9000002   -1    0    0    0    0 -0.00000000000E+00 -0.00000000000E+00  0.00000000000E+00  0.93800000000E+00  0.93800000000E+00 0.  1.
         11    1    1    2    0    0 -0.55681576688E-01  0.38939674363E-01  0.52250353761E-01  0.85715207583E-01  0.51100000000E-03 0.  1.
    9000002    1    1    2    0    0  0.16054022144E+00  0.15042061803E+00  0.67298697147E-01  0.96580155294E+00  0.93800000000E+00 0.  1.
         22    1    1    2    0    0 -0.10485864475E+00 -0.18936029239E+00  0.38804509165E+01  0.38864832395E+01  0.00000000000E+00 0.  1.
</event>
<event>
 5    1  0.1537976E+002  0.1599677E+01  0.7818608E-02  0.3353714E+00
         11   -1    0    0    0    0  0.00000000000E+00  0.00000000000E+00  0.39999999674E+01  0.40000000000E+01  0.51100000000E-03 0.  1.
    9000002   -1    0    0    0    0 -0.00000000000E+00 -0.00000000000E+00  0.00000000000E+00  0.93800000000E+00  0.93800000000E+00 0. -1.
         11    1    1    2    0    0  0.70466025471E-01  0.48748936936E-01  0.98300383274E+00  0.98673132914E+00  0.51100000000E-03 0.  1.
    9000002    1    1    2    0    0 -0.28214626543E+00 -0.19541264487E+00  0.78922817843E-01  0.10019308499E+01  0.93800000000E+00 0. -1.
         22    1    1    2    0    0  0.21168023996E+00  0.14666370793E+00  0.29380733168E+01  0.29493378209E+01  0.00000000000E+00 0.  1.
</event>
<event>
 5    1  0.1537976E+002  0.1599515E+01  0.7818608E-02  0.3353890E+00
         11   -1    0    0    0    0  0.00000000000E+00  0.00000000000E+00  0.39999999674E+01  0.40000000000E+01  0.51100000000E-03 0.  1.
    9000002   -1    0    0    0    0 -0.00000000000E+00 -0.00000000000E+00  0.00000000000E+00  0.93800000000E+00  0.93800000000E+00 0.  1.
         11    1    1    2    0    0 -0.66860033881E-01  0.91059789427E-01  0.14119052765E+01  0.14164176362E+01  0.51100000000E-03 0.  1.
    9000002    1    1    2    0    0  0.22607442331E+00 -0.25903996914E+00  0.79338218576E-01  0.10021725916E+01  0.93800000000E+00 0.  1.
         22    1    1    2    0    0 -0.15921438943E+00  0.16798017971E+00  0.25087564723E+01  0.25194097721E+01  0.00000000000E+00 0.  1.
</event>
<event>
 5    1  0.1537976E+002  0.1599670E+01  0.7818608E-02  0.3353721E+00
         11   -1    0    0    0    0  0.00000000000E+00  0.00000000000E+00  0.39999999674E+01  0.40000000000E+01  0.51100000000E-03 0.  1.
    9000002   -1    0    0    0    0 -0.00000000000E+00 -0.00000000000E+00  0.00000000000E+00  0.93800000000E+00  0.93800000000E+00 0. -1.
         11    1    1    2    0    0  0.50627787766E-01 -0.38850593292E-01  0.86019735877E+00  0.86256147529E+00  0.51100000000E-03 0.  1.
    9000002    1    1    2    0    0 -0.22826159002E+00  0.16707434753E+00  0.53303330480E-01  0.98117400909E+00  0.93800000000E+00 0. -1.
         22    1    1    2    0    0  0.17763380225E+00 -0.12822375424E+00  0.30864992781E+01  0.30942645156E+01  0.00000000000E+00 0.  1.
</event>
<event>
 5    1  0.1537976E+002  0.1554287E+01  0.7818608E-02  0.3404524E+00
         11   -1    0    0    0    0  0.00000000000E+00  0.00000000000E+00  0.39999999674E+01  0.40000000000E+01  0.51100000000E-03 0. -1.
    9000002   -1    0    0    0    0 -0.00000000000E+00 -0.00000000000E+00  0.00000000000E+00  0.93800000000E+00  0.93800000000E+00 0.  1.
         11    1    1    2    0    0  0.12649560798E+00 -0.50330087434E-01  0.27886971824E+01  0.27920183546E+01  0.51100000000E-03 0. -1.
    9000002    1    1    2    0    0 -0.45458839905E+00 -0.75148846309E-01  0.18509702929E+00  0.10613212859E+01  0.93800000000E+00 0.  1.
         22    1    1    2    0    0  0.32809279107E+00  0.12547893374E+00  0.10262057557E+01  0.10846603595E+01  0.00000000000E+00 0. -1.
</event>
<event>
 5    1  0.1537976E+002  0.1599614E+01  0.7818608E-02  0.3353782E+00
         11   -1    0    0    0    0  0.00000000000E+00  0.00000000000E+00  0.39999999674E+01  0.40000000000E+01  0.51100000000E-03 0.  1.
    9000002   -1    0    0    0    0 -0.00000000000E+00 -0.00000000000E+00  0.00000000000E+00  0.93800000000E+00  0.93800000000E+00 0.  1.
         11    1    1    2    0    0 -0.63699731499E-01  0.12239631150E+00  0.13249035968E+01  0.13320691854E+01  0.51100000000E-03 0.  1.
    9000002    1    1    2    0    0  0.18221811741E+00 -0.33436083451E+00  0.97623073855E-01  0.10170422186E+01  0.93800000000E+00 0.  1.
         22    1    1    2    0    0 -0.11851838591E+00  0.21196452301E+00  0.25774732967E+01  0.25888885959E+01  0.00000000000E+00 0.  1.
</event>
<event>
 5    1  0.1537976E+002  0.1599659E+01  0.7818608E-02  0.3353734E+00
         11   -1    0    0    0    0  0.00000000000E+00  0.00000000000E+00  0.39999999674E+01  0.40000000000E+01  0.51100000000E-03 0. -1.
    9000002   -1    0    0    0    0 -0.00000000000E+00 -0.00000000000E+00  0.00000000000E+00  0.93800000000E+00  0.93800000000E+00 0. -1.
         11    1    1    2    0    0  0.35536736348E-01 -0.15358334701E-01  0.59047925556E+00  0.59174720147E+00  0.51100000000E-03 0. -1.
    9000002    1    1    2    0    0 -0.25870723637E+00  0.90633280017E-01  0.50028223002E-01  0.97851451123E+00  0.93800000000E+00 0. -1.
         22    1    1    2    0    0  0.22317050002E+00 -0.75274945316E-01  0.33594924888E+01  0.33677382873E+01  0.00000000000E+00 0. -1.
</event>
<event>
 5    1  0.1537976E+002  0.1598984E+01  0.7818608E-02  0.3354467E+00
         11   -1    0    0    0    0  0.00000000000E+00  0.00000000000E+00  0.39999999674E+01  0.40000000000E+01  0.51100000000E-03 0.  1.
    9000002   -1    0    0    0    0 -0.00000000000E+00 -0.00000000000E+00  0.00000000000E+00  0.93800000000E+00  0.93800000000E+00 0.  1.
         11    1    1    2    0    0  0.18851558085E-01 -0.64040329396E-02  0.14529594194E+00  0.14665457628E+00  0.51100000000E-03 0.  1.
    9000002    1    1    2    0    0 -0.19444640670E+00  0.11320827449E+00  0.34093406706E-01  0.96521079505E+00  0.93800000000E+00 0.  1.
         22    1    1    2    0    0  0.17559484862E+00 -0.10680424155E+00  0.38206106187E+01  0.38261346287E+01  0.00000000000E+00 0.  1.
</event>
<event>
 5    1  0.1537976E+002  0.1599585E+01  0.7818608E-02  0.3353813E+00
         11   -1    0    0    0    0  0.00000000000E+00  0.00000000000E+00  0.39999999674E+01  0.40000000000E+01  0.51100000000E-03 0.  1.
    9000002   -1    0    0    0    0 -0.00000000000E+00 -0.00000000000E+00  0.00000000000E+00  0.93800000000E+00  0.93800000000E+00 0.  1.
         11    1    1    2    0    0 -0.31248957242E-01  0.43840935760E-01  0.72729125304E+00  0.72928139484E+00  0.51100000000E-03 0.  1.
    9000002    1    1    2    0    0  0.17514413600E+00 -0.28453941880E+00  0.74799858175E-01  0.99853751457E+00  0.93800000000E+00 0.  1.
         22    1    1    2    0    0 -0.14389517876E+00  0.24069848304E+00  0.31979088561E+01  0.32101810906E+01  0.00000000000E+00 0.  1.
</event>
<event>
 5    1  0.1537976E+002  0.1599575E+01  0.7818608E-02  0.3353825E+00
         11   -1    0    0    0    0  0.00000000000E+00  0.00000000000E+00  0.39999999674E+01  0.40000000000E+01  0.51100000000E-03 0.  1.
    9000002   -1    0    0    0    0 -0.00000000000E+00 -0.00000000000E+00  0.00000000000E+00  0.93800000000E+00  0.93800000000E+00 0.  1.
         11    1    1    2    0    0  0.18573425666E+00 -0.14031264702E+00  0.20157813822E+01  0.20291770980E+01  0.51100000000E-03 0.  1.
    9000002    1    1    2    0    0 -0.36555972185E+00  0.24778649135E+00  0.13238861316E+00  0.10451807501E+01  0.93800000000E+00 0.  1.
         22    1    1    2    0    0  0.17982546519E+00 -0.10747384433E+00  0.18518299719E+01  0.18636421518E+01  0.00000000000E+00 0.  1.
</event>
<event>
 5    1  0.1537976E+002  0.1599663E+01  0.7818608E-02  0.3353730E+00
         11   -1    0    0    0    0  0.00000000000E+00  0.00000000000E+00  0.39999999674E+01  0.40000000000E+01  0.51100000000E-03 0. -1.
    9000002   -1    0    0    0    0 -0.00000000000E+00 -0.00000000000E+00  0.00000000000E+00  0.93800000000E+00  0.93800000000E+00 0.  1.
         11    1    1    2    0    0  0.21393071777E-01  0.17930074304E-01  0.45291009363E+00  0.45376972697E+00  0.51100000000E-03 0. -1.
    9000002    1    1    2    0    0 -0.19262173919E+00 -0.18095288867E+00  0.46462089201E-01  0.97562790451E+00  0.93800000000E+00 0.  1.
         22    1    1    2    0    0  0.17122866741E+00  0.16302281436E+00  0.35006277845E+01  0.35086023685E+01  0.00000000000E+00 0. -1.
</event>
<event>
 5    1  0.1537976E+002  0.1599498E+01  0.7818608E-02  0.3353909E+00
         11   -1    0    0    0    0  0.00000000000E+00  0.00000000000E+00  0.39999999674E+01  0.40000000000E+01  0.51100000000E-03 0.  1.
    9000002   -1    0    0    0    0 -0.00000000000E+00 -0.00000000000E+00  0.00000000000E+00  0.93800000000E+00  0.93800000000E+00 0.  1.
         11    1    1    2    0    0 -0.31391916259E-01 -0.11531843691E+00  0.11534036544E+01  0.11595792536E+01  0.51100000000E-03 0.  1.
    9000002    1    1    2    0    0  0.71256210228E-01  0.42336714395E+00  0.12496713430E+00  0.10391236552E+01  0.93800000000E+00 0.  1.
         22    1    1    2    0    0 -0.39864293969E-01 -0.30804870704E+00  0.27216291786E+01  0.27392970912E+01  0.00000000000E+00 0.  1.
</event>
<event>
 5    1  0.1867372E+002  0.1571535E+01  0.7818608E-02  0.3384849E+00
         11   -1    0    0    0    0  0.00000000000E+00  0.00000000000E+00  0.39999999674E+01  0.40000000000E+01  0.51100000000E-03 0. -1.
    9000002   -1    0    0    0    0 -0.00000000000E+00 -0.00000000000E+00  0.00000000000E+00  0.93800000000E+00  0.93800000000E+00 0. -1.
         11    1    1    2    0    0 -0.26549111957E-02 -0.16544969117E+00  0.20814640193E+01  0.20880309800E+01  0.51100000000E-03 0. -1.
    9000002    1    1    2    0    0  0.25545513812E-01 -0.68643066971E-01  0.24282493100E-01  0.94116846706E+00  0.93800000000E+00 0. -1.
         22    1    1    2    0    0 -0.22890602616E-01  0.23409275815E+00  0.18942534550E+01  0.19088005529E+01  0.00000000000E+00 0. -1.
</event>
<event>
 5    1  0.1537976E+002  0.1599676E+01  0.7818608E-02  0.3353715E+00
         11   -1    0    0    0    0  0.00000000000E+00  0.00000000000E+00  0.39999999674E+01  0.40000000000E+01  0.51100000000E-03 0. -1.
    9000002   -1    0    0    0    0 -0.00000000000E+00 -0.00000000000E+00  0.00000000000E+00  0.93800000000E+00  0.93800000000E+00 0. -1.
         11    1    1    2    0    0 -0.13469224595E+00 -0.14145942759E+00  0.19285652668E+01  0.19384315877E+01  0.51100000000E-03 0. -1.
    9000002    1    1    2    0    0  0.27152694867E+00  0.28794057237E+00  0.10559834364E+00  0.10235387962E+01  0.93800000000E+00 0. -1.
         22    1    1    2    0    0 -0.13683470272E+00 -0.14648114477E+00  0.19658363569E+01  0.19760296161E+01  0.00000000000E+00 0. -1.
</event>
<event>
 5    1  0.1537976E+002  0.1596434E+01  0.7818608E-02  0.3357242E+00
         11   -1    0    0    0    0  0.00000000000E+00  0.00000000000E+00  0.39999999674E+01  0.40000000000E+01  0.51100000000E-03 0.  1.
    9000002   -1    0    0    0    0 -0.00000000000E+00 -0.00000000000E+00  0.00000000000E+00  0.93800000000E+00  0.93800000000E+00 0. -1.
         11    1    1    2    0    0 -0.30159273102E-01  0.96366375770E-01  0.12147673586E+01  0.12189569544E+01  0.51100000000E-03 0.  1.
    9000002    1    1    2    0    0  0.25752136551E+00 -0.18373231562E+00  0.69430489457E-01  0.99234037022E+00  0.93800000000E+00 0. -1.
         22    1    1    2    0    0 -0.22736209241E+00  0.87365939855E-01  0.27158021193E+01  0.27267026754E+01  0.00000000000E+00 0.  1.
</event>
<event>
 5    1  0.1537976E+002  0.1594782E+01  0.7818608E-02  0.3359046E+00
         11   -1    0    0    0    0  0.00000000000E+00  0.00000000000E+00  0.39999999674E+01  0.40000000000E+01  0.51100000000E-03 0.  1.
    9000002   -1    0    0    0    0 -0.00000000000E+00 -0.00000000000E+00  0.00000000000E+00  0.93800000000E+00  0.93800000000E+00 0.  1.
         11    1    1    2    0    0 -0.10664386217E-01  0.94038849099E-01  0.57825207175E+00  0.58594603324E+00  0.51100000000E-03 0.  1.
    9000002    1    1    2    0    0  0.16344366996E+00 -0.24316008207E+00  0.61055696827E-01  0.98458745517E+00  0.93800000000E+00 0.  1.
         22    1    1    2    0    0 -0.15277928375E+00  0.14912123297E+00  0.33606921988E+01  0.33674665116E+01  0.00000000000E+00 0.  1.
</event>
<event>
 5    1  0.1537976E+002  0.1559450E+01  0.7818608E-02  0.3398587E+00
         11   -1    0    0    0    0  0.00000000000E+00  0.00000000000E+00  0.39999999674E+01  0.40000000000E+01  0.51100000000E-03 0.  1.
    9000002   -1    0    0    0    0 -0.00000000000E+00 -0.00000000000E+00  0.00000000000E+00  0.93800000000E+00  0.93800000000E+00 0.  1.
         11    1    1    2    0    0  0.15718100186E+00 -0.10926934134E+00  0.86085070937E+00  0.88187859780E+00  0.51100000000E-03 0.  1.
    9000002    1    1    2    0    0 -0.22673263534E-01 -0.90620303642E-01  0.35680988841E-01  0.94331503183E+00  0.93800000000E+00 0.  1.
         22    1    1    2    0    0 -0.13450773833E+00  0.19988964499E+00  0.31034682691E+01  0.31128063704E+01  0.00000000000E+00 0.  1.
</event>
<event>
 5    1  0.1537976E+002  0.1599312E+01  0.7818608E-02  0.3354110E+00
         11   -1    0    0    0    0  0.00000000000E+00  0.00000000000E+00  0.39999999674E+01  0.40000000000E+01  0.51100000000E-03 0. -1.
    9000002   -1    0    0    0    0 -0.00000000000E+00 -0.00000000000E+00  0.00000000000E+00  0.93800000000E+00  0.93800000000E+00 0. -1.
         11    1    1    2    0    0 -0.48425428479E-01  0.59829493057E-02  0.66442844999E+00  0.66621786533E+00  0.51100000000E-03 0. -1.
    9000002    1    1    2    0    0  0.26611902734E+00  0.64278645074E-01  0.50166432328E-01  0.97842309450E+00  0.93800000000E+00 0. -1.
         22    1    1    2    0    0 -0.21769359886E+00 -0.70261594380E-01  0.32854050850E+01  0.32933590402E+01  0.00000000000E+00 0. -1.
</event>
<event>
 5    1  0.1537976E+002  0.1599393E+01  0.7818608E-02  0.3354022E+00
         11   -1    0    0    0    0  0.00000000000E+00  0.00000000000E+00  0.39999999674E+01  0.40000000000E+01  0.51100000000E-03 0. -1.
    9000002   -1    0    0    0    0 -0.00000000000E+00 -0.00000000000E+00  0.00000000000E+00  0.93800000000E+00  0.93800000000E+00 0. -1.
         11    1    1    2    0    0  0.16986014825E+00  0.17715470783E-02  0.16424017409E+01  0.16511630289E+01  0.51100000000E-03 0. -1.
    9000002    1    1    2    0    0 -0.39122435791E+00  0.41833318574E-01  0.10456828423E+00  0.10225385327E+01  0.93800000000E+00 0. -1.
         22    1    1    2    0    0  0.22136420967E+00 -0.43604865652E-01  0.22530299423E+01  0.22642984384E+01  0.00000000000E+00 0. -1.
</event>
<event>
 5    1  0.1537976E+002  0.1592587E+01  0.7818608E-02  0.3361449E+00
         11   -1    0    0    0    0  0.00000000000E+00  0.00000000000E+00  0.39999999674E+01  0.40000000000E+01  0.51100000000E-03 0. -1.
    9000002   -1    0    0    0    0 -0.00000000000E+00 -0.00000000000E+00  0.00000000000E+00  0.93800000000E+00  0.93800000000E+00 0.  1.
         11    1    1    2    0    0 -0.11489561935E+00 -0.14591045545E+00  0.20059304264E+01  0.20145093698E+01  0.51100000000E-03 0. -1.
    9000002    1    1    2    0    0  0.42200046163E-01  0.36134201362E+00  0.94660163266E-01  0.10105213710E+01  0.93800000000E+00 0.  1.
         22    1    1    2    0    0  0.72695573185E-01 -0.21543155817E+00  0.18994093777E+01  0.19129692592E+01  0.00000000000E+00 0.  1.
</event>
<event>
 5    1  0.1537976E+002  0.1576030E+01  0.7818608E-02  0.3379797E+00
         11   -1    0    0    0    0  0.00000000000E+00  0.00000000000E+00  0.39999999674E+01  0.40000000000E+01  0.51100000000E-03 0. -1.
    9000002   -1    0    0    0    0 -0.00000000000E+00 -0.00000000000E+00  0.00000000000E+00  0.93800000000E+00  0.93800000000E+00 0. -1.
         11    1    1    2    0    0  0.79186060941E-01  0.62183456552E-01  0.36552563207E+00  0.37913910816E+00  0.51100000000E-03 0. -1.
    9000002    1    1    2    0    0  0.11962095278E+00 -0.37713784554E-01  0.27932334105E-01  0.94676064408E+00  0.93800000000E+00 0. -1.
         22    1    1    2    0    0 -0.19880701372E+00 -0.24469671999E-01  0.36065420012E+01  0.36121002478E+01  0.00000000000E+00 0. -1.
</event>
<event>
 5    1  0.1537976E+002  0.1552680E+01  0.7818608E-02  0.3406381E+00
         11   -1    0    0    0    0  0.00000000000E+00  0.00000000000E+00  0.39999999674E+01  0.40000000000E+01  0.51100000000E-03 0.  1.
    9000002   -1    0    0    0    0 -0.00000000000E+00 -0.00000000000E+00  0.00000000000E+00  0.93800000000E+00  0.93800000000E+00 0. -1.
         11    1    1    2    0    0 -0.20032841185E+00  0.15581830878E+00  0.16296561524E+01  0.16492999285E+01  0.51100000000E-03 0.  1.
    9000002    1    1    2    0    0  0.13542356476E+00  0.13726401859E+00  0.60598133050E-01  0.95952961727E+00  0.93800000000E+00 0. -1.
         22    1    1    2    0    0  0.64904847092E-01 -0.29308232737E+00  0.23097456820E+01  0.23291704543E+01  0.00000000000E+00 0.  1.
</event>
<event>
 5    1  0.1537976E+002  0.1598233E+01  0.7818608E-02  0.3355284E+00
         11   -1    0    0    0    0  0.00000000000E+00  0.00000000000E+00  0.39999999674E+01  0.40000000000E+01  0.51100000000E-03 0.  1.
    9000002   -1    0    0    0    0 -0.00000000000E+00 -0.00000000000E+00  0.00000000000E+00  0.93800000000E+00  0.93800000000E+00 0.  1.
         11    1    1    2    0    0 -0.13189266450E+00  0.39591668113E+00  0.19887770958E+01  0.20320876682E+01  0.51100000000E-03 0.  1.
    9000002    1    1    2    0    0  0.20910670948E+00 -0.65135604363E+00  0.33464580503E+00  0.12082309905E+01  0.93800000000E+00 0.  1.
         22    1    1    2    0    0 -0.77214044983E-01  0.25543936251E+00  0.16765770665E+01  0.16976813413E+01  0.00000000000E+00 0. -1.
</event>
<event>
 5    1  0.1537976E+002  0.1529864E+01  0.7818608E-02  0.3433191E+00
         11   -1    0    0    0    0  0.00000000000E+00  0.00000000000E+00  0.39999999674E+01  0.40000000000E+01  0.51100000000E-03 0.  1.
    9000002   -1    0    0    0    0 -0.00000000000E+00 -0.00000000000E+00  0.00000000000E+00  0.93800000000E+00  0.93800000000E+00 0.  1.
         11    1    1    2    0    0 -0.20141592585E-01 -0.25498278231E+00  0.14242262949E+01  0.14470116459E+01  0.51100000000E-03 0.  1.
    9000002    1    1    2    0    0 -0.22112833435E+00 -0.93237172633E-01  0.93378856988E-01  0.97270474531E+00  0.93800000000E+00 0.  1.
         22    1    1    2    0    0  0.24126992693E+00  0.34821995495E+00  0.24823948155E+01  0.25182836088E+01  0.00000000000E+00 0. -1.
</event>
<event>
 5    1  0.1537976E+002  0.1566183E+01  0.7818608E-02  0.3390906E+00
         11   -1    0    0    0    0  0.00000000000E+00  0.00000000000E+00  0.39999999674E+01  0.40000000000E+01  0.51100000000E-03 0.  1.
    9000002   -1    0    0    0    0 -0.00000000000E+00 -0.00000000000E+00  0.00000000000E+00  0.93800000000E+00  0.93800000000E+00 0. -1.
         11    1    1    2    0    0 -0.93711064548E-01  0.38292819808E-01  0.24983154407E+00  0.26956291511E+00  0.51100000000E-03 0.  1.
    9000002    1    1    2    0    0 -0.11381358871E+00  0.26872500985E-01  0.33963309714E-01  0.94587164599E+00  0.93800000000E+00 0. -1.
         22    1    1    2    0    0  0.20752465326E+00 -0.65165320793E-01  0.37162051136E+01  0.37225654389E+01  0.00000000000E+00 0.  1.
</event>
<event>
 5    1  0.1537976E+002  0.1597907E+01  0.7818608E-02  0.3355638E+00
         11   -1    0    0    0    0  0.00000000000E+00  0.00000000000E+00  0.39999999674E+01  0.40000000000E+01  0.51100000000E-03 0. -1.
    9000002   -1    0    0    0    0 -0.00000000000E+00 -0.00000000000E+00  0.00000000000E+00  0.93800000000E+00  0.93800000000E+00 0.  1.
         11    1    1    2    0    0  0.19457516852E-01  0.16653144865E+00  0.15663116457E+01  0.15752598995E+01  0.51100000000E-03 0. -1.
    9000002    1    1    2    0    0  0.61090085497E-01 -0.35804229993E+00  0.90027681908E-01  0.10098887417E+01  0.93800000000E+00 0.  1.
         22    1    1    2    0    0 -0.80547602349E-01  0.19151085128E+00  0.23436606397E+01  0.23528513588E+01  0.00000000000E+00 0. -1.
</event>
<event>
 5    1  0.1537976E+002  0.1599501E+01  0.7818608E-02  0.3353906E+00
         11   -1    0    0    0    0  0.00000000000E+00  0.00000000000E+00  0.39999999674E+01  0.40000000000E+01  0.51100000000E-03 0.  1.
    9000002   -1    0    0    0    0 -0.00000000000E+00 -0.00000000000E+00  0.00000000000E+00  0.93800000000E+00  0.93800000000E+00 0.  1.
         11    1    1    2    0    0 -0.16184880679E+00  0.60010311075E-01  0.15138773907E+01  0.15236867424E+01  0.51100000000E-03 0.  1.
    9000002    1    1    2    0    0  0.41212782875E+00 -0.19280472742E+00  0.14086413732E+00  0.10520027164E+01  0.93800000000E+00 0.  1.
         22    1    1    2    0    0 -0.25027902196E+00  0.13279441634E+00  0.23452584393E+01  0.23623105412E+01  0.00000000000E+00 0.  1.
</event>
<event>
 5    1  0.1537976E+002  0.1593028E+01  0.7818608E-02  0.3360966E+00
         11   -1    0    0    0    0  0.00000000000E+00  0.00000000000E+00  0.39999999674E+01  0.40000000000E+01  0.51100000000E-03 0.  1.
    9000002   -1    0    0    0    0 -0.00000000000E+00 -0.00000000000E+00  0.00000000000E+00  0.93800000000E+00  0.93800000000E+00 0.  1.
         11    1    1    2    0    0 -0.21078812899E-01 -0.16040706554E-01  0.11156522403E+00  0.11466769795E+00  0.51100000000E-03 0.  1.
    9000002    1    1    2    0    0 -0.20719045556E+00 -0.82221329884E-01  0.37984739958E-01  0.96487049516E+00  0.93800000000E+00 0.  1.
         22    1    1    2    0    0  0.22826926846E+00  0.98262036438E-01  0.38504500034E+01  0.38584618069E+01  0.00000000000E+00 0.  1.
</event>
<event>
 5    1  0.1537976E+002  0.1599006E+01  0.7818608E-02  0.3354442E+00
         11   -1    0    0    0    0  0.00000000000E+00  0.00000000000E+00  0.39999999674E+01  0.40000000000E+01  0.51100000000E-03 0. -1.
    9000002   -1    0    0    0    0 -0.00000000000E+00 -0.00000000000E+00  0.00000000000E+00  0.93800000000E+00  0.93800000000E+00 0. -1.
         11    1    1    2    0    0 -0.37880589583E-01 -0.35054732144E+00  0.25011976870E+01  0.25259272543E+01  0.51100000000E-03 0. -1.
    9000002    1    1    2    0    0  0.51408528065E-01  0.57287987922E+00  0.23028572359E+00  0.11241484365E+01  0.93800000000E+00 0. -1.
         22    1    1    2    0    0 -0.13527938482E-01 -0.22233255777E+00  0.12685165568E+01  0.12879243092E+01  0.00000000000E+00 0. -1.
</event>
<event>
 5    1  0.1537976E+002  0.1594550E+01  0.7818608E-02  0.3359299E+00
         11   -1    0    0    0    0  0.00000000000E+00  0.00000000000E+00  0.39999999674E+01  0.40000000000E+01  0.51100000000E-03 0. -1.
    9000002   -1    0    0    0    0 -0.00000000000E+00 -0.00000000000E+00  0.00000000000E+00  0.93800000000E+00  0.93800000000E+00 0.  1.
         11    1    1    2    0    0  0.54631393683E-01  0.18319742286E-01  0.22629905578E+00  0.23352029013E+00  0.51100000000E-03 0. -1.
    9000002    1    1    2    0    0 -0.27238829408E+00 -0.12057057059E+00  0.63201812328E-01  0.98619020190E+00  0.93800000000E+00 0.  1.
         22    1    1    2    0    0  0.21775690039E+00  0.10225082830E+00  0.37104990993E+01  0.37182895080E+01  0.00000000000E+00 0. -1.
</event>
<event>
 5    1  0.1537976E+002  0.1599676E+01  0.7818608E-02  0.3353715E+00
         11   -1    0    0    0    0  0.00000000000E+00  0.00000000000E+00  0.39999999674E+01  0.40000000000E+01  0.51100000000E-03 0. -1.
    9000002   -1    0    0    0    0 -0.00000000000E+00 -0.00000000000E+00  0.00000000000E+00  0.93800000000E+00  0.93800000000E+00 0. -1.
         11    1    1    2    0    0 -0.60497440619E-01  0.73412823928E-01  0.95926809914E+00  0.96397351115E+00  0.51100000000E-03 0. -1.
    9000002    1    1    2    0    0  0.24599471086E+00 -0.29390973287E+00  0.98878120295E-01  0.10180948932E+01  0.93800000000E+00 0. -1.
         22    1    1    2    0    0 -0.18549727025E+00  0.22049690895E+00  0.29418537479E+01  0.29559315957E+01  0.00000000000E+00 0. -1.
</event>
<event>
 5    1  0.1537976E+002  0.1598120E+01  0.7818608E-02  0.3355406E+00
         11   -1    0    0    0    0  0.00000000000E+00  0.00000000000E+00  0.39999999674E+01  0.40000000000E+01  0.51100000000E-03 0.  1.
    9000002   -1    0    0    0    0 -0.00000000000E+00 -0.00000000000E+00  0.00000000000E+00  0.93800000000E+00  0.93800000000E+00 0. -1.
         11    1    1    2    0    0 -0.82409763430E-01 -0.33391339775E-01  0.11802447362E+01  0.11835895611E+01  0.51100000000E-03 0.  1.
    9000002    1    1    2    0    0  0.40274596804E+00  0.50291313716E-01  0.11250220227E+00  0.10282189828E+01  0.93800000000E+00 0. -1.
         22    1    1    2    0    0 -0.32033620461E+00 -0.16899973941E-01  0.27072530289E+01  0.27261914561E+01  0.00000000000E+00 0.  1.
</event>
<event>
 5    1  0.1537976E+002  0.1599628E+01  0.7818608E-02  0.3353767E+00
         11   -1    0    0    0    0  0.00000000000E+00  0.00000000000E+00  0.39999999674E+01  0.40000000000E+01  0.51100000000E-03 0.  1.
    9000002   -1    0    0    0    0 -0.00000000000E+00 -0.00000000000E+00  0.00000000000E+00  0.93800000000E+00  0.93800000000E+00 0. -1.
         11    1    1    2    0    0 -0.87152096130E-02 -0.82150998678E-02  0.22659302292E+00  0.22690989820E+00  0.51100000000E-03 0.  1.
    9000002    1    1    2    0    0  0.21986724110E+00  0.13713990426E+00  0.44675893942E-01  0.97416060922E+00  0.93800000000E+00 0. -1.
         22    1    1    2    0    0 -0.21115203149E+00 -0.12892480439E+00  0.37287310505E+01  0.37369294926E+01  0.00000000000E+00 0.  1.
</event>
<event>
 5    1  0.1537976E+002  0.1599647E+01  0.7818608E-02  0.3353747E+00
         11   -1    0    0    0    0  0.00000000000E+00  0.00000000000E+00  0.39999999674E+01  0.40000000000E+01  0.51100000000E-03 0. -1.
    9000002   -1    0    0    0    0 -0.00000000000E+00 -0.00000000000E+00  0.00000000000E+00  0.93800000000E+00  0.93800000000E+00 0. -1.
         11    1    1    2    0    0  0.61677967200E-01  0.59787592603E-01  0.10962956957E+01  0.10996559650E+01  0.51100000000E-03 0. -1.
    9000002    1    1    2    0    0 -0.21040063560E+00 -0.23270174252E+00  0.65765792479E-01  0.99125560170E+00  0.93800000000E+00 0. -1.
         22    1    1    2    0    0  0.14872266840E+00  0.17291414991E+00  0.28379384792E+01  0.28470884333E+01  0.00000000000E+00 0.  1.
</event>
<event>
 5    1  0.1537976E+002  0.1599319E+01  0.7818608E-02  0.3354103E+00
         11   -1    0    0    0    0  0.00000000000E+00  0.00000000000E+00  0.39999999674E+01  0.40000000000E+01  0.51100000000E-03 0.  1.
    9000002   -1    0    0    0    0 -0.00000000000E+00 -0.00000000000E+00  0.00000000000E+00  0.93800000000E+00  0.93800000000E+00 0.  1.
         11    1    1    2    0    0 -0.37908301022E-03  0.22032467504E-02  0.15388501855E-01  0.15558441776E-01  0.51100000000E-03 0.  1.
    9000002    1    1    2    0    0 -0.30546715695E+00  0.28859280228E-01  0.63125955692E-01  0.98892463227E+00  0.93800000000E+00 0.  1.
         22    1    1    2    0    0  0.30584623996E+00 -0.31062526978E-01  0.39214855098E+01  0.39335169260E+01  0.00000000000E+00 0.  1.
</event>
<event>
 5    1  0.1537976E+002  0.1599676E+01  0.7818608E-02  0.3353715E+00
         11   -1    0    0    0    0  0.00000000000E+00  0.00000000000E+00  0.39999999674E+01  0.40000000000E+01  0.51100000000E-03 0.  1.
    9000002   -1    0    0    0    0 -0.00000000000E+00 -0.00000000000E+00  0.00000000000E+00  0.93800000000E+00  0.93800000000E+00 0.  1.
         11    1    1    2    0    0 -0.82353431147E-02  0.23402933860E-01  0.34542840268E+00  0.34631858265E+00  0.51100000000E-03 0. -1.
    9000002    1    1    2    0    0  0.99618397418E-01 -0.26794272151E+00  0.54445313092E-01  0.98210255026E+00  0.93800000000E+00 0.  1.
         22    1    1    2    0    0 -0.91383054304E-01  0.24453978765E+00  0.36001262516E+01  0.36095788671E+01  0.00000000000E+00 0.  1.
</event>
<event>
 5    1  0.1537976E+002  0.1598925E+01  0.7818608E-02  0.3354531E+00
         11   -1    0    0    0    0  0.00000000000E+00  0.00000000000E+00  0.39999999674E+01  0.40000000000E+01  0.51100000000E-03 0. -1.
    9000002   -1    0    0    0    0 -0.00000000000E+00 -0.00000000000E+00  0.00000000000E+00  0.93800000000E+00  0.93800000000E+00 0. -1.
         11    1    1    2    0    0 -0.39408175694E-01  0.17000325772E-01  0.70511082430E+00  0.70641599009E+00  0.51100000000E-03 0. -1.
    9000002    1    1    2    0    0  0.23812711512E+00  0.45333989852E-01  0.39584458981E-01  0.96962395958E+00  0.93800000000E+00 0. -1.
         22    1    1    2    0    0 -0.19871893943E+00 -0.62334315624E-01  0.32553046841E+01  0.32619600503E+01  0.00000000000E+00 0. -1.
</event>
<event>
 5    1  0.1537976E+002  0.1559717E+01  0.7818608E-02  0.3398280E+00
         11   -1    0    0    0    0  0.00000000000E+00  0.00000000000E+00  0.39999999674E+01  0.40000000000E+01  0.51100000000E-03 0.  1.
    9000002   -1    0    0    0    0 -0.00000000000E+00 -0.00000000000E+00  0.00000000000E+00  0.93800000000E+00  0.93800000000E+00 0. -1.
         11    1    1    2    0    0  0.97893608085E-01  0.30846475776E-01  0.19290481417E+00  0.21851130868E+00  0.51100000000E-03 0.  1.
    9000002    1    1    2    0    0  0.15049156981E+00 -0.26080291250E+00  0.92471824927E-01  0.98947506798E+00  0.93800000000E+00 0. -1.
         22    1    1    2    0    0 -0.24838517789E+00  0.22995643673E+00  0.37146233283E+01  0.37300136233E+01  0.00000000000E+00 0.  1.
</event>
<event>
 5    1  0.1537976E+002  0.1597736E+01  0.7818608E-02  0.3355824E+00
         11   -1    0    0    0    0  0.00000000000E+00  0.00000000000E+00  0.39999999674E+01  0.40000000000E+01  0.51100000000E-03 0. -1.
    9000002   -1    0    0    0    0 -0.00000000000E+00 -0.00000000000E+00  0.00000000000E+00  0.93800000000E+00  0.93800000000E+00 0. -1.
         11    1    1    2    0    0 -0.25180748018E-01  0.14280195108E-02  0.17286145059E+00  0.17469244841E+00  0.51100000000E-03 0. -1.
    9000002    1    1    2    0    0  0.11615492717E+00 -0.22022820820E+00  0.42661972532E-01  0.97141982412E+00  0.93800000000E+00 0. -1.
         22    1    1    2    0    0 -0.90974179154E-01  0.21880018869E+00  0.37844765442E+01  0.37918877275E+01  0.00000000000E+00 0. -1.
</event>
<event>
 5    1  0.1537976E+002  0.1599306E+01  0.7818608E-02  0.3354117E+00
         11   -1    0    0    0    0  0.00000000000E+00  0.00000000000E+00  0.39999999674E+01  0.40000000000E+01  0.51100000000E-03 0. -1.
    9000002   -1    0    0    0    0 -0.00000000000E+00 -0.00000000000E+00  0.00000000000E+00  0.93800000000E+00  0.93800000000E+00 0. -1.
         11    1    1    2    0    0 -0.72034065845E-03  0.19767138556E-01  0.23684650202E+00  0.23767159127E+00  0.51100000000E-03 0. -1.
    9000002    1    1    2    0    0  0.15140872060E+00 -0.21062696431E+00  0.45016550652E-01  0.97424781683E+00  0.93800000000E+00 0. -1.
         22    1    1    2    0    0 -0.15068837994E+00  0.19085982576E+00  0.37181369147E+01  0.37260805919E+01  0.00000000000E+00 0. -1.
</event>
<event>
 5    1  0.1537976E+002  0.1599239E+01  0.7818608E-02  0.3354189E+00
         11   -1    0    0    0    0  0.00000000000E+00  0.00000000000E+00  0.39999999674E+01  0.40000000000E+01  0.51100000000E-03 0.  1.
    9000002   -1    0    0    0    0 -0.00000000000E+00 -0.00000000000E+00  0.00000000000E+00  0.93800000000E+00  0.93800000000E+00 0.  1.
         11    1    1    2    0    0 -0.81712544192E-01 -0.78906340017E-01  0.13591579074E+01  0.13638964876E+01  0.51100000000E-03 0.  1.
    9000002    1    1    2    0    0  0.19038230742E+00  0.27985954377E+00  0.77072513131E-01  0.10001754644E+01  0.93800000000E+00 0.  1.
         22    1    1    2    0    0 -0.10866976322E+00 -0.20095320376E+00  0.25637695468E+01  0.25739280481E+01  0.00000000000E+00 0.  1.
</event>
<event>
 5    1  0.1537976E+002  0.1518615E+01  0.7818608E-02  0.3446727E+00
         11   -1    0    0    0    0  0.00000000000E+00  0.00000000000E+00  0.39999999674E+01  0.40000000000E+01  0.51100000000E-03 0.  1.
    9000002   -1    0    0    0    0 -0.00000000000E+00 -0.00000000000E+00  0.00000000000E+00  0.93800000000E+00  0.93800000000E+00 0. -1.
         11    1    1    2    0    0  0.13648968785E-01  0.17903211151E+00  0.23589268100E+00  0.29645304750E+00  0.51100000000E-03 0.  1.
    9000002    1    1    2    0    0 -0.25238416001E+00 -0.98789915790E-01  0.11427614932E+00  0.98303624042E+00  0.93800000000E+00 0. -1.
         22    1    1    2    0    0  0.23873519122E+00 -0.80242195715E-01  0.36498311370E+01  0.36585107121E+01  0.00000000000E+00 0.  1.
</event>
<event>
 5    1  0.1537976E+002  0.1599673E+01  0.7818608E-02  0.3353719E+00
         11   -1    0    0    0    0  0.00000000000E+00  0.00000000000E+00  0.39999999674E+01  0.40000000000E+01  0.51100000000E-03 0. -1.
    9000002   -1    0    0    0    0 -0.00000000000E+00 -0.00000000000E+00  0.00000000000E+00  0.93800000000E+00  0.93800000000E+00 0.  1.
         11    1    1    2    0    0 -0.17799132974E-02  0.12972823000E+00  0.13149791021E+01  0.13213640232E+01  0.51100000000E-03 0. -1.
    9000002    1    1    2    0    0 -0.34196577601E-03 -0.38079590349E+00  0.97578580163E-01  0.10170404202E+01  0.93800000000E+00 0.  1.
         22    1    1    2    0    0  0.21218790735E-02  0.25106767348E+00  0.25874422851E+01  0.25995955565E+01  0.00000000000E+00 0. -1.
</event>
<event>
 5    1  0.1537976E+002  0.1599368E+01  0.7818608E-02  0.3354049E+00
         11   -1    0    0    0    0  0.00000000000E+00  0.00000000000E+00  0.39999999674E+01  0.40000000000E+01  0.51100000000E-03 0.  1.
    9000002   -1    0    0    0    0 -0.00000000000E+00 -0.00000000000E+00  0.00000000000E+00  0.93800000000E+00  0.93800000000E+00 0.  1.
         11    1    1    2    0    0 -0.35014316423E-01  0.45992307982E-01  0.55369333893E+00  0.55670267598E+00  0.51100000000E-03 0.  1.
    9000002    1    1    2    0    0  0.20200868289E+00 -0.23314398648E+00  0.63778594723E-01  0.98948235737E+00  0.93800000000E+00 0.  1.
         22    1    1    2    0    0 -0.16699436647E+00  0.18715167849E+00  0.33825280337E+01  0.33918149667E+01  0.00000000000E+00 0.  1.
</event>
<event>
 5    1  0.1537976E+002  0.1598108E+01  0.7818608E-02  0.3355420E+00
         11   -1    0    0    0    0  0.00000000000E+00  0.00000000000E+00  0.39999999674E+01  0.40000000000E+01  0.51100000000E-03 0. -1.
    9000002   -1    0    0    0    0 -0.00000000000E+00 -0.00000000000E+00  0.00000000000E+00  0.93800000000E+00  0.93800000000E+00 0.  1.
         11    1    1    2    0    0 -0.13052852547E+00 -0.13098102204E+00  0.18171183302E+01  0.18265029458E+01  0.51100000000E-03 0. -1.
    9000002    1    1    2    0    0  0.19532023094E+00  0.33784813387E+00  0.10389487994E+00  0.10212391984E+01  0.93800000000E+00 0.  1.
         22    1    1    2    0    0 -0.64791705470E-01 -0.20686711183E+00  0.20789867573E+01  0.20902578559E+01  0.00000000000E+00 0. -1.
</event>
<event>
 5    1  0.1537976E+002  0.1599677E+01  0.7818608E-02  0.3353714E+00
         11   -1    0    0    0    0  0.00000000000E+00  0.00000000000E+00  0.39999999674E+01  0.40000000000E+01  0.51100000000E-03 0.  1.
    9000002   -1    0    0    0    0 -0.00000000000E+00 -0.00000000000E+00  0.00000000000E+00  0.93800000000E+00  0.93800000000E+00 0. -1.
         11    1    1    2    0    0  0.51138105378E-01 -0.14640151630E+00  0.66250269868E+00  0.68041060888E+00  0.51100000000E-03 0.  1.
    9000002    1    1    2    0    0 -0.27093562238E+00  0.77212010648E+00  0.49635648914E+00  0.13400706454E+01  0.93800000000E+00 0. -1.
         22    1    1    2    0    0  0.21979751701E+00 -0.62571859018E+00  0.28411407795E+01  0.29175187457E+01  0.00000000000E+00 0.  1.
</event>
<event>
 5    1  0.1537976E+002  0.1599568E+01  0.7818608E-02  0.3353833E+00
         11   -1    0    0    0    0  0.00000000000E+00  0.00000000000E+00  0.39999999674E+01  0.40000000000E+01  0.51100000000E-03 0. -1.
    9000002   -1    0    0    0    0 -0.00000000000E+00 -0.00000000000E+00  0.00000000000E+00  0.93800000000E+00  0.93800000000E+00 0.  1.
         11    1    1    2    0    0  0.18982049178E+00 -0.68992238188E-01  0.15707507401E+01  0.15836823850E+01  0.51100000000E-03 0. -1.
    9000002    1    1    2    0    0 -0.48959389768E+00  0.17721445804E+00  0.18635069219E+00  0.10888882997E+01  0.93800000000E+00 0.  1.
         22    1    1    2    0    0  0.29977340591E+00 -0.10822221985E+00  0.22428985351E+01  0.22654293152E+01  0.00000000000E+00 0. -1.
</event>
<event>
 5    1  0.1537976E+002  0.1599675E+01  0.7818608E-02  0.3353716E+00
         11   -1    0    0    0    0  0.00000000000E+00  0.00000000000E+00  0.39999999674E+01  0.40000000000E+01  0.51100000000E-03 0. -1.
    9000002   -1    0    0    0    0 -0.00000000000E+00 -0.00000000000E+00  0.00000000000E+00  0.93800000000E+00  0.93800000000E+00 0.  1.
         11    1    1    2    0    0 -0.43940870195E-01  0.30386014492E-01  0.77147472225E+00  0.77332245418E+00  0.51100000000E-03 0. -1.
    9000002    1    1    2    0    0  0.22999403691E+00 -0.15091027233E+00  0.50371032658E-01  0.97880151626E+00  0.93800000000E+00 0.  1.
         22    1    1    2    0    0 -0.18605316671E+00  0.12052425784E+00  0.31781542125E+01  0.31858760296E+01  0.00000000000E+00 0. -1.
</event>
<event>
 5    1  0.1537976E+002  0.1535712E+01  0.7818608E-02  0.3426238E+00
         11   -1    0    0    0    0  0.00000000000E+00  0.00000000000E+00  0.39999999674E+01  0.40000000000E+01  0.51100000000E-03 0.  1.
    9000002   -1    0    0    0    0 -0.00000000000E+00 -0.00000000000E+00  0.00000000000E+00  0.93800000000E+00  0.93800000000E+00 0.  1.
         11    1    1    2    0    0  0.20023578834E+00 -0.13923925855E+00  0.97956514389E+00  0.10094701949E+01  0.51100000000E-03 0.  1.
    9000002    1    1    2    0    0  0.63093971741E-01 -0.47731033581E-01  0.52199451497E-01  0.94277668807E+00  0.93800000000E+00 0.  1.
         22    1    1    2    0    0 -0.26332976008E+00  0.18697029213E+00  0.29682353720E+01  0.29857531171E+01  0.00000000000E+00 0.  1.
</event>
<event>
 5    1  0.1537976E+002  0.1583018E+01  0.7818608E-02  0.3372003E+00
         11   -1    0    0    0    0  0.00000000000E+00  0.00000000000E+00  0.39999999674E+01  0.40000000000E+01  0.51100000000E-03 0. -1.
    9000002   -1    0    0    0    0 -0.00000000000E+00 -0.00000000000E+00  0.00000000000E+00  0.93800000000E+00  0.93800000000E+00 0. -1.
         11    1    1    2    0    0  0.29941939762E-01 -0.18260529218E-01  0.45215349733E-01  0.57224607089E-01  0.51100000000E-03 0. -1.
    9000002    1    1    2    0    0  0.18958719866E+00  0.32384859070E+00  0.10845396664E+00  0.10160843855E+01  0.93800000000E+00 0. -1.
         22    1    1    2    0    0 -0.21952913842E+00 -0.30558806148E+00  0.38463306510E+01  0.38646910074E+01  0.00000000000E+00 0. -1.
</event>
<event>
 5    1  0.1537976E+002  0.1587510E+01  0.7818608E-02  0.3367032E+00
         11   -1    0    0    0    0  0.00000000000E+00  0.00000000000E+00  0.39999999674E+01  0.40000000000E+01  0.51100000000E-03 0. -1.
    9000002   -1    0    0    0    0 -0.00000000000E+00 -0.00000000000E+00  0.00000000000E+00  0.93800000000E+00  0.93800000000E+00 0. -1.
         11    1    1    2    0    0 -0.72550529033E-01  0.89840728853E-01  0.14808456415E+01  0.14853413785E+01  0.51100000000E-03 0. -1.
    9000002    1    1    2    0    0  0.15054872274E+00  0.10046529720E+00  0.30778622091E-01  0.95579784340E+00  0.93800000000E+00 0. -1.
         22    1    1    2    0    0 -0.77998193711E-01 -0.19030602606E+00  0.24883757038E+01  0.24968607781E+01  0.00000000000E+00 0. -1.
</event>
<event>
 5    1  0.1537976E+002  0.1575931E+01  0.7818608E-02  0.3379908E+00
         11   -1    0    0    0    0  0.00000000000E+00  0.00000000000E+00  0.39999999674E+01  0.40000000000E+01  0.51100000000E-03 0.  1.
    9000002   -1    0    0    0    0 -0.00000000000E+00 -0.00000000000E+00  0.00000000000E+00  0.93800000000E+00  0.93800000000E+00 0.  1.
         11    1    1    2    0    0  0.89050939338E-01 -0.84269615799E-03  0.21533901271E+01  0.21552308648E+01  0.51100000000E-03 0.  1.
    9000002    1    1    2    0    0  0.59950191412E-01 -0.25295538052E+00  0.63382269430E-01  0.97541876241E+00  0.93800000000E+00 0.  1.
         22    1    1    2    0    0 -0.14900113075E+00  0.25379807668E+00  0.17832275708E+01  0.18073503728E+01  0.00000000000E+00 0.  1.
</event>
<event>
 5    1  0.1537976E+002  0.1591280E+01  0.7818608E-02  0.3362883E+00
         11   -1    0    0    0    0  0.00000000000E+00  0.00000000000E+00  0.39999999674E+01  0.40000000000E+01  0.51100000000E-03 0.  1.
    9000002   -1    0    0    0    0 -0.00000000000E+00 -0.00000000000E+00  0.00000000000E+00  0.93800000000E+00  0.93800000000E+00 0. -1.
         11    1    1    2    0    0 -0.91103266722E-01 -0.24049118040E-02  0.34384322072E+00  0.35571619357E+00  0.51100000000E-03 0.  1.
    9000002    1    1    2    0    0  0.31901304725E+00  0.13453674057E-01  0.74809907757E-01  0.99367542385E+00  0.93800000000E+00 0. -1.
         22    1    1    2    0    0 -0.22790978052E+00 -0.11048762254E-01  0.35813468389E+01  0.35886083826E+01  0.00000000000E+00 0.  1.
</event>
<event>
 5    1  0.1537976E+002  0.1597987E+01  0.7818608E-02  0.3355551E+00
         11   -1    0    0    0    0  0.00000000000E+00  0.00000000000E+00  0.39999999674E+01  0.40000000000E+01  0.51100000000E-03 0.  1.
    9000002   -1    0    0    0    0 -0.00000000000E+00 -0.00000000000E+00  0.00000000000E+00  0.93800000000E+00  0.93800000000E+00 0. -1.
         11    1    1    2    0    0 -0.40364843891E-01 -0.48528073776E-01  0.15647151825E+01  0.15659879176E+01  0.51100000000E-03 0.  1.
    9000002    1    1    2    0    0  0.12088439378E+00  0.24335403583E+00  0.50438003190E-01  0.97786615423E+00  0.93800000000E+00 0. -1.
         22    1    1    2    0    0 -0.80519549886E-01 -0.19482596206E+00  0.23848467817E+01  0.23941459282E+01  0.00000000000E+00 0.  1.
</event>
<event>
 5    1  0.1537976E+002  0.1599656E+01  0.7818608E-02  0.3353737E+00
         11   -1    0    0    0    0  0.00000000000E+00  0.00000000000E+00  0.39999999674E+01  0.40000000000E+01  0.51100000000E-03 0.  1.
    9000002   -1    0    0    0    0 -0.00000000000E+00 -0.00000000000E+00  0.00000000000E+00  0.93800000000E+00  0.93800000000E+00 0.  1.
         11    1    1    2    0    0  0.38422489822E-02  0.38372231164E-02  0.82724593188E-01  0.82904201327E-01  0.51100000000E-03 0.  1.
    9000002    1    1    2    0    0 -0.11942382378E+00 -0.21429890434E+00  0.39982727407E-01  0.97037553997E+00  0.93800000000E+00 0.  1.
         22    1    1    2    0    0  0.11558157479E+00  0.21046168123E+00  0.38772926468E+01  0.38847202587E+01  0.00000000000E+00 0.  1.
</event>
<event>
 5    1  0.1537976E+002  0.1599677E+01  0.7818608E-02  0.3353714E+00
         11   -1    0    0    0    0  0.00000000000E+00  0.00000000000E+00  0.39999999674E+01  0.40000000000E+01  0.51100000000E-03 0. -1.
    9000002   -1    0    0    0    0 -0.00000000000E+00 -0.00000000000E+00  0.00000000000E+00  0.93800000000E+00  0.93800000000E+00 0. -1.
         11    1    1    2    0    0  0.45934082425E-01 -0.15908908372E+00  0.13864182966E+01  0.13962719043E+01  0.51100000000E-03 0. -1.
    9000002    1    1    2    0    0 -0.12741228372E+00  0.44143329679E+00  0.14357659417E+00  0.10543033169E+01  0.93800000000E+00 0. -1.
         22    1    1    2    0    0  0.81478201294E-01 -0.28234421308E+00  0.24700050766E+01  0.24874247788E+01  0.00000000000E+00 0. -1.
</event>
<event>
 5    1  0.1537976E+002  0.1598990E+01  0.7818608E-02  0.3354460E+00
         11   -1    0    0    0    0  0.00000000000E+00  0.00000000000E+00  0.39999999674E+01  0.40000000000E+01  0.51100000000E-03 0.  1.
    9000002   -1    0    0    0    0 -0.00000000000E+00 -0.00000000000E+00  0.00000000000E+00  0.93800000000E+00  0.93800000000E+00 0. -1.
         11    1    1    2    0    0  0.33641777134E-01 -0.13209685684E-01  0.31019638807E+00  0.31229525334E+00  0.51100000000E-03 0.  1.
    9000002    1    1    2    0    0 -0.30530341424E+00 -0.10908820333E-01  0.62832730004E-01  0.98849437483E+00  0.93800000000E+00 0. -1.
         22    1    1    2    0    0  0.27166163711E+00  0.24118506017E-01  0.36269708493E+01  0.36372103718E+01  0.00000000000E+00 0.  1.
</event>
<event>
 5    1  0.1537976E+002  0.1599481E+01  0.7818608E-02  0.3353927E+00
         11   -1    0    0    0    0  0.00000000000E+00  0.00000000000E+00  0.39999999674E+01  0.40000000000E+01  0.51100000000E-03 0. -1.
    9000002   -1    0    0    0    0 -0.00000000000E+00 -0.00000000000E+00  0.00000000000E+00  0.93800000000E+00  0.93800000000E+00 0. -1.
         11    1    1    2    0    0  0.84988738652E-01 -0.40709253281E-01  0.11108307850E+01  0.11148208928E+01  0.51100000000E-03 0. -1.
    9000002    1    1    2    0    0 -0.24991464651E+00  0.15976285374E+00  0.58828299072E-01  0.98553856786E+00  0.93800000000E+00 0. -1.
         22    1    1    2    0    0  0.16492590786E+00 -0.11905360046E+00  0.28303408833E+01  0.28376405394E+01  0.00000000000E+00 0. -1.
</event>
<event>
 5    1  0.1537976E+002  0.1567884E+01  0.7818608E-02  0.3388976E+00
         11   -1    0    0    0    0  0.00000000000E+00  0.00000000000E+00  0.39999999674E+01  0.40000000000E+01  0.51100000000E-03 0. -1.
    9000002   -1    0    0    0    0 -0.00000000000E+00 -0.00000000000E+00  0.00000000000E+00  0.93800000000E+00  0.93800000000E+00 0.  1.
         11    1    1    2    0    0 -0.83293672885E-01  0.11584612643E+00  0.65353471855E+00  0.66892903243E+00  0.51100000000E-03 0. -1.
    9000002    1    1    2    0    0 -0.21603877924E-01  0.10926061155E+00  0.31809440631E-01  0.94512456813E+00  0.93800000000E+00 0.  1.
         22    1    1    2    0    0  0.10489755081E+00 -0.22510673798E+00  0.33146558082E+01  0.33239463994E+01  0.00000000000E+00 0. -1.
</event>
<event>
 5    1  0.1537976E+002  0.1599674E+01  0.7818608E-02  0.3353717E+00
         11   -1    0    0    0    0  0.00000000000E+00  0.00000000000E+00  0.39999999674E+01  0.40000000000E+01  0.51100000000E-03 0.  1.
    9000002   -1    0    0    0    0 -0.00000000000E+00 -0.00000000000E+00  0.00000000000E+00  0.93800000000E+00  0.93800000000E+00 0. -1.
         11    1    1    2    0    0 -0.28737958266E+00 -0.15570314068E+00  0.19803862827E+01  0.20071772673E+01  0.51100000000E-03 0.  1.
    9000002    1    1    2    0    0  0.53838111569E+00  0.29467869530E+00  0.26360495124E+00  0.11515299951E+01  0.93800000000E+00 0. -1.
         22    1    1    2    0    0 -0.25100153303E+00 -0.13897555462E+00  0.17560087334E+01  0.17792927376E+01  0.00000000000E+00 0. -1.
</event>
<event>
 5    1  0.1537976E+002  0.1599309E+01  0.7818608E-02  0.3354113E+00
         11   -1    0    0    0    0  0.00000000000E+00  0.00000000000E+00  0.39999999674E+01  0.40000000000E+01  0.51100000000E-03 0.  1.
    9000002   -1    0    0    0    0 -0.00000000000E+00 -0.00000000000E+00  0.00000000000E+00  0.93800000000E+00  0.93800000000E+00 0. -1.
         11    1    1    2    0    0  0.71231889954E-02  0.60177968756E-01  0.63745521122E+00  0.64032923968E+00  0.51100000000E-03 0.  1.
    9000002    1    1    2    0    0  0.42618478735E-02 -0.27903810144E+00  0.52142447176E-01  0.98002207128E+00  0.93800000000E+00 0. -1.
         22    1    1    2    0    0 -0.11385036869E-01  0.21886013268E+00  0.33104023090E+01  0.33176486890E+01  0.00000000000E+00 0.  1.
</event>
<event>
 5    1  0.1537976E+002  0.1599676E+01  0.7818608E-02  0.3353715E+00
         11   -1    0    0    0    0  0.00000000000E+00  0.00000000000E+00  0.39999999674E+01  0.40000000000E+01  0.51100000000E-03 0. -1.
    9000002   -1    0    0    0    0 -0.00000000000E+00 -0.00000000000E+00  0.00000000000E+00  0.93800000000E+00  0.93800000000E+00 0. -1.
         11    1    1    2    0    0 -0.32822740014E-01 -0.11405159032E-01  0.52088158311E+00  0.52203955278E+00  0.51100000000E-03 0. -1.
    9000002    1    1    2    0    0  0.24450033329E+00  0.90950135952E-01  0.45246000923E-01  0.97465047110E+00  0.93800000000E+00 0. -1.
         22    1    1    2    0    0 -0.21167759328E+00 -0.79544976919E-01  0.34338723833E+01  0.34413099761E+01  0.00000000000E+00 0. -1.
</event>
<event>
 5    1  0.1537976E+002  0.1599675E+01  0.7818608E-02  0.3353716E+00
         11   -1    0    0    0    0  0.00000000000E+00  0.00000000000E+00  0.39999999674E+01  0.40000000000E+01  0.51100000000E-03 0. -1.
    9000002   -1    0    0    0    0 -0.00000000000E+00 -0.00000000000E+00  0.00000000000E+00  0.93800000000E+00  0.93800000000E+00 0. -1.
         11    1    1    2    0    0  0.11192036566E-01 -0.51254298286E-01  0.76308686030E+00  0.76488828090E+00  0.51100000000E-03 0. -1.
    9000002    1    1    2    0    0 -0.51153617954E-01  0.26523517231E+00  0.48550363058E-01  0.97732672480E+00  0.93800000000E+00 0. -1.
         22    1    1    2    0    0  0.39961581389E-01 -0.21398087402E+00  0.31883627440E+01  0.31957849943E+01  0.00000000000E+00 0. -1.
</event>
<event>
 5    1  0.1537976E+002  0.1599654E+01  0.7818608E-02  0.3353739E+00
         11   -1    0    0    0    0  0.00000000000E+00  0.00000000000E+00  0.39999999674E+01  0.40000000000E+01  0.51100000000E-03 0.  1.
    9000002   -1    0    0    0    0 -0.00000000000E+00 -0.00000000000E+00  0.00000000000E+00  0.93800000000E+00  0.93800000000E+00 0. -1.
         11    1    1    2    0    0 -0.22467058059E-01 -0.12947166329E-01  0.33784224026E+00  0.33883630006E+00  0.51100000000E-03 0.  1.
    9000002    1    1    2    0    0  0.29667374303E+00  0.13874892820E+00  0.71769828711E-01  0.99612322691E+00  0.93800000000E+00 0. -1.
         22    1    1    2    0    0 -0.27420668498E+00 -0.12580176187E+00  0.35903878984E+01  0.36030404730E+01  0.00000000000E+00 0.  1.
</event>
<event>
 5    1  0.1537976E+002  0.1599677E+01  0.7818608E-02  0.3353714E+00
         11   -1    0    0    0    0  0.00000000000E+00  0.00000000000E+00  0.39999999674E+01  0.40000000000E+01  0.51100000000E-03 0.  1.
    9000002   -1    0    0    0    0 -0.00000000000E+00 -0.00000000000E+00  0.00000000000E+00  0.93800000000E+00  0.93800000000E+00 0.  1.
         11    1    1    2    0    0  0.57894127403E+00 -0.53122639886E-01  0.21614405940E+01  0.22382628792E+01  0.51100000000E-03 0.  1.
    9000002    1    1    2    0    0 -0.90294562699E+00  0.82451838711E-01  0.63110420071E+00  0.14492224202E+01  0.93800000000E+00 0.  1.
         22    1    1    2    0    0  0.32400435297E+00 -0.29329198824E-01  0.12074551726E+01  0.12505147007E+01  0.00000000000E+00 0.  1.
</event>
<event>
 5    1  0.1537976E+002  0.1598959E+01  0.7818608E-02  0.3354494E+00
         11   -1    0    0    0    0  0.00000000000E+00  0.00000000000E+00  0.39999999674E+01  0.40000000000E+01  0.51100000000E-03 0. -1.
    9000002   -1    0    0    0    0 -0.00000000000E+00 -0.00000000000E+00  0.00000000000E+00  0.93800000000E+00  0.93800000000E+00 0. -1.
         11    1    1    2    0    0  0.14264876052E+00  0.10638699372E+00  0.15445413448E+01  0.15547588521E+01  0.51100000000E-03 0. -1.
    9000002    1    1    2    0    0 -0.33320801641E+00 -0.19339596341E+00  0.10052523136E+00  0.10190087846E+01  0.93800000000E+00 0. -1.
         22    1    1    2    0    0  0.19055925589E+00  0.87008969690E-01  0.23549333912E+01  0.23642323633E+01  0.00000000000E+00 0.  1.
</event>
<event>
 5    1  0.1537976E+002  0.1599677E+01  0.7818608E-02  0.3353714E+00
         11   -1    0    0    0    0  0.00000000000E+00  0.00000000000E+00  0.39999999674E+01  0.40000000000E+01  0.51100000000E-03 0. -1.
    9000002   -1    0    0    0    0 -0.00000000000E+00 -0.00000000000E+00  0.00000000000E+00  0.93800000000E+00  0.93800000000E+00 0.  1.
         11    1    1    2    0    0 -0.18823755108E+00  0.36406709624E-02  0.10613673459E+01  0.10779367023E+01  0.51100000000E-03 0. -1.
    9000002    1    1    2    0    0  0.65513795312E+00 -0.13152299353E-01  0.30337631488E+00  0.11837482456E+01  0.93800000000E+00 0.  1.
         22    1    1    2    0    0 -0.46690040204E+00  0.95116283904E-02  0.26352563066E+01  0.26763150521E+01  0.00000000000E+00 0. -1.
</event>
<event>
 5    1  0.1537976E+002  0.1599604E+01  0.7818608E-02  0.3353794E+00
         11   -1    0    0    0    0  0.00000000000E+00  0.00000000000E+00  0.39999999674E+01  0.40000000000E+01  0.51100000000E-03 0. -1.
    9000002   -1    0    0    0    0 -0.00000000000E+00 -0.00000000000E+00  0.00000000000E+00  0.93800000000E+00  0.93800000000E+00 0.  1.
         11    1    1    2    0    0  0.38299065923E-01  0.69803077088E-02  0.27210296517E+00  0.27487420381E+00  0.51100000000E-03 0. -1.
    9000002    1    1    2    0    0 -0.47081571860E+00 -0.72810058933E-01  0.15484139207E+00  0.10633854439E+01  0.93800000000E+00 0.  1.
         22    1    1    2    0    0  0.43251665267E+00  0.65829751224E-01  0.35730556101E+01  0.35997403523E+01  0.00000000000E+00 0. -1.
</event>
<event>
 5    1  0.1537976E+002  0.1584041E+01  0.7818608E-02  0.3370869E+00
         11   -1    0    0    0    0  0.00000000000E+00  0.00000000000E+00  0.39999999674E+01  0.40000000000E+01  0.51100000000E-03 0.  1.
    9000002   -1    0    0    0    0 -0.00000000000E+00 -0.00000000000E+00  0.00000000000E+00  0.93800000000E+00  0.93800000000E+00 0. -1.
         11    1    1    2    0    0 -0.52897911705E-01 -0.61277143636E-01  0.76016892644E+00  0.76446722313E+00  0.51100000000E-03 0.  1.
    9000002    1    1    2    0    0 -0.27135932075E+00  0.32709917055E-01  0.61895042277E-01  0.97896926197E+00  0.93800000000E+00 0. -1.
         22    1    1    2    0    0  0.32425723245E+00  0.28567226581E-01  0.31779359986E+01  0.31945635149E+01  0.00000000000E+00 0.  1.
</event>
<event>
 5    1  0.1537976E+002  0.1599677E+01  0.7818608E-02  0.3353714E+00
         11   -1    0    0    0    0  0.00000000000E+00  0.00000000000E+00  0.39999999674E+01  0.40000000000E+01  0.51100000000E-03 0. -1.
    9000002   -1    0    0    0    0 -0.00000000000E+00 -0.00000000000E+00  0.00000000000E+00  0.93800000000E+00  0.93800000000E+00 0. -1.
         11    1    1    2    0    0 -0.84533842456E-01 -0.23621758369E-01  0.92400221209E+00  0.92816178927E+00  0.51100000000E-03 0. -1.
    9000002    1    1    2    0    0  0.35643461330E+00  0.10091123203E+00  0.92227955357E-01  0.10127085988E+01  0.93800000000E+00 0. -1.
         22    1    1    2    0    0 -0.27190077085E+00 -0.77289473656E-01  0.29837697999E+01  0.29971296119E+01  0.00000000000E+00 0. -1.
</event>
<event>
 5    1  0.1537976E+002  0.1598549E+01  0.7818608E-02  0.3354940E+00
         11   -1    0    0    0    0  0.00000000000E+00  0.00000000000E+00  0.39999999674E+01  0.40000000000E+01  0.51100000000E-03 0.  1.
    9000002   -1    0    0    0    0 -0.00000000000E+00 -0.00000000000E+00  0.00000000000E+00  0.93800000000E+00  0.93800000000E+00 0.  1.
         11    1    1    2    0    0  0.11838279792E-01 -0.26761439002E-01  0.15704837619E+00  0.15975222399E+00  0.51100000000E-03 0.  1.
    9000002    1    1    2    0    0 -0.36664820896E+00  0.27063942911E+00  0.14214996337E+00  0.10524862098E+01  0.93800000000E+00 0.  1.
         22    1    1    2    0    0  0.35480992917E+00 -0.24387799011E+00  0.37008016278E+01  0.37257615662E+01  0.00000000000E+00 0.  1.
</event>
<event>
 5    1  0.1537976E+002  0.1599677E+01  0.7818608E-02  0.3353714E+00
         11   -1    0    0    0    0  0.00000000000E+00  0.00000000000E+00  0.39999999674E+01  0.40000000000E+01  0.51100000000E-03 0. -1.
    9000002   -1    0    0    0    0 -0.00000000000E+00 -0.00000000000E+00  0.00000000000E+00  0.93800000000E+00  0.93800000000E+00 0. -1.
         11    1    1    2    0    0 -0.30342656925E-01  0.20496697238E-02  0.40143001533E+00  0.40258067056E+00  0.51100000000E-03 0. -1.
    9000002    1    1    2    0    0  0.29804567667E+00 -0.18376687959E-01  0.59478293415E-01  0.98617979873E+00  0.93800000000E+00 0. -1.
         22    1    1    2    0    0 -0.26770301974E+00  0.16327018236E-01  0.35390916586E+01  0.35492395307E+01  0.00000000000E+00 0. -1.
</event>
<event>
 5    1  0.1537976E+002  0.1599663E+01  0.7818608E-02  0.3353730E+00
         11   -1    0    0    0    0  0.00000000000E+00  0.00000000000E+00  0.39999999674E+01  0.40000000000E+01  0.51100000000E-03 0. -1.
    9000002   -1    0    0    0    0 -0.00000000000E+00 -0.00000000000E+00  0.00000000000E+00  0.93800000000E+00  0.93800000000E+00 0. -1.
         11    1    1    2    0    0 -0.36257038189E+00  0.23613517670E+00  0.25514647932E+01  0.25878929567E+01  0.51100000000E-03 0. -1.
    9000002    1    1    2    0    0  0.52872582063E+00 -0.35022477376E+00  0.28277806032E+00  0.11670543333E+01  0.93800000000E+00 0. -1.
         22    1    1    2    0    0 -0.16615543874E+00  0.11408959706E+00  0.11657571139E+01  0.11830527100E+01  0.00000000000E+00 0. -1.
</event>
<event>
 5    1  0.1537976E+002  0.1599661E+01  0.7818608E-02  0.3353731E+00
         11   -1    0    0    0    0  0.00000000000E+00  0.00000000000E+00  0.39999999674E+01  0.40000000000E+01  0.51100000000E-03 0.  1.
    9000002   -1    0    0    0    0 -0.00000000000E+00 -0.00000000000E+00  0.00000000000E+00  0.93800000000E+00  0.93800000000E+00 0. -1.
         11    1    1    2    0    0 -0.30508167533E-01  0.25110606980E+00  0.15512480229E+01  0.15717365225E+01  0.51100000000E-03 0.  1.
    9000002    1    1    2    0    0  0.63776192401E-01 -0.60061524302E+00  0.25475860765E+00  0.11443565970E+01  0.93800000000E+00 0. -1.
         22    1    1    2    0    0 -0.33268024867E-01  0.34950917322E+00  0.21939933368E+01  0.22219068805E+01  0.00000000000E+00 0.  1.
</event>
<event>
 5    1  0.1537976E+002  0.1599675E+01  0.7818608E-02  0.3353716E+00
         11   -1    0    0    0    0  0.00000000000E+00  0.00000000000E+00  0.39999999674E+01  0.40000000000E+01  0.51100000000E-03 0. -1.
    9000002   -1    0    0    0    0 -0.00000000000E+00 -0.00000000000E+00  0.00000000000E+00  0.93800000000E+00  0.93800000000E+00 0. -1.
         11    1    1    2    0    0 -0.25578676624E-01  0.54255002182E-01  0.81071103403E+00  0.81292712821E+00  0.51100000000E-03 0. -1.
    9000002    1    1    2    0    0  0.11906460900E+00 -0.26128588007E+00  0.54938223475E-01  0.98250134893E+00  0.93800000000E+00 0. -1.
         22    1    1    2    0    0 -0.93485932374E-01  0.20703087789E+00  0.31343507099E+01  0.31425715229E+01  0.00000000000E+00 0. -1.
</event>
<event>
 5    1  0.1537976E+002  0.1599302E+01  0.7818608E-02  0.3354122E+00
         11   -1    0    0    0    0  0.00000000000E+00  0.00000000000E+00  0.39999999674E+01  0.40000000000E+01  0.51100000000E-03 0. -1.
    9000002   -1    0    0    0    0 -0.00000000000E+00 -0.00000000000E+00  0.00000000000E+00  0.93800000000E+00  0.93800000000E+00 0. -1.
         11    1    1    2    0    0 -0.74133817153E-02 -0.62298561745E-01  0.75470398177E+00  0.75730735520E+00  0.51100000000E-03 0. -1.
    9000002    1    1    2    0    0  0.11640085050E+00  0.26929382671E+00  0.57675082380E-01  0.98449923221E+00  0.93800000000E+00 0. -1.
         22    1    1    2    0    0 -0.10898746878E+00 -0.20699526496E+00  0.31876209032E+01  0.31961934126E+01  0.00000000000E+00 0. -1.
</event>
<event>
 5    1  0.1537976E+002  0.1599544E+01  0.7818608E-02  0.3353858E+00
         11   -1    0    0    0    0  0.00000000000E+00  0.00000000000E+00  0.39999999674E+01  0.40000000000E+01  0.51100000000E-03 0.  1.
    9000002   -1    0    0    0    0 -0.00000000000E+00 -0.00000000000E+00  0.00000000000E+00  0.93800000000E+00  0.93800000000E+00 0. -1.
         11    1    1    2    0    0  0.25535136566E-01  0.82524703652E-02  0.55965145454E+00  0.56029470652E+00  0.51100000000E-03 0.  1.
    9000002    1    1    2    0    0 -0.24413456399E+00 -0.83432124443E-01  0.44346412431E-01  0.97384455075E+00  0.93800000000E+00 0. -1.
         22    1    1    2    0    0  0.21859942743E+00  0.75179654078E-01  0.33960021004E+01  0.34038607427E+01  0.00000000000E+00 0.  1.
</event>
<event>
 5    1  0.1537976E+002  0.1599504E+01  0.7818608E-02  0.3353902E+00
         11   -1    0    0    0    0  0.00000000000E+00  0.00000000000E+00  0.39999999674E+01  0.40000000000E+01  0.51100000000E-03 0.  1.
    9000002   -1    0    0    0    0 -0.00000000000E+00 -0.00000000000E+00  0.00000000000E+00  0.93800000000E+00  0.93800000000E+00 0. -1.
         11    1    1    2    0    0 -0.21468923533E+00 -0.96592725052E-01  0.13696155801E+01  0.13897009465E+01  0.51100000000E-03 0.  1.
    9000002    1    1    2    0    0  0.54546388142E+00  0.27421140883E+00  0.26081448568E+00  0.11491696736E+01  0.93800000000E+00 0. -1.
         22    1    1    2    0    0 -0.33077464609E+00 -0.17761868378E+00  0.23695699015E+01  0.23991293799E+01  0.00000000000E+00 0.  1.
</event>
<event>
 5    1  0.1537976E+002  0.1599672E+01  0.7818608E-02  0.3353719E+00
         11   -1    0    0    0    0  0.00000000000E+00  0.00000000000E+00  0.39999999674E+01  0.40000000000E+01  0.51100000000E-03 0.  1.
    9000002   -1    0    0    0    0 -0.00000000000E+00 -0.00000000000E+00  0.00000000000E+00  0.93800000000E+00  0.93800000000E+00 0. -1.
         11    1    1    2    0    0 -0.49288907901E-01 -0.92080134938E-01  0.10240432043E+01  0.10293555718E+01  0.51100000000E-03 0.  1.
    9000002    1    1    2    0    0  0.17913815083E+00  0.35249851507E+00  0.10540037328E+00  0.10233762353E+01  0.93800000000E+00 0. -1.
         22    1    1    2    0    0 -0.12984924293E+00 -0.26041838013E+00  0.28705563898E+01  0.28852681930E+01  0.00000000000E+00 0.  1.
</event>
<event>
 5    1  0.1537976E+002  0.1599675E+01  0.7818608E-02  0.3353717E+00
         11   -1    0    0    0    0  0.00000000000E+00  0.00000000000E+00  0.39999999674E+01  0.40000000000E+01  0.51100000000E-03 0. -1.
    9000002   -1    0    0    0    0 -0.00000000000E+00 -0.00000000000E+00  0.00000000000E+00  0.93800000000E+00  0.93800000000E+00 0.  1.
         11    1    1    2    0    0 -0.63080319083E-01  0.71574362820E-01  0.12586589031E+01  0.12622695875E+01  0.51100000000E-03 0. -1.
    9000002    1    1    2    0    0  0.19209097562E+00 -0.22475115027E+00  0.58292133882E-01  0.98521774006E+00  0.93800000000E+00 0.  1.
         22    1    1    2    0    0 -0.12901065653E+00  0.15317678745E+00  0.26830489303E+01  0.26905126724E+01  0.00000000000E+00 0. -1.
</event>
<event>
 5    1  0.1537976E+002  0.1592147E+01  0.7818608E-02  0.3361931E+00
         11   -1    0    0    0    0  0.00000000000E+00  0.00000000000E+00  0.39999999674E+01  0.40000000000E+01  0.51100000000E-03 0.  1.
    9000002   -1    0    0    0    0 -0.00000000000E+00 -0.00000000000E+00  0.00000000000E+00  0.93800000000E+00  0.93800000000E+00 0. -1.
         11    1    1    2    0    0 -0.99380715596E-01 -0.69593569614E-01  0.15600233218E+01  0.15647341044E+01  0.51100000000E-03 0.  1.
    9000002    1    1    2    0    0  0.43752331664E+00  0.32657763994E+00  0.21284016683E+00  0.11059948210E+01  0.93800000000E+00 0. -1.
         22    1    1    2    0    0 -0.33814260104E+00 -0.25698407032E+00  0.22271364787E+01  0.22672710746E+01  0.00000000000E+00 0.  1.
</event>
<event>
 5    1  0.1537976E+002  0.1592349E+01  0.7818608E-02  0.3361710E+00
         11   -1    0    0    0    0  0.00000000000E+00  0.00000000000E+00  0.39999999674E+01  0.40000000000E+01  0.51100000000E-03 0. -1.
    9000002   -1    0    0    0    0 -0.00000000000E+00 -0.00000000000E+00  0.00000000000E+00  0.93800000000E+00  0.93800000000E+00 0.  1.
         11    1    1    2    0    0 -0.20420765415E-01 -0.14402727453E+00  0.10681709795E+01  0.10780307815E+01  0.51100000000E-03 0. -1.
    9000002    1    1    2    0    0 -0.23607562211E+00  0.39812992032E+00  0.15221193144E+00  0.10570012322E+01  0.93800000000E+00 0.  1.
         22    1    1    2    0    0  0.25649638753E+00 -0.25410264579E+00  0.27796170565E+01  0.28029679863E+01  0.00000000000E+00 0. -1.
</event>
<event>
 5    1  0.1537976E+002  0.1599092E+01  0.7818608E-02  0.3354349E+00
         11   -1    0    0    0    0  0.00000000000E+00  0.00000000000E+00  0.39999999674E+01  0.40000000000E+01  0.51100000000E-03 0. -1.
    9000002   -1    0    0    0    0 -0.00000000000E+00 -0.00000000000E+00  0.00000000000E+00  0.93800000000E+00  0.93800000000E+00 0.  1.
         11    1    1    2    0    0  0.23167211479E-01  0.84381465624E-02  0.20028478353E+00  0.20179736777E+00  0.51100000000E-03 0. -1.
    9000002    1    1    2    0    0 -0.30048345304E+00  0.32553693657E-01  0.61411952868E-01  0.98740340109E+00  0.93800000000E+00 0.  1.
         22    1    1    2    0    0  0.27731624156E+00 -0.40991840219E-01  0.37383032310E+01  0.37487992311E+01  0.00000000000E+00 0. -1.
</event>
<event>
 5    1  0.1537976E+002  0.1599256E+01  0.7818608E-02  0.3354171E+00
         11   -1    0    0    0    0  0.00000000000E+00  0.00000000000E+00  0.39999999674E+01  0.40000000000E+01  0.51100000000E-03 0.  1.
    9000002   -1    0    0    0    0 -0.00000000000E+00 -0.00000000000E+00  0.00000000000E+00  0.93800000000E+00  0.93800000000E+00 0. -1.
         11    1    1    2    0    0 -0.19907937695E-02  0.33744114256E-02  0.19394806267E+00  0.19398830389E+00  0.51100000000E-03 0.  1.
    9000002    1    1    2    0    0  0.21187092662E+00  0.65506947387E-01  0.32921930526E-01  0.96442122706E+00  0.93800000000E+00 0. -1.
         22    1    1    2    0    0 -0.20988013285E+00 -0.68881358813E-01  0.37731299742E+01  0.37795904690E+01  0.00000000000E+00 0.  1.
</event>
<event>
 5    1  0.1537976E+002  0.1599676E+01  0.7818608E-02  0.3353715E+00
         11   -1    0    0    0    0  0.00000000000E+00  0.00000000000E+00  0.39999999674E+01  0.40000000000E+01  0.51100000000E-03 0.  1.
    9000002   -1    0    0    0    0 -0.00000000000E+00 -0.00000000000E+00  0.00000000000E+00  0.93800000000E+00  0.93800000000E+00 0. -1.
         11    1    1    2    0    0  0.12677996430E+00  0.18555721246E-01  0.14329360071E+01  0.14386533063E+01  0.51100000000E-03 0.  1.
    9000002    1    1    2    0    0 -0.34337771797E+00 -0.51842016991E-01  0.80837521746E-01  0.10034812190E+01  0.93800000000E+00 0. -1.
         22    1    1    2    0    0  0.21659775367E+00  0.33286295745E-01  0.24862264385E+01  0.24958654747E+01  0.00000000000E+00 0.  1.
</event>
<event>
 5    1  0.1537976E+002  0.1575594E+01  0.7818608E-02  0.3380286E+00
         11   -1    0    0    0    0  0.00000000000E+00  0.00000000000E+00  0.39999999674E+01  0.40000000000E+01  0.51100000000E-03 0.  1.
    9000002   -1    0    0    0    0 -0.00000000000E+00 -0.00000000000E+00  0.00000000000E+00  0.93800000000E+00  0.93800000000E+00 0. -1.
         11    1    1    2    0    0 -0.10908012979E+00 -0.79608463574E-01  0.19866089501E+01  0.19911934522E+01  0.51100000000E-03 0.  1.
    9000002    1    1    2    0    0 -0.60942814665E-01 -0.89145376766E-01  0.25506122162E-01  0.94453982824E+00  0.93800000000E+00 0. -1.
         22    1    1    2    0    0  0.17002294446E+00  0.16875384034E+00  0.19878848951E+01  0.20022667196E+01  0.00000000000E+00 0.  1.
</event>
<event>
 5    1  0.1537976E+002  0.1599676E+01  0.7818608E-02  0.3353715E+00
         11   -1    0    0    0    0  0.00000000000E+00  0.00000000000E+00  0.39999999674E+01  0.40000000000E+01  0.51100000000E-03 0. -1.
    9000002   -1    0    0    0    0 -0.00000000000E+00 -0.00000000000E+00  0.00000000000E+00  0.93800000000E+00  0.93800000000E+00 0. -1.
         11    1    1    2    0    0  0.24706292441E-01  0.17657363896E+00  0.11906766000E+01  0.12039516925E+01  0.51100000000E-03 0. -1.
    9000002    1    1    2    0    0 -0.79952448938E-01 -0.56212924076E+00  0.22343934306E+00  0.11189954501E+01  0.93800000000E+00 0. -1.
         22    1    1    2    0    0  0.55246156498E-01  0.38555560180E+00  0.25858840243E+01  0.26150528574E+01  0.00000000000E+00 0. -1.
</event>
<event>
 5    1  0.1537976E+002  0.1599663E+01  0.7818608E-02  0.3353730E+00
         11   -1    0    0    0    0  0.00000000000E+00  0.00000000000E+00  0.39999999674E+01  0.40000000000E+01  0.51100000000E-03 0.  1.
    9000002   -1    0    0    0    0 -0.00000000000E+00 -0.00000000000E+00  0.00000000000E+00  0.93800000000E+00  0.93800000000E+00 0.  1.
         11    1    1    2    0    0  0.58736055963E-01 -0.15023845305E+00  0.13770537589E+01  0.13864699178E+01  0.51100000000E-03 0.  1.
    9000002    1    1    2    0    0 -0.15804947366E+00  0.41184521462E+00  0.13200811763E+00  0.10449240451E+01  0.93800000000E+00 0.  1.
         22    1    1    2    0    0  0.99313417698E-01 -0.26160676157E+00  0.24909380909E+01  0.25066060371E+01  0.00000000000E+00 0.  1.
</event>
<event>
 5    1  0.1537976E+002  0.1599676E+01  0.7818608E-02  0.3353715E+00
         11   -1    0    0    0    0  0.00000000000E+00  0.00000000000E+00  0.39999999674E+01  0.40000000000E+01  0.51100000000E-03 0.  1.
    9000002   -1    0    0    0    0 -0.00000000000E+00 -0.00000000000E+00  0.00000000000E+00  0.93800000000E+00  0.93800000000E+00 0.  1.
         11    1    1    2    0    0 -0.76423234661E+00  0.17871132162E+00  0.22052455220E+01  0.23407470793E+01  0.51100000000E-03 0.  1.
    9000002    1    1    2    0    0  0.10480654147E+01 -0.24453073216E+00  0.97905349357E+00  0.17310765829E+01  0.93800000000E+00 0.  1.
         22    1    1    2    0    0 -0.28383306811E+00  0.65819410536E-01  0.81570095182E+00  0.86617633780E+00  0.00000000000E+00 0.  1.
</event>
<event>
 5    1  0.1537976E+002  0.1599675E+01  0.7818608E-02  0.3353716E+00
         11   -1    0    0    0    0  0.00000000000E+00  0.00000000000E+00  0.39999999674E+01  0.40000000000E+01  0.51100000000E-03 0. -1.
    9000002   -1    0    0    0    0 -0.00000000000E+00 -0.00000000000E+00  0.00000000000E+00  0.93800000000E+00  0.93800000000E+00 0. -1.
         11    1    1    2    0    0  0.26060560514E-01  0.23589600918E-01  0.50476900472E+00  0.50599173050E+00  0.51100000000E-03 0. -1.
    9000002    1    1    2    0    0 -0.19877460079E+00 -0.18960342671E+00  0.50228959090E-01  0.97868674747E+00  0.93800000000E+00 0. -1.
         22    1    1    2    0    0  0.17271404028E+00  0.16601382580E+00  0.34450020035E+01  0.34533215220E+01  0.00000000000E+00 0. -1.
</event>
<event>
 5    1  0.1537976E+002  0.1599557E+01  0.7818608E-02  0.3353844E+00
         11   -1    0    0    0    0  0.00000000000E+00  0.00000000000E+00  0.39999999674E+01  0.40000000000E+01  0.51100000000E-03 0.  1.
    9000002   -1    0    0    0    0 -0.00000000000E+00 -0.00000000000E+00  0.00000000000E+00  0.93800000000E+00  0.93800000000E+00 0. -1.
         11    1    1    2    0    0 -0.19967083574E-01 -0.24055864770E-02  0.25134076870E+00  0.25214462994E+00  0.51100000000E-03 0.  1.
    9000002    1    1    2    0    0  0.22999699756E+00 -0.16992760215E-01  0.35372441794E-01  0.96658294131E+00  0.93800000000E+00 0. -1.
         22    1    1    2    0    0 -0.21002991398E+00  0.19398346692E-01  0.37132867569E+01  0.37192724288E+01  0.00000000000E+00 0.  1.
</event>
<event>
 5    1  0.1537976E+002  0.1599659E+01  0.7818608E-02  0.3353734E+00
         11   -1    0    0    0    0  0.00000000000E+00  0.00000000000E+00  0.39999999674E+01  0.40000000000E+01  0.51100000000E-03 0. -1.
    9000002   -1    0    0    0    0 -0.00000000000E+00 -0.00000000000E+00  0.00000000000E+00  0.93800000000E+00  0.93800000000E+00 0.  1.
         11    1    1    2    0    0  0.15246620387E+00 -0.10827494823E+00  0.17410052028E+01  0.17510193560E+01  0.51100000000E-03 0. -1.
    9000002    1    1    2    0    0 -0.33609606314E+00  0.25205410724E+00  0.11937922502E+00  0.10346918556E+01  0.93800000000E+00 0.  1.
         22    1    1    2    0    0  0.18362985927E+00 -0.14377915901E+00  0.21396155395E+01  0.21522887884E+01  0.00000000000E+00 0. -1.
</event>
<event>
 5    1  0.1537976E+002  0.1575342E+01  0.7818608E-02  0.3380569E+00
         11   -1    0    0    0    0  0.00000000000E+00  0.00000000000E+00  0.39999999674E+01  0.40000000000E+01  0.51100000000E-03 0.  1.
    9000002   -1    0    0    0    0 -0.00000000000E+00 -0.00000000000E+00  0.00000000000E+00  0.93800000000E+00  0.93800000000E+00 0.  1.
         11    1    1    2    0    0  0.12418040984E+00  0.13494851341E+00  0.80224009967E+00  0.82293457461E+00  0.51100000000E-03 0.  1.
    9000002    1    1    2    0    0 -0.31115030543E+00  0.23177137433E-01  0.84441504659E-01  0.99213207789E+00  0.93800000000E+00 0.  1.
         22    1    1    2    0    0  0.18696989559E+00 -0.15812565085E+00  0.31133183630E+01  0.31229333475E+01  0.00000000000E+00 0.  1.
</event>
<event>
 5    1  0.1537976E+002  0.1599384E+01  0.7818608E-02  0.3354032E+00
         11   -1    0    0    0    0  0.00000000000E+00  0.00000000000E+00  0.39999999674E+01  0.40000000000E+01  0.51100000000E-03 0. -1.
    9000002   -1    0    0    0    0 -0.00000000000E+00 -0.00000000000E+00  0.00000000000E+00  0.93800000000E+00  0.93800000000E+00 0.  1.
         11    1    1    2    0    0 -0.10826848401E+00  0.29817905390E+00  0.22524419554E+01  0.22746709293E+01  0.51100000000E-03 0. -1.
    9000002    1    1    2    0    0  0.20392618187E+00 -0.52631558277E+00  0.22094869067E+00  0.11168062966E+01  0.93800000000E+00 0.  1.
         22    1    1    2    0    0 -0.95657697862E-01  0.22813652887E+00  0.15266093213E+01  0.15465227741E+01  0.00000000000E+00 0. -1.
</event>
<event>
 5    1  0.1537976E+002  0.1599669E+01  0.7818608E-02  0.3353723E+00
         11   -1    0    0    0    0  0.00000000000E+00  0.00000000000E+00  0.39999999674E+01  0.40000000000E+01  0.51100000000E-03 0. -1.
    9000002   -1    0    0    0    0 -0.00000000000E+00 -0.00000000000E+00  0.00000000000E+00  0.93800000000E+00  0.93800000000E+00 0. -1.
         11    1    1    2    0    0 -0.32450156412E-01  0.19662597016E-01  0.63856422996E+00  0.63969068093E+00  0.51100000000E-03 0. -1.
    9000002    1    1    2    0    0  0.21547686558E+00 -0.12763602822E+00  0.41672656297E-01  0.97175194653E+00  0.93800000000E+00 0. -1.
         22    1    1    2    0    0 -0.18302670916E+00  0.10797343120E+00  0.33197630811E+01  0.33265573725E+01  0.00000000000E+00 0. -1.
</event>
<event>
 5    1  0.1537976E+002  0.1596844E+01  0.7818608E-02  0.3356796E+00
         11   -1    0    0    0    0  0.00000000000E+00  0.00000000000E+00  0.39999999674E+01  0.40000000000E+01  0.51100000000E-03 0. -1.
    9000002   -1    0    0    0    0 -0.00000000000E+00 -0.00000000000E+00  0.00000000000E+00  0.93800000000E+00  0.93800000000E+00 0. -1.
         11    1    1    2    0    0 -0.22222063165E+00  0.37678126946E+00  0.21909278337E+01  0.22341690106E+01  0.51100000000E-03 0. -1.
    9000002    1    1    2    0    0  0.42039419067E+00 -0.53697399698E+00  0.33390673178E+00  0.12068181530E+01  0.93800000000E+00 0. -1.
         22    1    1    2    0    0 -0.19817355902E+00  0.16019272752E+00  0.14751654018E+01  0.14970128364E+01  0.00000000000E+00 0.  1.
</event>
<event>
 5    1  0.1537976E+002  0.1599676E+01  0.7818608E-02  0.3353715E+00
         11   -1    0    0    0    0  0.00000000000E+00  0.00000000000E+00  0.39999999674E+01  0.40000000000E+01  0.51100000000E-03 0. -1.
    9000002   -1    0    0    0    0 -0.00000000000E+00 -0.00000000000E+00  0.00000000000E+00  0.93800000000E+00  0.93800000000E+00 0. -1.
         11    1    1    2    0    0 -0.22333801522E+00 -0.56189593070E-01  0.20002079900E+01  0.20134223113E+01  0.51100000000E-03 0. -1.
    9000002    1    1    2    0    0  0.43280534029E+00  0.10713696755E+00  0.13493975835E+00  0.10473067988E+01  0.93800000000E+00 0. -1.
         22    1    1    2    0    0 -0.20946732507E+00 -0.50947374484E-01  0.18648522191E+01  0.18772708899E+01  0.00000000000E+00 0. -1.
</event>
<event>
 5    1  0.1537976E+002  0.1599677E+01  0.7818608E-02  0.3353714E+00
         11   -1    0    0    0    0  0.00000000000E+00  0.00000000000E+00  0.39999999674E+01  0.40000000000E+01  0.51100000000E-03 0. -1.
    9000002   -1    0    0    0    0 -0.00000000000E+00 -0.00000000000E+00  0.00000000000E+00  0.93800000000E+00  0.93800000000E+00 0. -1.
         11    1    1    2    0    0 -0.39250829204E+00 -0.45508032890E-01  0.23450471430E+01  0.23781043089E+01  0.51100000000E-03 0. -1.
    9000002    1    1    2    0    0  0.62319861710E+00  0.71148215353E-01  0.27615711200E+00  0.11616993309E+01  0.93800000000E+00 0. -1.
         22    1    1    2    0    0 -0.23069032506E+00 -0.25640182463E-01  0.13787957124E+01  0.13981963602E+01  0.00000000000E+00 0.  1.
</event>
<event>
 5    1  0.1537976E+002  0.1599035E+01  0.7818608E-02  0.3354412E+00
         11   -1    0    0    0    0  0.00000000000E+00  0.00000000000E+00  0.39999999674E+01  0.40000000000E+01  0.51100000000E-03 0.  1.
    9000002   -1    0    0    0    0 -0.00000000000E+00 -0.00000000000E+00  0.00000000000E+00  0.93800000000E+00  0.93800000000E+00 0. -1.
         11    1    1    2    0    0  0.10257407544E+00  0.34797133689E+00  0.23925757121E+01  0.24199223730E+01  0.51100000000E-03 0.  1.
    9000002    1    1    2    0    0 -0.20162662473E+00 -0.56636997104E+00  0.25287166585E+00  0.11424606423E+01  0.93800000000E+00 0. -1.
         22    1    1    2    0    0  0.99052549294E-01  0.21839863415E+00  0.13545525894E+01  0.13756169846E+01  0.00000000000E+00 0.  1.
</event>
<event>
 5    1  0.1537976E+002  0.1599643E+01  0.7818608E-02  0.3353751E+00
         11   -1    0    0    0    0  0.00000000000E+00  0.00000000000E+00  0.39999999674E+01  0.40000000000E+01  0.51100000000E-03 0. -1.
    9000002   -1    0    0    0    0 -0.00000000000E+00 -0.00000000000E+00  0.00000000000E+00  0.93800000000E+00  0.93800000000E+00 0. -1.
         11    1    1    2    0    0 -0.52462896552E-01  0.18927039961E-01  0.94883084135E+00  0.95046873435E+00  0.51100000000E-03 0. -1.
    9000002    1    1    2    0    0  0.24234623081E+00 -0.86840949327E-01  0.44075870416E-01  0.97368358742E+00  0.93800000000E+00 0. -1.
         22    1    1    2    0    0 -0.18988333426E+00  0.67913909366E-01  0.30070932556E+01  0.30138476782E+01  0.00000000000E+00 0. -1.
</event>
<event>
 5    1  0.1537976E+002  0.1599620E+01  0.7818608E-02  0.3353775E+00
         11   -1    0    0    0    0  0.00000000000E+00  0.00000000000E+00  0.39999999674E+01  0.40000000000E+01  0.51100000000E-03 0. -1.
    9000002   -1    0    0    0    0 -0.00000000000E+00 -0.00000000000E+00  0.00000000000E+00  0.93800000000E+00  0.93800000000E+00 0. -1.
         11    1    1    2    0    0 -0.17267530984E+00  0.77324871968E-01  0.14973136146E+01  0.15092197388E+01  0.51100000000E-03 0. -1.
    9000002    1    1    2    0    0  0.46229148564E+00 -0.18847029043E+00  0.17064392076E+00  0.10761959932E+01  0.93800000000E+00 0.  1.
         22    1    1    2    0    0 -0.28961617579E+00  0.11114541847E+00  0.23320424320E+01  0.23525842680E+01  0.00000000000E+00 0. -1.
</event>
<event>
 5    1  0.1537976E+002  0.1599077E+01  0.7818608E-02  0.3354366E+00
         11   -1    0    0    0    0  0.00000000000E+00  0.00000000000E+00  0.39999999674E+01  0.40000000000E+01  0.51100000000E-03 0.  1.
    9000002   -1    0    0    0    0 -0.00000000000E+00 -0.00000000000E+00  0.00000000000E+00  0.93800000000E+00  0.93800000000E+00 0.  1.
         11    1    1    2    0    0  0.11184284116E+00 -0.17541449949E+00  0.14459613633E+01  0.14608502979E+01  0.51100000000E-03 0.  1.
    9000002    1    1    2    0    0 -0.24663193851E+00  0.51738908282E+00  0.22851684659E+00  0.11227567525E+01  0.93800000000E+00 0.  1.
         22    1    1    2    0    0  0.13478909735E+00 -0.34197458333E+00  0.23255217575E+01  0.23543929496E+01  0.00000000000E+00 0.  1.
</event>
<event>
 5    1  0.1537976E+002  0.1599629E+01  0.7818608E-02  0.3353766E+00
         11   -1    0    0    0    0  0.00000000000E+00  0.00000000000E+00  0.39999999674E+01  0.40000000000E+01  0.51100000000E-03 0.  1.
    9000002   -1    0    0    0    0 -0.00000000000E+00 -0.00000000000E+00  0.00000000000E+00  0.93800000000E+00  0.93800000000E+00 0. -1.
         11    1    1    2    0    0 -0.36918132886E-01  0.16228361531E+00  0.14976608344E+01  0.15068799409E+01  0.51100000000E-03 0.  1.
    9000002    1    1    2    0    0  0.10562178109E+00 -0.40208216200E+00  0.11685605198E+00  0.10326303126E+01  0.93800000000E+00 0. -1.
         22    1    1    2    0    0 -0.68703648201E-01  0.23979854669E+00  0.23854830810E+01  0.23984897464E+01  0.00000000000E+00 0. -1.
</event>
<event>
 5    1  0.1537976E+002  0.1599672E+01  0.7818608E-02  0.3353720E+00
         11   -1    0    0    0    0  0.00000000000E+00  0.00000000000E+00  0.39999999674E+01  0.40000000000E+01  0.51100000000E-03 0. -1.
    9000002   -1    0    0    0    0 -0.00000000000E+00 -0.00000000000E+00  0.00000000000E+00  0.93800000000E+00  0.93800000000E+00 0.  1.
         11    1    1    2    0    0 -0.69414437967E-01 -0.12868632450E+00  0.16325642269E+01  0.16390987616E+01  0.51100000000E-03 0. -1.
    9000002    1    1    2    0    0  0.17294050458E+00  0.30790371337E+00  0.83654768237E-01  0.10057610228E+01  0.93800000000E+00 0.  1.
         22    1    1    2    0    0 -0.10352606661E+00 -0.17921738887E+00  0.22837809723E+01  0.22931402156E+01  0.00000000000E+00 0. -1.
</event>
<event>
 5    1  0.1537976E+002  0.1599022E+01  0.7818608E-02  0.3354426E+00
         11   -1    0    0    0    0  0.00000000000E+00  0.00000000000E+00  0.39999999674E+01  0.40000000000E+01  0.51100000000E-03 0. -1.
    9000002   -1    0    0    0    0 -0.00000000000E+00 -0.00000000000E+00  0.00000000000E+00  0.93800000000E+00  0.93800000000E+00 0. -1.
         11    1    1    2    0    0  0.21791403940E-01 -0.34665583936E-01  0.39658896454E+00  0.39869742401E+00  0.51100000000E-03 0. -1.
    9000002    1    1    2    0    0 -0.66421940387E-01  0.23931129597E+00  0.41469792531E-01  0.97120827542E+00  0.93800000000E+00 0. -1.
         22    1    1    2    0    0  0.44630536447E-01 -0.20464571204E+00  0.35619412103E+01  0.35680943006E+01  0.00000000000E+00 0. -1.
</event>
<event>
 5    1  0.1537976E+002  0.1596008E+01  0.7818608E-02  0.3357708E+00
         11   -1    0    0    0    0  0.00000000000E+00  0.00000000000E+00  0.39999999674E+01  0.40000000000E+01  0.51100000000E-03 0. -1.
    9000002   -1    0    0    0    0 -0.00000000000E+00 -0.00000000000E+00  0.00000000000E+00  0.93800000000E+00  0.93800000000E+00 0.  1.
         11    1    1    2    0    0 -0.10591891442E-01  0.14698737573E-02  0.27589149264E+00  0.27609912265E+00  0.51100000000E-03 0. -1.
    9000002    1    1    2    0    0 -0.35721956794E+00 -0.16954517565E+00  0.10844965016E+00  0.10236975691E+01  0.93800000000E+00 0.  1.
         22    1    1    2    0    0  0.36781145938E+00  0.16807530189E+00  0.36156588246E+01  0.36382033083E+01  0.00000000000E+00 0. -1.
</event>
<event>
 5    1  0.1537976E+002  0.1599676E+01  0.7818608E-02  0.3353715E+00
         11   -1    0    0    0    0  0.00000000000E+00  0.00000000000E+00  0.39999999674E+01  0.40000000000E+01  0.51100000000E-03 0.  1.
    9000002   -1    0    0    0    0 -0.00000000000E+00 -0.00000000000E+00  0.00000000000E+00  0.93800000000E+00  0.93800000000E+00 0.  1.
         11    1    1    2    0    0 -0.35825012573E+00 -0.30939952158E+00  0.23854484241E+01  0.24319612788E+01  0.51100000000E-03 0.  1.
    9000002    1    1    2    0    0  0.54493961897E+00  0.46902654828E+00  0.37138232190E+00  0.12388357116E+01  0.93800000000E+00 0.  1.
         22    1    1    2    0    0 -0.18668949324E+00 -0.15962702670E+00  0.12431692214E+01  0.12672030096E+01  0.00000000000E+00 0.  1.
</event>
<event>
 5    1  0.1537976E+002  0.1599625E+01  0.7818608E-02  0.3353770E+00
         11   -1    0    0    0    0  0.00000000000E+00  0.00000000000E+00  0.39999999674E+01  0.40000000000E+01  0.51100000000E-03 0. -1.
    9000002   -1    0    0    0    0 -0.00000000000E+00 -0.00000000000E+00  0.00000000000E+00  0.93800000000E+00  0.93800000000E+00 0. -1.
         11    1    1    2    0    0 -0.24103256933E-01 -0.14214336452E-01  0.32582978626E+00  0.32702954773E+00  0.51100000000E-03 0. -1.
    9000002    1    1    2    0    0  0.23459946374E+00  0.18010363512E+00  0.58372717098E-01  0.98525407986E+00  0.93800000000E+00 0. -1.
         22    1    1    2    0    0 -0.21049620681E+00 -0.16588929867E+00  0.36157974640E+01  0.36257163724E+01  0.00000000000E+00 0. -1.
</event>
<event>
 5    1  0.1537976E+002  0.1599676E+01  0.7818608E-02  0.3353715E+00
         11   -1    0    0    0    0  0.00000000000E+00  0.00000000000E+00  0.39999999674E+01  0.40000000000E+01  0.51100000000E-03 0.  1.
    9000002   -1    0    0    0    0 -0.00000000000E+00 -0.00000000000E+00  0.00000000000E+00  0.93800000000E+00  0.93800000000E+00 0. -1.
         11    1    1    2    0    0 -0.63774947836E-01 -0.14979397177E+00  0.12509369357E+01  0.12614868038E+01  0.51100000000E-03 0.  1.
    9000002    1    1    2    0    0  0.19244774234E+00  0.46068828429E+00  0.17061921224E+00  0.10762085041E+01  0.93800000000E+00 0. -1.
         22    1    1    2    0    0 -0.12867279450E+00 -0.31089431252E+00  0.25784438194E+01  0.26003046920E+01  0.00000000000E+00 0.  1.
</event>
<event>
 5    1  0.1537976E+002  0.1592797E+01  0.7818608E-02  0.3361219E+00
         11   -1    0    0    0    0  0.00000000000E+00  0.00000000000E+00  0.39999999674E+01  0.40000000000E+01  0.51100000000E-03 0. -1.
    9000002   -1    0    0    0    0 -0.00000000000E+00 -0.00000000000E+00  0.00000000000E+00  0.93800000000E+00  0.93800000000E+00 0. -1.
         11    1    1    2    0    0 -0.13320243432E+00  0.44902411617E-01  0.61063144643E+00  0.62660205838E+00  0.51100000000E-03 0. -1.
    9000002    1    1    2    0    0  0.48022386356E+00 -0.58492913582E+00  0.42446147019E+00  0.12777983381E+01  0.93800000000E+00 0. -1.
         22    1    1    2    0    0 -0.34702142924E+00  0.54002672421E+00  0.29649070507E+01  0.30335996036E+01  0.00000000000E+00 0. -1.
</event>
<event>
 5    1  0.1537976E+002  0.1599631E+01  0.7818608E-02  0.3353764E+00
         11   -1    0    0    0    0  0.00000000000E+00  0.00000000000E+00  0.39999999674E+01  0.40000000000E+01  0.51100000000E-03 0.  1.
    9000002   -1    0    0    0    0 -0.00000000000E+00 -0.00000000000E+00  0.00000000000E+00  0.93800000000E+00  0.93800000000E+00 0.  1.
         11    1    1    2    0    0  0.21748566912E+00  0.13071477560E-01  0.18842054531E+01  0.18967607467E+01  0.51100000000E-03 0.  1.
    9000002    1    1    2    0    0 -0.45950150900E+00 -0.18138186680E-01  0.14387931912E+00  0.10545216399E+01  0.93800000000E+00 0.  1.
         22    1    1    2    0    0  0.24201583988E+00  0.50667091201E-02  0.19719151952E+01  0.19867176134E+01  0.00000000000E+00 0.  1.
</event>
<event>
 5    1  0.1537976E+002  0.1541257E+01  0.7818608E-02  0.3419697E+00
         11   -1    0    0    0    0  0.00000000000E+00  0.00000000000E+00  0.39999999674E+01  0.40000000000E+01  0.51100000000E-03 0. -1.
    9000002   -1    0    0    0    0 -0.00000000000E+00 -0.00000000000E+00  0.00000000000E+00  0.93800000000E+00  0.93800000000E+00 0.  1.
         11    1    1    2    0    0 -0.18277207990E+00  0.14403681763E+00  0.11593828836E+01  0.11825063086E+01  0.51100000000E-03 0. -1.
    9000002    1    1    2    0    0 -0.24547097406E+00 -0.23749275742E+00  0.12652615458E+00  0.10062363921E+01  0.93800000000E+00 0.  1.
         22    1    1    2    0    0  0.42824305396E+00  0.93455939784E-01  0.27140909292E+01  0.27492572993E+01  0.00000000000E+00 0. -1.
</event>
<event>
 5    1  0.1537976E+002  0.1592578E+01  0.7818608E-02  0.3361459E+00
         11   -1    0    0    0    0  0.00000000000E+00  0.00000000000E+00  0.39999999674E+01  0.40000000000E+01  0.51100000000E-03 0.  1.
    9000002   -1    0    0    0    0 -0.00000000000E+00 -0.00000000000E+00  0.00000000000E+00  0.93800000000E+00  0.93800000000E+00 0. -1.
         11    1    1    2    0    0  0.20017027510E-01 -0.47202808569E-01  0.49638948633E+00  0.49903063011E+00  0.51100000000E-03 0.  1.
    9000002    1    1    2    0    0 -0.90698314832E-01 -0.15439288195E+00  0.26503497298E-01  0.95530611936E+00  0.93800000000E+00 0. -1.
         22    1    1    2    0    0  0.70681287322E-01  0.20159569052E+00  0.34771069837E+01  0.34836632505E+01  0.00000000000E+00 0.  1.
</event>
<event>
 5    1  0.2595838E+002  0.1574587E+01  0.7818608E-02  0.3381416E+00
         11   -1    0    0    0    0  0.00000000000E+00  0.00000000000E+00  0.39999999674E+01  0.40000000000E+01  0.51100000000E-03 0.  1.
    9000002   -1    0    0    0    0 -0.00000000000E+00 -0.00000000000E+00  0.00000000000E+00  0.93800000000E+00  0.93800000000E+00 0. -1.
         11    1    1    2    0    0  0.15621099468E+00  0.77836081042E-01  0.13624775015E+01  0.13736104010E+01  0.51100000000E-03 0.  1.
    9000002    1    1    2    0    0  0.45676152875E-01 -0.61882912035E-01  0.22376675155E-01  0.94141410725E+00  0.93800000000E+00 0. -1.
         22    1    1    2    0    0 -0.20188714756E+00 -0.15953169007E-01  0.26151457907E+01  0.26229754918E+01  0.00000000000E+00 0.  1.
</event>
<event>
 5    1  0.1537976E+002  0.1587500E+01  0.7818608E-02  0.3367043E+00
         11   -1    0    0    0    0  0.00000000000E+00  0.00000000000E+00  0.39999999674E+01  0.40000000000E+01  0.51100000000E-03 0. -1.
    9000002   -1    0    0    0    0 -0.00000000000E+00 -0.00000000000E+00  0.00000000000E+00  0.93800000000E+00  0.93800000000E+00 0. -1.
         11    1    1    2    0    0  0.18216040033E+00 -0.27232291056E-01  0.28825352526E+01  0.28884137088E+01  0.51100000000E-03 0. -1.
    9000002    1    1    2    0    0 -0.35371134259E+00 -0.80486376744E-01  0.98308418967E-01  0.10104940950E+01  0.93800000000E+00 0. -1.
         22    1    1    2    0    0  0.17155094226E+00  0.10771866780E+00  0.10191562958E+01  0.10390921963E+01  0.00000000000E+00 0. -1.
</event>
<event>
 5    1  0.1537976E+002  0.1599354E+01  0.7818608E-02  0.3354065E+00
         11   -1    0    0    0    0  0.00000000000E+00  0.00000000000E+00  0.39999999674E+01  0.40000000000E+01  0.51100000000E-03 0.  1.
    9000002   -1    0    0    0    0 -0.00000000000E+00 -0.00000000000E+00  0.00000000000E+00  0.93800000000E+00  0.93800000000E+00 0. -1.
         11    1    1    2    0    0  0.88331527715E-01 -0.13207654454E+00  0.13876858037E+01  0.13967529572E+01  0.51100000000E-03 0.  1.
    9000002    1    1    2    0    0 -0.29274754763E+00  0.33383344596E+00  0.13405888686E+00  0.10464041673E+01  0.93800000000E+00 0. -1.
         22    1    1    2    0    0  0.20441601992E+00 -0.20175690143E+00  0.24782552768E+01  0.24948428755E+01  0.00000000000E+00 0.  1.
</event>
<event>
 5    1  0.1537976E+002  0.1599677E+01  0.7818608E-02  0.3353714E+00
         11   -1    0    0    0    0  0.00000000000E+00  0.00000000000E+00  0.39999999674E+01  0.40000000000E+01  0.51100000000E-03 0.  1.
    9000002   -1    0    0    0    0 -0.00000000000E+00 -0.00000000000E+00  0.00000000000E+00  0.93800000000E+00  0.93800000000E+00 0. -1.
         11    1    1    2    0    0  0.10442192897E+00 -0.10519185263E+00  0.15932511106E+01  0.16001308158E+01  0.51100000000E-03 0.  1.
    9000002    1    1    2    0    0 -0.25517268048E+00  0.25770086545E+00  0.88313308572E-01  0.10095375542E+01  0.93800000000E+00 0. -1.
         22    1    1    2    0    0  0.15075075151E+00 -0.15250901282E+00  0.23184355482E+01  0.23283316300E+01  0.00000000000E+00 0. -1.
</event>
<event>
 5    1  0.1537976E+002  0.1589480E+01  0.7818608E-02  0.3364862E+00
         11   -1    0    0    0    0  0.00000000000E+00  0.00000000000E+00  0.39999999674E+01  0.40000000000E+01  0.51100000000E-03 0. -1.
    9000002   -1    0    0    0    0 -0.00000000000E+00 -0.00000000000E+00  0.00000000000E+00  0.93800000000E+00  0.93800000000E+00 0. -1.
         11    1    1    2    0    0  0.31562591201E+00 -0.53439656580E+00  0.26196911363E+01  0.26922075174E+01  0.51100000000E-03 0. -1.
    9000002    1    1    2    0    0 -0.54089566661E+00  0.70592081478E+00  0.61821875073E+00  0.14328052005E+01  0.93800000000E+00 0. -1.
         22    1    1    2    0    0  0.22526975460E+00 -0.17152424898E+00  0.76209008028E+00  0.81298728206E+00  0.00000000000E+00 0.  1.
</event>
<event>
 5    1  0.1537976E+002  0.1556548E+01  0.7818608E-02  0.3401919E+00
         11   -1    0    0    0    0  0.00000000000E+00  0.00000000000E+00  0.39999999674E+01  0.40000000000E+01  0.51100000000E-03 0.  1.
    9000002   -1    0    0    0    0 -0.00000000000E+00 -0.00000000000E+00  0.00000000000E+00  0.93800000000E+00  0.93800000000E+00 0.  1.
         11    1    1    2    0    0 -0.97567250271E-02  0.11664976146E+00  0.33498087586E+01  0.33518534188E+01  0.51100000000E-03 0.  1.
    9000002    1    1    2    0    0  0.19571828117E+00 -0.30954169514E-01  0.59015772085E-01  0.96051583410E+00  0.93800000000E+00 0.  1.
         22    1    1    2    0    0 -0.18596155615E+00 -0.85695591944E-01  0.59117543666E+00  0.62563074713E+00  0.00000000000E+00 0.  1.
</event>
<event>
 5    1  0.1537976E+002  0.1599580E+01  0.7818608E-02  0.3353819E+00
         11   -1    0    0    0    0  0.00000000000E+00  0.00000000000E+00  0.39999999674E+01  0.40000000000E+01  0.51100000000E-03 0.  1.
    9000002   -1    0    0    0    0 -0.00000000000E+00 -0.00000000000E+00  0.00000000000E+00  0.93800000000E+00  0.93800000000E+00 0.  1.
         11    1    1    2    0    0  0.98955928869E-01  0.80601460907E-01  0.13681617576E+01  0.13741017893E+01  0.51100000000E-03 0.  1.
    9000002    1    1    2    0    0 -0.28391497945E+00 -0.19855466008E+00  0.80528877644E-01  0.10031752433E+01  0.93800000000E+00 0.  1.
         22    1    1    2    0    0  0.18495905058E+00  0.11795319917E+00  0.25513093321E+01  0.25607229674E+01  0.00000000000E+00 0.  1.
</event>
<event>
 5    1  0.1537976E+002  0.1599519E+01  0.7818608E-02  0.3353886E+00
         11   -1    0    0    0    0  0.00000000000E+00  0.00000000000E+00  0.39999999674E+01  0.40000000000E+01  0.51100000000E-03 0.  1.
    9000002   -1    0    0    0    0 -0.00000000000E+00 -0.00000000000E+00  0.00000000000E+00  0.93800000000E+00  0.93800000000E+00 0. -1.
         11    1    1    2    0    0  0.22607680896E-01 -0.24989622764E-01  0.49180097925E+00  0.49295441249E+00  0.51100000000E-03 0.  1.
    9000002    1    1    2    0    0 -0.25815974335E+00  0.21834712309E+00  0.76682043111E-01  0.10000230272E+01  0.93800000000E+00 0. -1.
         22    1    1    2    0    0  0.23555206245E+00 -0.19335750032E+00  0.34315169450E+01  0.34450225603E+01  0.00000000000E+00 0.  1.
</event>
<event>
 5    1  0.1537976E+002  0.1589651E+01  0.7818608E-02  0.3364673E+00
         11   -1    0    0    0    0  0.00000000000E+00  0.00000000000E+00  0.39999999674E+01  0.40000000000E+01  0.51100000000E-03 0.  1.
    9000002   -1    0    0    0    0 -0.00000000000E+00 -0.00000000000E+00  0.00000000000E+00  0.93800000000E+00  0.93800000000E+00 0.  1.
         11    1    1    2    0    0  0.22378677267E+00 -0.21696006637E+00  0.14019533305E+01  0.14361843865E+01  0.51100000000E-03 0.  1.
    9000002    1    1    2    0    0 -0.36045430194E+00  0.38513260918E+00  0.20071256459E+00  0.10947072504E+01  0.93800000000E+00 0.  1.
         22    1    1    2    0    0  0.13666752928E+00 -0.16817254281E+00  0.23973340723E+01  0.24071083632E+01  0.00000000000E+00 0. -1.
</event>
<event>
 5    1  0.1537976E+002  0.1599676E+01  0.7818608E-02  0.3353715E+00
         11   -1    0    0    0    0  0.00000000000E+00  0.00000000000E+00  0.39999999674E+01  0.40000000000E+01  0.51100000000E-03 0. -1.
    9000002   -1    0    0    0    0 -0.00000000000E+00 -0.00000000000E+00  0.00000000000E+00  0.93800000000E+00  0.93800000000E+00 0.  1.
         11    1    1    2    0    0 -0.25647753086E+00 -0.14609262552E+00  0.21233408738E+01  0.21437585000E+01  0.51100000000E-03 0. -1.
    9000002    1    1    2    0    0  0.46146475311E+00  0.26150652070E+00  0.19361461331E+00  0.10948360595E+01  0.93800000000E+00 0.  1.
         22    1    1    2    0    0 -0.20498722225E+00 -0.11541389518E+00  0.16830444803E+01  0.16994054405E+01  0.00000000000E+00 0.  1.
</event>
<event>
 5    1  0.1537976E+002  0.1599338E+01  0.7818608E-02  0.3354082E+00
         11   -1    0    0    0    0  0.00000000000E+00  0.00000000000E+00  0.39999999674E+01  0.40000000000E+01  0.51100000000E-03 0. -1.
    9000002   -1    0    0    0    0 -0.00000000000E+00 -0.00000000000E+00  0.00000000000E+00  0.93800000000E+00  0.93800000000E+00 0. -1.
         11    1    1    2    0    0 -0.22226154663E-01  0.34995764558E-01  0.98610231349E+00  0.98697352512E+00  0.51100000000E-03 0. -1.
    9000002    1    1    2    0    0  0.12957401898E+00 -0.20622344765E+00  0.39643253708E-01  0.96991397779E+00  0.93800000000E+00 0. -1.
         22    1    1    2    0    0 -0.10734786431E+00  0.17122768309E+00  0.29742544002E+01  0.29811124971E+01  0.00000000000E+00 0. -1.
</event>
<event>
 5    1  0.1537976E+002  0.1482734E+01  0.7818608E-02  0.3491380E+00
         11   -1    0    0    0    0  0.00000000000E+00  0.00000000000E+00  0.39999999674E+01  0.40000000000E+01  0.51100000000E-03 0.  1.
    9000002   -1    0    0    0    0 -0.00000000000E+00 -0.00000000000E+00  0.00000000000E+00  0.93800000000E+00  0.93800000000E+00 0. -1.
         11    1    1    2    0    0 -0.74025160367E-01 -0.19013530716E+00  0.26487229607E+01  0.26565701088E+01  0.51100000000E-03 0.  1.
    9000002    1    1    2    0    0  0.47907891399E-01 -0.28106717225E+00  0.15129230579E+00  0.99198149336E+00  0.93800000000E+00 0. -1.
         22    1    1    2    0    0  0.26117268968E-01  0.47120247941E+00  0.11999847009E+01  0.12894483978E+01  0.00000000000E+00 0.  1.
</event>
<event>
 5    1  0.1537976E+002  0.1599674E+01  0.7818608E-02  0.3353717E+00
         11   -1    0    0    0    0  0.00000000000E+00  0.00000000000E+00  0.39999999674E+01  0.40000000000E+01  0.51100000000E-03 0.  1.
    9000002   -1    0    0    0    0 -0.00000000000E+00 -0.00000000000E+00  0.00000000000E+00  0.93800000000E+00  0.93800000000E+00 0. -1.
         11    1    1    2    0    0  0.23744644091E-02  0.15169957802E-01  0.16097118670E+00  0.16170265852E+00  0.51100000000E-03 0.  1.
    9000002    1    1    2    0    0 -0.69286341496E-01 -0.35865134201E+00  0.89623937514E-01  0.10105977600E+01  0.93800000000E+00 0. -1.
         22    1    1    2    0    0  0.66911877087E-01  0.34348138421E+00  0.37494048431E+01  0.37656995815E+01  0.00000000000E+00 0.  1.
</event>
<event>
 5    1  0.1537976E+002  0.1599676E+01  0.7818608E-02  0.3353715E+00
         11   -1    0    0    0    0  0.00000000000E+00  0.00000000000E+00  0.39999999674E+01  0.40000000000E+01  0.51100000000E-03 0.  1.
    9000002   -1    0    0    0    0 -0.00000000000E+00 -0.00000000000E+00  0.00000000000E+00  0.93800000000E+00  0.93800000000E+00 0. -1.
         11    1    1    2    0    0  0.10586348592E+00  0.12456527284E+00  0.17451109840E+01  0.17527510355E+01  0.51100000000E-03 0.  1.
    9000002    1    1    2    0    0 -0.23600336868E+00 -0.27715649331E+00  0.88992784079E-01  0.10100876335E+01  0.93800000000E+00 0. -1.
         22    1    1    2    0    0  0.13013988276E+00  0.15259122046E+00  0.21658961993E+01  0.21751613310E+01  0.00000000000E+00 0.  1.
</event>
<event>
 5    1  0.1662529E+002  0.1571252E+01  0.7818608E-02  0.3385169E+00
         11   -1    0    0    0    0  0.00000000000E+00  0.00000000000E+00  0.39999999674E+01  0.40000000000E+01  0.51100000000E-03 0. -1.
    9000002   -1    0    0    0    0 -0.00000000000E+00 -0.00000000000E+00  0.00000000000E+00  0.93800000000E+00  0.93800000000E+00 0. -1.
         11    1    1    2    0    0  0.11087067359E+00 -0.76438917025E-01  0.59817094469E+00  0.61314268690E+00  0.51100000000E-03 0. -1.
    9000002    1    1    2    0    0  0.93021653936E-01  0.10925940782E-01  0.26805060128E-01  0.94304555326E+00  0.93800000000E+00 0. -1.
         22    1    1    2    0    0 -0.20389232753E+00  0.65512976244E-01  0.33750239625E+01  0.33818117598E+01  0.00000000000E+00 0. -1.
</event>
<event>
 5    1  0.1537976E+002  0.1599677E+01  0.7818608E-02  0.3353714E+00
         11   -1    0    0    0    0  0.00000000000E+00  0.00000000000E+00  0.39999999674E+01  0.40000000000E+01  0.51100000000E-03 0.  1.
    9000002   -1    0    0    0    0 -0.00000000000E+00 -0.00000000000E+00  0.00000000000E+00  0.93800000000E+00  0.93800000000E+00 0. -1.
         11    1    1    2    0    0 -0.11184844021E+00  0.25912516686E+00  0.18873901403E+01  0.19083756780E+01  0.51100000000E-03 0.  1.
    9000002    1    1    2    0    0  0.22518239118E+00 -0.51776012403E+00  0.22080624150E+00  0.11168625930E+01  0.93800000000E+00 0. -1.
         22    1    1    2    0    0 -0.11333395098E+00  0.25863495717E+00  0.18918035855E+01  0.19127617290E+01  0.00000000000E+00 0.  1.
</event>
<event>
 5    1  0.1537976E+002  0.1599676E+01  0.7818608E-02  0.3353715E+00
         11   -1    0    0    0    0  0.00000000000E+00  0.00000000000E+00  0.39999999674E+01  0.40000000000E+01  0.51100000000E-03 0.  1.
    9000002   -1    0    0    0    0 -0.00000000000E+00 -0.00000000000E+00  0.00000000000E+00  0.93800000000E+00  0.93800000000E+00 0.  1.
         11    1    1    2    0    0 -0.45764901972E-02  0.36629949037E-01  0.46774130767E+00  0.46919600323E+00  0.51100000000E-03 0.  1.
    9000002    1    1    2    0    0  0.38472506998E-01 -0.31283511449E+00  0.66371870865E-01  0.99176366534E+00  0.93800000000E+00 0.  1.
         22    1    1    2    0    0 -0.33896016801E-01  0.27620516546E+00  0.34658867888E+01  0.34770403314E+01  0.00000000000E+00 0.  1.
</event>
<event>
 5    1  0.1537976E+002  0.1599676E+01  0.7818608E-02  0.3353715E+00
         11   -1    0    0    0    0  0.00000000000E+00  0.00000000000E+00  0.39999999674E+01  0.40000000000E+01  0.51100000000E-03 0. -1.
    9000002   -1    0    0    0    0 -0.00000000000E+00 -0.00000000000E+00  0.00000000000E+00  0.93800000000E+00  0.93800000000E+00 0. -1.
         11    1    1    2    0    0 -0.12736580785E+00 -0.13474672985E+00  0.11629661685E+01  0.11776541515E+01  0.51100000000E-03 0. -1.
    9000002    1    1    2    0    0  0.40792829735E+00  0.43243141783E+00  0.24628063905E+00  0.11374975077E+01  0.93800000000E+00 0. -1.
         22    1    1    2    0    0 -0.28056248950E+00 -0.29768468798E+00  0.25907531598E+01  0.26228483408E+01  0.00000000000E+00 0. -1.
</event>
<event>
 5    1  0.1537976E+002  0.1599431E+01  0.7818608E-02  0.3353981E+00
         11   -1    0    0    0    0  0.00000000000E+00  0.00000000000E+00  0.39999999674E+01  0.40000000000E+01  0.51100000000E-03 0.  1.
    9000002   -1    0    0    0    0 -0.00000000000E+00 -0.00000000000E+00  0.00000000000E+00  0.93800000000E+00  0.93800000000E+00 0. -1.
         11    1    1    2    0    0  0.76879426614E-01 -0.73600273386E-01  0.10245940115E+01  0.10301070798E+01  0.51100000000E-03 0.  1.
    9000002    1    1    2    0    0 -0.23018883627E+00  0.27763010965E+00  0.87513590921E-01  0.10087457592E+01  0.93800000000E+00 0. -1.
         22    1    1    2    0    0  0.15330940966E+00 -0.20402983627E+00  0.28878923650E+01  0.28991471610E+01  0.00000000000E+00 0.  1.
</event>
<event>
 5    1  0.1537976E+002  0.1599675E+01  0.7818608E-02  0.3353716E+00
         11   -1    0    0    0    0  0.00000000000E+00  0.00000000000E+00  0.39999999674E+01  0.40000000000E+01  0.51100000000E-03 0. -1.
    9000002   -1    0    0    0    0 -0.00000000000E+00 -0.00000000000E+00  0.00000000000E+00  0.93800000000E+00  0.93800000000E+00 0.  1.
         11    1    1    2    0    0  0.63050751046E+00 -0.96942912555E-01  0.17928822661E+01  0.19029883684E+01  0.51100000000E-03 0. -1.
    9000002    1    1    2    0    0 -0.10618099618E+01  0.16550652288E+00  0.97504180049E+00  0.17278261825E+01  0.93800000000E+00 0. -1.
         22    1    1    2    0    0  0.43130245134E+00 -0.68563610327E-01  0.12320759008E+01  0.13071854491E+01  0.00000000000E+00 0. -1.
</event>
<event>
 5    1  0.1537976E+002  0.1469579E+01  0.7818608E-02  0.3508341E+00
         11   -1    0    0    0    0  0.00000000000E+00  0.00000000000E+00  0.39999999674E+01  0.40000000000E+01  0.51100000000E-03 0.  1.
    9000002   -1    0    0    0    0 -0.00000000000E+00 -0.00000000000E+00  0.00000000000E+00  0.93800000000E+00  0.93800000000E+00 0.  1.
         11    1    1    2    0    0  0.36691314545E+00 -0.43329848252E+00  0.17693307330E+01  0.18581992184E+01  0.51100000000E-03 0.  1.
    9000002    1    1    2    0    0 -0.24195239621E+00  0.17675127390E+00  0.16975124568E+00  0.99922042627E+00  0.93800000000E+00 0.  1.
         22    1    1    2    0    0 -0.12496074924E+00  0.25654720862E+00  0.20609179887E+01  0.20805803554E+01  0.00000000000E+00 0.  1.
</event>
<event>
 5    1  0.1537976E+002  0.1599672E+01  0.7818608E-02  0.3353719E+00
         11   -1    0    0    0    0  0.00000000000E+00  0.00000000000E+00  0.39999999674E+01  0.40000000000E+01  0.51100000000E-03 0.  1.
    9000002   -1    0    0    0    0 -0.00000000000E+00 -0.00000000000E+00  0.00000000000E+00  0.93800000000E+00  0.93800000000E+00 0.  1.
         11    1    1    2    0    0  0.41032800585E-02  0.10288910471E+00  0.13252932998E+01  0.13292876274E+01  0.51100000000E-03 0.  1.
    9000002    1    1    2    0    0 -0.63439144303E-02 -0.30986593331E+00  0.64144841134E-01  0.98995742460E+00  0.93800000000E+00 0.  1.
         22    1    1    2    0    0  0.22406343718E-02  0.20697682860E+00  0.26105618265E+01  0.26187549480E+01  0.00000000000E+00 0.  1.
</event>
<event>
 5    1  0.1537976E+002  0.1505125E+01  0.7818608E-02  0.3463246E+00
         11   -1    0    0    0    0  0.00000000000E+00  0.00000000000E+00  0.39999999674E+01  0.40000000000E+01  0.51100000000E-03 0.  1.
    9000002   -1    0    0    0    0 -0.00000000000E+00 -0.00000000000E+00  0.00000000000E+00  0.93800000000E+00  0.93800000000E+00 0.  1.
         11    1    1    2    0    0 -0.57964781944E-01 -0.19643479960E+00  0.29795059565E+00  0.36155409693E+00  0.51100000000E-03 0.  1.
    9000002    1    1    2    0    0  0.58997263540E-01 -0.12000603929E-01  0.74461861503E-01  0.94287499724E+00  0.93800000000E+00 0.  1.
         22    1    1    2    0    0 -0.10324815961E-02  0.20843540353E+00  0.36275875102E+01  0.36335709058E+01  0.00000000000E+00 0.  1.
</event>
<event>
 5    1  0.1537976E+002  0.1597202E+01  0.7818608E-02  0.3356405E+00
         11   -1    0    0    0    0  0.00000000000E+00  0.00000000000E+00  0.39999999674E+01  0.40000000000E+01  0.51100000000E-03 0. -1.
    9000002   -1    0    0    0    0 -0.00000000000E+00 -0.00000000000E+00  0.00000000000E+00  0.93800000000E+00  0.93800000000E+00 0. -1.
         11    1    1    2    0    0 -0.14754974217E+00  0.36138731295E-02  0.10065907049E+01  0.10173539673E+01  0.51100000000E-03 0. -1.
    9000002    1    1    2    0    0  0.37496973810E+00  0.39527665874E-01  0.97649793199E-01  0.10156496556E+01  0.93800000000E+00 0. -1.
         22    1    1    2    0    0 -0.22741999593E+00 -0.43141539004E-01  0.28957594693E+01  0.29049963771E+01  0.00000000000E+00 0. -1.
</event>
<event>
 5    1  0.1537976E+002  0.1599641E+01  0.7818608E-02  0.3353753E+00
         11   -1    0    0    0    0  0.00000000000E+00  0.00000000000E+00  0.39999999674E+01  0.40000000000E+01  0.51100000000E-03 0. -1.
    9000002   -1    0    0    0    0 -0.00000000000E+00 -0.00000000000E+00  0.00000000000E+00  0.93800000000E+00  0.93800000000E+00 0. -1.
         11    1    1    2    0    0  0.34395649839E+00 -0.21063303542E+00  0.21406338540E+01  0.21782988560E+01  0.51100000000E-03 0. -1.
    9000002    1    1    2    0    0 -0.58997002257E+00  0.37128446214E+00  0.34704034339E+00  0.12190971164E+01  0.93800000000E+00 0. -1.
         22    1    1    2    0    0  0.24601352418E+00 -0.16065142673E+00  0.15123257700E+01  0.15406040275E+01  0.00000000000E+00 0. -1.
</event>
<event>
 5    1  0.1537976E+002  0.1581297E+01  0.7818608E-02  0.3373917E+00
         11   -1    0    0    0    0  0.00000000000E+00  0.00000000000E+00  0.39999999674E+01  0.40000000000E+01  0.51100000000E-03 0.  1.
    9000002   -1    0    0    0    0 -0.00000000000E+00 -0.00000000000E+00  0.00000000000E+00  0.93800000000E+00  0.93800000000E+00 0. -1.
         11    1    1    2    0    0  0.83172839719E-01 -0.63708519299E-02  0.30757255454E+00  0.31868392876E+00  0.51100000000E-03 0.  1.
    9000002    1    1    2    0    0  0.51498643314E-01  0.23041015578E+00  0.51086365751E-01  0.96860454620E+00  0.93800000000E+00 0. -1.
         22    1    1    2    0    0 -0.13467148303E+00 -0.22403930385E+00  0.36413410471E+01  0.36507115250E+01  0.00000000000E+00 0.  1.
</event>
<event>
 5    1  0.1537976E+002  0.1598790E+01  0.7818608E-02  0.3354677E+00
         11   -1    0    0    0    0  0.00000000000E+00  0.00000000000E+00  0.39999999674E+01  0.40000000000E+01  0.51100000000E-03 0.  1.
    9000002   -1    0    0    0    0 -0.00000000000E+00 -0.00000000000E+00  0.00000000000E+00  0.93800000000E+00  0.93800000000E+00 0. -1.
         11    1    1    2    0    0  0.52336676531E-02  0.10336973078E-01  0.18415185200E+00  0.18451669303E+00  0.51100000000E-03 0.  1.
    9000002    1    1    2    0    0 -0.19662717743E+00  0.90911814197E-01  0.31768074894E-01  0.96321358766E+00  0.93800000000E+00 0. -1.
         22    1    1    2    0    0  0.19139350978E+00 -0.10124878727E+00  0.37840800405E+01  0.37902697193E+01  0.00000000000E+00 0.  1.
</event>
<event>
 5    1  0.1537976E+002  0.1599675E+01  0.7818608E-02  0.3353717E+00
         11   -1    0    0    0    0  0.00000000000E+00  0.00000000000E+00  0.39999999674E+01  0.40000000000E+01  0.51100000000E-03 0.  1.
    9000002   -1    0    0    0    0 -0.00000000000E+00 -0.00000000000E+00  0.00000000000E+00  0.93800000000E+00  0.93800000000E+00 0. -1.
         11    1    1    2    0    0 -0.56093643733E-01  0.51699834815E-01  0.90538129484E+00  0.90858952226E+00  0.51100000000E-03 0.  1.
    9000002    1    1    2    0    0  0.24470943858E+00 -0.23061936668E+00  0.75702853289E-01  0.99932123144E+00  0.93800000000E+00 0. -1.
         22    1    1    2    0    0 -0.18861579484E+00  0.17891953186E+00  0.30189158192E+01  0.30300892463E+01  0.00000000000E+00 0.  1.
</event>
<event>
 5    1  0.1537976E+002  0.1594000E+01  0.7818608E-02  0.3359902E+00
         11   -1    0    0    0    0  0.00000000000E+00  0.00000000000E+00  0.39999999674E+01  0.40000000000E+01  0.51100000000E-03 0.  1.
    9000002   -1    0    0    0    0 -0.00000000000E+00 -0.00000000000E+00  0.00000000000E+00  0.93800000000E+00  0.93800000000E+00 0. -1.
         11    1    1    2    0    0 -0.63554908819E-01 -0.42061767874E-01  0.16178055014E+01  0.16195997407E+01  0.51100000000E-03 0.  1.
    9000002    1    1    2    0    0 -0.14989742234E-01  0.23905514167E+00  0.42413469633E-01  0.96902784043E+00  0.93800000000E+00 0. -1.
         22    1    1    2    0    0  0.78544651053E-01 -0.19699337379E+00  0.23397809964E+01  0.23493724189E+01  0.00000000000E+00 0.  1.
</event>
<event>
 5    1  0.1537976E+002  0.1599630E+01  0.7818608E-02  0.3353765E+00
         11   -1    0    0    0    0  0.00000000000E+00  0.00000000000E+00  0.39999999674E+01  0.40000000000E+01  0.51100000000E-03 0.  1.
    9000002   -1    0    0    0    0 -0.00000000000E+00 -0.00000000000E+00  0.00000000000E+00  0.93800000000E+00  0.93800000000E+00 0.  1.
         11    1    1    2    0    0  0.94136688906E-01 -0.10318553876E+00  0.80407786152E+00  0.81611913353E+00  0.51100000000E-03 0.  1.
    9000002    1    1    2    0    0 -0.40567313669E+00  0.48827403101E+00  0.28339618674E+00  0.11675357047E+01  0.93800000000E+00 0.  1.
         22    1    1    2    0    0  0.31153644778E+00 -0.38508849225E+00  0.29125259191E+01  0.29543451617E+01  0.00000000000E+00 0.  1.
</event>
<event>
 5    1  0.1537976E+002  0.1595907E+01  0.7818608E-02  0.3357817E+00
         11   -1    0    0    0    0  0.00000000000E+00  0.00000000000E+00  0.39999999674E+01  0.40000000000E+01  0.51100000000E-03 0. -1.
    9000002   -1    0    0    0    0 -0.00000000000E+00 -0.00000000000E+00  0.00000000000E+00  0.93800000000E+00  0.93800000000E+00 0. -1.
         11    1    1    2    0    0  0.11460443940E+00  0.16389987997E-01  0.99674643533E+00  0.10034473213E+01  0.51100000000E-03 0. -1.
    9000002    1    1    2    0    0 -0.37338187526E+00  0.17672881026E+00  0.11847478218E+00  0.10317593572E+01  0.93800000000E+00 0. -1.
         22    1    1    2    0    0  0.25877743585E+00 -0.19311879826E+00  0.28847787499E+01  0.29027933215E+01  0.00000000000E+00 0. -1.
</event>
<event>
 5    1  0.1537976E+002  0.1599677E+01  0.7818608E-02  0.3353714E+00
         11   -1    0    0    0    0  0.00000000000E+00  0.00000000000E+00  0.39999999674E+01  0.40000000000E+01  0.51100000000E-03 0. -1.
    9000002   -1    0    0    0    0 -0.00000000000E+00 -0.00000000000E+00  0.00000000000E+00  0.93800000000E+00  0.93800000000E+00 0. -1.
         11    1    1    2    0    0 -0.10925461762E+00 -0.16687811045E+00  0.15055045895E+01  0.15186603324E+01  0.51100000000E-03 0. -1.
    9000002    1    1    2    0    0  0.27622686410E+00  0.42260418628E+00  0.17463436292E+00  0.10794613191E+01  0.93800000000E+00 0. -1.
         22    1    1    2    0    0 -0.16697224647E+00 -0.25572607583E+00  0.23198610150E+01  0.23398783485E+01  0.00000000000E+00 0. -1.
</event>
<event>
 5    1  0.1537976E+002  0.1599676E+01  0.7818608E-02  0.3353715E+00
         11   -1    0    0    0    0  0.00000000000E+00  0.00000000000E+00  0.39999999674E+01  0.40000000000E+01  0.51100000000E-03 0. -1.
    9000002   -1    0    0    0    0 -0.00000000000E+00 -0.00000000000E+00  0.00000000000E+00  0.93800000000E+00  0.93800000000E+00 0.  1.
         11    1    1    2    0    0 -0.35087689497E-01 -0.34437901504E-01  0.51745549563E+00  0.51978607724E+00  0.51100000000E-03 0. -1.
    9000002    1    1    2    0    0  0.26500470247E+00  0.25372009100E+00  0.90425432950E-01  0.10112478113E+01  0.93800000000E+00 0.  1.
         22    1    1    2    0    0 -0.22991701297E+00 -0.21928218950E+00  0.33921190388E+01  0.34069661115E+01  0.00000000000E+00 0. -1.
</event>
<event>
 5    1  0.1537976E+002  0.1599593E+01  0.7818608E-02  0.3353805E+00
         11   -1    0    0    0    0  0.00000000000E+00  0.00000000000E+00  0.39999999674E+01  0.40000000000E+01  0.51100000000E-03 0. -1.
    9000002   -1    0    0    0    0 -0.00000000000E+00 -0.00000000000E+00  0.00000000000E+00  0.93800000000E+00  0.93800000000E+00 0. -1.
         11    1    1    2    0    0  0.24513061416E-02 -0.52978677882E-02  0.69952786875E-01  0.70197790688E-01  0.51100000000E-03 0. -1.
    9000002    1    1    2    0    0 -0.20150928664E+00  0.15078034775E+00  0.42145907321E-01  0.97209103657E+00  0.93800000000E+00 0. -1.
         22    1    1    2    0    0  0.19905798050E+00 -0.14548247997E+00  0.38879012732E+01  0.38957111727E+01  0.00000000000E+00 0. -1.
</event>
<event>
 5    1  0.1537976E+002  0.1584305E+01  0.7818608E-02  0.3370576E+00
         11   -1    0    0    0    0  0.00000000000E+00  0.00000000000E+00  0.39999999674E+01  0.40000000000E+01  0.51100000000E-03 0.  1.
    9000002   -1    0    0    0    0 -0.00000000000E+00 -0.00000000000E+00  0.00000000000E+00  0.93800000000E+00  0.93800000000E+00 0.  1.
         11    1    1    2    0    0  0.89001505029E-01  0.80953989921E-02  0.16114195451E+01  0.16138959120E+01  0.51100000000E-03 0.  1.
    9000002    1    1    2    0    0  0.96280539677E-01  0.15538555560E+00  0.33641746759E-01  0.95623761709E+00  0.93800000000E+00 0.  1.
         22    1    1    2    0    0 -0.18528204471E+00 -0.16348095459E+00  0.23549386755E+01  0.23678664709E+01  0.00000000000E+00 0. -1.
</event>
<event>
 5    1  0.1537976E+002  0.1599676E+01  0.7818608E-02  0.3353715E+00
         11   -1    0    0    0    0  0.00000000000E+00  0.00000000000E+00  0.39999999674E+01  0.40000000000E+01  0.51100000000E-03 0. -1.
    9000002   -1    0    0    0    0 -0.00000000000E+00 -0.00000000000E+00  0.00000000000E+00  0.93800000000E+00  0.93800000000E+00 0.  1.
         11    1    1    2    0    0  0.65010425985E-01 -0.30267868160E-01  0.70274766034E+00  0.70639722152E+00  0.51100000000E-03 0. -1.
    9000002    1    1    2    0    0 -0.36296744742E+00  0.16945601914E+00  0.10824244523E+00  0.10256808165E+01  0.93800000000E+00 0.  1.
         22    1    1    2    0    0  0.29795702143E+00 -0.13918815098E+00  0.31890098618E+01  0.32059219620E+01  0.00000000000E+00 0. -1.
</event>
<event>
 5    1  0.1537976E+002  0.1560284E+01  0.7818608E-02  0.3397631E+00
         11   -1    0    0    0    0  0.00000000000E+00  0.00000000000E+00  0.39999999674E+01  0.40000000000E+01  0.51100000000E-03 0.  1.
    9000002   -1    0    0    0    0 -0.00000000000E+00 -0.00000000000E+00  0.00000000000E+00  0.93800000000E+00  0.93800000000E+00 0.  1.
         11    1    1    2    0    0  0.10885983329E+00 -0.24403662215E+00  0.22086123304E+01  0.22247186392E+01  0.51100000000E-03 0.  1.
    9000002    1    1    2    0    0 -0.30385116632E+00  0.27744691009E-01  0.93721113276E-01  0.99081933077E+00  0.93800000000E+00 0.  1.
         22    1    1    2    0    0  0.19499133303E+00  0.21629193114E+00  0.16976665236E+01  0.17224620300E+01  0.00000000000E+00 0.  1.
</event>
<event>
 5    1  0.1537976E+002  0.1599663E+01  0.7818608E-02  0.3353729E+00
         11   -1    0    0    0    0  0.00000000000E+00  0.00000000000E+00  0.39999999674E+01  0.40000000000E+01  0.51100000000E-03 0. -1.
    9000002   -1    0    0    0    0 -0.00000000000E+00 -0.00000000000E+00  0.00000000000E+00  0.93800000000E+00  0.93800000000E+00 0. -1.
         11    1    1    2    0    0 -0.17387795800E+00 -0.85504185056E-01  0.18211796863E+01  0.18314584955E+01  0.51100000000E-03 0. -1.
    9000002    1    1    2    0    0  0.37986572304E+00  0.18306744383E+00  0.12029377265E+00  0.10354352941E+01  0.93800000000E+00 0. -1.
         22    1    1    2    0    0 -0.20598776504E+00 -0.97563258770E-01  0.20585265084E+01  0.20711062104E+01  0.00000000000E+00 0.  1.
</event>
<event>
 5    1  0.1537976E+002  0.1549962E+01  0.7818608E-02  0.3409530E+00
         11   -1    0    0    0    0  0.00000000000E+00  0.00000000000E+00  0.39999999674E+01  0.40000000000E+01  0.51100000000E-03 0. -1.
    9000002   -1    0    0    0    0 -0.00000000000E+00 -0.00000000000E+00  0.00000000000E+00  0.93800000000E+00  0.93800000000E+00 0.  1.
         11    1    1    2    0    0  0.19858206141E+00  0.83041202876E-01  0.85270148609E+00  0.87944912416E+00  0.51100000000E-03 0. -1.
    9000002    1    1    2    0    0 -0.12582567750E-01  0.93671962870E-01  0.43064392922E-01  0.94373264200E+00  0.93800000000E+00 0.  1.
         22    1    1    2    0    0 -0.18599949366E+00 -0.17671316575E+00  0.31042340883E+01  0.31148182338E+01  0.00000000000E+00 0. -1.
</event>
<event>
 5    1  0.1537976E+002  0.1599677E+01  0.7818608E-02  0.3353714E+00
         11   -1    0    0    0    0  0.00000000000E+00  0.00000000000E+00  0.39999999674E+01  0.40000000000E+01  0.51100000000E-03 0.  1.
    9000002   -1    0    0    0    0 -0.00000000000E+00 -0.00000000000E+00  0.00000000000E+00  0.93800000000E+00  0.93800000000E+00 0.  1.
         11    1    1    2    0    0  0.62689174624E+00 -0.24160423273E+00  0.24976727314E+01  0.25864522421E+01  0.51100000000E-03 0.  1.
    9000002    1    1    2    0    0 -0.84587685346E+00  0.32651076171E+00  0.63111154537E+00  0.14492283158E+01  0.93800000000E+00 0.  1.
         22    1    1    2    0    0  0.21898510722E+00 -0.84906528981E-01  0.87121569063E+00  0.90231944203E+00  0.00000000000E+00 0. -1.
</event>
<event>
 5    1  0.1537976E+002  0.1599669E+01  0.7818608E-02  0.3353722E+00
         11   -1    0    0    0    0  0.00000000000E+00  0.00000000000E+00  0.39999999674E+01  0.40000000000E+01  0.51100000000E-03 0.  1.
    9000002   -1    0    0    0    0 -0.00000000000E+00 -0.00000000000E+00  0.00000000000E+00  0.93800000000E+00  0.93800000000E+00 0. -1.
         11    1    1    2    0    0  0.42511399290E-01  0.23455084707E-01  0.74822332564E+00  0.74979715005E+00  0.51100000000E-03 0.  1.
    9000002    1    1    2    0    0 -0.22759283116E+00 -0.13739449130E+00  0.47014127377E-01  0.97607892673E+00  0.93800000000E+00 0. -1.
         22    1    1    2    0    0  0.18508143187E+00  0.11393940659E+00  0.32047625143E+01  0.32121239232E+01  0.00000000000E+00 0.  1.
</event>
<event>
 5    1  0.1537976E+002  0.1598528E+01  0.7818608E-02  0.3354963E+00
         11   -1    0    0    0    0  0.00000000000E+00  0.00000000000E+00  0.39999999674E+01  0.40000000000E+01  0.51100000000E-03 0.  1.
    9000002   -1    0    0    0    0 -0.00000000000E+00 -0.00000000000E+00  0.00000000000E+00  0.93800000000E+00  0.93800000000E+00 0.  1.
         11    1    1    2    0    0  0.63447067507E-01 -0.61874560698E-02  0.50313349499E+00  0.50715617899E+00  0.51100000000E-03 0.  1.
    9000002    1    1    2    0    0 -0.40669845090E+00  0.24241087751E+00  0.15380704800E+00  0.10619167912E+01  0.93800000000E+00 0.  1.
         22    1    1    2    0    0  0.34325138339E+00 -0.23622342144E+00  0.33430594244E+01  0.33689270298E+01  0.00000000000E+00 0.  1.
</event>
<event>
 5    1  0.1537976E+002  0.1599503E+01  0.7818608E-02  0.3353903E+00
         11   -1    0    0    0    0  0.00000000000E+00  0.00000000000E+00  0.39999999674E+01  0.40000000000E+01  0.51100000000E-03 0. -1.
    9000002   -1    0    0    0    0 -0.00000000000E+00 -0.00000000000E+00  0.00000000000E+00  0.93800000000E+00  0.93800000000E+00 0. -1.
         11    1    1    2    0    0 -0.33232164563E-03 -0.13626026073E-01  0.13611226139E+00  0.13679396130E+00  0.51100000000E-03 0. -1.
    9000002    1    1    2    0    0  0.31755525107E-02  0.22861436328E+00  0.34803353957E-01  0.96608999823E+00  0.93800000000E+00 0. -1.
         22    1    1    2    0    0 -0.28432308650E-02 -0.21498833721E+00  0.38290843520E+01  0.38351160405E+01  0.00000000000E+00 0. -1.
</event>
<event>
 5    1  0.1537976E+002  0.1599677E+01  0.7818608E-02  0.3353714E+00
         11   -1    0    0    0    0  0.00000000000E+00  0.00000000000E+00  0.39999999674E+01  0.40000000000E+01  0.51100000000E-03 0. -1.
    9000002   -1    0    0    0    0 -0.00000000000E+00 -0.00000000000E+00  0.00000000000E+00  0.93800000000E+00  0.93800000000E+00 0. -1.
         11    1    1    2    0    0  0.51890725269E-01 -0.47834097041E-02  0.69716772982E+00  0.69911274699E+00  0.51100000000E-03 0. -1.
    9000002    1    1    2    0    0 -0.29563654917E+00  0.27795773874E-01  0.58805264451E-01  0.98563463483E+00  0.93800000000E+00 0. -1.
         22    1    1    2    0    0  0.24374582390E+00 -0.23012364169E-01  0.32440269731E+01  0.32532526182E+01  0.00000000000E+00 0. -1.
</event>
<event>
 5    1  0.1537976E+002  0.1577933E+01  0.7818608E-02  0.3377668E+00
         11   -1    0    0    0    0  0.00000000000E+00  0.00000000000E+00  0.39999999674E+01  0.40000000000E+01  0.51100000000E-03 0. -1.
    9000002   -1    0    0    0    0 -0.00000000000E+00 -0.00000000000E+00  0.00000000000E+00  0.93800000000E+00  0.93800000000E+00 0. -1.
         11    1    1    2    0    0 -0.27546764562E-01 -0.73625419210E-01  0.17502583232E+00  0.19186930367E+00  0.51100000000E-03 0. -1.
    9000002    1    1    2    0    0 -0.41975757411E+00  0.30479880235E+00  0.20500936285E+00  0.10913164389E+01  0.93800000000E+00 0. -1.
         22    1    1    2    0    0  0.44730433867E+00 -0.23117338314E+00  0.36199647722E+01  0.36548142574E+01  0.00000000000E+00 0. -1.
</event>
<event>
 5    1  0.1537976E+002  0.1538375E+01  0.7818608E-02  0.3423090E+00
         11   -1    0    0    0    0  0.00000000000E+00  0.00000000000E+00  0.39999999674E+01  0.40000000000E+01  0.51100000000E-03 0.  1.
    9000002   -1    0    0    0    0 -0.00000000000E+00 -0.00000000000E+00  0.00000000000E+00  0.93800000000E+00  0.93800000000E+00 0.  1.
         11    1    1    2    0    0  0.75003870738E-02  0.14514694709E+00  0.33313168940E+01  0.33344859276E+01  0.51100000000E-03 0.  1.
    9000002    1    1    2    0    0  0.46206642016E-02  0.87525711945E-01  0.51130361709E-01  0.94347252990E+00  0.93800000000E+00 0.  1.
         22    1    1    2    0    0 -0.12121051275E-01 -0.23267265904E+00  0.61755271169E+00  0.66004154253E+00  0.00000000000E+00 0.  1.
</event>
<event>
 5    1  0.1537976E+002  0.1571232E+01  0.7818608E-02  0.3385191E+00
         11   -1    0    0    0    0  0.00000000000E+00  0.00000000000E+00  0.39999999674E+01  0.40000000000E+01  0.51100000000E-03 0.  1.
    9000002   -1    0    0    0    0 -0.00000000000E+00 -0.00000000000E+00  0.00000000000E+00  0.93800000000E+00  0.93800000000E+00 0.  1.
         11    1    1    2    0    0  0.20652847199E+00 -0.47474185147E-01  0.19918482188E+01  0.20030894628E+01  0.51100000000E-03 0.  1.
    9000002    1    1    2    0    0 -0.22821110836E+00 -0.26319632018E+00  0.10459848239E+00  0.10060504239E+01  0.93800000000E+00 0.  1.
         22    1    1    2    0    0  0.21682636368E-01  0.31067050532E+00  0.19035532661E+01  0.19288601133E+01  0.00000000000E+00 0. -1.
</event>
<event>
 5    1  0.1537976E+002  0.1599577E+01  0.7818608E-02  0.3353823E+00
         11   -1    0    0    0    0  0.00000000000E+00  0.00000000000E+00  0.39999999674E+01  0.40000000000E+01  0.51100000000E-03 0. -1.
    9000002   -1    0    0    0    0 -0.00000000000E+00 -0.00000000000E+00  0.00000000000E+00  0.93800000000E+00  0.93800000000E+00 0.  1.
         11    1    1    2    0    0  0.14968558753E+00  0.17521105230E+00  0.20993578438E+01  0.21119678751E+01  0.51100000000E-03 0. -1.
    9000002    1    1    2    0    0 -0.29763934032E+00 -0.31825592732E+00  0.12878057694E+00  0.10422593004E+01  0.93800000000E+00 0.  1.
         22    1    1    2    0    0  0.14795375278E+00  0.14304487501E+00  0.17718615466E+01  0.17837728245E+01  0.00000000000E+00 0. -1.
</event>
<event>
 5    1  0.1537976E+002  0.1551588E+01  0.7818608E-02  0.3407645E+00
         11   -1    0    0    0    0  0.00000000000E+00  0.00000000000E+00  0.39999999674E+01  0.40000000000E+01  0.51100000000E-03 0. -1.
    9000002   -1    0    0    0    0 -0.00000000000E+00 -0.00000000000E+00  0.00000000000E+00  0.93800000000E+00  0.93800000000E+00 0. -1.
         11    1    1    2    0    0 -0.27268526009E+00  0.42006629502E-01  0.30872207952E+01  0.30995248519E+01  0.51100000000E-03 0. -1.
    9000002    1    1    2    0    0  0.14013375498E+00 -0.23508181203E+00  0.87971113809E-01  0.98106260988E+00  0.93800000000E+00 0. -1.
         22    1    1    2    0    0  0.13255150510E+00  0.19307518253E+00  0.82480805835E+00  0.85741253825E+00  0.00000000000E+00 0. -1.
</event>
<event>
 5    1  0.1537976E+002  0.1593194E+01  0.7818608E-02  0.3360783E+00
         11   -1    0    0    0    0  0.00000000000E+00  0.00000000000E+00  0.39999999674E+01  0.40000000000E+01  0.51100000000E-03 0. -1.
    9000002   -1    0    0    0    0 -0.00000000000E+00 -0.00000000000E+00  0.00000000000E+00  0.93800000000E+00  0.93800000000E+00 0. -1.
         11    1    1    2    0    0 -0.12807064403E-01 -0.81857006993E-01  0.38796729973E+00  0.39671586466E+00  0.51100000000E-03 0. -1.
    9000002    1    1    2    0    0 -0.95019164737E-01  0.28444168201E+00  0.65087605562E-01  0.98692254434E+00  0.93800000000E+00 0. -1.
         22    1    1    2    0    0  0.10782622914E+00 -0.20258467501E+00  0.35469450621E+01  0.35543615910E+01  0.00000000000E+00 0. -1.
</event>
<event>
 5    1  0.1537976E+002  0.1586969E+01  0.7818608E-02  0.3367630E+00
         11   -1    0    0    0    0  0.00000000000E+00  0.00000000000E+00  0.39999999674E+01  0.40000000000E+01  0.51100000000E-03 0.  1.
    9000002   -1    0    0    0    0 -0.00000000000E+00 -0.00000000000E+00  0.00000000000E+00  0.93800000000E+00  0.93800000000E+00 0. -1.
         11    1    1    2    0    0 -0.90554395100E-01  0.82837594583E-01  0.12723742097E+01  0.12782795298E+01  0.51100000000E-03 0.  1.
    9000002    1    1    2    0    0 -0.11237309034E+00 -0.25263783459E+00  0.60791961607E-01  0.97979245226E+00  0.93800000000E+00 0. -1.
         22    1    1    2    0    0  0.20292748544E+00  0.16980024001E+00  0.26668337960E+01  0.26799280180E+01  0.00000000000E+00 0.  1.
</event>
<event>
 5    1  0.1537976E+002  0.1595501E+01  0.7818608E-02  0.3358261E+00
         11   -1    0    0    0    0  0.00000000000E+00  0.00000000000E+00  0.39999999674E+01  0.40000000000E+01  0.51100000000E-03 0.  1.
    9000002   -1    0    0    0    0 -0.00000000000E+00 -0.00000000000E+00  0.00000000000E+00  0.93800000000E+00  0.93800000000E+00 0. -1.
         11    1    1    2    0    0 -0.99984163388E-01 -0.25115253087E+00  0.14929069356E+01  0.15171835111E+01  0.51100000000E-03 0.  1.
    9000002    1    1    2    0    0  0.14092118849E+00  0.48434770503E+00  0.17810210374E+00  0.10798221335E+01  0.93800000000E+00 0. -1.
         22    1    1    2    0    0 -0.40937025102E-01 -0.23319517416E+00  0.23289909280E+01  0.23409943554E+01  0.00000000000E+00 0.  1.
</event>
<event>
 5    1  0.1537976E+002  0.1599674E+01  0.7818608E-02  0.3353717E+00
         11   -1    0    0    0    0  0.00000000000E+00  0.00000000000E+00  0.39999999674E+01  0.40000000000E+01  0.51100000000E-03 0.  1.
    9000002   -1    0    0    0    0 -0.00000000000E+00 -0.00000000000E+00  0.00000000000E+00  0.93800000000E+00  0.93800000000E+00 0.  1.
         11    1    1    2    0    0 -0.74123388316E-01  0.25486211599E-01  0.10802370793E+01  0.10830772051E+01  0.51100000000E-03 0.  1.
    9000002    1    1    2    0    0  0.26702344087E+00 -0.98061003350E-01  0.53907159806E-01  0.98166565603E+00  0.93800000000E+00 0.  1.
         22    1    1    2    0    0 -0.19290005255E+00  0.72574791750E-01  0.28658557283E+01  0.28732571388E+01  0.00000000000E+00 0.  1.
</event>
<event>
 5    1  0.1537976E+002  0.1599489E+01  0.7818608E-02  0.3353918E+00
         11   -1    0    0    0    0  0.00000000000E+00  0.00000000000E+00  0.39999999674E+01  0.40000000000E+01  0.51100000000E-03 0. -1.
    9000002   -1    0    0    0    0 -0.00000000000E+00 -0.00000000000E+00  0.00000000000E+00  0.93800000000E+00  0.93800000000E+00 0. -1.
         11    1    1    2    0    0  0.50509960137E-01 -0.26943410973E+00  0.20231419550E+01  0.20416291599E+01  0.51100000000E-03 0. -1.
    9000002    1    1    2    0    0 -0.12132817006E+00  0.49182981733E+00  0.17603495444E+00  0.10804857238E+01  0.93800000000E+00 0. -1.
         22    1    1    2    0    0  0.70818209923E-01 -0.22239570761E+00  0.18008230580E+01  0.18158851163E+01  0.00000000000E+00 0.  1.
</event>
<event>
 5    1  0.1537976E+002  0.1578806E+01  0.7818608E-02  0.3376693E+00
         11   -1    0    0    0    0  0.00000000000E+00  0.00000000000E+00  0.39999999674E+01  0.40000000000E+01  0.51100000000E-03 0. -1.
    9000002   -1    0    0    0    0 -0.00000000000E+00 -0.00000000000E+00  0.00000000000E+00  0.93800000000E+00  0.93800000000E+00 0.  1.
         11    1    1    2    0    0  0.38013708604E-01  0.17135038325E-01  0.15097781888E+01  0.15103539625E+01  0.51100000000E-03 0. -1.
    9000002    1    1    2    0    0  0.33526407508E+00  0.24213454608E-01  0.92504527925E-01  0.10006944484E+01  0.93800000000E+00 0.  1.
         22    1    1    2    0    0 -0.37327778368E+00 -0.41348492933E-01  0.23977172507E+01  0.24269515891E+01  0.00000000000E+00 0. -1.
</event>
<event>
 5    1  0.1537976E+002  0.1502338E+01  0.7818608E-02  0.3466698E+00
         11   -1    0    0    0    0  0.00000000000E+00  0.00000000000E+00  0.39999999674E+01  0.40000000000E+01  0.51100000000E-03 0. -1.
    9000002   -1    0    0    0    0 -0.00000000000E+00 -0.00000000000E+00  0.00000000000E+00  0.93800000000E+00  0.93800000000E+00 0. -1.
         11    1    1    2    0    0 -0.16592852883E+00  0.19823524329E+00  0.30433660175E+01  0.30543258611E+01  0.51100000000E-03 0. -1.
    9000002    1    1    2    0    0  0.15895662396E+00  0.14448488643E+00  0.10787888430E+00  0.96831035540E+00  0.93800000000E+00 0. -1.
         22    1    1    2    0    0  0.69719048641E-02 -0.34272012971E+00  0.84875506559E+00  0.91536378349E+00  0.00000000000E+00 0.  1.
</event>
<event>
 5    1  0.1537976E+002  0.1599666E+01  0.7818608E-02  0.3353726E+00
         11   -1    0    0    0    0  0.00000000000E+00  0.00000000000E+00  0.39999999674E+01  0.40000000000E+01  0.51100000000E-03 0. -1.
    9000002   -1    0    0    0    0 -0.00000000000E+00 -0.00000000000E+00  0.00000000000E+00  0.93800000000E+00  0.93800000000E+00 0.  1.
         11    1    1    2    0    0 -0.18119134277E-01 -0.32217101579E-01  0.24358180518E+00  0.24637086191E+00  0.51100000000E-03 0.  1.
    9000002    1    1    2    0    0  0.30325810797E+00  0.51293515934E+00  0.24752380054E+00  0.11384990073E+01  0.93800000000E+00 0.  1.
         22    1    1    2    0    0 -0.28513897369E+00 -0.48071805776E+00  0.35088943616E+01  0.35531301308E+01  0.00000000000E+00 0. -1.
</event>
<event>
 5    1  0.1537976E+002  0.1597268E+01  0.7818608E-02  0.3356334E+00
         11   -1    0    0    0    0  0.00000000000E+00  0.00000000000E+00  0.39999999674E+01  0.40000000000E+01  0.51100000000E-03 0.  1.
    9000002   -1    0    0    0    0 -0.00000000000E+00 -0.00000000000E+00  0.00000000000E+00  0.93800000000E+00  0.93800000000E+00 0. -1.
         11    1    1    2    0    0 -0.49932006311E-01  0.59375892024E-01  0.16608492455E+01  0.16626602717E+01  0.51100000000E-03 0.  1.
    9000002    1    1    2    0    0  0.25007415870E+00 -0.96118788325E-01  0.49606363575E-01  0.97677054502E+00  0.93800000000E+00 0. -1.
         22    1    1    2    0    0 -0.20014215239E+00  0.36742896301E-01  0.22895443583E+01  0.22985691833E+01  0.00000000000E+00 0.  1.
</event>
<event>
 5    1  0.1537976E+002  0.1593099E+01  0.7818608E-02  0.3360887E+00
         11   -1    0    0    0    0  0.00000000000E+00  0.00000000000E+00  0.39999999674E+01  0.40000000000E+01  0.51100000000E-03 0. -1.
    9000002   -1    0    0    0    0 -0.00000000000E+00 -0.00000000000E+00  0.00000000000E+00  0.93800000000E+00  0.93800000000E+00 0.  1.
         11    1    1    2    0    0  0.21922794167E-01  0.18184856752E-01  0.15476966165E+00  0.15736965148E+00  0.51100000000E-03 0. -1.
    9000002    1    1    2    0    0  0.11216710928E+00  0.23268475195E+00  0.49414740385E-01  0.97417117118E+00  0.93800000000E+00 0.  1.
         22    1    1    2    0    0 -0.13408990344E+00 -0.25086960870E+00  0.37958155653E+01  0.38064591773E+01  0.00000000000E+00 0. -1.
</event>
<event>
 5    1  0.1537976E+002  0.1594881E+01  0.7818608E-02  0.3358938E+00
         11   -1    0    0    0    0  0.00000000000E+00  0.00000000000E+00  0.39999999674E+01  0.40000000000E+01  0.51100000000E-03 0.  1.
    9000002   -1    0    0    0    0 -0.00000000000E+00 -0.00000000000E+00  0.00000000000E+00  0.93800000000E+00  0.93800000000E+00 0.  1.
         11    1    1    2    0    0 -0.15258950659E-02 -0.36305365863E+00  0.19405110814E+01  0.19741818066E+01  0.51100000000E-03 0.  1.
    9000002    1    1    2    0    0 -0.73682699038E-01  0.56188707675E+00  0.22715188083E+00  0.11191908703E+01  0.93800000000E+00 0.  1.
         22    1    1    2    0    0  0.75208594103E-01 -0.19883341812E+00  0.18323370052E+01  0.18446273232E+01  0.00000000000E+00 0. -1.
</event>
<event>
 5    1  0.1537976E+002  0.1595375E+01  0.7818608E-02  0.3358398E+00
         11   -1    0    0    0    0  0.00000000000E+00  0.00000000000E+00  0.39999999674E+01  0.40000000000E+01  0.51100000000E-03 0.  1.
    9000002   -1    0    0    0    0 -0.00000000000E+00 -0.00000000000E+00  0.00000000000E+00  0.93800000000E+00  0.93800000000E+00 0. -1.
         11    1    1    2    0    0  0.58930030330E-01  0.11408598229E-01  0.51536350308E+00  0.51884747857E+00  0.51100000000E-03 0.  1.
    9000002    1    1    2    0    0 -0.14829686315E+00  0.18445917566E+00  0.40450700360E-01  0.96824449715E+00  0.93800000000E+00 0. -1.
         22    1    1    2    0    0  0.89366832820E-01 -0.19586777389E+00  0.34441857639E+01  0.34509080243E+01  0.00000000000E+00 0.  1.
</event>
<event>
 5    1  0.1537976E+002  0.1599667E+01  0.7818608E-02  0.3353725E+00
         11   -1    0    0    0    0  0.00000000000E+00  0.00000000000E+00  0.39999999674E+01  0.40000000000E+01  0.51100000000E-03 0. -1.
    9000002   -1    0    0    0    0 -0.00000000000E+00 -0.00000000000E+00  0.00000000000E+00  0.93800000000E+00  0.93800000000E+00 0. -1.
         11    1    1    2    0    0 -0.10942219752E+00 -0.14505209172E+00  0.14614687090E+01  0.14727200600E+01  0.51100000000E-03 0. -1.
    9000002    1    1    2    0    0  0.29709295440E+00  0.37987974229E+00  0.15875473133E+00  0.10665926621E+01  0.93800000000E+00 0. -1.
         22    1    1    2    0    0 -0.18767075688E+00 -0.23482765057E+00  0.23797765270E+01  0.23986872779E+01  0.00000000000E+00 0. -1.
</event>
<event>
 5    1  0.1537976E+002  0.1599129E+01  0.7818608E-02  0.3354310E+00
         11   -1    0    0    0    0  0.00000000000E+00  0.00000000000E+00  0.39999999674E+01  0.40000000000E+01  0.51100000000E-03 0.  1.
    9000002   -1    0    0    0    0 -0.00000000000E+00 -0.00000000000E+00  0.00000000000E+00  0.93800000000E+00  0.93800000000E+00 0. -1.
         11    1    1    2    0    0 -0.13152901414E-01 -0.20640236767E-01  0.41571272314E+00  0.41643288474E+00  0.51100000000E-03 0.  1.
    9000002    1    1    2    0    0 -0.11056955006E-01  0.28802733116E+00  0.55792376946E-01  0.98287272273E+00  0.93800000000E+00 0. -1.
         22    1    1    2    0    0  0.24209856420E-01 -0.26738709440E+00  0.35284948673E+01  0.35386943925E+01  0.00000000000E+00 0.  1.
</event>
<event>
 5    1  0.1537976E+002  0.1599479E+01  0.7818608E-02  0.3353929E+00
         11   -1    0    0    0    0  0.00000000000E+00  0.00000000000E+00  0.39999999674E+01  0.40000000000E+01  0.51100000000E-03 0. -1.
    9000002   -1    0    0    0    0 -0.00000000000E+00 -0.00000000000E+00  0.00000000000E+00  0.93800000000E+00  0.93800000000E+00 0. -1.
         11    1    1    2    0    0 -0.17103314615E-01 -0.97029995058E-01  0.12034508584E+01  0.12074773592E+01  0.51100000000E-03 0. -1.
    9000002    1    1    2    0    0  0.10598017771E+00  0.30796383106E+00  0.71097158240E-01  0.99547592900E+00  0.93800000000E+00 0. -1.
         22    1    1    2    0    0 -0.88876863096E-01 -0.21093383600E+00  0.27254519507E+01  0.27350467118E+01  0.00000000000E+00 0. -1.
</event>
<event>
 5    1  0.1537976E+002  0.1599665E+01  0.7818608E-02  0.3353727E+00
         11   -1    0    0    0    0  0.00000000000E+00  0.00000000000E+00  0.39999999674E+01  0.40000000000E+01  0.51100000000E-03 0.  1.
    9000002   -1    0    0    0    0 -0.00000000000E+00 -0.00000000000E+00  0.00000000000E+00  0.93800000000E+00  0.93800000000E+00 0.  1.
         11    1    1    2    0    0  0.20231107752E-01  0.18634297593E-01  0.40091705467E+00  0.40185977730E+00  0.51100000000E-03 0.  1.
    9000002    1    1    2    0    0 -0.21390396839E+00 -0.16400558058E+00  0.48346997737E-01  0.97715616477E+00  0.93800000000E+00 0.  1.
         22    1    1    2    0    0  0.19367286064E+00  0.14537128298E+00  0.35507359150E+01  0.35589840579E+01  0.00000000000E+00 0.  1.
</event>
<event>
 5    1  0.1537976E+002  0.1598557E+01  0.7818608E-02  0.3354931E+00
         11   -1    0    0    0    0  0.00000000000E+00  0.00000000000E+00  0.39999999674E+01  0.40000000000E+01  0.51100000000E-03 0.  1.
    9000002   -1    0    0    0    0 -0.00000000000E+00 -0.00000000000E+00  0.00000000000E+00  0.93800000000E+00  0.93800000000E+00 0.  1.
         11    1    1    2    0    0 -0.63514228975E-01 -0.10408332105E-01  0.54579871400E+00  0.54958064739E+00  0.51100000000E-03 0.  1.
    9000002    1    1    2    0    0  0.27739096865E+00  0.16438258651E+00  0.70396352951E-01  0.99436765371E+00  0.93800000000E+00 0.  1.
         22    1    1    2    0    0 -0.21387673967E+00 -0.15397425440E+00  0.33838049004E+01  0.33940516989E+01  0.00000000000E+00 0.  1.
</event>
<event>
 5    1  0.1537976E+002  0.1599674E+01  0.7818608E-02  0.3353717E+00
         11   -1    0    0    0    0  0.00000000000E+00  0.00000000000E+00  0.39999999674E+01  0.40000000000E+01  0.51100000000E-03 0. -1.
    9000002   -1    0    0    0    0 -0.00000000000E+00 -0.00000000000E+00  0.00000000000E+00  0.93800000000E+00  0.93800000000E+00 0. -1.
         11    1    1    2    0    0 -0.11900962760E+00  0.84526198982E-01  0.14661402432E+01  0.14733891013E+01  0.51100000000E-03 0. -1.
    9000002    1    1    2    0    0  0.32086994950E+00 -0.22198350695E+00  0.10255976733E+00  0.10210762497E+01  0.93800000000E+00 0. -1.
         22    1    1    2    0    0 -0.20186032189E+00  0.13745730797E+00  0.24312999568E+01  0.24435346490E+01  0.00000000000E+00 0. -1.
</event>
<event>
 5    1  0.1537976E+002  0.1599677E+01  0.7818608E-02  0.3353714E+00
         11   -1    0    0    0    0  0.00000000000E+00  0.00000000000E+00  0.39999999674E+01  0.40000000000E+01  0.51100000000E-03 0. -1.
    9000002   -1    0    0    0    0 -0.00000000000E+00 -0.00000000000E+00  0.00000000000E+00  0.93800000000E+00  0.93800000000E+00 0. -1.
         11    1    1    2    0    0 -0.10618619157E+00  0.13723990287E+00  0.16411549968E+01  0.16503030882E+01  0.51100000000E-03 0. -1.
    9000002    1    1    2    0    0  0.25303990898E+00 -0.32537823939E+00  0.11478400771E+00  0.10309799041E+01  0.93800000000E+00 0. -1.
         22    1    1    2    0    0 -0.14685371740E+00  0.18813833652E+00  0.22440609629E+01  0.22567170077E+01  0.00000000000E+00 0. -1.
</event>
<event>
 5    1  0.1537976E+002  0.1598809E+01  0.7818608E-02  0.3354657E+00
         11   -1    0    0    0    0  0.00000000000E+00  0.00000000000E+00  0.39999999674E+01  0.40000000000E+01  0.51100000000E-03 0. -1.
    9000002   -1    0    0    0    0 -0.00000000000E+00 -0.00000000000E+00  0.00000000000E+00  0.93800000000E+00  0.93800000000E+00 0.  1.
         11    1    1    2    0    0 -0.64849361846E-01  0.12478617300E-01  0.55680919727E+00  0.56071195717E+00  0.51100000000E-03 0. -1.
    9000002    1    1    2    0    0  0.28347109241E+00 -0.87176032597E-01  0.59336129605E-01  0.98555583158E+00  0.93800000000E+00 0.  1.
         22    1    1    2    0    0 -0.21862173056E+00  0.74697415297E-01  0.33838546405E+01  0.33917322112E+01  0.00000000000E+00 0. -1.
</event>
<event>
 5    1  0.1537976E+002  0.1599667E+01  0.7818608E-02  0.3353724E+00
         11   -1    0    0    0    0  0.00000000000E+00  0.00000000000E+00  0.39999999674E+01  0.40000000000E+01  0.51100000000E-03 0.  1.
    9000002   -1    0    0    0    0 -0.00000000000E+00 -0.00000000000E+00  0.00000000000E+00  0.93800000000E+00  0.93800000000E+00 0.  1.
         11    1    1    2    0    0 -0.26128669144E+00 -0.29838497297E+00  0.20984002534E+01  0.21355533737E+01  0.51100000000E-03 0.  1.
    9000002    1    1    2    0    0  0.46058511825E+00  0.51621741295E+00  0.34132295453E+00  0.12144811352E+01  0.93800000000E+00 0.  1.
         22    1    1    2    0    0 -0.19929842681E+00 -0.21783243998E+00  0.15602767594E+01  0.15879654911E+01  0.00000000000E+00 0.  1.
</event>
<event>
 5    1  0.1537976E+002  0.1599662E+01  0.7818608E-02  0.3353730E+00
         11   -1    0    0    0    0  0.00000000000E+00  0.00000000000E+00  0.39999999674E+01  0.40000000000E+01  0.51100000000E-03 0. -1.
    9000002   -1    0    0    0    0 -0.00000000000E+00 -0.00000000000E+00  0.00000000000E+00  0.93800000000E+00  0.93800000000E+00 0. -1.
         11    1    1    2    0    0  0.81966667294E-01  0.96040631274E-02  0.54527418234E+00  0.55148433125E+00  0.51100000000E-03 0. -1.
    9000002    1    1    2    0    0 -0.55278699247E+00 -0.50913338377E-01  0.21307315197E+00  0.11105898411E+01  0.93800000000E+00 0. -1.
         22    1    1    2    0    0  0.47082032518E+00  0.41309275250E-01  0.32416526331E+01  0.32759258276E+01  0.00000000000E+00 0. -1.
</event>
<event>
 5    1  0.1537976E+002  0.1598980E+01  0.7818608E-02  0.3354471E+00
         11   -1    0    0    0    0  0.00000000000E+00  0.00000000000E+00  0.39999999674E+01  0.40000000000E+01  0.51100000000E-03 0.  1.
    9000002   -1    0    0    0    0 -0.00000000000E+00 -0.00000000000E+00  0.00000000000E+00  0.93800000000E+00  0.93800000000E+00 0.  1.
         11    1    1    2    0    0 -0.20717764244E+00 -0.39302556182E+00  0.17844497909E+01  0.18389271288E+01  0.51100000000E-03 0.  1.
    9000002    1    1    2    0    0  0.34445793730E+00  0.75249752413E+00  0.51035953157E+00  0.13510050503E+01  0.93800000000E+00 0.  1.
         22    1    1    2    0    0 -0.13728029486E+00 -0.35947196231E+00  0.17051906449E+01  0.17480678209E+01  0.00000000000E+00 0.  1.
</event>
<event>
 5    1  0.1537976E+002  0.1599644E+01  0.7818608E-02  0.3353750E+00
         11   -1    0    0    0    0  0.00000000000E+00  0.00000000000E+00  0.39999999674E+01  0.40000000000E+01  0.51100000000E-03 0. -1.
    9000002   -1    0    0    0    0 -0.00000000000E+00 -0.00000000000E+00  0.00000000000E+00  0.93800000000E+00  0.93800000000E+00 0.  1.
         11    1    1    2    0    0  0.44110628434E-02 -0.24440011475E-02  0.10256348342E+00  0.10268865502E+00  0.51100000000E-03 0. -1.
    9000002    1    1    2    0    0 -0.14446145347E+00  0.17324393845E+00  0.33765946502E-01  0.96533243647E+00  0.93800000000E+00 0.  1.
         22    1    1    2    0    0  0.14005039063E+00 -0.17079993730E+00  0.38636705374E+01  0.38699789085E+01  0.00000000000E+00 0. -1.
</event>
<event>
 5    1  0.1537976E+002  0.1599675E+01  0.7818608E-02  0.3353716E+00
         11   -1    0    0    0    0  0.00000000000E+00  0.00000000000E+00  0.39999999674E+01  0.40000000000E+01  0.51100000000E-03 0.  1.
    9000002   -1    0    0    0    0 -0.00000000000E+00 -0.00000000000E+00  0.00000000000E+00  0.93800000000E+00  0.93800000000E+00 0.  1.
         11    1    1    2    0    0  0.72751781866E-01 -0.47570467545E-01  0.78992223734E+00  0.79469061484E+00  0.51100000000E-03 0.  1.
    9000002    1    1    2    0    0 -0.35615215448E+00  0.24024621537E+00  0.12498762468E+00  0.10392442001E+01  0.93800000000E+00 0.  1.
         22    1    1    2    0    0  0.28340037261E+00 -0.19267574783E+00  0.30850901053E+01  0.31040651850E+01  0.00000000000E+00 0.  1.
</event>
<event>
 5    1  0.1537976E+002  0.1539314E+01  0.7818608E-02  0.3421983E+00
         11   -1    0    0    0    0  0.00000000000E+00  0.00000000000E+00  0.39999999674E+01  0.40000000000E+01  0.51100000000E-03 0. -1.
    9000002   -1    0    0    0    0 -0.00000000000E+00 -0.00000000000E+00  0.00000000000E+00  0.93800000000E+00  0.93800000000E+00 0.  1.
         11    1    1    2    0    0  0.39302268636E+00 -0.97656443365E-01  0.30547806262E+01  0.30815075123E+01  0.51100000000E-03 0. -1.
    9000002    1    1    2    0    0 -0.29383410645E+00 -0.10629745173E+00  0.11439856262E+00  0.99527315923E+00  0.93800000000E+00 0.  1.
         22    1    1    2    0    0 -0.99188579913E-01  0.20395389510E+00  0.83082077853E+00  0.86121932848E+00  0.00000000000E+00 0. -1.
</event>
<event>
 5    1  0.1537976E+002  0.1599676E+01  0.7818608E-02  0.3353715E+00
         11   -1    0    0    0    0  0.00000000000E+00  0.00000000000E+00  0.39999999674E+01  0.40000000000E+01  0.51100000000E-03 0.  1.
    9000002   -1    0    0    0    0 -0.00000000000E+00 -0.00000000000E+00  0.00000000000E+00  0.93800000000E+00  0.93800000000E+00 0.  1.
         11    1    1    2    0    0  0.17774007196E-01 -0.41815401508E-01  0.64019284276E+00  0.64180338124E+00  0.51100000000E-03 0.  1.
    9000002    1    1    2    0    0 -0.11190020739E+00  0.25255819145E+00  0.50798837485E-01  0.97914851701E+00  0.93800000000E+00 0.  1.
         22    1    1    2    0    0  0.94126200191E-01 -0.21074278994E+00  0.33090082871E+01  0.33170481017E+01  0.00000000000E+00 0.  1.
</event>
<event>
 5    1  0.1537976E+002  0.1599639E+01  0.7818608E-02  0.3353755E+00
         11   -1    0    0    0    0  0.00000000000E+00  0.00000000000E+00  0.39999999674E+01  0.40000000000E+01  0.51100000000E-03 0. -1.
    9000002   -1    0    0    0    0 -0.00000000000E+00 -0.00000000000E+00  0.00000000000E+00  0.93800000000E+00  0.93800000000E+00 0.  1.
         11    1    1    2    0    0  0.15112608649E+00 -0.13478403147E+00  0.12599401374E+01  0.12761094154E+01  0.51100000000E-03 0. -1.
    9000002    1    1    2    0    0 -0.43211602806E+00  0.39378557425E+00  0.23773598079E+00  0.11305546147E+01  0.93800000000E+00 0.  1.
         22    1    1    2    0    0  0.28098994157E+00 -0.25900154278E+00  0.25023238492E+01  0.25313359699E+01  0.00000000000E+00 0. -1.
</event>
<event>
 5    1  0.1537976E+002  0.1599662E+01  0.7818608E-02  0.3353730E+00
         11   -1    0    0    0    0  0.00000000000E+00  0.00000000000E+00  0.39999999674E+01  0.40000000000E+01  0.51100000000E-03 0. -1.
    9000002   -1    0    0    0    0 -0.00000000000E+00 -0.00000000000E+00  0.00000000000E+00  0.93800000000E+00  0.93800000000E+00 0. -1.
         11    1    1    2    0    0 -0.27253489684E-01  0.50851967588E-01  0.74726614402E+00  0.74949024438E+00  0.51100000000E-03 0.  1.
    9000002    1    1    2    0    0  0.16056100404E+00 -0.25932169042E+00  0.62100568406E-01  0.98829553057E+00  0.93800000000E+00 0. -1.
         22    1    1    2    0    0 -0.13330751436E+00  0.20846972283E+00  0.31906332549E+01  0.32002142251E+01  0.00000000000E+00 0. -1.
</event>
<event>
 5    1  0.1537976E+002  0.1599665E+01  0.7818608E-02  0.3353727E+00
         11   -1    0    0    0    0  0.00000000000E+00  0.00000000000E+00  0.39999999674E+01  0.40000000000E+01  0.51100000000E-03 0. -1.
    9000002   -1    0    0    0    0 -0.00000000000E+00 -0.00000000000E+00  0.00000000000E+00  0.93800000000E+00  0.93800000000E+00 0.  1.
         11    1    1    2    0    0  0.13632666147E-02 -0.74585172065E-01  0.97445458432E+00  0.97730589091E+00  0.51100000000E-03 0. -1.
    9000002    1    1    2    0    0 -0.18103873595E-01  0.30813502796E+00  0.63620374246E-01  0.98952842188E+00  0.93800000000E+00 0.  1.
         22    1    1    2    0    0  0.16740606980E-01 -0.23354985589E+00  0.29619250088E+01  0.29711656872E+01  0.00000000000E+00 0. -1.
</event>
<event>
 5    1  0.1537976E+002  0.1463989E+01  0.7818608E-02  0.3515648E+00
         11   -1    0    0    0    0  0.00000000000E+00  0.00000000000E+00  0.39999999674E+01  0.40000000000E+01  0.51100000000E-03 0.  1.
    9000002   -1    0    0    0    0 -0.00000000000E+00 -0.00000000000E+00  0.00000000000E+00  0.93800000000E+00  0.93800000000E+00 0.  1.
         11    1    1    2    0    0 -0.12163236921E+00  0.15497664861E+00  0.15342495641E+00  0.24970317023E+00  0.51100000000E-03 0.  1.
    9000002    1    1    2    0    0 -0.10819853760E+00 -0.12324992650E+00  0.12604024517E+00  0.96053506512E+00  0.93800000000E+00 0.  1.
         22    1    1    2    0    0  0.22983090681E+00 -0.31726722109E-01  0.37205347658E+01  0.37277617646E+01  0.00000000000E+00 0.  1.
</event>
<event>
 5    1  0.1537976E+002  0.1543168E+01  0.7818608E-02  0.3417455E+00
         11   -1    0    0    0    0  0.00000000000E+00  0.00000000000E+00  0.39999999674E+01  0.40000000000E+01  0.51100000000E-03 0. -1.
    9000002   -1    0    0    0    0 -0.00000000000E+00 -0.00000000000E+00  0.00000000000E+00  0.93800000000E+00  0.93800000000E+00 0.  1.
         11    1    1    2    0    0 -0.15437609738E+00  0.75571877564E-01  0.30375866095E+01  0.30424456872E+01  0.51100000000E-03 0. -1.
    9000002    1    1    2    0    0  0.86360677687E-01  0.19320540611E+00  0.73470969246E-01  0.96437984162E+00  0.93800000000E+00 0.  1.
         22    1    1    2    0    0  0.68015419690E-01 -0.26877728368E+00  0.88894238860E+00  0.93117447119E+00  0.00000000000E+00 0. -1.
</event>
<event>
 5    1  0.1537976E+002  0.1599671E+01  0.7818608E-02  0.3353720E+00
         11   -1    0    0    0    0  0.00000000000E+00  0.00000000000E+00  0.39999999674E+01  0.40000000000E+01  0.51100000000E-03 0.  1.
    9000002   -1    0    0    0    0 -0.00000000000E+00 -0.00000000000E+00  0.00000000000E+00  0.93800000000E+00  0.93800000000E+00 0.  1.
         11    1    1    2    0    0 -0.11701200757E-01  0.40977504731E-01  0.67143209201E+00  0.67278331526E+00  0.51100000000E-03 0.  1.
    9000002    1    1    2    0    0  0.80811881033E-01 -0.23798222506E+00  0.41969130036E-01  0.97199357376E+00  0.93800000000E+00 0.  1.
         22    1    1    2    0    0 -0.69110680276E-01  0.19700472033E+00  0.32865987453E+01  0.32932231110E+01  0.00000000000E+00 0.  1.
</event>
<event>
 5    1  0.1537976E+002  0.1598982E+01  0.7818608E-02  0.3354469E+00
         11   -1    0    0    0    0  0.00000000000E+00  0.00000000000E+00  0.39999999674E+01  0.40000000000E+01  0.51100000000E-03 0.  1.
    9000002   -1    0    0    0    0 -0.00000000000E+00 -0.00000000000E+00  0.00000000000E+00  0.93800000000E+00  0.93800000000E+00 0.  1.
         11    1    1    2    0    0 -0.39733682170E-03 -0.30018007858E-01  0.61476940110E+00  0.61550216598E+00  0.51100000000E-03 0.  1.
    9000002    1    1    2    0    0  0.14834333405E+00  0.16741009483E+00  0.33698054415E-01  0.96488934261E+00  0.93800000000E+00 0.  1.
         22    1    1    2    0    0 -0.14794599723E+00 -0.13739208697E+00  0.33515325118E+01  0.33576084914E+01  0.00000000000E+00 0.  1.
</event>
<event>
 5    1  0.1537976E+002  0.1599638E+01  0.7818608E-02  0.3353756E+00
         11   -1    0    0    0    0  0.00000000000E+00  0.00000000000E+00  0.39999999674E+01  0.40000000000E+01  0.51100000000E-03 0. -1.
    9000002   -1    0    0    0    0 -0.00000000000E+00 -0.00000000000E+00  0.00000000000E+00  0.93800000000E+00  0.93800000000E+00 0. -1.
         11    1    1    2    0    0  0.18801258246E-01  0.30826217743E-01  0.39068844173E+00  0.39235374681E+00  0.51100000000E-03 0. -1.
    9000002    1    1    2    0    0 -0.18139766140E+00 -0.26576958602E+00  0.69248231461E-01  0.99407137670E+00  0.93800000000E+00 0. -1.
         22    1    1    2    0    0  0.16259640315E+00  0.23494336827E+00  0.35400632942E+01  0.35515748765E+01  0.00000000000E+00 0. -1.
</event>
<event>
 5    1  0.1537976E+002  0.1599400E+01  0.7818608E-02  0.3354015E+00
         11   -1    0    0    0    0  0.00000000000E+00  0.00000000000E+00  0.39999999674E+01  0.40000000000E+01  0.51100000000E-03 0.  1.
    9000002   -1    0    0    0    0 -0.00000000000E+00 -0.00000000000E+00  0.00000000000E+00  0.93800000000E+00  0.93800000000E+00 0. -1.
         11    1    1    2    0    0 -0.18766832109E-02 -0.10890108507E-02  0.41773017139E-01  0.41832451117E-01  0.51100000000E-03 0.  1.
    9000002    1    1    2    0    0 -0.20041472452E+00  0.31690611366E-01  0.27468194985E-01  0.96008794305E+00  0.93800000000E+00 0. -1.
         22    1    1    2    0    0  0.20229140773E+00 -0.30601600515E-01  0.39307587552E+01  0.39360796058E+01  0.00000000000E+00 0.  1.
</event>
<event>
 5    1  0.1537976E+002  0.1599584E+01  0.7818608E-02  0.3353815E+00
         11   -1    0    0    0    0  0.00000000000E+00  0.00000000000E+00  0.39999999674E+01  0.40000000000E+01  0.51100000000E-03 0. -1.
    9000002   -1    0    0    0    0 -0.00000000000E+00 -0.00000000000E+00  0.00000000000E+00  0.93800000000E+00  0.93800000000E+00 0. -1.
         11    1    1    2    0    0 -0.31027537563E+00 -0.15758726535E+00  0.24484615634E+01  0.24730687098E+01  0.51100000000E-03 0. -1.
    9000002    1    1    2    0    0  0.49722646025E+00  0.24486791520E+00  0.21243945566E+00  0.11100310676E+01  0.93800000000E+00 0. -1.
         22    1    1    2    0    0 -0.18695108462E+00 -0.87280649849E-01  0.13390989483E+01  0.13549002226E+01  0.00000000000E+00 0. -1.
</event>
<event>
 5    1  0.1537976E+002  0.1599566E+01  0.7818608E-02  0.3353835E+00
         11   -1    0    0    0    0  0.00000000000E+00  0.00000000000E+00  0.39999999674E+01  0.40000000000E+01  0.51100000000E-03 0. -1.
    9000002   -1    0    0    0    0 -0.00000000000E+00 -0.00000000000E+00  0.00000000000E+00  0.93800000000E+00  0.93800000000E+00 0.  1.
         11    1    1    2    0    0 -0.48047551373E-02  0.12087447897E-01  0.73390309539E-01  0.74535835166E-01  0.51100000000E-03 0. -1.
    9000002    1    1    2    0    0  0.33697422742E+00 -0.46630979660E+00  0.22986316257E+00  0.11241341245E+01  0.93800000000E+00 0.  1.
         22    1    1    2    0    0 -0.33216947229E+00  0.45422234871E+00  0.36967464953E+01  0.37393300403E+01  0.00000000000E+00 0. -1.
</event>
<event>
 5    1  0.1537976E+002  0.1599608E+01  0.7818608E-02  0.3353789E+00
         11   -1    0    0    0    0  0.00000000000E+00  0.00000000000E+00  0.39999999674E+01  0.40000000000E+01  0.51100000000E-03 0.  1.
    9000002   -1    0    0    0    0 -0.00000000000E+00 -0.00000000000E+00  0.00000000000E+00  0.93800000000E+00  0.93800000000E+00 0. -1.
         11    1    1    2    0    0 -0.15190320210E-01  0.29820298513E-02  0.23993654626E+00  0.24043594923E+00  0.51100000000E-03 0.  1.
    9000002    1    1    2    0    0  0.26214048217E+00 -0.12634103093E+00  0.56498188867E-01  0.98372543620E+00  0.93800000000E+00 0. -1.
         22    1    1    2    0    0 -0.24695016196E+00  0.12335900108E+00  0.37035652322E+01  0.37138386146E+01  0.00000000000E+00 0.  1.
</event>
<event>
 5    1  0.1537976E+002  0.1549651E+01  0.7818608E-02  0.3409891E+00
         11   -1    0    0    0    0  0.00000000000E+00  0.00000000000E+00  0.39999999674E+01  0.40000000000E+01  0.51100000000E-03 0.  1.
    9000002   -1    0    0    0    0 -0.00000000000E+00 -0.00000000000E+00  0.00000000000E+00  0.93800000000E+00  0.93800000000E+00 0. -1.
         11    1    1    2    0    0 -0.30819066502E+00  0.74306130688E-01  0.24556381357E+01  0.24760173266E+01  0.51100000000E-03 0.  1.
    9000002    1    1    2    0    0  0.76287160910E-01 -0.99295175873E-01  0.47985262022E-01  0.94753672659E+00  0.93800000000E+00 0. -1.
         22    1    1    2    0    0  0.23190350411E+00  0.24989045185E-01  0.14963765696E+01  0.15144459468E+01  0.00000000000E+00 0.  1.
</event>
<event>
 5    1  0.1537976E+002  0.1474577E+01  0.7818608E-02  0.3501858E+00
         11   -1    0    0    0    0  0.00000000000E+00  0.00000000000E+00  0.39999999674E+01  0.40000000000E+01  0.51100000000E-03 0. -1.
    9000002   -1    0    0    0    0 -0.00000000000E+00 -0.00000000000E+00  0.00000000000E+00  0.93800000000E+00  0.93800000000E+00 0. -1.
         11    1    1    2    0    0  0.15932365149E+00  0.67709825652E-01  0.13688954552E+00  0.22069810876E+00  0.51100000000E-03 0. -1.
    9000002    1    1    2    0    0  0.11738395624E+00 -0.49304341461E-01  0.10887957290E+00  0.95284241754E+00  0.93800000000E+00 0. -1.
         22    1    1    2    0    0 -0.27670760773E+00 -0.18405484191E-01  0.37542308489E+01  0.37644594737E+01  0.00000000000E+00 0. -1.
</event>
<event>
 5    1  0.1537976E+002  0.1502920E+01  0.7818608E-02  0.3465976E+00
         11   -1    0    0    0    0  0.00000000000E+00  0.00000000000E+00  0.39999999674E+01  0.40000000000E+01  0.51100000000E-03 0.  1.
    9000002   -1    0    0    0    0 -0.00000000000E+00 -0.00000000000E+00  0.00000000000E+00  0.93800000000E+00  0.93800000000E+00 0.  1.
         11    1    1    2    0    0  0.72696653061E-02 -0.31000227986E+00  0.32752503941E+01  0.32898966043E+01  0.51100000000E-03 0.  1.
    9000002    1    1    2    0    0 -0.19984476793E+00  0.99441777851E-01  0.11011340664E+00  0.97046151947E+00  0.93800000000E+00 0.  1.
         22    1    1    2    0    0  0.19257510262E+00  0.21056050201E+00  0.61463616660E+00  0.67764187625E+00  0.00000000000E+00 0.  1.
</event>
<event>
 5    1  0.1537976E+002  0.1599645E+01  0.7818608E-02  0.3353749E+00
         11   -1    0    0    0    0  0.00000000000E+00  0.00000000000E+00  0.39999999674E+01  0.40000000000E+01  0.51100000000E-03 0. -1.
    9000002   -1    0    0    0    0 -0.00000000000E+00 -0.00000000000E+00  0.00000000000E+00  0.93800000000E+00  0.93800000000E+00 0.  1.
         11    1    1    2    0    0 -0.71894094986E-01 -0.17644239161E+00  0.18409615428E+01  0.18507945164E+01  0.51100000000E-03 0. -1.
    9000002    1    1    2    0    0  0.13974714942E+00  0.36604126760E+00  0.10346833509E+00  0.10217950733E+01  0.93800000000E+00 0.  1.
         22    1    1    2    0    0 -0.67853054432E-01 -0.18959887599E+00  0.20555700894E+01  0.20654104104E+01  0.00000000000E+00 0. -1.
</event>
<event>
 5    1  0.1537976E+002  0.1594341E+01  0.7818608E-02  0.3359529E+00
         11   -1    0    0    0    0  0.00000000000E+00  0.00000000000E+00  0.39999999674E+01  0.40000000000E+01  0.51100000000E-03 0.  1.
    9000002   -1    0    0    0    0 -0.00000000000E+00 -0.00000000000E+00  0.00000000000E+00  0.93800000000E+00  0.93800000000E+00 0.  1.
         11    1    1    2    0    0  0.21105134471E+00 -0.19287493990E+00  0.16482560105E+01  0.16728692567E+01  0.51100000000E-03 0.  1.
    9000002    1    1    2    0    0 -0.52323923721E+00  0.24540350589E+00  0.23716323136E+00  0.11269838412E+01  0.93800000000E+00 0.  1.
         22    1    1    2    0    0  0.31218789250E+00 -0.52528565988E-01  0.21145807255E+01  0.21381469021E+01  0.00000000000E+00 0.  1.
</event>
<event>
 5    1  0.1537976E+002  0.1593958E+01  0.7818608E-02  0.3359948E+00
         11   -1    0    0    0    0  0.00000000000E+00  0.00000000000E+00  0.39999999674E+01  0.40000000000E+01  0.51100000000E-03 0. -1.
    9000002   -1    0    0    0    0 -0.00000000000E+00 -0.00000000000E+00  0.00000000000E+00  0.93800000000E+00  0.93800000000E+00 0.  1.
         11    1    1    2    0    0 -0.43136638275E+00  0.26049855985E+00  0.26399605383E+01  0.26876250410E+01  0.51100000000E-03 0. -1.
    9000002    1    1    2    0    0  0.63578842011E+00 -0.25449624416E+00  0.34014872351E+00  0.12101819729E+01  0.93800000000E+00 0.  1.
         22    1    1    2    0    0 -0.20442203736E+00 -0.60023156838E-02  0.10198907055E+01  0.10401929861E+01  0.00000000000E+00 0. -1.
</event>
<event>
 5    1  0.1537976E+002  0.1599608E+01  0.7818608E-02  0.3353789E+00
         11   -1    0    0    0    0  0.00000000000E+00  0.00000000000E+00  0.39999999674E+01  0.40000000000E+01  0.51100000000E-03 0. -1.
    9000002   -1    0    0    0    0 -0.00000000000E+00 -0.00000000000E+00  0.00000000000E+00  0.93800000000E+00  0.93800000000E+00 0. -1.
         11    1    1    2    0    0  0.28357786796E-02 -0.55679763297E-02  0.97303276469E-01  0.97505039530E-01  0.51100000000E-03 0. -1.
    9000002    1    1    2    0    0  0.80103621169E-02  0.23889827954E+00  0.37976336342E-01  0.96872222850E+00  0.93800000000E+00 0. -1.
         22    1    1    2    0    0 -0.10846140797E-01 -0.23333030321E+00  0.38647203545E+01  0.38717727320E+01  0.00000000000E+00 0. -1.
</event>
<event>
 5    1  0.1537976E+002  0.1598629E+01  0.7818608E-02  0.3354852E+00
         11   -1    0    0    0    0  0.00000000000E+00  0.00000000000E+00  0.39999999674E+01  0.40000000000E+01  0.51100000000E-03 0.  1.
    9000002   -1    0    0    0    0 -0.00000000000E+00 -0.00000000000E+00  0.00000000000E+00  0.93800000000E+00  0.93800000000E+00 0.  1.
         11    1    1    2    0    0  0.22437562562E+00  0.16379946578E+00  0.23086294027E+01  0.23252837819E+01  0.51100000000E-03 0.  1.
    9000002    1    1    2    0    0 -0.43443852843E+00 -0.27399118905E+00  0.18196767791E+00  0.10847876486E+01  0.93800000000E+00 0.  1.
         22    1    1    2    0    0  0.21006290281E+00  0.11019172327E+00  0.15094028867E+01  0.15279285695E+01  0.00000000000E+00 0.  1.
</event>
<event>
 5    1  0.1537976E+002  0.1599000E+01  0.7818608E-02  0.3354450E+00
         11   -1    0    0    0    0  0.00000000000E+00  0.00000000000E+00  0.39999999674E+01  0.40000000000E+01  0.51100000000E-03 0.  1.
    9000002   -1    0    0    0    0 -0.00000000000E+00 -0.00000000000E+00  0.00000000000E+00  0.93800000000E+00  0.93800000000E+00 0.  1.
         11    1    1    2    0    0  0.41181070672E-02  0.17261667811E-01  0.27750514331E+00  0.27807245399E+00  0.51100000000E-03 0.  1.
    9000002    1    1    2    0    0 -0.28236466220E+00 -0.20917400992E+00  0.83355924953E-01  0.10051247580E+01  0.93800000000E+00 0.  1.
         22    1    1    2    0    0  0.27824655513E+00  0.19191234210E+00  0.36391388991E+01  0.36548027880E+01  0.00000000000E+00 0.  1.
</event>
<event>
 5    1  0.1537976E+002  0.1599653E+01  0.7818608E-02  0.3353740E+00
         11   -1    0    0    0    0  0.00000000000E+00  0.00000000000E+00  0.39999999674E+01  0.40000000000E+01  0.51100000000E-03 0.  1.
    9000002   -1    0    0    0    0 -0.00000000000E+00 -0.00000000000E+00  0.00000000000E+00  0.93800000000E+00  0.93800000000E+00 0. -1.
         11    1    1    2    0    0 -0.60849745324E-01 -0.21058370363E-01  0.88365740764E+00  0.88600046370E+00  0.51100000000E-03 0.  1.
    9000002    1    1    2    0    0  0.29185829326E+00  0.86524838025E-01  0.61864263839E-01  0.98809867831E+00  0.93800000000E+00 0. -1.
         22    1    1    2    0    0 -0.23100854794E+00 -0.65466467663E-01  0.30544782959E+01  0.30639008580E+01  0.00000000000E+00 0.  1.
</event>
<event>
 5    1  0.1537976E+002  0.1599603E+01  0.7818608E-02  0.3353795E+00
         11   -1    0    0    0    0  0.00000000000E+00  0.00000000000E+00  0.39999999674E+01  0.40000000000E+01  0.51100000000E-03 0.  1.
    9000002   -1    0    0    0    0 -0.00000000000E+00 -0.00000000000E+00  0.00000000000E+00  0.93800000000E+00  0.93800000000E+00 0. -1.
         11    1    1    2    0    0  0.23217942352E-01  0.52553762843E-01  0.67650767757E+00  0.67894320070E+00  0.51100000000E-03 0.  1.
    9000002    1    1    2    0    0 -0.93670185791E-01 -0.32437209062E+00  0.76389624487E-01  0.99983535225E+00  0.93800000000E+00 0. -1.
         22    1    1    2    0    0  0.70452243439E-01  0.27181832778E+00  0.32471026653E+01  0.32592214471E+01  0.00000000000E+00 0.  1.
</event>
<event>
 5    1  0.1537976E+002  0.1580603E+01  0.7818608E-02  0.3374689E+00
         11   -1    0    0    0    0  0.00000000000E+00  0.00000000000E+00  0.39999999674E+01  0.40000000000E+01  0.51100000000E-03 0.  1.
    9000002   -1    0    0    0    0 -0.00000000000E+00 -0.00000000000E+00  0.00000000000E+00  0.93800000000E+00  0.93800000000E+00 0. -1.
         11    1    1    2    0    0  0.50446186086E-01  0.23355474521E-01  0.14110382612E+00  0.15166030050E+00  0.51100000000E-03 0.  1.
    9000002    1    1    2    0    0  0.19145349488E+00  0.39538750199E-01  0.39703945939E-01  0.95897766230E+00  0.93800000000E+00 0. -1.
         22    1    1    2    0    0 -0.24189968097E+00 -0.62894224720E-01  0.38191921953E+01  0.38273620372E+01  0.00000000000E+00 0.  1.
</event>
<event>
 5    1  0.1537976E+002  0.1599671E+01  0.7818608E-02  0.3353720E+00
         11   -1    0    0    0    0  0.00000000000E+00  0.00000000000E+00  0.39999999674E+01  0.40000000000E+01  0.51100000000E-03 0. -1.
    9000002   -1    0    0    0    0 -0.00000000000E+00 -0.00000000000E+00  0.00000000000E+00  0.93800000000E+00  0.93800000000E+00 0.  1.
         11    1    1    2    0    0 -0.16939032145E-01 -0.16566750600E+00  0.16052436059E+01  0.16138587140E+01  0.51100000000E-03 0. -1.
    9000002    1    1    2    0    0  0.37822245145E-01  0.39586091523E+00  0.10663886292E+00  0.10243789502E+01  0.93800000000E+00 0.  1.
         22    1    1    2    0    0 -0.20883213000E-01 -0.23019340922E+00  0.22881174986E+01  0.22997623359E+01  0.00000000000E+00 0. -1.
</event>
<event>
 5    1  0.1537976E+002  0.1586022E+01  0.7818608E-02  0.3368676E+00
         11   -1    0    0    0    0  0.00000000000E+00  0.00000000000E+00  0.39999999674E+01  0.40000000000E+01  0.51100000000E-03 0.  1.
    9000002   -1    0    0    0    0 -0.00000000000E+00 -0.00000000000E+00  0.00000000000E+00  0.93800000000E+00  0.93800000000E+00 0.  1.
         11    1    1    2    0    0 -0.88682109345E-01  0.65285454836E-03  0.16905607238E+01  0.16928853371E+01  0.51100000000E-03 0.  1.
    9000002    1    1    2    0    0 -0.58337712703E-01  0.18695926717E+00  0.35675606596E-01  0.95889196743E+00  0.93800000000E+00 0.  1.
         22    1    1    2    0    0  0.14701982205E+00 -0.18761212172E+00  0.22737636370E+01  0.22862226954E+01  0.00000000000E+00 0. -1.
</event>
<event>
 5    1  0.1537976E+002  0.1599676E+01  0.7818608E-02  0.3353715E+00
         11   -1    0    0    0    0  0.00000000000E+00  0.00000000000E+00  0.39999999674E+01  0.40000000000E+01  0.51100000000E-03 0.  1.
    9000002   -1    0    0    0    0 -0.00000000000E+00 -0.00000000000E+00  0.00000000000E+00  0.93800000000E+00  0.93800000000E+00 0.  1.
         11    1    1    2    0    0 -0.45606779937E-01 -0.82437791510E-01  0.67371088095E+00  0.68026655076E+00  0.51100000000E-03 0.  1.
    9000002    1    1    2    0    0  0.25833468632E+00  0.46896058661E+00  0.19745925388E+00  0.10979503627E+01  0.93800000000E+00 0.  1.
         22    1    1    2    0    0 -0.21272790638E+00 -0.38652279510E+00  0.31288298325E+01  0.31597830866E+01  0.00000000000E+00 0.  1.
</event>
<event>
 5    1  0.1537976E+002  0.1588289E+01  0.7818608E-02  0.3366173E+00
         11   -1    0    0    0    0  0.00000000000E+00  0.00000000000E+00  0.39999999674E+01  0.40000000000E+01  0.51100000000E-03 0.  1.
    9000002   -1    0    0    0    0 -0.00000000000E+00 -0.00000000000E+00  0.00000000000E+00  0.93800000000E+00  0.93800000000E+00 0. -1.
         11    1    1    2    0    0  0.94629554066E-02  0.13987350760E-01  0.16665363200E-01  0.23731602514E-01  0.51100000000E-03 0.  1.
    9000002    1    1    2    0    0  0.17544160168E+00  0.21779583093E+00  0.60957961778E-01  0.98070110262E+00  0.93800000000E+00 0. -1.
         22    1    1    2    0    0 -0.18490455709E+00 -0.23178318169E+00  0.39223766424E+01  0.39335672949E+01  0.00000000000E+00 0.  1.
</event>
<event>
 5    1  0.1537976E+002  0.1598900E+01  0.7818608E-02  0.3354558E+00
         11   -1    0    0    0    0  0.00000000000E+00  0.00000000000E+00  0.39999999674E+01  0.40000000000E+01  0.51100000000E-03 0.  1.
    9000002   -1    0    0    0    0 -0.00000000000E+00 -0.00000000000E+00  0.00000000000E+00  0.93800000000E+00  0.93800000000E+00 0. -1.
         11    1    1    2    0    0  0.30469690198E-01  0.12932073890E+00  0.12323457587E+01  0.12394872269E+01  0.51100000000E-03 0.  1.
    9000002    1    1    2    0    0  0.11097192488E-02 -0.42274586125E+00  0.12156835242E+00  0.10360203468E+01  0.93800000000E+00 0. -1.
         22    1    1    2    0    0 -0.31579409447E-01  0.29342512235E+00  0.26460858562E+01  0.26624924263E+01  0.00000000000E+00 0.  1.
</event>
<event>
 5    1  0.1537976E+002  0.1575005E+01  0.7818608E-02  0.3380947E+00
         11   -1    0    0    0    0  0.00000000000E+00  0.00000000000E+00  0.39999999674E+01  0.40000000000E+01  0.51100000000E-03 0.  1.
    9000002   -1    0    0    0    0 -0.00000000000E+00 -0.00000000000E+00  0.00000000000E+00  0.93800000000E+00  0.93800000000E+00 0.  1.
         11    1    1    2    0    0 -0.53505362161E-02 -0.11184681799E+00  0.33701908528E+00  0.35513443074E+00  0.51100000000E-03 0.  1.
    9000002    1    1    2    0    0 -0.31644482753E+00  0.11233885698E+00  0.95455284657E-01  0.10008561630E+01  0.93800000000E+00 0.  1.
         22    1    1    2    0    0  0.32179536375E+00 -0.49203899654E-03  0.35675255974E+01  0.35820094063E+01  0.00000000000E+00 0.  1.
</event>
<event>
 5    1  0.1537976E+002  0.1599658E+01  0.7818608E-02  0.3353735E+00
         11   -1    0    0    0    0  0.00000000000E+00  0.00000000000E+00  0.39999999674E+01  0.40000000000E+01  0.51100000000E-03 0. -1.
    9000002   -1    0    0    0    0 -0.00000000000E+00 -0.00000000000E+00  0.00000000000E+00  0.93800000000E+00  0.93800000000E+00 0.  1.
         11    1    1    2    0    0  0.63241619350E-01  0.17125310449E-01  0.93662115455E+00  0.93891012719E+00  0.51100000000E-03 0. -1.
    9000002    1    1    2    0    0 -0.28099129762E+00 -0.60052125695E-01  0.55030003491E-01  0.98256535071E+00  0.93800000000E+00 0.  1.
         22    1    1    2    0    0  0.21774967827E+00  0.42926815246E-01  0.30083488093E+01  0.30165245221E+01  0.00000000000E+00 0. -1.
</event>
<event>
 5    1  0.1537976E+002  0.1599677E+01  0.7818608E-02  0.3353714E+00
         11   -1    0    0    0    0  0.00000000000E+00  0.00000000000E+00  0.39999999674E+01  0.40000000000E+01  0.51100000000E-03 0. -1.
    9000002   -1    0    0    0    0 -0.00000000000E+00 -0.00000000000E+00  0.00000000000E+00  0.93800000000E+00  0.93800000000E+00 0.  1.
         11    1    1    2    0    0 -0.37955424089E-01  0.10526667278E+00  0.13318590119E+01  0.13365516732E+01  0.51100000000E-03 0. -1.
    9000002    1    1    2    0    0  0.11079193109E+00 -0.30955296278E+00  0.72317186672E-01  0.99657998387E+00  0.93800000000E+00 0.  1.
         22    1    1    2    0    0 -0.72836507002E-01  0.20428629001E+00  0.25958237688E+01  0.26048683429E+01  0.00000000000E+00 0. -1.
</event>
<event>
 5    1  0.1537976E+002  0.1599218E+01  0.7818608E-02  0.3354212E+00
         11   -1    0    0    0    0  0.00000000000E+00  0.00000000000E+00  0.39999999674E+01  0.40000000000E+01  0.51100000000E-03 0. -1.
    9000002   -1    0    0    0    0 -0.00000000000E+00 -0.00000000000E+00  0.00000000000E+00  0.93800000000E+00  0.93800000000E+00 0. -1.
         11    1    1    2    0    0 -0.15527701442E-01 -0.18935200184E-01  0.52787456298E+00  0.52844249137E+00  0.51100000000E-03 0. -1.
    9000002    1    1    2    0    0  0.16627179876E-01  0.22768530609E+00  0.34913617735E-01  0.96601243389E+00  0.93800000000E+00 0. -1.
         22    1    1    2    0    0 -0.10994784343E-02 -0.20875010591E+00  0.34372117866E+01  0.34435450747E+01  0.00000000000E+00 0. -1.
</event>
<event>
 5    1  0.1537976E+002  0.1599664E+01  0.7818608E-02  0.3353729E+00
         11   -1    0    0    0    0  0.00000000000E+00  0.00000000000E+00  0.39999999674E+01  0.40000000000E+01  0.51100000000E-03 0.  1.
    9000002   -1    0    0    0    0 -0.00000000000E+00 -0.00000000000E+00  0.00000000000E+00  0.93800000000E+00  0.93800000000E+00 0. -1.
         11    1    1    2    0    0  0.16465311418E-01 -0.69444138089E-01  0.98135289822E+00  0.98394479863E+00  0.51100000000E-03 0.  1.
    9000002    1    1    2    0    0 -0.69591308765E-01  0.26455596073E+00  0.49815324377E-01  0.97834471080E+00  0.93800000000E+00 0. -1.
         22    1    1    2    0    0  0.53125997347E-01 -0.19511182264E+00  0.29688317448E+01  0.29757104906E+01  0.00000000000E+00 0.  1.
</event>
<event>
 5    1  0.1537976E+002  0.1599668E+01  0.7818608E-02  0.3353724E+00
         11   -1    0    0    0    0  0.00000000000E+00  0.00000000000E+00  0.39999999674E+01  0.40000000000E+01  0.51100000000E-03 0.  1.
    9000002   -1    0    0    0    0 -0.00000000000E+00 -0.00000000000E+00  0.00000000000E+00  0.93800000000E+00  0.93800000000E+00 0. -1.
         11    1    1    2    0    0 -0.70727611956E-02  0.23713211276E-02  0.13687015346E+00  0.13707423953E+00  0.51100000000E-03 0. -1.
    9000002    1    1    2    0    0  0.23757064873E+00 -0.81479490580E-01  0.41913117656E-01  0.97194620734E+00  0.93800000000E+00 0. -1.
         22    1    1    2    0    0 -0.23049788753E+00  0.79108169452E-01  0.38212166962E+01  0.38289795531E+01  0.00000000000E+00 0.  1.
</event>
<event>
 5    1  0.1537976E+002  0.1598482E+01  0.7818608E-02  0.3355012E+00
         11   -1    0    0    0    0  0.00000000000E+00  0.00000000000E+00  0.39999999674E+01  0.40000000000E+01  0.51100000000E-03 0.  1.
    9000002   -1    0    0    0    0 -0.00000000000E+00 -0.00000000000E+00  0.00000000000E+00  0.93800000000E+00  0.93800000000E+00 0.  1.
         11    1    1    2    0    0  0.37489277731E-02  0.13068614126E-01  0.82151185595E-01  0.83270172032E-01  0.51100000000E-03 0.  1.
    9000002    1    1    2    0    0  0.28876549149E+00 -0.29634391284E+00  0.11669404707E+00  0.10318268868E+01  0.93800000000E+00 0.  1.
         22    1    1    2    0    0 -0.29251441926E+00  0.28327529872E+00  0.38011547347E+01  0.38229029411E+01  0.00000000000E+00 0.  1.
</event>
<event>
 5    1  0.1537976E+002  0.1597471E+01  0.7818608E-02  0.3356113E+00
         11   -1    0    0    0    0  0.00000000000E+00  0.00000000000E+00  0.39999999674E+01  0.40000000000E+01  0.51100000000E-03 0. -1.
    9000002   -1    0    0    0    0 -0.00000000000E+00 -0.00000000000E+00  0.00000000000E+00  0.93800000000E+00  0.93800000000E+00 0. -1.
         11    1    1    2    0    0 -0.24475544085E-01 -0.11521959042E+00  0.16214203283E+01  0.16256933131E+01  0.51100000000E-03 0. -1.
    9000002    1    1    2    0    0 -0.19183374993E-02  0.39636118489E+00  0.10775519238E+00  0.10239927004E+01  0.93800000000E+00 0. -1.
         22    1    1    2    0    0  0.26393881584E-01 -0.28114159447E+00  0.22708244467E+01  0.22883139865E+01  0.00000000000E+00 0. -1.
</event>
<event>
 5    1  0.1537976E+002  0.1599586E+01  0.7818608E-02  0.3353813E+00
         11   -1    0    0    0    0  0.00000000000E+00  0.00000000000E+00  0.39999999674E+01  0.40000000000E+01  0.51100000000E-03 0.  1.
    9000002   -1    0    0    0    0 -0.00000000000E+00 -0.00000000000E+00  0.00000000000E+00  0.93800000000E+00  0.93800000000E+00 0. -1.
         11    1    1    2    0    0  0.18780894729E+00 -0.20784213029E-01  0.17802321006E+01  0.17902320457E+01  0.51100000000E-03 0.  1.
    9000002    1    1    2    0    0 -0.39632416123E+00  0.66094758486E-01  0.10899662152E+00  0.10262385792E+01  0.93800000000E+00 0. -1.
         22    1    1    2    0    0  0.20851521394E+00 -0.45310545457E-01  0.21107712452E+01  0.21215293752E+01  0.00000000000E+00 0.  1.
</event>
<event>
 5    1  0.1537976E+002  0.1599677E+01  0.7818608E-02  0.3353715E+00
         11   -1    0    0    0    0  0.00000000000E+00  0.00000000000E+00  0.39999999674E+01  0.40000000000E+01  0.51100000000E-03 0. -1.
    9000002   -1    0    0    0    0 -0.00000000000E+00 -0.00000000000E+00  0.00000000000E+00  0.93800000000E+00  0.93800000000E+00 0. -1.
         11    1    1    2    0    0  0.32713457815E-01  0.51501376327E-02  0.48150443185E+00  0.48264217931E+00  0.51100000000E-03 0.  1.
    9000002    1    1    2    0    0 -0.27054476523E+00 -0.40222149025E-01  0.49791492545E-01  0.97833301283E+00  0.93800000000E+00 0. -1.
         22    1    1    2    0    0  0.23783130741E+00  0.35072011392E-01  0.34687040430E+01  0.34770248079E+01  0.00000000000E+00 0. -1.
</event>
<event>
 5    1  0.1537976E+002  0.1599675E+01  0.7818608E-02  0.3353716E+00
         11   -1    0    0    0    0  0.00000000000E+00  0.00000000000E+00  0.39999999674E+01  0.40000000000E+01  0.51100000000E-03 0. -1.
    9000002   -1    0    0    0    0 -0.00000000000E+00 -0.00000000000E+00  0.00000000000E+00  0.93800000000E+00  0.93800000000E+00 0. -1.
         11    1    1    2    0    0 -0.37683995621E-01 -0.14857933292E-01  0.63262146226E+00  0.63391720070E+00  0.51100000000E-03 0. -1.
    9000002    1    1    2    0    0  0.23519542595E+00  0.10018321684E+00  0.43434172236E-01  0.97318245599E+00  0.93800000000E+00 0. -1.
         22    1    1    2    0    0 -0.19751143033E+00 -0.85325283546E-01  0.33239443329E+01  0.33309003433E+01  0.00000000000E+00 0. -1.
</event>
<event>
 5    1  0.1537976E+002  0.1539297E+01  0.7818608E-02  0.3422004E+00
         11   -1    0    0    0    0  0.00000000000E+00  0.00000000000E+00  0.39999999674E+01  0.40000000000E+01  0.51100000000E-03 0. -1.
    9000002   -1    0    0    0    0 -0.00000000000E+00 -0.00000000000E+00  0.00000000000E+00  0.93800000000E+00  0.93800000000E+00 0. -1.
         11    1    1    2    0    0  0.61712667380E-01  0.16110374256E+00  0.41002348812E+00  0.44483973643E+00  0.51100000000E-03 0. -1.
    9000002    1    1    2    0    0  0.15194537778E+00  0.45467192388E-01  0.62691420663E-01  0.95337761545E+00  0.93800000000E+00 0. -1.
         22    1    1    2    0    0 -0.21365804516E+00 -0.20657093495E+00  0.35272850586E+01  0.35397826481E+01  0.00000000000E+00 0. -1.
</event>
<event>
 5    1  0.1537976E+002  0.1599677E+01  0.7818608E-02  0.3353714E+00
         11   -1    0    0    0    0  0.00000000000E+00  0.00000000000E+00  0.39999999674E+01  0.40000000000E+01  0.51100000000E-03 0.  1.
    9000002   -1    0    0    0    0 -0.00000000000E+00 -0.00000000000E+00  0.00000000000E+00  0.93800000000E+00  0.93800000000E+00 0. -1.
         11    1    1    2    0    0 -0.12668594092E+00 -0.16580456124E+00  0.19129999520E+01  0.19243465275E+01  0.51100000000E-03 0.  1.
    9000002    1    1    2    0    0  0.25672058370E+00  0.33519922235E+00  0.12059721564E+00  0.10356889809E+01  0.93800000000E+00 0. -1.
         22    1    1    2    0    0 -0.13003464278E+00 -0.16939466111E+00  0.19664027997E+01  0.19779644916E+01  0.00000000000E+00 0.  1.
</event>
<event>
 5    1  0.1537976E+002  0.1599675E+01  0.7818608E-02  0.3353716E+00
         11   -1    0    0    0    0  0.00000000000E+00  0.00000000000E+00  0.39999999674E+01  0.40000000000E+01  0.51100000000E-03 0. -1.
    9000002   -1    0    0    0    0 -0.00000000000E+00 -0.00000000000E+00  0.00000000000E+00  0.93800000000E+00  0.93800000000E+00 0. -1.
         11    1    1    2    0    0 -0.40857011368E-02  0.46315520076E-01  0.31905531500E+00  0.32242576743E+00  0.51100000000E-03 0. -1.
    9000002    1    1    2    0    0  0.39012677200E-01 -0.55396579798E+00  0.21323159963E+00  0.11107258030E+01  0.93800000000E+00 0. -1.
         22    1    1    2    0    0 -0.34926976063E-01  0.50765027791E+00  0.34677130527E+01  0.35048484296E+01  0.00000000000E+00 0. -1.
</event>
<event>
 5    1  0.1537976E+002  0.1591761E+01  0.7818608E-02  0.3362355E+00
         11   -1    0    0    0    0  0.00000000000E+00  0.00000000000E+00  0.39999999674E+01  0.40000000000E+01  0.51100000000E-03 0.  1.
    9000002   -1    0    0    0    0 -0.00000000000E+00 -0.00000000000E+00  0.00000000000E+00  0.93800000000E+00  0.93800000000E+00 0.  1.
         11    1    1    2    0    0 -0.22943705374E-01 -0.66070771375E-01  0.52374869850E+00  0.52839825960E+00  0.51100000000E-03 0.  1.
    9000002    1    1    2    0    0 -0.26153443758E+00  0.16361709311E+00  0.69790680079E-01  0.98989168813E+00  0.93800000000E+00 0.  1.
         22    1    1    2    0    0  0.28447814295E+00 -0.97546321736E-01  0.34064605888E+01  0.34197100523E+01  0.00000000000E+00 0.  1.
</event>
<event>
 5    1  0.1537976E+002  0.1488112E+01  0.7818608E-02  0.3484539E+00
         11   -1    0    0    0    0  0.00000000000E+00  0.00000000000E+00  0.39999999674E+01  0.40000000000E+01  0.51100000000E-03 0. -1.
    9000002   -1    0    0    0    0 -0.00000000000E+00 -0.00000000000E+00  0.00000000000E+00  0.93800000000E+00  0.93800000000E+00 0.  1.
         11    1    1    2    0    0  0.14813557923E+00  0.27376688950E+00  0.51836707732E+00  0.60464629957E+00  0.51100000000E-03 0. -1.
    9000002    1    1    2    0    0  0.39316255141E+00 -0.47889088363E+00  0.39290763242E+00  0.11908541799E+01  0.93800000000E+00 0.  1.
         22    1    1    2    0    0 -0.54129813064E+00  0.20512399413E+00  0.30887252576E+01  0.31424995205E+01  0.00000000000E+00 0. -1.
</event>
<event>
 5    1  0.1543962E+002  0.1568967E+01  0.7818608E-02  0.3387750E+00
         11   -1    0    0    0    0  0.00000000000E+00  0.00000000000E+00  0.39999999674E+01  0.40000000000E+01  0.51100000000E-03 0. -1.
    9000002   -1    0    0    0    0 -0.00000000000E+00 -0.00000000000E+00  0.00000000000E+00  0.93800000000E+00  0.93800000000E+00 0.  1.
         11    1    1    2    0    0  0.51833202285E-02 -0.14998098840E+00  0.65334229786E+00  0.67035631047E+00  0.51100000000E-03 0. -1.
    9000002    1    1    2    0    0 -0.71110824153E-01 -0.41121113991E-01  0.27144952716E-01  0.94198118017E+00  0.93800000000E+00 0.  1.
         22    1    1    2    0    0  0.65927503925E-01  0.19110210240E+00  0.33195127168E+01  0.33256625094E+01  0.00000000000E+00 0. -1.
</event>
<event>
 5    1  0.1537976E+002  0.1581618E+01  0.7818608E-02  0.3373559E+00
         11   -1    0    0    0    0  0.00000000000E+00  0.00000000000E+00  0.39999999674E+01  0.40000000000E+01  0.51100000000E-03 0.  1.
    9000002   -1    0    0    0    0 -0.00000000000E+00 -0.00000000000E+00  0.00000000000E+00  0.93800000000E+00  0.93800000000E+00 0. -1.
         11    1    1    2    0    0 -0.69713230148E-01 -0.51515987254E-01  0.47170733252E+00  0.47960598420E+00  0.51100000000E-03 0.  1.
    9000002    1    1    2    0    0 -0.13762013029E+00 -0.69757054730E-01  0.29185728196E-01  0.95105265558E+00  0.93800000000E+00 0. -1.
         22    1    1    2    0    0  0.20733336044E+00  0.12127304198E+00  0.34991069066E+01  0.35073413602E+01  0.00000000000E+00 0.  1.
</event>
<event>
 5    1  0.1537976E+002  0.1589888E+01  0.7818608E-02  0.3364412E+00
         11   -1    0    0    0    0  0.00000000000E+00  0.00000000000E+00  0.39999999674E+01  0.40000000000E+01  0.51100000000E-03 0. -1.
    9000002   -1    0    0    0    0 -0.00000000000E+00 -0.00000000000E+00  0.00000000000E+00  0.93800000000E+00  0.93800000000E+00 0.  1.
         11    1    1    2    0    0 -0.88771634864E-01 -0.11804656051E-01  0.37254223136E+00  0.38315496646E+00  0.51100000000E-03 0. -1.
    9000002    1    1    2    0    0  0.25504158320E+00 -0.16804031393E+00  0.69986149866E-01  0.98895187822E+00  0.93800000000E+00 0.  1.
         22    1    1    2    0    0 -0.16626994833E+00  0.17984496998E+00  0.35574715861E+01  0.35658931553E+01  0.00000000000E+00 0. -1.
</event>
<event>
 5    1  0.1537976E+002  0.1599651E+01  0.7818608E-02  0.3353742E+00
         11   -1    0    0    0    0  0.00000000000E+00  0.00000000000E+00  0.39999999674E+01  0.40000000000E+01  0.51100000000E-03 0. -1.
    9000002   -1    0    0    0    0 -0.00000000000E+00 -0.00000000000E+00  0.00000000000E+00  0.93800000000E+00  0.93800000000E+00 0. -1.
         11    1    1    2    0    0  0.32729834662E-01  0.45762908212E-01  0.82558279899E+00  0.82749785798E+00  0.51100000000E-03 0. -1.
    9000002    1    1    2    0    0 -0.15674628301E+00 -0.24232763620E+00  0.55527396563E-01  0.98296458343E+00  0.93800000000E+00 0. -1.
         22    1    1    2    0    0  0.12401644835E+00  0.19656472799E+00  0.31188897718E+01  0.31275375586E+01  0.00000000000E+00 0. -1.
</event>
<event>
 5    1  0.1537976E+002  0.1599251E+01  0.7818608E-02  0.3354177E+00
         11   -1    0    0    0    0  0.00000000000E+00  0.00000000000E+00  0.39999999674E+01  0.40000000000E+01  0.51100000000E-03 0. -1.
    9000002   -1    0    0    0    0 -0.00000000000E+00 -0.00000000000E+00  0.00000000000E+00  0.93800000000E+00  0.93800000000E+00 0. -1.
         11    1    1    2    0    0  0.15636915676E+00  0.20466425441E+00  0.17562389580E+01  0.17750251573E+01  0.51100000000E-03 0. -1.
    9000002    1    1    2    0    0 -0.35557473065E+00 -0.39246121658E+00  0.19337633168E+00  0.10943937140E+01  0.93800000000E+00 0. -1.
         22    1    1    2    0    0  0.19920557389E+00  0.18779696217E+00  0.20503846776E+01  0.20685811287E+01  0.00000000000E+00 0.  1.
</event>
<event>
 5    1  0.1537976E+002  0.1599615E+01  0.7818608E-02  0.3353781E+00
         11   -1    0    0    0    0  0.00000000000E+00  0.00000000000E+00  0.39999999674E+01  0.40000000000E+01  0.51100000000E-03 0. -1.
    9000002   -1    0    0    0    0 -0.00000000000E+00 -0.00000000000E+00  0.00000000000E+00  0.93800000000E+00  0.93800000000E+00 0. -1.
         11    1    1    2    0    0 -0.55107676182E-01  0.29652603660E+00  0.20665526258E+01  0.20884454895E+01  0.51100000000E-03 0. -1.
    9000002    1    1    2    0    0  0.11016936025E+00 -0.55652532561E+00  0.22311461492E+00  0.11186964992E+01  0.93800000000E+00 0. -1.
         22    1    1    2    0    0 -0.55061684071E-01  0.25999928902E+00  0.17103327266E+01  0.17308580112E+01  0.00000000000E+00 0. -1.
</event>
<event>
 5    1  0.1537976E+002  0.1598943E+01  0.7818608E-02  0.3354512E+00
         11   -1    0    0    0    0  0.00000000000E+00  0.00000000000E+00  0.39999999674E+01  0.40000000000E+01  0.51100000000E-03 0. -1.
    9000002   -1    0    0    0    0 -0.00000000000E+00 -0.00000000000E+00  0.00000000000E+00  0.93800000000E+00  0.93800000000E+00 0.  1.
         11    1    1    2    0    0 -0.53049276499E-02  0.23316529688E-02  0.23322153192E+00  0.23329406965E+00  0.51100000000E-03 0. -1.
    9000002    1    1    2    0    0 -0.15533907701E+00 -0.12791283668E+00  0.27359125671E-01  0.95973144389E+00  0.93800000000E+00 0.  1.
         22    1    1    2    0    0  0.16064400466E+00  0.12558118371E+00  0.37394193098E+01  0.37449744865E+01  0.00000000000E+00 0. -1.
</event>
<event>
 5    1  0.1537976E+002  0.1599663E+01  0.7818608E-02  0.3353729E+00
         11   -1    0    0    0    0  0.00000000000E+00  0.00000000000E+00  0.39999999674E+01  0.40000000000E+01  0.51100000000E-03 0. -1.
    9000002   -1    0    0    0    0 -0.00000000000E+00 -0.00000000000E+00  0.00000000000E+00  0.93800000000E+00  0.93800000000E+00 0.  1.
         11    1    1    2    0    0  0.22110225257E-01  0.50357429077E-02  0.33697776057E+00  0.33774027448E+00  0.51100000000E-03 0. -1.
    9000002    1    1    2    0    0 -0.25514546145E+00 -0.30113766173E-01  0.43881652252E-01  0.97353769563E+00  0.93800000000E+00 0.  1.
         22    1    1    2    0    0  0.23303523619E+00  0.25078023265E-01  0.36191405545E+01  0.36267220299E+01  0.00000000000E+00 0. -1.
</event>
<event>
 5    1  0.1537976E+002  0.1599675E+01  0.7818608E-02  0.3353716E+00
         11   -1    0    0    0    0  0.00000000000E+00  0.00000000000E+00  0.39999999674E+01  0.40000000000E+01  0.51100000000E-03 0.  1.
    9000002   -1    0    0    0    0 -0.00000000000E+00 -0.00000000000E+00  0.00000000000E+00  0.93800000000E+00  0.93800000000E+00 0. -1.
         11    1    1    2    0    0 -0.73569420805E-01 -0.22326110678E-01  0.10727214777E+01  0.10754731724E+01  0.51100000000E-03 0.  1.
    9000002    1    1    2    0    0  0.26644613208E+00  0.84515103686E-01  0.52031343368E-01  0.98014672613E+00  0.93800000000E+00 0. -1.
         22    1    1    2    0    0 -0.19287671127E+00 -0.62188993008E-01  0.28752471463E+01  0.28823801014E+01  0.00000000000E+00 0.  1.
</event>
<event>
 5    1  0.1537976E+002  0.1599673E+01  0.7818608E-02  0.3353718E+00
         11   -1    0    0    0    0  0.00000000000E+00  0.00000000000E+00  0.39999999674E+01  0.40000000000E+01  0.51100000000E-03 0.  1.
    9000002   -1    0    0    0    0 -0.00000000000E+00 -0.00000000000E+00  0.00000000000E+00  0.93800000000E+00  0.93800000000E+00 0.  1.
         11    1    1    2    0    0  0.38237061074E-01 -0.54773050774E-01  0.49471798282E+00  0.49920767580E+00  0.51100000000E-03 0. -1.
    9000002    1    1    2    0    0 -0.30662013367E+00  0.41945564710E+00  0.18542922713E+00  0.10882035400E+01  0.93800000000E+00 0.  1.
         22    1    1    2    0    0  0.26838307260E+00 -0.36468259633E+00  0.33198527574E+01  0.33505887842E+01  0.00000000000E+00 0.  1.
</event>
<event>
 5    1  0.1537976E+002  0.1599676E+01  0.7818608E-02  0.3353715E+00
         11   -1    0    0    0    0  0.00000000000E+00  0.00000000000E+00  0.39999999674E+01  0.40000000000E+01  0.51100000000E-03 0.  1.
    9000002   -1    0    0    0    0 -0.00000000000E+00 -0.00000000000E+00  0.00000000000E+00  0.93800000000E+00  0.93800000000E+00 0.  1.
         11    1    1    2    0    0 -0.92716801786E-02 -0.17218868813E-01  0.27906318253E+00  0.27974805533E+00  0.51100000000E-03 0.  1.
    9000002    1    1    2    0    0  0.13340006168E+00  0.24178017735E+00  0.50761905822E-01  0.97911899262E+00  0.93800000000E+00 0.  1.
         22    1    1    2    0    0 -0.12412838150E+00 -0.22456130854E+00  0.36701748790E+01  0.36791329521E+01  0.00000000000E+00 0.  1.
</event>
<event>
 5    1  0.1537976E+002  0.1599660E+01  0.7818608E-02  0.3353733E+00
         11   -1    0    0    0    0  0.00000000000E+00  0.00000000000E+00  0.39999999674E+01  0.40000000000E+01  0.51100000000E-03 0.  1.
    9000002   -1    0    0    0    0 -0.00000000000E+00 -0.00000000000E+00  0.00000000000E+00  0.93800000000E+00  0.93800000000E+00 0.  1.
         11    1    1    2    0    0 -0.76426099049E-01  0.20315340967E-01  0.88093175314E+00  0.88447423733E+00  0.51100000000E-03 0.  1.
    9000002    1    1    2    0    0  0.32480197716E+00 -0.80750438265E-01  0.74998504484E-01  0.99874207547E+00  0.93800000000E+00 0.  1.
         22    1    1    2    0    0 -0.24837587811E+00  0.60435097297E-01  0.30440697097E+01  0.30547836872E+01  0.00000000000E+00 0.  1.
</event>
<event>
 5    1  0.1537976E+002  0.1599676E+01  0.7818608E-02  0.3353715E+00
         11   -1    0    0    0    0  0.00000000000E+00  0.00000000000E+00  0.39999999674E+01  0.40000000000E+01  0.51100000000E-03 0.  1.
    9000002   -1    0    0    0    0 -0.00000000000E+00 -0.00000000000E+00  0.00000000000E+00  0.93800000000E+00  0.93800000000E+00 0.  1.
         11    1    1    2    0    0 -0.17934124595E-01 -0.16395902549E-01  0.38403592464E+00  0.38480425022E+00  0.51100000000E-03 0. -1.
    9000002    1    1    2    0    0  0.18592783686E+00  0.17203567259E+00  0.42635755413E-01  0.97253649844E+00  0.93800000000E+00 0.  1.
         22    1    1    2    0    0 -0.16799371227E+00 -0.15563977004E+00  0.35733282873E+01  0.35806592513E+01  0.00000000000E+00 0.  1.
</event>
<event>
 5    1  0.1537976E+002  0.1599674E+01  0.7818608E-02  0.3353717E+00
         11   -1    0    0    0    0  0.00000000000E+00  0.00000000000E+00  0.39999999674E+01  0.40000000000E+01  0.51100000000E-03 0.  1.
    9000002   -1    0    0    0    0 -0.00000000000E+00 -0.00000000000E+00  0.00000000000E+00  0.93800000000E+00  0.93800000000E+00 0. -1.
         11    1    1    2    0    0 -0.26910891734E+00 -0.34925566362E-01  0.14118969738E+01  0.14377387559E+01  0.51100000000E-03 0.  1.
    9000002    1    1    2    0    0  0.69467478855E+00  0.85196082328E-01  0.35006207165E+00  0.12215641155E+01  0.93800000000E+00 0. -1.
         22    1    1    2    0    0 -0.42556587122E+00 -0.50270515966E-01  0.22380409219E+01  0.22786971286E+01  0.00000000000E+00 0.  1.
</event>
<event>
 5    1  0.1537976E+002  0.1595650E+01  0.7818608E-02  0.3358098E+00
         11   -1    0    0    0    0  0.00000000000E+00  0.00000000000E+00  0.39999999674E+01  0.40000000000E+01  0.51100000000E-03 0.  1.
    9000002   -1    0    0    0    0 -0.00000000000E+00 -0.00000000000E+00  0.00000000000E+00  0.93800000000E+00  0.93800000000E+00 0. -1.
         11    1    1    2    0    0 -0.97910045487E-02  0.27579001214E-01  0.16322273192E+00  0.16582637430E+00  0.51100000000E-03 0.  1.
    9000002    1    1    2    0    0 -0.19638425308E+00 -0.72333422225E-01  0.32046126104E-01  0.96159755253E+00  0.93800000000E+00 0. -1.
         22    1    1    2    0    0  0.20617525763E+00  0.44754421012E-01  0.38047311093E+01  0.38105760732E+01  0.00000000000E+00 0.  1.
</event>
<event>
 5    1  0.1537976E+002  0.1599677E+01  0.7818608E-02  0.3353714E+00
         11   -1    0    0    0    0  0.00000000000E+00  0.00000000000E+00  0.39999999674E+01  0.40000000000E+01  0.51100000000E-03 0. -1.
    9000002   -1    0    0    0    0 -0.00000000000E+00 -0.00000000000E+00  0.00000000000E+00  0.93800000000E+00  0.93800000000E+00 0.  1.
         11    1    1    2    0    0 -0.18072603762E+00  0.16271894266E+00  0.20242545552E+01  0.20388099765E+01  0.51100000000E-03 0. -1.
    9000002    1    1    2    0    0  0.34342556106E+00 -0.31003061345E+00  0.14566276596E+00  0.10559932474E+01  0.93800000000E+00 0.  1.
         22    1    1    2    0    0 -0.16269952344E+00  0.14731167079E+00  0.18300826462E+01  0.18431967760E+01  0.00000000000E+00 0. -1.
</event>
<event>
 5    1  0.1537976E+002  0.1515747E+01  0.7818608E-02  0.3450212E+00
         11   -1    0    0    0    0  0.00000000000E+00  0.00000000000E+00  0.39999999674E+01  0.40000000000E+01  0.51100000000E-03 0. -1.
    9000002   -1    0    0    0    0 -0.00000000000E+00 -0.00000000000E+00  0.00000000000E+00  0.93800000000E+00  0.93800000000E+00 0. -1.
         11    1    1    2    0    0 -0.13716362810E+00  0.74804558662E-01  0.18982401549E+00  0.24585158297E+00  0.51100000000E-03 0. -1.
    9000002    1    1    2    0    0 -0.45788751105E-01  0.15182136867E-01  0.65063738490E-01  0.94149051884E+00  0.93800000000E+00 0. -1.
         22    1    1    2    0    0  0.18295237920E+00 -0.89986695529E-01  0.37451122134E+01  0.37506578982E+01  0.00000000000E+00 0. -1.
</event>
<event>
 5    1  0.1537976E+002  0.1599638E+01  0.7818608E-02  0.3353756E+00
         11   -1    0    0    0    0  0.00000000000E+00  0.00000000000E+00  0.39999999674E+01  0.40000000000E+01  0.51100000000E-03 0.  1.
    9000002   -1    0    0    0    0 -0.00000000000E+00 -0.00000000000E+00  0.00000000000E+00  0.93800000000E+00  0.93800000000E+00 0. -1.
         11    1    1    2    0    0 -0.46912375958E-02  0.10364470629E-01  0.15757852764E+00  0.15798950426E+00  0.51100000000E-03 0.  1.
    9000002    1    1    2    0    0  0.45672326952E-01 -0.26871365355E+00  0.49471437879E-01  0.97805133414E+00  0.93800000000E+00 0. -1.
         22    1    1    2    0    0 -0.40981089356E-01  0.25834918292E+00  0.37929500018E+01  0.38019591616E+01  0.00000000000E+00 0.  1.
</event>
<event>
 5    1  0.1537976E+002  0.1572204E+01  0.7818608E-02  0.3384096E+00
         11   -1    0    0    0    0  0.00000000000E+00  0.00000000000E+00  0.39999999674E+01  0.40000000000E+01  0.51100000000E-03 0. -1.
    9000002   -1    0    0    0    0 -0.00000000000E+00 -0.00000000000E+00  0.00000000000E+00  0.93800000000E+00  0.93800000000E+00 0.  1.
         11    1    1    2    0    0  0.21809677700E+00  0.17663667008E-01  0.15754461256E+01  0.15905687552E+01  0.51100000000E-03 0. -1.
    9000002    1    1    2    0    0 -0.72354174537E-01 -0.16533590662E+00  0.42280066712E-01  0.95613947342E+00  0.93800000000E+00 0.  1.
         22    1    1    2    0    0 -0.14574260246E+00  0.14767223961E+00  0.23822737751E+01  0.23912917714E+01  0.00000000000E+00 0. -1.
</event>
<event>
 5    1  0.1537976E+002  0.1598770E+01  0.7818608E-02  0.3354699E+00
         11   -1    0    0    0    0  0.00000000000E+00  0.00000000000E+00  0.39999999674E+01  0.40000000000E+01  0.51100000000E-03 0.  1.
    9000002   -1    0    0    0    0 -0.00000000000E+00 -0.00000000000E+00  0.00000000000E+00  0.93800000000E+00  0.93800000000E+00 0. -1.
         11    1    1    2    0    0  0.26625315284E-01  0.84081067592E-02  0.21539877032E+00  0.21720150794E+00  0.51100000000E-03 0.  1.
    9000002    1    1    2    0    0 -0.25010386916E+00  0.31575327987E-01  0.42915640279E-01  0.97223181335E+00  0.93800000000E+00 0. -1.
         22    1    1    2    0    0  0.22347855388E+00 -0.39983434746E-01  0.37416855568E+01  0.37485666787E+01  0.00000000000E+00 0.  1.
</event>
<event>
 5    1  0.1537976E+002  0.1599674E+01  0.7818608E-02  0.3353717E+00
         11   -1    0    0    0    0  0.00000000000E+00  0.00000000000E+00  0.39999999674E+01  0.40000000000E+01  0.51100000000E-03 0.  1.
    9000002   -1    0    0    0    0 -0.00000000000E+00 -0.00000000000E+00  0.00000000000E+00  0.93800000000E+00  0.93800000000E+00 0. -1.
         11    1    1    2    0    0 -0.20775905691E+00 -0.54563665284E-02  0.15903782198E+01  0.16039004772E+01  0.51100000000E-03 0.  1.
    9000002    1    1    2    0    0  0.50043580532E+00  0.85406158335E-02  0.17150440954E+00  0.10769246491E+01  0.93800000000E+00 0. -1.
         22    1    1    2    0    0 -0.29267674840E+00 -0.30842493051E-02  0.22381173380E+01  0.22571748737E+01  0.00000000000E+00 0. -1.
</event>
<event>
 5    1  0.1537976E+002  0.1599625E+01  0.7818608E-02  0.3353770E+00
         11   -1    0    0    0    0  0.00000000000E+00  0.00000000000E+00  0.39999999674E+01  0.40000000000E+01  0.51100000000E-03 0.  1.
    9000002   -1    0    0    0    0 -0.00000000000E+00 -0.00000000000E+00  0.00000000000E+00  0.93800000000E+00  0.93800000000E+00 0.  1.
         11    1    1    2    0    0  0.72293722005E-01  0.48896146057E-02  0.97494078646E+00  0.97762983219E+00  0.51100000000E-03 0.  1.
    9000002    1    1    2    0    0 -0.32110273616E+00 -0.13543064540E-01  0.69090011352E-01  0.99393551674E+00  0.93800000000E+00 0.  1.
         22    1    1    2    0    0  0.24880901416E+00  0.86534499339E-02  0.29559691695E+01  0.29664346511E+01  0.00000000000E+00 0.  1.
</event>
<event>
 5    1  0.1537976E+002  0.1596281E+01  0.7818608E-02  0.3357410E+00
         11   -1    0    0    0    0  0.00000000000E+00  0.00000000000E+00  0.39999999674E+01  0.40000000000E+01  0.51100000000E-03 0.  1.
    9000002   -1    0    0    0    0 -0.00000000000E+00 -0.00000000000E+00  0.00000000000E+00  0.93800000000E+00  0.93800000000E+00 0. -1.
         11    1    1    2    0    0 -0.16041677287E-02 -0.56086908182E-02  0.62869321186E+00  0.62872048363E+00  0.51100000000E-03 0.  1.
    9000002    1    1    2    0    0  0.12932599932E+00 -0.26403560646E+00  0.60287651006E-01  0.98484446307E+00  0.93800000000E+00 0. -1.
         22    1    1    2    0    0 -0.12772183160E+00  0.26964429728E+00  0.33110191045E+01  0.33244350533E+01  0.00000000000E+00 0.  1.
</event>
<event>
 5    1  0.1537976E+002  0.1596305E+01  0.7818608E-02  0.3357384E+00
         11   -1    0    0    0    0  0.00000000000E+00  0.00000000000E+00  0.39999999674E+01  0.40000000000E+01  0.51100000000E-03 0. -1.
    9000002   -1    0    0    0    0 -0.00000000000E+00 -0.00000000000E+00  0.00000000000E+00  0.93800000000E+00  0.93800000000E+00 0. -1.
         11    1    1    2    0    0  0.36532239387E-01 -0.40499456486E-01  0.29760643666E+00  0.30256348549E+00  0.51100000000E-03 0. -1.
    9000002    1    1    2    0    0 -0.42090931512E+00  0.44469196636E-01  0.12406696576E+00  0.10365224421E+01  0.93800000000E+00 0. -1.
         22    1    1    2    0    0  0.38437707573E+00 -0.39697401508E-02  0.35783265649E+01  0.35989140724E+01  0.00000000000E+00 0. -1.
</event>
<event>
 5    1  0.1537976E+002  0.1557350E+01  0.7818608E-02  0.3400997E+00
         11   -1    0    0    0    0  0.00000000000E+00  0.00000000000E+00  0.39999999674E+01  0.40000000000E+01  0.51100000000E-03 0. -1.
    9000002   -1    0    0    0    0 -0.00000000000E+00 -0.00000000000E+00  0.00000000000E+00  0.93800000000E+00  0.93800000000E+00 0. -1.
         11    1    1    2    0    0  0.28522137944E-01 -0.17761494755E-01  0.30631915272E+01  0.30633758465E+01  0.51100000000E-03 0. -1.
    9000002    1    1    2    0    0  0.59684172461E-01  0.26896019188E+00  0.84000434936E-01  0.98122467271E+00  0.93800000000E+00 0. -1.
         22    1    1    2    0    0 -0.88206310405E-01 -0.25119869713E+00  0.85280800520E+00  0.89339948084E+00  0.00000000000E+00 0. -1.
</event>
<event>
 5    1  0.1537976E+002  0.1599657E+01  0.7818608E-02  0.3353736E+00
         11   -1    0    0    0    0  0.00000000000E+00  0.00000000000E+00  0.39999999674E+01  0.40000000000E+01  0.51100000000E-03 0. -1.
    9000002   -1    0    0    0    0 -0.00000000000E+00 -0.00000000000E+00  0.00000000000E+00  0.93800000000E+00  0.93800000000E+00 0.  1.
         11    1    1    2    0    0 -0.32920109644E+00 -0.22277143189E+00  0.21934593108E+01  0.22291847124E+01  0.51100000000E-03 0. -1.
    9000002    1    1    2    0    0  0.55934274534E+00  0.37834592515E+00  0.32382106367E+00  0.12002974744E+01  0.93800000000E+00 0.  1.
         22    1    1    2    0    0 -0.23014164890E+00 -0.15557449325E+00  0.14827195929E+01  0.15085178132E+01  0.00000000000E+00 0. -1.
</event>
<event>
 5    1  0.1537976E+002  0.1553061E+01  0.7818608E-02  0.3405940E+00
         11   -1    0    0    0    0  0.00000000000E+00  0.00000000000E+00  0.39999999674E+01  0.40000000000E+01  0.51100000000E-03 0. -1.
    9000002   -1    0    0    0    0 -0.00000000000E+00 -0.00000000000E+00  0.00000000000E+00  0.93800000000E+00  0.93800000000E+00 0.  1.
         11    1    1    2    0    0  0.13477957698E+00  0.73317096126E-01  0.42420467291E+00  0.45109954179E+00  0.51100000000E-03 0. -1.
    9000002    1    1    2    0    0  0.86415098244E-01  0.14694564370E-01  0.39827874286E-01  0.94292828942E+00  0.93800000000E+00 0.  1.
         22    1    1    2    0    0 -0.22119467523E+00 -0.88011660496E-01  0.35359674202E+01  0.35439721688E+01  0.00000000000E+00 0. -1.
</event>
<event>
 5    1  0.1537976E+002  0.1596688E+01  0.7818608E-02  0.3356966E+00
         11   -1    0    0    0    0  0.00000000000E+00  0.00000000000E+00  0.39999999674E+01  0.40000000000E+01  0.51100000000E-03 0. -1.
    9000002   -1    0    0    0    0 -0.00000000000E+00 -0.00000000000E+00  0.00000000000E+00  0.93800000000E+00  0.93800000000E+00 0.  1.
         11    1    1    2    0    0 -0.51739791832E-01 -0.55462425955E-01  0.92342772929E+00  0.92653770516E+00  0.51100000000E-03 0. -1.
    9000002    1    1    2    0    0  0.29932174228E+00  0.12205325413E-01  0.62208560113E-01  0.98663893108E+00  0.93800000000E+00 0.  1.
         22    1    1    2    0    0 -0.24758195045E+00  0.43257100543E-01  0.30143636780E+01  0.30248233638E+01  0.00000000000E+00 0. -1.
</event>
<event>
 5    1  0.1537976E+002  0.1599668E+01  0.7818608E-02  0.3353724E+00
         11   -1    0    0    0    0  0.00000000000E+00  0.00000000000E+00  0.39999999674E+01  0.40000000000E+01  0.51100000000E-03 0. -1.
    9000002   -1    0    0    0    0 -0.00000000000E+00 -0.00000000000E+00  0.00000000000E+00  0.93800000000E+00  0.93800000000E+00 0. -1.
         11    1    1    2    0    0 -0.36052620045E-01  0.30398431152E-02  0.48336865187E+00  0.48472110206E+00  0.51100000000E-03 0. -1.
    9000002    1    1    2    0    0  0.27556728578E+00 -0.24623946853E-01  0.50963911326E-01  0.97927778899E+00  0.93800000000E+00 0. -1.
         22    1    1    2    0    0 -0.23951466574E+00  0.21584103738E-01  0.34656674042E+01  0.34740011089E+01  0.00000000000E+00 0. -1.
</event>
<event>
 5    1  0.1537976E+002  0.1599266E+01  0.7818608E-02  0.3354161E+00
         11   -1    0    0    0    0  0.00000000000E+00  0.00000000000E+00  0.39999999674E+01  0.40000000000E+01  0.51100000000E-03 0. -1.
    9000002   -1    0    0    0    0 -0.00000000000E+00 -0.00000000000E+00  0.00000000000E+00  0.93800000000E+00  0.93800000000E+00 0.  1.
         11    1    1    2    0    0  0.49758954200E-01 -0.12057109425E-02  0.82962500657E+00  0.83111691110E+00  0.51100000000E-03 0. -1.
    9000002    1    1    2    0    0 -0.32881836792E+00 -0.97425456570E-02  0.72724730489E-01  0.99666911395E+00  0.93800000000E+00 0.  1.
         22    1    1    2    0    0  0.27905941372E+00  0.10948256599E-01  0.30976502303E+01  0.31102139750E+01  0.00000000000E+00 0. -1.
</event>
<event>
 5    1  0.1537976E+002  0.1591159E+01  0.7818608E-02  0.3363015E+00
         11   -1    0    0    0    0  0.00000000000E+00  0.00000000000E+00  0.39999999674E+01  0.40000000000E+01  0.51100000000E-03 0.  1.
    9000002   -1    0    0    0    0 -0.00000000000E+00 -0.00000000000E+00  0.00000000000E+00  0.93800000000E+00  0.93800000000E+00 0. -1.
         11    1    1    2    0    0 -0.81989171092E-01  0.16506079039E+00  0.27237071652E+01  0.27299355801E+01  0.51100000000E-03 0.  1.
    9000002    1    1    2    0    0  0.20913703528E+00 -0.34833527389E+00  0.11859102155E+00  0.10290692848E+01  0.93800000000E+00 0. -1.
         22    1    1    2    0    0 -0.12714786419E+00  0.18327448350E+00  0.11577017806E+01  0.11789951351E+01  0.00000000000E+00 0. -1.
</event>
<event>
 5    1  0.1537976E+002  0.1599641E+01  0.7818608E-02  0.3353753E+00
         11   -1    0    0    0    0  0.00000000000E+00  0.00000000000E+00  0.39999999674E+01  0.40000000000E+01  0.51100000000E-03 0. -1.
    9000002   -1    0    0    0    0 -0.00000000000E+00 -0.00000000000E+00  0.00000000000E+00  0.93800000000E+00  0.93800000000E+00 0. -1.
         11    1    1    2    0    0  0.60006619341E-01 -0.11349197281E+00  0.13931242016E+01  0.13990269920E+01  0.51100000000E-03 0. -1.
    9000002    1    1    2    0    0 -0.15476906201E+00  0.33245546846E+00  0.90370725565E-01  0.10111829553E+01  0.93800000000E+00 0. -1.
         22    1    1    2    0    0  0.94762442664E-01 -0.21896349564E+00  0.25165050402E+01  0.25277900527E+01  0.00000000000E+00 0. -1.
</event>
<event>
 5    1  0.1537976E+002  0.1599677E+01  0.7818608E-02  0.3353714E+00
         11   -1    0    0    0    0  0.00000000000E+00  0.00000000000E+00  0.39999999674E+01  0.40000000000E+01  0.51100000000E-03 0.  1.
    9000002   -1    0    0    0    0 -0.00000000000E+00 -0.00000000000E+00  0.00000000000E+00  0.93800000000E+00  0.93800000000E+00 0.  1.
         11    1    1    2    0    0 -0.20954427183E+00  0.91023915026E-01  0.19403012568E+01  0.19537050400E+01  0.51100000000E-03 0.  1.
    9000002    1    1    2    0    0  0.41708715395E+00 -0.18116042268E+00  0.14054089423E+00  0.10518443496E+01  0.93800000000E+00 0.  1.
         22    1    1    2    0    0 -0.20754288212E+00  0.90136507657E-01  0.19191578163E+01  0.19324506105E+01  0.00000000000E+00 0. -1.
</event>
<event>
 5    1  0.1537976E+002  0.1542142E+01  0.7818608E-02  0.3418658E+00
         11   -1    0    0    0    0  0.00000000000E+00  0.00000000000E+00  0.39999999674E+01  0.40000000000E+01  0.51100000000E-03 0.  1.
    9000002   -1    0    0    0    0 -0.00000000000E+00 -0.00000000000E+00  0.00000000000E+00  0.93800000000E+00  0.93800000000E+00 0.  1.
         11    1    1    2    0    0 -0.18592935750E+00  0.22323786249E+00  0.76154243889E+00  0.81507792056E+00  0.51100000000E-03 0.  1.
    9000002    1    1    2    0    0 -0.16567942688E-01 -0.42984032042E+00  0.17600109145E+00  0.10468321651E+01  0.93800000000E+00 0.  1.
         22    1    1    2    0    0  0.20249730018E+00  0.20660245793E+00  0.30624564370E+01  0.30760899143E+01  0.00000000000E+00 0. -1.
</event>
<event>
 5    1  0.1537976E+002  0.1552008E+01  0.7818608E-02  0.3407159E+00
         11   -1    0    0    0    0  0.00000000000E+00  0.00000000000E+00  0.39999999674E+01  0.40000000000E+01  0.51100000000E-03 0. -1.
    9000002   -1    0    0    0    0 -0.00000000000E+00 -0.00000000000E+00  0.00000000000E+00  0.93800000000E+00  0.93800000000E+00 0. -1.
         11    1    1    2    0    0 -0.12749987034E+00  0.21348391287E+00  0.10865097747E+01  0.11146009823E+01  0.51100000000E-03 0. -1.
    9000002    1    1    2    0    0 -0.13944947869E-01 -0.67247872818E-01  0.38582918448E-01  0.94130195982E+00  0.93800000000E+00 0. -1.
         22    1    1    2    0    0  0.14144481820E+00 -0.14623604006E+00  0.28749072742E+01  0.28820970579E+01  0.00000000000E+00 0. -1.
</event>
<event>
 5    1  0.1537976E+002  0.1599675E+01  0.7818608E-02  0.3353716E+00
         11   -1    0    0    0    0  0.00000000000E+00  0.00000000000E+00  0.39999999674E+01  0.40000000000E+01  0.51100000000E-03 0. -1.
    9000002   -1    0    0    0    0 -0.00000000000E+00 -0.00000000000E+00  0.00000000000E+00  0.93800000000E+00  0.93800000000E+00 0. -1.
         11    1    1    2    0    0 -0.75874947310E-01  0.11007916920E+00  0.10743716356E+01  0.10826583504E+01  0.51100000000E-03 0. -1.
    9000002    1    1    2    0    0  0.27301177834E+00 -0.39793320557E+00  0.15896967941E+00  0.10667715904E+01  0.93800000000E+00 0. -1.
         22    1    1    2    0    0 -0.19713683103E+00  0.28785403636E+00  0.27666586523E+01  0.27885700592E+01  0.00000000000E+00 0.  1.
</event>
<event>
 5    1  0.1537976E+002  0.1599521E+01  0.7818608E-02  0.3353884E+00
         11   -1    0    0    0    0  0.00000000000E+00  0.00000000000E+00  0.39999999674E+01  0.40000000000E+01  0.51100000000E-03 0.  1.
    9000002   -1    0    0    0    0 -0.00000000000E+00 -0.00000000000E+00  0.00000000000E+00  0.93800000000E+00  0.93800000000E+00 0.  1.
         11    1    1    2    0    0  0.33604747574E+00  0.37097681884E-01  0.18031260877E+01  0.18345484712E+01  0.51100000000E-03 0.  1.
    9000002    1    1    2    0    0 -0.69876865196E+00 -0.98454876431E-01  0.35661044262E+00  0.12267787084E+01  0.93800000000E+00 0.  1.
         22    1    1    2    0    0  0.36272117623E+00  0.61357194547E-01  0.18402634370E+01  0.18766728204E+01  0.00000000000E+00 0. -1.
</event>
<event>
 5    1  0.1537976E+002  0.1541283E+01  0.7818608E-02  0.3419667E+00
         11   -1    0    0    0    0  0.00000000000E+00  0.00000000000E+00  0.39999999674E+01  0.40000000000E+01  0.51100000000E-03 0.  1.
    9000002   -1    0    0    0    0 -0.00000000000E+00 -0.00000000000E+00  0.00000000000E+00  0.93800000000E+00  0.93800000000E+00 0.  1.
         11    1    1    2    0    0  0.20412033970E+00  0.78114275441E-01  0.30455030484E+01  0.30533352309E+01  0.51100000000E-03 0.  1.
    9000002    1    1    2    0    0 -0.15530759662E+00  0.19381544788E+00  0.86976720512E-01  0.97421446680E+00  0.93800000000E+00 0.  1.
         22    1    1    2    0    0 -0.48812743077E-01 -0.27192972332E+00  0.86752019842E+00  0.91045030231E+00  0.00000000000E+00 0.  1.
</event>
<event>
 5    1  0.1537976E+002  0.1599675E+01  0.7818608E-02  0.3353716E+00
         11   -1    0    0    0    0  0.00000000000E+00  0.00000000000E+00  0.39999999674E+01  0.40000000000E+01  0.51100000000E-03 0.  1.
    9000002   -1    0    0    0    0 -0.00000000000E+00 -0.00000000000E+00  0.00000000000E+00  0.93800000000E+00  0.93800000000E+00 0.  1.
         11    1    1    2    0    0  0.37765317187E+00 -0.88822017548E+00  0.22006164078E+01  0.24029710431E+01  0.51100000000E-03 0.  1.
    9000002    1    1    2    0    0 -0.46180626411E+00  0.10887048057E+01  0.13065441041E+01  0.19963578525E+01  0.93800000000E+00 0. -1.
         22    1    1    2    0    0  0.84153092235E-01 -0.20048463017E+00  0.49283945546E+00  0.53867110441E+00  0.00000000000E+00 0.  1.
</event>
<event>
 5    1  0.1537976E+002  0.1489188E+01  0.7818608E-02  0.3483176E+00
         11   -1    0    0    0    0  0.00000000000E+00  0.00000000000E+00  0.39999999674E+01  0.40000000000E+01  0.51100000000E-03 0.  1.
    9000002   -1    0    0    0    0 -0.00000000000E+00 -0.00000000000E+00  0.00000000000E+00  0.93800000000E+00  0.93800000000E+00 0. -1.
         11    1    1    2    0    0 -0.34781768006E+00 -0.36937224108E+00  0.12200378700E+01  0.13213272329E+01  0.51100000000E-03 0.  1.
    9000002    1    1    2    0    0  0.56042171646E+00  0.70960517936E-01  0.33594486739E+00  0.11453431142E+01  0.93800000000E+00 0. -1.
         22    1    1    2    0    0 -0.21260403640E+00  0.29841172314E+00  0.24440172299E+01  0.24713296528E+01  0.00000000000E+00 0. -1.
</event>
<event>
 5    1  0.1537976E+002  0.1595874E+01  0.7818608E-02  0.3357854E+00
         11   -1    0    0    0    0  0.00000000000E+00  0.00000000000E+00  0.39999999674E+01  0.40000000000E+01  0.51100000000E-03 0. -1.
    9000002   -1    0    0    0    0 -0.00000000000E+00 -0.00000000000E+00  0.00000000000E+00  0.93800000000E+00  0.93800000000E+00 0.  1.
         11    1    1    2    0    0  0.50366111383E-02  0.50194604761E-02  0.87583059395E-02  0.11292983625E-01  0.51100000000E-03 0. -1.
    9000002    1    1    2    0    0 -0.11957746697E+00  0.29441964502E+00  0.70492467290E-01  0.99287203905E+00  0.93800000000E+00 0.  1.
         22    1    1    2    0    0  0.11454085583E+00 -0.29943910550E+00  0.39207491941E+01  0.39338349773E+01  0.00000000000E+00 0. -1.
</event>
<event>
 5    1  0.1537976E+002  0.1532510E+01  0.7818608E-02  0.3430039E+00
         11   -1    0    0    0    0  0.00000000000E+00  0.00000000000E+00  0.39999999674E+01  0.40000000000E+01  0.51100000000E-03 0. -1.
    9000002   -1    0    0    0    0 -0.00000000000E+00 -0.00000000000E+00  0.00000000000E+00  0.93800000000E+00  0.93800000000E+00 0. -1.
         11    1    1    2    0    0  0.20494041672E-02  0.17997628734E+00  0.91161117760E+00  0.92920980640E+00  0.51100000000E-03 0. -1.
    9000002    1    1    2    0    0  0.84077549778E-01  0.35576956465E+00  0.14655548087E+00  0.10173315716E+01  0.93800000000E+00 0. -1.
         22    1    1    2    0    0 -0.86126953945E-01 -0.53574585199E+00  0.29418333089E+01  0.29914586220E+01  0.00000000000E+00 0. -1.
</event>
<event>
 5    1  0.1537976E+002  0.1599671E+01  0.7818608E-02  0.3353720E+00
         11   -1    0    0    0    0  0.00000000000E+00  0.00000000000E+00  0.39999999674E+01  0.40000000000E+01  0.51100000000E-03 0. -1.
    9000002   -1    0    0    0    0 -0.00000000000E+00 -0.00000000000E+00  0.00000000000E+00  0.93800000000E+00  0.93800000000E+00 0.  1.
         11    1    1    2    0    0  0.90007405382E-01  0.36482447392E+00  0.21216104319E+01  0.21546297399E+01  0.51100000000E-03 0. -1.
    9000002    1    1    2    0    0 -0.15501678129E+00 -0.63190533586E+00  0.29877735021E+00  0.11800196867E+01  0.93800000000E+00 0.  1.
         22    1    1    2    0    0  0.65009375908E-01  0.26708086194E+00  0.15796121852E+01  0.16033505735E+01  0.00000000000E+00 0.  1.
</event>
<event>
 5    1  0.1537976E+002  0.1595916E+01  0.7818608E-02  0.3357807E+00
         11   -1    0    0    0    0  0.00000000000E+00  0.00000000000E+00  0.39999999674E+01  0.40000000000E+01  0.51100000000E-03 0. -1.
    9000002   -1    0    0    0    0 -0.00000000000E+00 -0.00000000000E+00  0.00000000000E+00  0.93800000000E+00  0.93800000000E+00 0. -1.
         11    1    1    2    0    0  0.24915374507E-01 -0.17865759406E+00  0.21144218955E+01  0.21221026189E+01  0.51100000000E-03 0. -1.
    9000002    1    1    2    0    0  0.18926796110E-01  0.44488740602E+00  0.13782057071E+00  0.10474356960E+01  0.93800000000E+00 0. -1.
         22    1    1    2    0    0 -0.43842170617E-01 -0.26622981196E+00  0.17477575012E+01  0.17684616851E+01  0.00000000000E+00 0. -1.
</event>
<event>
 5    1  0.1537976E+002  0.1598817E+01  0.7818608E-02  0.3354648E+00
         11   -1    0    0    0    0  0.00000000000E+00  0.00000000000E+00  0.39999999674E+01  0.40000000000E+01  0.51100000000E-03 0.  1.
    9000002   -1    0    0    0    0 -0.00000000000E+00 -0.00000000000E+00  0.00000000000E+00  0.93800000000E+00  0.93800000000E+00 0. -1.
         11    1    1    2    0    0 -0.28277931554E-01 -0.63527780842E-01  0.12339461569E+01  0.12359040415E+01  0.51100000000E-03 0.  1.
    9000002    1    1    2    0    0  0.83279538047E-01  0.30679487431E+00  0.68213364794E-01  0.99275154973E+00  0.93800000000E+00 0. -1.
         22    1    1    2    0    0 -0.55001606493E-01 -0.24326709347E+00  0.26978404456E+01  0.27093444088E+01  0.00000000000E+00 0. -1.
</event>
<event>
 5    1  0.1537976E+002  0.1599671E+01  0.7818608E-02  0.3353720E+00
         11   -1    0    0    0    0  0.00000000000E+00  0.00000000000E+00  0.39999999674E+01  0.40000000000E+01  0.51100000000E-03 0. -1.
    9000002   -1    0    0    0    0 -0.00000000000E+00 -0.00000000000E+00  0.00000000000E+00  0.93800000000E+00  0.93800000000E+00 0. -1.
         11    1    1    2    0    0  0.78971409174E+00 -0.57500292538E+00  0.15511973855E+01  0.18331640136E+01  0.51100000000E-03 0. -1.
    9000002    1    1    2    0    0 -0.10414204416E+01  0.75601318462E+00  0.19512930311E+01  0.25186307718E+01  0.93800000000E+00 0. -1.
         22    1    1    2    0    0  0.25170634985E+00 -0.18101025923E+00  0.49750955083E+00  0.58620521464E+00  0.00000000000E+00 0.  1.
</event>
<event>
 5    1  0.1537976E+002  0.1596864E+01  0.7818608E-02  0.3356774E+00
         11   -1    0    0    0    0  0.00000000000E+00  0.00000000000E+00  0.39999999674E+01  0.40000000000E+01  0.51100000000E-03 0.  1.
    9000002   -1    0    0    0    0 -0.00000000000E+00 -0.00000000000E+00  0.00000000000E+00  0.93800000000E+00  0.93800000000E+00 0. -1.
         11    1    1    2    0    0 -0.16866041434E-01 -0.20412091777E-02  0.14525526991E+00  0.14624631430E+00  0.51100000000E-03 0.  1.
    9000002    1    1    2    0    0 -0.19081028129E+00  0.12322442056E+00  0.36348060143E-01  0.96579397531E+00  0.93800000000E+00 0. -1.
         22    1    1    2    0    0  0.20767632272E+00 -0.12118321138E+00  0.38183966373E+01  0.38259597104E+01  0.00000000000E+00 0.  1.
</event>
<event>
 5    1  0.1537976E+002  0.1599165E+01  0.7818608E-02  0.3354270E+00
         11   -1    0    0    0    0  0.00000000000E+00  0.00000000000E+00  0.39999999674E+01  0.40000000000E+01  0.51100000000E-03 0. -1.
    9000002   -1    0    0    0    0 -0.00000000000E+00 -0.00000000000E+00  0.00000000000E+00  0.93800000000E+00  0.93800000000E+00 0. -1.
         11    1    1    2    0    0 -0.12356942781E-02 -0.31717932458E-02  0.51936871229E-01  0.52050811010E-01  0.51100000000E-03 0. -1.
    9000002    1    1    2    0    0 -0.25204001017E+00 -0.76979660260E-01  0.46577717962E-01  0.97542991477E+00  0.93800000000E+00 0. -1.
         22    1    1    2    0    0  0.25327570445E+00  0.80151453506E-01  0.39014853782E+01  0.39105192742E+01  0.00000000000E+00 0. -1.
</event>
<event>
 5    1  0.1537976E+002  0.1598766E+01  0.7818608E-02  0.3354704E+00
         11   -1    0    0    0    0  0.00000000000E+00  0.00000000000E+00  0.39999999674E+01  0.40000000000E+01  0.51100000000E-03 0. -1.
    9000002   -1    0    0    0    0 -0.00000000000E+00 -0.00000000000E+00  0.00000000000E+00  0.93800000000E+00  0.93800000000E+00 0. -1.
         11    1    1    2    0    0  0.12627457663E+00  0.87426330317E-01  0.13886134527E+01  0.13970813198E+01  0.51100000000E-03 0. -1.
    9000002    1    1    2    0    0 -0.32281629579E+00 -0.33539320317E+00  0.14831943612E+00  0.10576112786E+01  0.93800000000E+00 0. -1.
         22    1    1    2    0    0  0.19654171916E+00  0.24796687285E+00  0.24630670785E+01  0.24833074016E+01  0.00000000000E+00 0. -1.
</event>
<event>
 5    1  0.1537976E+002  0.1586054E+01  0.7818608E-02  0.3368641E+00
         11   -1    0    0    0    0  0.00000000000E+00  0.00000000000E+00  0.39999999674E+01  0.40000000000E+01  0.51100000000E-03 0.  1.
    9000002   -1    0    0    0    0 -0.00000000000E+00 -0.00000000000E+00  0.00000000000E+00  0.93800000000E+00  0.93800000000E+00 0. -1.
         11    1    1    2    0    0  0.98014311215E-02 -0.10074721600E+00  0.89006495910E+00  0.89580241244E+00  0.51100000000E-03 0.  1.
    9000002    1    1    2    0    0  0.17286193179E+00 -0.26272081061E-01  0.30405133637E-01  0.95464126344E+00  0.93800000000E+00 0. -1.
         22    1    1    2    0    0 -0.18266336291E+00  0.12701929706E+00  0.30795298746E+01  0.30875563241E+01  0.00000000000E+00 0.  1.
</event>
<event>
 5    1  0.1537976E+002  0.1574553E+01  0.7818608E-02  0.3381455E+00
         11   -1    0    0    0    0  0.00000000000E+00  0.00000000000E+00  0.39999999674E+01  0.40000000000E+01  0.51100000000E-03 0.  1.
    9000002   -1    0    0    0    0 -0.00000000000E+00 -0.00000000000E+00  0.00000000000E+00  0.93800000000E+00  0.93800000000E+00 0.  1.
         11    1    1    2    0    0  0.28366214255E-01  0.71333940702E-01  0.18305050216E+01  0.18321140981E+01  0.51100000000E-03 0.  1.
    9000002    1    1    2    0    0  0.26981369412E+00  0.87614281399E-01  0.73371263965E-01  0.98270190506E+00  0.93800000000E+00 0.  1.
         22    1    1    2    0    0 -0.29817990838E+00 -0.15894822210E+00  0.20961236818E+01  0.21231839969E+01  0.00000000000E+00 0.  1.
</event>
<event>
 5    1  0.1537976E+002  0.1593557E+01  0.7818608E-02  0.3360386E+00
         11   -1    0    0    0    0  0.00000000000E+00  0.00000000000E+00  0.39999999674E+01  0.40000000000E+01  0.51100000000E-03 0. -1.
    9000002   -1    0    0    0    0 -0.00000000000E+00 -0.00000000000E+00  0.00000000000E+00  0.93800000000E+00  0.93800000000E+00 0.  1.
         11    1    1    2    0    0  0.20487985073E-01  0.20226241210E-01  0.14504512164E+00  0.14787564640E+00  0.51100000000E-03 0. -1.
    9000002    1    1    2    0    0  0.18557093012E+00  0.64499038027E-01  0.30141004347E-01  0.95882697926E+00  0.93800000000E+00 0.  1.
         22    1    1    2    0    0 -0.20605891519E+00 -0.84725279237E-01  0.38248138414E+01  0.38312973743E+01  0.00000000000E+00 0. -1.
</event>
<event>
 5    1  0.1537976E+002  0.1599676E+01  0.7818608E-02  0.3353715E+00
         11   -1    0    0    0    0  0.00000000000E+00  0.00000000000E+00  0.39999999674E+01  0.40000000000E+01  0.51100000000E-03 0.  1.
    9000002   -1    0    0    0    0 -0.00000000000E+00 -0.00000000000E+00  0.00000000000E+00  0.93800000000E+00  0.93800000000E+00 0. -1.
         11    1    1    2    0    0  0.52991105274E-01  0.81585020521E-01  0.12542034397E+01  0.12579708670E+01  0.51100000000E-03 0.  1.
    9000002    1    1    2    0    0 -0.16905034420E+00 -0.25789513306E+00  0.63485141686E-01  0.98942522797E+00  0.93800000000E+00 0. -1.
         22    1    1    2    0    0  0.11605923893E+00  0.17631011253E+00  0.26823113859E+01  0.26906039051E+01  0.00000000000E+00 0.  1.
</event>
<event>
 5    1  0.1537976E+002  0.1599473E+01  0.7818608E-02  0.3353936E+00
         11   -1    0    0    0    0  0.00000000000E+00  0.00000000000E+00  0.39999999674E+01  0.40000000000E+01  0.51100000000E-03 0.  1.
    9000002   -1    0    0    0    0 -0.00000000000E+00 -0.00000000000E+00  0.00000000000E+00  0.93800000000E+00  0.93800000000E+00 0.  1.
         11    1    1    2    0    0  0.32265619103E-01 -0.55458088453E+00  0.20983919130E+01  0.21706795962E+01  0.51100000000E-03 0.  1.
    9000002    1    1    2    0    0 -0.77897842283E-01  0.89923590014E+00  0.62460569424E+00  0.14438384782E+01  0.93800000000E+00 0.  1.
         22    1    1    2    0    0  0.45632223179E-01 -0.34465501561E+00  0.12770023601E+01  0.13234819255E+01  0.00000000000E+00 0.  1.
</event>
<event>
 5    1  0.1537976E+002  0.1518289E+01  0.7818608E-02  0.3447122E+00
         11   -1    0    0    0    0  0.00000000000E+00  0.00000000000E+00  0.39999999674E+01  0.40000000000E+01  0.51100000000E-03 0. -1.
    9000002   -1    0    0    0    0 -0.00000000000E+00 -0.00000000000E+00  0.00000000000E+00  0.93800000000E+00  0.93800000000E+00 0.  1.
         11    1    1    2    0    0  0.12692425175E+00  0.18067090202E+00  0.48829166244E+00  0.53589247918E+00  0.51100000000E-03 0. -1.
    9000002    1    1    2    0    0  0.32442113895E-01  0.66544193068E-01  0.65310021763E-01  0.94318079885E+00  0.93800000000E+00 0.  1.
         22    1    1    2    0    0 -0.15936636565E+00 -0.24721509508E+00  0.34463982832E+01  0.34589267220E+01  0.00000000000E+00 0. -1.
</event>
<event>
 5    1  0.1537976E+002  0.1599671E+01  0.7818608E-02  0.3353721E+00
         11   -1    0    0    0    0  0.00000000000E+00  0.00000000000E+00  0.39999999674E+01  0.40000000000E+01  0.51100000000E-03 0. -1.
    9000002   -1    0    0    0    0 -0.00000000000E+00 -0.00000000000E+00  0.00000000000E+00  0.93800000000E+00  0.93800000000E+00 0. -1.
         11    1    1    2    0    0  0.50468616637E-01 -0.12522528992E+00  0.15520113098E+01  0.15578728515E+01  0.51100000000E-03 0. -1.
    9000002    1    1    2    0    0 -0.13159710720E+00  0.31048884346E+00  0.76150810814E-01  0.99968198270E+00  0.93800000000E+00 0. -1.
         22    1    1    2    0    0  0.81128490565E-01 -0.18526355355E+00  0.23718378467E+01  0.23804451658E+01  0.00000000000E+00 0. -1.
</event>
<event>
 5    1  0.1537976E+002  0.1599636E+01  0.7818608E-02  0.3353759E+00
         11   -1    0    0    0    0  0.00000000000E+00  0.00000000000E+00  0.39999999674E+01  0.40000000000E+01  0.51100000000E-03 0. -1.
    9000002   -1    0    0    0    0 -0.00000000000E+00 -0.00000000000E+00  0.00000000000E+00  0.93800000000E+00  0.93800000000E+00 0.  1.
         11    1    1    2    0    0 -0.21813974956E-01  0.90123636104E-01  0.12909679328E+01  0.12942938553E+01  0.51100000000E-03 0. -1.
    9000002    1    1    2    0    0  0.86770149743E-01 -0.28430646267E+00  0.58962745021E-01  0.98573821520E+00  0.93800000000E+00 0.  1.
         22    1    1    2    0    0 -0.64956174787E-01  0.19418282657E+00  0.26500692896E+01  0.26579679295E+01  0.00000000000E+00 0. -1.
</event>
<event>
 5    1  0.1537976E+002  0.1556930E+01  0.7818608E-02  0.3401479E+00
         11   -1    0    0    0    0  0.00000000000E+00  0.00000000000E+00  0.39999999674E+01  0.40000000000E+01  0.51100000000E-03 0.  1.
    9000002   -1    0    0    0    0 -0.00000000000E+00 -0.00000000000E+00  0.00000000000E+00  0.93800000000E+00  0.93800000000E+00 0. -1.
         11    1    1    2    0    0 -0.19787192189E+00  0.72809584481E-01  0.99062551410E+00  0.10128147429E+01  0.51100000000E-03 0.  1.
    9000002    1    1    2    0    0  0.75552660668E-01  0.19381372261E+00  0.61504332401E-01  0.96275580835E+00  0.93800000000E+00 0. -1.
         22    1    1    2    0    0  0.12231926123E+00 -0.26662330709E+00  0.29478701209E+01  0.29624294488E+01  0.00000000000E+00 0.  1.
</event>
<event>
 5    1  0.1537976E+002  0.1599670E+01  0.7818608E-02  0.3353721E+00
         11   -1    0    0    0    0  0.00000000000E+00  0.00000000000E+00  0.39999999674E+01  0.40000000000E+01  0.51100000000E-03 0.  1.
    9000002   -1    0    0    0    0 -0.00000000000E+00 -0.00000000000E+00  0.00000000000E+00  0.93800000000E+00  0.93800000000E+00 0.  1.
         11    1    1    2    0    0 -0.20936819718E+00 -0.69326347698E-01  0.17600070183E+01  0.17737717300E+01  0.51100000000E-03 0.  1.
    9000002    1    1    2    0    0  0.45106276124E+00  0.14946998531E+00  0.15395491511E+00  0.10627064538E+01  0.93800000000E+00 0.  1.
         22    1    1    2    0    0 -0.24169456407E+00 -0.80143637610E-01  0.20860380339E+01  0.21015218162E+01  0.00000000000E+00 0.  1.
</event>
<event>
 5    1  0.1537976E+002  0.1599105E+01  0.7818608E-02  0.3354336E+00
         11   -1    0    0    0    0  0.00000000000E+00  0.00000000000E+00  0.39999999674E+01  0.40000000000E+01  0.51100000000E-03 0.  1.
    9000002   -1    0    0    0    0 -0.00000000000E+00 -0.00000000000E+00  0.00000000000E+00  0.93800000000E+00  0.93800000000E+00 0. -1.
         11    1    1    2    0    0 -0.27345516551E-01  0.20263228263E-01  0.74143249742E+00  0.74221343631E+00  0.51100000000E-03 0.  1.
    9000002    1    1    2    0    0  0.25021208706E+00 -0.16546292425E+00  0.60477235708E-01  0.98665372034E+00  0.93800000000E+00 0. -1.
         22    1    1    2    0    0 -0.22286657051E+00  0.14519969599E+00  0.31980902342E+01  0.32091328434E+01  0.00000000000E+00 0.  1.
</event>
<event>
 5    1  0.1537976E+002  0.1599619E+01  0.7818608E-02  0.3353777E+00
         11   -1    0    0    0    0  0.00000000000E+00  0.00000000000E+00  0.39999999674E+01  0.40000000000E+01  0.51100000000E-03 0.  1.
    9000002   -1    0    0    0    0 -0.00000000000E+00 -0.00000000000E+00  0.00000000000E+00  0.93800000000E+00  0.93800000000E+00 0. -1.
         11    1    1    2    0    0 -0.14092330428E-01  0.12173759783E+00  0.96313270898E+00  0.97089830195E+00  0.51100000000E-03 0.  1.
    9000002    1    1    2    0    0  0.43540370751E-01 -0.45822607441E+00  0.14416841138E+00  0.10547489891E+01  0.93800000000E+00 0. -1.
         22    1    1    2    0    0 -0.29448040323E-01  0.33648847658E+00  0.28926988470E+01  0.29123527090E+01  0.00000000000E+00 0.  1.
</event>
<event>
 5    1  0.1537976E+002  0.1599631E+01  0.7818608E-02  0.3353764E+00
         11   -1    0    0    0    0  0.00000000000E+00  0.00000000000E+00  0.39999999674E+01  0.40000000000E+01  0.51100000000E-03 0.  1.
    9000002   -1    0    0    0    0 -0.00000000000E+00 -0.00000000000E+00  0.00000000000E+00  0.93800000000E+00  0.93800000000E+00 0. -1.
         11    1    1    2    0    0  0.10599759168E+00  0.30920935834E-01  0.12657752849E+01  0.12705821212E+01  0.51100000000E-03 0.  1.
    9000002    1    1    2    0    0 -0.31773920394E+00 -0.75108452116E-01  0.71334410706E-01  0.99575703836E+00  0.93800000000E+00 0. -1.
         22    1    1    2    0    0  0.21174161226E+00  0.44187516282E-01  0.26628902717E+01  0.26716608404E+01  0.00000000000E+00 0. -1.
</event>
<event>
 5    1  0.1537976E+002  0.1599563E+01  0.7818608E-02  0.3353837E+00
         11   -1    0    0    0    0  0.00000000000E+00  0.00000000000E+00  0.39999999674E+01  0.40000000000E+01  0.51100000000E-03 0. -1.
    9000002   -1    0    0    0    0 -0.00000000000E+00 -0.00000000000E+00  0.00000000000E+00  0.93800000000E+00  0.93800000000E+00 0.  1.
         11    1    1    2    0    0  0.75984790509E-01  0.11010344564E-01  0.80504919515E+00  0.80870228379E+00  0.51100000000E-03 0. -1.
    9000002    1    1    2    0    0 -0.32020048221E+00 -0.55328385975E-01  0.70701416506E-01  0.99520463695E+00  0.93800000000E+00 0.  1.
         22    1    1    2    0    0  0.24421569170E+00  0.44318041411E-01  0.31242493557E+01  0.31340930793E+01  0.00000000000E+00 0. -1.
</event>
<event>
 5    1  0.1537976E+002  0.1497321E+01  0.7818608E-02  0.3472948E+00
         11   -1    0    0    0    0  0.00000000000E+00  0.00000000000E+00  0.39999999674E+01  0.40000000000E+01  0.51100000000E-03 0. -1.
    9000002   -1    0    0    0    0 -0.00000000000E+00 -0.00000000000E+00  0.00000000000E+00  0.93800000000E+00  0.93800000000E+00 0.  1.
         11    1    1    2    0    0 -0.16040658267E+00  0.29233266035E+00  0.37489045129E+00  0.50172877898E+00  0.51100000000E-03 0. -1.
    9000002    1    1    2    0    0 -0.36360547516E+00 -0.11102960467E+00  0.28643899939E+00  0.10518687252E+01  0.93800000000E+00 0.  1.
         22    1    1    2    0    0  0.52401205783E+00 -0.18130305567E+00  0.33386705167E+01  0.33844024958E+01  0.00000000000E+00 0. -1.
</event>
<event>
 5    1  0.1537976E+002  0.1599677E+01  0.7818608E-02  0.3353714E+00
         11   -1    0    0    0    0  0.00000000000E+00  0.00000000000E+00  0.39999999674E+01  0.40000000000E+01  0.51100000000E-03 0.  1.
    9000002   -1    0    0    0    0 -0.00000000000E+00 -0.00000000000E+00  0.00000000000E+00  0.93800000000E+00  0.93800000000E+00 0. -1.
         11    1    1    2    0    0  0.12460305848E-01  0.25468671948E-01  0.48889032361E+00  0.48971208083E+00  0.51100000000E-03 0. -1.
    9000002    1    1    2    0    0 -0.10286616745E+00 -0.20829549634E+00  0.35804300075E-01  0.96700279736E+00  0.93800000000E+00 0. -1.
         22    1    1    2    0    0  0.90405861603E-01  0.18282682439E+00  0.34753053437E+01  0.34812851218E+01  0.00000000000E+00 0.  1.
</event>
<event>
 5    1  0.1537976E+002  0.1480975E+01  0.7818608E-02  0.3493629E+00
         11   -1    0    0    0    0  0.00000000000E+00  0.00000000000E+00  0.39999999674E+01  0.40000000000E+01  0.51100000000E-03 0. -1.
    9000002   -1    0    0    0    0 -0.00000000000E+00 -0.00000000000E+00  0.00000000000E+00  0.93800000000E+00  0.93800000000E+00 0.  1.
         11    1    1    2    0    0 -0.44569645556E-01  0.27572562251E+00  0.23341157184E+01  0.23507674321E+01  0.51100000000E-03 0. -1.
    9000002    1    1    2    0    0  0.17742740544E+00  0.20915231579E+00  0.14820625336E+00  0.98845043828E+00  0.93800000000E+00 0.  1.
         22    1    1    2    0    0 -0.13285775988E+00 -0.48487793830E+00  0.15176779956E+01  0.15987821296E+01  0.00000000000E+00 0.  1.
</event>
<event>
 5    1  0.1537976E+002  0.1599673E+01  0.7818608E-02  0.3353719E+00
         11   -1    0    0    0    0  0.00000000000E+00  0.00000000000E+00  0.39999999674E+01  0.40000000000E+01  0.51100000000E-03 0. -1.
    9000002   -1    0    0    0    0 -0.00000000000E+00 -0.00000000000E+00  0.00000000000E+00  0.93800000000E+00  0.93800000000E+00 0. -1.
         11    1    1    2    0    0  0.18078287895E-01 -0.32185392423E-01  0.54456289044E+00  0.54581290452E+00  0.51100000000E-03 0. -1.
    9000002    1    1    2    0    0 -0.13169815548E+00  0.22148707142E+00  0.44139221513E-01  0.97375212341E+00  0.93800000000E+00 0. -1.
         22    1    1    2    0    0  0.11361986758E+00 -0.18930167899E+00  0.34112978554E+01  0.34184349721E+01  0.00000000000E+00 0. -1.
</event>
<event>
 5    1  0.1537976E+002  0.1599677E+01  0.7818608E-02  0.3353714E+00
         11   -1    0    0    0    0  0.00000000000E+00  0.00000000000E+00  0.39999999674E+01  0.40000000000E+01  0.51100000000E-03 0. -1.
    9000002   -1    0    0    0    0 -0.00000000000E+00 -0.00000000000E+00  0.00000000000E+00  0.93800000000E+00  0.93800000000E+00 0.  1.
         11    1    1    2    0    0 -0.33691941524E-01  0.60210198931E-02  0.55733534548E+00  0.55838548338E+00  0.51100000000E-03 0. -1.
    9000002    1    1    2    0    0  0.24009243315E+00 -0.40106215414E-01  0.39341866445E-01  0.96986837634E+00  0.93800000000E+00 0.  1.
         22    1    1    2    0    0 -0.20640049163E+00  0.34085195521E-01  0.34033227554E+01  0.34097461403E+01  0.00000000000E+00 0. -1.
</event>
<event>
 5    1  0.1537976E+002  0.1599091E+01  0.7818608E-02  0.3354350E+00
         11   -1    0    0    0    0  0.00000000000E+00  0.00000000000E+00  0.39999999674E+01  0.40000000000E+01  0.51100000000E-03 0.  1.
    9000002   -1    0    0    0    0 -0.00000000000E+00 -0.00000000000E+00  0.00000000000E+00  0.93800000000E+00  0.93800000000E+00 0. -1.
         11    1    1    2    0    0 -0.13029109612E-01  0.42542478732E-02  0.64598443910E-01  0.66038446369E-01  0.51100000000E-03 0.  1.
    9000002    1    1    2    0    0  0.52738920428E+00  0.12468669695E+00  0.20309044608E+00  0.11021687142E+01  0.93800000000E+00 0. -1.
         22    1    1    2    0    0 -0.51436009467E+00 -0.12894094482E+00  0.37323110774E+01  0.37697928395E+01  0.00000000000E+00 0.  1.
</event>
<event>
 5    1  0.1537976E+002  0.1592817E+01  0.7818608E-02  0.3361197E+00
         11   -1    0    0    0    0  0.00000000000E+00  0.00000000000E+00  0.39999999674E+01  0.40000000000E+01  0.51100000000E-03 0.  1.
    9000002   -1    0    0    0    0 -0.00000000000E+00 -0.00000000000E+00  0.00000000000E+00  0.93800000000E+00  0.93800000000E+00 0.  1.
         11    1    1    2    0    0 -0.84689037116E-01  0.75702788489E-01  0.55026450011E+00  0.56186691164E+00  0.51100000000E-03 0.  1.
    9000002    1    1    2    0    0  0.20747458260E+00 -0.23957615156E+00  0.72553575178E-01  0.99274893910E+00  0.93800000000E+00 0.  1.
         22    1    1    2    0    0 -0.12278554549E+00  0.16387336307E+00  0.33771818921E+01  0.33833841493E+01  0.00000000000E+00 0.  1.
</event>
<event>
 5    1  0.1537976E+002  0.1599657E+01  0.7818608E-02  0.3353735E+00
         11   -1    0    0    0    0  0.00000000000E+00  0.00000000000E+00  0.39999999674E+01  0.40000000000E+01  0.51100000000E-03 0.  1.
    9000002   -1    0    0    0    0 -0.00000000000E+00 -0.00000000000E+00  0.00000000000E+00  0.93800000000E+00  0.93800000000E+00 0.  1.
         11    1    1    2    0    0 -0.17195202727E+00 -0.27905878196E+00  0.21386265268E+01  0.21636000060E+01  0.51100000000E-03 0.  1.
    9000002    1    1    2    0    0  0.30478751370E+00  0.48312687432E+00  0.22633337293E+00  0.11213285874E+01  0.93800000000E+00 0.  1.
         22    1    1    2    0    0 -0.13283548644E+00 -0.20406809236E+00  0.16350400676E+01  0.16530714066E+01  0.00000000000E+00 0.  1.
</event>
<event>
 5    1  0.1537976E+002  0.1551075E+01  0.7818608E-02  0.3408239E+00
         11   -1    0    0    0    0  0.00000000000E+00  0.00000000000E+00  0.39999999674E+01  0.40000000000E+01  0.51100000000E-03 0.  1.
    9000002   -1    0    0    0    0 -0.00000000000E+00 -0.00000000000E+00  0.00000000000E+00  0.93800000000E+00  0.93800000000E+00 0.  1.
         11    1    1    2    0    0 -0.53230419886E-01 -0.20167983519E+00  0.15556677034E+01  0.15695892769E+01  0.51100000000E-03 0.  1.
    9000002    1    1    2    0    0  0.17654236021E+00 -0.14458359118E+00  0.72291898752E-01  0.96806081338E+00  0.93800000000E+00 0.  1.
         22    1    1    2    0    0 -0.12331194032E+00  0.34626342637E+00  0.23720403652E+01  0.24003499097E+01  0.00000000000E+00 0.  1.
</event>
<event>
 5    1  0.1537976E+002  0.1572987E+01  0.7818608E-02  0.3383215E+00
         11   -1    0    0    0    0  0.00000000000E+00  0.00000000000E+00  0.39999999674E+01  0.40000000000E+01  0.51100000000E-03 0. -1.
    9000002   -1    0    0    0    0 -0.00000000000E+00 -0.00000000000E+00  0.00000000000E+00  0.93800000000E+00  0.93800000000E+00 0.  1.
         11    1    1    2    0    0 -0.23869547884E+00 -0.16822156414E+00  0.93521310720E+00  0.97974376408E+00  0.51100000000E-03 0. -1.
    9000002    1    1    2    0    0  0.45018586012E+00  0.21601628298E+00  0.19509785856E+00  0.10803876700E+01  0.93800000000E+00 0.  1.
         22    1    1    2    0    0 -0.21149038129E+00 -0.47794718843E-01  0.28696890016E+01  0.28778685659E+01  0.00000000000E+00 0. -1.
</event>
<event>
 5    1  0.1537976E+002  0.1501276E+01  0.7818608E-02  0.3468018E+00
         11   -1    0    0    0    0  0.00000000000E+00  0.00000000000E+00  0.39999999674E+01  0.40000000000E+01  0.51100000000E-03 0. -1.
    9000002   -1    0    0    0    0 -0.00000000000E+00 -0.00000000000E+00  0.00000000000E+00  0.93800000000E+00  0.93800000000E+00 0. -1.
         11    1    1    2    0    0 -0.13939293476E+00  0.22297356435E+00  0.71545448652E+00  0.76224863664E+00  0.51100000000E-03 0. -1.
    9000002    1    1    2    0    0  0.11759359735E+00  0.25595529436E+00  0.13349311847E+00  0.98843602703E+00  0.93800000000E+00 0. -1.
         22    1    1    2    0    0  0.21799337416E-01 -0.47892885871E+00  0.31510523624E+01  0.31873153363E+01  0.00000000000E+00 0. -1.
</event>
<event>
 5    1  0.1537976E+002  0.1596487E+01  0.7818608E-02  0.3357185E+00
         11   -1    0    0    0    0  0.00000000000E+00  0.00000000000E+00  0.39999999674E+01  0.40000000000E+01  0.51100000000E-03 0.  1.
    9000002   -1    0    0    0    0 -0.00000000000E+00 -0.00000000000E+00  0.00000000000E+00  0.93800000000E+00  0.93800000000E+00 0.  1.
         11    1    1    2    0    0 -0.29036778293E+00  0.10044621555E+00  0.26034623976E+01  0.26215300129E+01  0.51100000000E-03 0.  1.
    9000002    1    1    2    0    0  0.51113939915E+00 -0.17719545187E+00  0.20479014421E+00  0.11020184738E+01  0.93800000000E+00 0.  1.
         22    1    1    2    0    0 -0.22077161621E+00  0.76749236320E-01  0.11917474255E+01  0.12144515132E+01  0.00000000000E+00 0.  1.
</event>
<event>
 5    1  0.1537976E+002  0.1599170E+01  0.7818608E-02  0.3354264E+00
         11   -1    0    0    0    0  0.00000000000E+00  0.00000000000E+00  0.39999999674E+01  0.40000000000E+01  0.51100000000E-03 0. -1.
    9000002   -1    0    0    0    0 -0.00000000000E+00 -0.00000000000E+00  0.00000000000E+00  0.93800000000E+00  0.93800000000E+00 0.  1.
         11    1    1    2    0    0 -0.17768721356E+00  0.13274460939E+00  0.14782691163E+01  0.14948156135E+01  0.51100000000E-03 0. -1.
    9000002    1    1    2    0    0  0.39551105280E+00 -0.37111608130E+00  0.20335681171E+00  0.11024310099E+01  0.93800000000E+00 0.  1.
         22    1    1    2    0    0 -0.21782383924E+00  0.23837147191E+00  0.23183740394E+01  0.23407533766E+01  0.00000000000E+00 0.  1.
</event>
<event>
 5    1  0.1537976E+002  0.1575557E+01  0.7818608E-02  0.3380328E+00
         11   -1    0    0    0    0  0.00000000000E+00  0.00000000000E+00  0.39999999674E+01  0.40000000000E+01  0.51100000000E-03 0. -1.
    9000002   -1    0    0    0    0 -0.00000000000E+00 -0.00000000000E+00  0.00000000000E+00  0.93800000000E+00  0.93800000000E+00 0.  1.
         11    1    1    2    0    0 -0.10868841788E+00 -0.10564380673E-01  0.37828437679E+00  0.39373101118E+00  0.51100000000E-03 0. -1.
    9000002    1    1    2    0    0 -0.18617185658E-01  0.17950276656E+00  0.39715026616E-01  0.95602778524E+00  0.93800000000E+00 0.  1.
         22    1    1    2    0    0  0.12730560354E+00 -0.16893838589E+00  0.35820005639E+01  0.35882412036E+01  0.00000000000E+00 0. -1.
</event>
<event>
 5    1  0.1537976E+002  0.1557709E+01  0.7818608E-02  0.3400583E+00
         11   -1    0    0    0    0  0.00000000000E+00  0.00000000000E+00  0.39999999674E+01  0.40000000000E+01  0.51100000000E-03 0. -1.
    9000002   -1    0    0    0    0 -0.00000000000E+00 -0.00000000000E+00  0.00000000000E+00  0.93800000000E+00  0.93800000000E+00 0. -1.
         11    1    1    2    0    0  0.60891364004E-01  0.15080591286E+00  0.52754081058E+00  0.55204143822E+00  0.51100000000E-03 0. -1.
    9000002    1    1    2    0    0  0.95174853747E-01  0.75529978469E-02  0.37271110905E-01  0.94358276599E+00  0.93800000000E+00 0. -1.
         22    1    1    2    0    0 -0.15606621775E+00 -0.15835891071E+00  0.34351880459E+01  0.34423757958E+01  0.00000000000E+00 0. -1.
</event>
<event>
 5    1  0.1537976E+002  0.1599675E+01  0.7818608E-02  0.3353716E+00
         11   -1    0    0    0    0  0.00000000000E+00  0.00000000000E+00  0.39999999674E+01  0.40000000000E+01  0.51100000000E-03 0. -1.
    9000002   -1    0    0    0    0 -0.00000000000E+00 -0.00000000000E+00  0.00000000000E+00  0.93800000000E+00  0.93800000000E+00 0. -1.
         11    1    1    2    0    0  0.10928618378E-01 -0.66384642072E-02  0.22680278255E+00  0.22716352524E+00  0.51100000000E-03 0. -1.
    9000002    1    1    2    0    0 -0.18721415167E+00  0.12729110726E+00  0.33989479671E-01  0.96553169254E+00  0.93800000000E+00 0. -1.
         22    1    1    2    0    0  0.17628553330E+00 -0.12065264306E+00  0.37392077051E+01  0.37453047822E+01  0.00000000000E+00 0. -1.
</event>
<event>
 5    1  0.1537976E+002  0.1599652E+01  0.7818608E-02  0.3353741E+00
         11   -1    0    0    0    0  0.00000000000E+00  0.00000000000E+00  0.39999999674E+01  0.40000000000E+01  0.51100000000E-03 0.  1.
    9000002   -1    0    0    0    0 -0.00000000000E+00 -0.00000000000E+00  0.00000000000E+00  0.93800000000E+00  0.93800000000E+00 0.  1.
         11    1    1    2    0    0 -0.46202125134E-02  0.55598407257E-01  0.75238155768E+00  0.75444734655E+00  0.51100000000E-03 0.  1.
    9000002    1    1    2    0    0  0.67436967397E-02 -0.27434757840E+00  0.50146940942E-01  0.97860655368E+00  0.93800000000E+00 0.  1.
         22    1    1    2    0    0 -0.21234842263E-02  0.21874917114E+00  0.31974714687E+01  0.32049460998E+01  0.00000000000E+00 0.  1.
</event>
<event>
 5    1  0.1537976E+002  0.1599676E+01  0.7818608E-02  0.3353715E+00
         11   -1    0    0    0    0  0.00000000000E+00  0.00000000000E+00  0.39999999674E+01  0.40000000000E+01  0.51100000000E-03 0.  1.
    9000002   -1    0    0    0    0 -0.00000000000E+00 -0.00000000000E+00  0.00000000000E+00  0.93800000000E+00  0.93800000000E+00 0. -1.
         11    1    1    2    0    0  0.11885756580E+00  0.14327474119E+00  0.15772927163E+01  0.15882403302E+01  0.51100000000E-03 0.  1.
    9000002    1    1    2    0    0 -0.29203017985E+00 -0.35343008204E+00  0.14294236835E+00  0.10537888638E+01  0.93800000000E+00 0. -1.
         22    1    1    2    0    0  0.17317261405E+00  0.21015534085E+00  0.22797648827E+01  0.22959708060E+01  0.00000000000E+00 0.  1.
</event>
<event>
 5    1  0.1537976E+002  0.1599655E+01  0.7818608E-02  0.3353738E+00
         11   -1    0    0    0    0  0.00000000000E+00  0.00000000000E+00  0.39999999674E+01  0.40000000000E+01  0.51100000000E-03 0.  1.
    9000002   -1    0    0    0    0 -0.00000000000E+00 -0.00000000000E+00  0.00000000000E+00  0.93800000000E+00  0.93800000000E+00 0. -1.
         11    1    1    2    0    0  0.15756090482E+00 -0.23555942281E-01  0.15341289346E+01  0.15423787377E+01  0.51100000000E-03 0.  1.
    9000002    1    1    2    0    0 -0.39209611836E+00  0.71452030501E-01  0.10714236790E+00  0.10247771688E+01  0.93800000000E+00 0. -1.
         22    1    1    2    0    0  0.23453521354E+00 -0.47896088220E-01  0.23587286648E+01  0.23708440935E+01  0.00000000000E+00 0.  1.
</event>
<event>
 5    1  0.1537976E+002  0.1599568E+01  0.7818608E-02  0.3353832E+00
         11   -1    0    0    0    0  0.00000000000E+00  0.00000000000E+00  0.39999999674E+01  0.40000000000E+01  0.51100000000E-03 0. -1.
    9000002   -1    0    0    0    0 -0.00000000000E+00 -0.00000000000E+00  0.00000000000E+00  0.93800000000E+00  0.93800000000E+00 0.  1.
         11    1    1    2    0    0  0.32566178030E+00  0.11669642951E-01  0.15670512150E+01  0.16005753801E+01  0.51100000000E-03 0. -1.
    9000002    1    1    2    0    0 -0.74718431256E+00  0.17830180479E-02  0.40450847702E+00  0.12656060541E+01  0.93800000000E+00 0.  1.
         22    1    1    2    0    0  0.42152253227E+00 -0.13452660999E-01  0.20284402753E+01  0.20718185659E+01  0.00000000000E+00 0. -1.
</event>
<event>
 5    1  0.1537976E+002  0.1579647E+01  0.7818608E-02  0.3375754E+00
         11   -1    0    0    0    0  0.00000000000E+00  0.00000000000E+00  0.39999999674E+01  0.40000000000E+01  0.51100000000E-03 0.  1.
    9000002   -1    0    0    0    0 -0.00000000000E+00 -0.00000000000E+00  0.00000000000E+00  0.93800000000E+00  0.93800000000E+00 0. -1.
         11    1    1    2    0    0  0.11565356840E+00  0.23150083911E+00  0.26524846770E+01  0.26650785372E+01  0.51100000000E-03 0.  1.
    9000002    1    1    2    0    0 -0.39226967406E+00 -0.31830806526E+00  0.19320405943E+00  0.10827591284E+01  0.93800000000E+00 0. -1.
         22    1    1    2    0    0  0.27661610566E+00  0.86807226145E-01  0.11543112309E+01  0.11901623344E+01  0.00000000000E+00 0.  1.
</event>
<event>
 5    1  0.1537976E+002  0.1596851E+01  0.7818608E-02  0.3356788E+00
         11   -1    0    0    0    0  0.00000000000E+00  0.00000000000E+00  0.39999999674E+01  0.40000000000E+01  0.51100000000E-03 0. -1.
    9000002   -1    0    0    0    0 -0.00000000000E+00 -0.00000000000E+00  0.00000000000E+00  0.93800000000E+00  0.93800000000E+00 0. -1.
         11    1    1    2    0    0  0.32246624309E-01  0.33872158672E-02  0.25364134499E+00  0.25570590728E+00  0.51100000000E-03 0. -1.
    9000002    1    1    2    0    0 -0.17559943605E+00 -0.41671530060E+00  0.14137842346E+00  0.10508656728E+01  0.93800000000E+00 0. -1.
         22    1    1    2    0    0  0.14335281174E+00  0.41332808473E+00  0.36049801989E+01  0.36314284199E+01  0.00000000000E+00 0. -1.
</event>
<event>
 5    1  0.1537976E+002  0.1560711E+01  0.7818608E-02  0.3397142E+00
         11   -1    0    0    0    0  0.00000000000E+00  0.00000000000E+00  0.39999999674E+01  0.40000000000E+01  0.51100000000E-03 0. -1.
    9000002   -1    0    0    0    0 -0.00000000000E+00 -0.00000000000E+00  0.00000000000E+00  0.93800000000E+00  0.93800000000E+00 0. -1.
         11    1    1    2    0    0 -0.14839016520E+00  0.12088609112E+00  0.24614519365E+01  0.24688821327E+01  0.51100000000E-03 0. -1.
    9000002    1    1    2    0    0 -0.10289704102E+00 -0.49304645688E-01  0.37668111193E-01  0.94566465290E+00  0.93800000000E+00 0. -1.
         22    1    1    2    0    0  0.25128720621E+00 -0.71581445428E-01  0.15008799196E+01  0.15234532144E+01  0.00000000000E+00 0. -1.
</event>
<event>
 5    1  0.1537976E+002  0.1594517E+01  0.7818608E-02  0.3359337E+00
         11   -1    0    0    0    0  0.00000000000E+00  0.00000000000E+00  0.39999999674E+01  0.40000000000E+01  0.51100000000E-03 0.  1.
    9000002   -1    0    0    0    0 -0.00000000000E+00 -0.00000000000E+00  0.00000000000E+00  0.93800000000E+00  0.93800000000E+00 0. -1.
         11    1    1    2    0    0 -0.19246226998E-02 -0.28765037879E-01  0.86696948443E-01  0.91366041651E-01  0.51100000000E-03 0.  1.
    9000002    1    1    2    0    0  0.24487533587E+00  0.14894611641E+00  0.58758242417E-01  0.98257081514E+00  0.93800000000E+00 0. -1.
         22    1    1    2    0    0 -0.24295071317E+00 -0.12018107853E+00  0.38545447765E+01  0.38640631432E+01  0.00000000000E+00 0.  1.
</event>
<event>
 5    1  0.1537976E+002  0.1563180E+01  0.7818608E-02  0.3394323E+00
         11   -1    0    0    0    0  0.00000000000E+00  0.00000000000E+00  0.39999999674E+01  0.40000000000E+01  0.51100000000E-03 0.  1.
    9000002   -1    0    0    0    0 -0.00000000000E+00 -0.00000000000E+00  0.00000000000E+00  0.93800000000E+00  0.93800000000E+00 0. -1.
         11    1    1    2    0    0 -0.17895569109E+00 -0.29296438348E+00  0.22605612199E+01  0.22864799495E+01  0.51100000000E-03 0.  1.
    9000002    1    1    2    0    0  0.39320935567E+00  0.12365065480E+00  0.14608380413E+00  0.10349336016E+01  0.93800000000E+00 0. -1.
         22    1    1    2    0    0 -0.21425366457E+00  0.16931372868E+00  0.15933549433E+01  0.16165864489E+01  0.00000000000E+00 0.  1.
</event>
<event>
 5    1  0.1537976E+002  0.1597302E+01  0.7818608E-02  0.3356297E+00
         11   -1    0    0    0    0  0.00000000000E+00  0.00000000000E+00  0.39999999674E+01  0.40000000000E+01  0.51100000000E-03 0. -1.
    9000002   -1    0    0    0    0 -0.00000000000E+00 -0.00000000000E+00  0.00000000000E+00  0.93800000000E+00  0.93800000000E+00 0. -1.
         11    1    1    2    0    0 -0.31443499278E-02 -0.25974861281E-01  0.82751554100E+00  0.82792923132E+00  0.51100000000E-03 0. -1.
    9000002    1    1    2    0    0 -0.15896985853E+00  0.27011133003E+00  0.67490098158E-01  0.99127718620E+00  0.93800000000E+00 0. -1.
         22    1    1    2    0    0  0.16211420845E+00 -0.24413646875E+00  0.31049943282E+01  0.31187935825E+01  0.00000000000E+00 0. -1.
</event>
<event>
 5    1  0.1537976E+002  0.1599677E+01  0.7818608E-02  0.3353714E+00
         11   -1    0    0    0    0  0.00000000000E+00  0.00000000000E+00  0.39999999674E+01  0.40000000000E+01  0.51100000000E-03 0.  1.
    9000002   -1    0    0    0    0 -0.00000000000E+00 -0.00000000000E+00  0.00000000000E+00  0.93800000000E+00  0.93800000000E+00 0. -1.
         11    1    1    2    0    0  0.58154461015E-01  0.36531834107E-01  0.96828264650E+00  0.97071523161E+00  0.51100000000E-03 0. -1.
    9000002    1    1    2    0    0 -0.23695573265E+00 -0.14816033040E+00  0.52005356947E-01  0.98012655300E+00  0.93800000000E+00 0. -1.
         22    1    1    2    0    0  0.17880127164E+00  0.11162849629E+00  0.29797119639E+01  0.29871582154E+01  0.00000000000E+00 0.  1.
</event>
<event>
 5    1  0.1537976E+002  0.1599673E+01  0.7818608E-02  0.3353718E+00
         11   -1    0    0    0    0  0.00000000000E+00  0.00000000000E+00  0.39999999674E+01  0.40000000000E+01  0.51100000000E-03 0.  1.
    9000002   -1    0    0    0    0 -0.00000000000E+00 -0.00000000000E+00  0.00000000000E+00  0.93800000000E+00  0.93800000000E+00 0.  1.
         11    1    1    2    0    0 -0.18701961175E+00 -0.29762792599E-01  0.14964018326E+01  0.15083371191E+01  0.51100000000E-03 0.  1.
    9000002    1    1    2    0    0  0.48343258867E+00  0.80564430691E-01  0.16416247310E+00  0.10709766631E+01  0.93800000000E+00 0.  1.
         22    1    1    2    0    0 -0.29641297692E+00 -0.50801638091E-01  0.23394356616E+01  0.23586862179E+01  0.00000000000E+00 0.  1.
</event>
<event>
 5    1  0.1537976E+002  0.1533287E+01  0.7818608E-02  0.3429114E+00
         11   -1    0    0    0    0  0.00000000000E+00  0.00000000000E+00  0.39999999674E+01  0.40000000000E+01  0.51100000000E-03 0. -1.
    9000002   -1    0    0    0    0 -0.00000000000E+00 -0.00000000000E+00  0.00000000000E+00  0.93800000000E+00  0.93800000000E+00 0.  1.
         11    1    1    2    0    0  0.99908407421E-01  0.19435156743E+00  0.80241430276E+00  0.83163886155E+00  0.51100000000E-03 0. -1.
    9000002    1    1    2    0    0 -0.12592254582E+00  0.22214276100E+00  0.96040720125E-01  0.97686831955E+00  0.93800000000E+00 0.  1.
         22    1    1    2    0    0  0.26014138399E-01 -0.41649432843E+00  0.31015449445E+01  0.31294928189E+01  0.00000000000E+00 0. -1.
</event>
<event>
 5    1  0.1537976E+002  0.1594229E+01  0.7818608E-02  0.3359651E+00
         11   -1    0    0    0    0  0.00000000000E+00  0.00000000000E+00  0.39999999674E+01  0.40000000000E+01  0.51100000000E-03 0.  1.
    9000002   -1    0    0    0    0 -0.00000000000E+00 -0.00000000000E+00  0.00000000000E+00  0.93800000000E+00  0.93800000000E+00 0. -1.
         11    1    1    2    0    0 -0.29456471894E-01  0.12179704601E-01  0.94439829596E-01  0.99675330326E-01  0.51100000000E-03 0.  1.
    9000002    1    1    2    0    0  0.23020105017E+00  0.59591761274E-01  0.41680862003E-01  0.96856852921E+00  0.93800000000E+00 0. -1.
         22    1    1    2    0    0 -0.20074457828E+00 -0.71771465875E-01  0.38638792758E+01  0.38697561405E+01  0.00000000000E+00 0.  1.
</event>
<event>
 5    1  0.1537976E+002  0.1599668E+01  0.7818608E-02  0.3353724E+00
         11   -1    0    0    0    0  0.00000000000E+00  0.00000000000E+00  0.39999999674E+01  0.40000000000E+01  0.51100000000E-03 0.  1.
    9000002   -1    0    0    0    0 -0.00000000000E+00 -0.00000000000E+00  0.00000000000E+00  0.93800000000E+00  0.93800000000E+00 0. -1.
         11    1    1    2    0    0 -0.44006529576E-01  0.27196070325E+00  0.21671528316E+01  0.21845939795E+01  0.51100000000E-03 0.  1.
    9000002    1    1    2    0    0  0.80353873264E-01 -0.47593636470E+00  0.15903753655E+00  0.10668219656E+01  0.93800000000E+00 0. -1.
         22    1    1    2    0    0 -0.36347343688E-01  0.20397566145E+00  0.16738095992E+01  0.16865840549E+01  0.00000000000E+00 0.  1.
</event>
<event>
 5    1  0.1537976E+002  0.1599552E+01  0.7818608E-02  0.3353850E+00
         11   -1    0    0    0    0  0.00000000000E+00  0.00000000000E+00  0.39999999674E+01  0.40000000000E+01  0.51100000000E-03 0.  1.
    9000002   -1    0    0    0    0 -0.00000000000E+00 -0.00000000000E+00  0.00000000000E+00  0.93800000000E+00  0.93800000000E+00 0.  1.
         11    1    1    2    0    0 -0.23815893579E-01 -0.58140288785E-01  0.76463505155E+00  0.76721216957E+00  0.51100000000E-03 0.  1.
    9000002    1    1    2    0    0  0.92328810151E-01  0.25465462555E+00  0.48919556938E-01  0.97755343105E+00  0.93800000000E+00 0.  1.
         22    1    1    2    0    0 -0.68512916572E-01 -0.19651433677E+00  0.31864453589E+01  0.31932343994E+01  0.00000000000E+00 0.  1.
</event>
<event>
 5    1  0.1537976E+002  0.1599676E+01  0.7818608E-02  0.3353715E+00
         11   -1    0    0    0    0  0.00000000000E+00  0.00000000000E+00  0.39999999674E+01  0.40000000000E+01  0.51100000000E-03 0.  1.
    9000002   -1    0    0    0    0 -0.00000000000E+00 -0.00000000000E+00  0.00000000000E+00  0.93800000000E+00  0.93800000000E+00 0. -1.
         11    1    1    2    0    0 -0.10252143384E-01 -0.25289104280E-01  0.43356666923E+00  0.43442486465E+00  0.51100000000E-03 0. -1.
    9000002    1    1    2    0    0  0.98548128675E-01  0.22981196481E+00  0.41535718810E-01  0.97164524842E+00  0.93800000000E+00 0. -1.
         22    1    1    2    0    0 -0.88295985290E-01 -0.20452286053E+00  0.35248975793E+01  0.35319298869E+01  0.00000000000E+00 0.  1.
</event>
<event>
 5    1  0.1537976E+002  0.1596568E+01  0.7818608E-02  0.3357096E+00
         11   -1    0    0    0    0  0.00000000000E+00  0.00000000000E+00  0.39999999674E+01  0.40000000000E+01  0.51100000000E-03 0.  1.
    9000002   -1    0    0    0    0 -0.00000000000E+00 -0.00000000000E+00  0.00000000000E+00  0.93800000000E+00  0.93800000000E+00 0.  1.
         11    1    1    2    0    0 -0.69276393480E-01  0.59598414101E-02  0.11935446827E+01  0.11955684460E+01  0.51100000000E-03 0.  1.
    9000002    1    1    2    0    0  0.18819801755E+00  0.18009261572E+00  0.47500819074E-01  0.97465489885E+00  0.93800000000E+00 0.  1.
         22    1    1    2    0    0 -0.11892162407E+00 -0.18605245713E+00  0.27589544656E+01  0.27677766551E+01  0.00000000000E+00 0.  1.
</event>
<event>
 5    1  0.1537976E+002  0.1459151E+01  0.7818608E-02  0.3522021E+00
         11   -1    0    0    0    0  0.00000000000E+00  0.00000000000E+00  0.39999999674E+01  0.40000000000E+01  0.51100000000E-03 0. -1.
    9000002   -1    0    0    0    0 -0.00000000000E+00 -0.00000000000E+00  0.00000000000E+00  0.93800000000E+00  0.93800000000E+00 0. -1.
         11    1    1    2    0    0  0.14667301649E+00 -0.27422448471E+00  0.36943136641E+00  0.48289940711E+00  0.51100000000E-03 0. -1.
    9000002    1    1    2    0    0 -0.48522269838E+00 -0.18862598630E+00  0.35541974272E+00  0.11301274367E+01  0.93800000000E+00 0. -1.
         22    1    1    2    0    0  0.33854968190E+00  0.46285047100E+00  0.32751488582E+01  0.33249731562E+01  0.00000000000E+00 0. -1.
</event>
<event>
 5    1  0.1537976E+002  0.1567505E+01  0.7818608E-02  0.3389406E+00
         11   -1    0    0    0    0  0.00000000000E+00  0.00000000000E+00  0.39999999674E+01  0.40000000000E+01  0.51100000000E-03 0. -1.
    9000002   -1    0    0    0    0 -0.00000000000E+00 -0.00000000000E+00  0.00000000000E+00  0.93800000000E+00  0.93800000000E+00 0. -1.
         11    1    1    2    0    0  0.15033591741E+00  0.40629207714E-01  0.24707430071E+01  0.24756459538E+01  0.51100000000E-03 0. -1.
    9000002    1    1    2    0    0  0.74912208881E-01  0.49602048509E-01  0.29144520217E-01  0.94274365833E+00  0.93800000000E+00 0. -1.
         22    1    1    2    0    0 -0.22524812629E+00 -0.90231256222E-01  0.15001124400E+01  0.15196103878E+01  0.00000000000E+00 0. -1.
</event>
<event>
 5    1  0.1537976E+002  0.1597067E+01  0.7818608E-02  0.3356553E+00
         11   -1    0    0    0    0  0.00000000000E+00  0.00000000000E+00  0.39999999674E+01  0.40000000000E+01  0.51100000000E-03 0. -1.
    9000002   -1    0    0    0    0 -0.00000000000E+00 -0.00000000000E+00  0.00000000000E+00  0.93800000000E+00  0.93800000000E+00 0. -1.
         11    1    1    2    0    0 -0.14679042867E+00 -0.30703014297E-01  0.10312352263E+01  0.10420827502E+01  0.51100000000E-03 0. -1.
    9000002    1    1    2    0    0  0.36698568924E+00  0.33443657031E-01  0.93374239989E-01  0.10121065769E+01  0.93800000000E+00 0. -1.
         22    1    1    2    0    0 -0.22019526057E+00 -0.27406427345E-02  0.28753905010E+01  0.28838106729E+01  0.00000000000E+00 0.  1.
</event>
<event>
 5    1  0.1537976E+002  0.1599677E+01  0.7818608E-02  0.3353714E+00
         11   -1    0    0    0    0  0.00000000000E+00  0.00000000000E+00  0.39999999674E+01  0.40000000000E+01  0.51100000000E-03 0.  1.
    9000002   -1    0    0    0    0 -0.00000000000E+00 -0.00000000000E+00  0.00000000000E+00  0.93800000000E+00  0.93800000000E+00 0. -1.
         11    1    1    2    0    0  0.15091757935E+00 -0.14935483829E-01  0.16720559624E+01  0.16789194701E+01  0.51100000000E-03 0.  1.
    9000002    1    1    2    0    0 -0.35309449811E+00  0.35882535022E-01  0.84505903040E-01  0.10064534408E+01  0.93800000000E+00 0. -1.
         22    1    1    2    0    0  0.20217691876E+00 -0.20947051193E-01  0.22434381019E+01  0.22526270891E+01  0.00000000000E+00 0.  1.
</event>
<event>
 5    1  0.1537976E+002  0.1539050E+01  0.7818608E-02  0.3422295E+00
         11   -1    0    0    0    0  0.00000000000E+00  0.00000000000E+00  0.39999999674E+01  0.40000000000E+01  0.51100000000E-03 0. -1.
    9000002   -1    0    0    0    0 -0.00000000000E+00 -0.00000000000E+00  0.00000000000E+00  0.93800000000E+00  0.93800000000E+00 0.  1.
         11    1    1    2    0    0 -0.17095025483E+00 -0.26061698949E+00  0.13544967717E+01  0.13898945897E+01  0.51100000000E-03 0. -1.
    9000002    1    1    2    0    0  0.10031848932E+00  0.40362055209E-01  0.53419654319E-01  0.94572223949E+00  0.93800000000E+00 0.  1.
         22    1    1    2    0    0  0.70631765506E-01  0.22025493428E+00  0.25920835414E+01  0.26023831708E+01  0.00000000000E+00 0. -1.
</event>
<event>
 5    1  0.1537976E+002  0.1513928E+01  0.7818608E-02  0.3452431E+00
         11   -1    0    0    0    0  0.00000000000E+00  0.00000000000E+00  0.39999999674E+01  0.40000000000E+01  0.51100000000E-03 0.  1.
    9000002   -1    0    0    0    0 -0.00000000000E+00 -0.00000000000E+00  0.00000000000E+00  0.93800000000E+00  0.93800000000E+00 0.  1.
         11    1    1    2    0    0  0.25129737432E+00 -0.83870130494E-01  0.28820231302E+01  0.28941738292E+01  0.51100000000E-03 0.  1.
    9000002    1    1    2    0    0 -0.84138761979E-01 -0.22148298456E+00  0.10552260876E+00  0.97319734108E+00  0.93800000000E+00 0.  1.
         22    1    1    2    0    0 -0.16715861234E+00  0.30535311506E+00  0.10124542284E+01  0.10706288297E+01  0.00000000000E+00 0. -1.
</event>
<event>
 5    1  0.1537976E+002  0.1599589E+01  0.7818608E-02  0.3353810E+00
         11   -1    0    0    0    0  0.00000000000E+00  0.00000000000E+00  0.39999999674E+01  0.40000000000E+01  0.51100000000E-03 0.  1.
    9000002   -1    0    0    0    0 -0.00000000000E+00 -0.00000000000E+00  0.00000000000E+00  0.93800000000E+00  0.93800000000E+00 0.  1.
         11    1    1    2    0    0 -0.64954741654E-01  0.54677415109E-01  0.10599970451E+01  0.10633920890E+01  0.51100000000E-03 0.  1.
    9000002    1    1    2    0    0  0.26735231065E+00 -0.17655141869E+00  0.68682426767E-01  0.99358388533E+00  0.93800000000E+00 0.  1.
         22    1    1    2    0    0 -0.20239756899E+00  0.12187400358E+00  0.28713204955E+01  0.28810240257E+01  0.00000000000E+00 0.  1.
</event>
<event>
 5    1  0.1537976E+002  0.1598867E+01  0.7818608E-02  0.3354594E+00
         11   -1    0    0    0    0  0.00000000000E+00  0.00000000000E+00  0.39999999674E+01  0.40000000000E+01  0.51100000000E-03 0. -1.
    9000002   -1    0    0    0    0 -0.00000000000E+00 -0.00000000000E+00  0.00000000000E+00  0.93800000000E+00  0.93800000000E+00 0.  1.
         11    1    1    2    0    0 -0.30124032095E+00 -0.17581869604E+00  0.23449147730E+01  0.23707137108E+01  0.51100000000E-03 0. -1.
    9000002    1    1    2    0    0  0.52834323758E+00  0.25361941232E+00  0.23973020117E+00  0.11317172581E+01  0.93800000000E+00 0.  1.
         22    1    1    2    0    0 -0.22710291663E+00 -0.77800716276E-01  0.14153549932E+01  0.14355690311E+01  0.00000000000E+00 0.  1.
</event>
<event>
 5    1  0.1537976E+002  0.1481865E+01  0.7818608E-02  0.3492490E+00
         11   -1    0    0    0    0  0.00000000000E+00  0.00000000000E+00  0.39999999674E+01  0.40000000000E+01  0.51100000000E-03 0. -1.
    9000002   -1    0    0    0    0 -0.00000000000E+00 -0.00000000000E+00  0.00000000000E+00  0.93800000000E+00  0.93800000000E+00 0.  1.
         11    1    1    2    0    0  0.29366957561E+00 -0.19717148198E+00  0.78939879430E+00  0.86502550859E+00  0.51100000000E-03 0. -1.
    9000002    1    1    2    0    0 -0.30927279102E-01  0.10602573300E+00  0.99767281734E-01  0.94973441717E+00  0.93800000000E+00 0.  1.
         22    1    1    2    0    0 -0.26274229651E+00  0.91145748984E-01  0.31108338913E+01  0.31232400742E+01  0.00000000000E+00 0. -1.
</event>
<event>
 5    1  0.1537976E+002  0.1599379E+01  0.7818608E-02  0.3354038E+00
         11   -1    0    0    0    0  0.00000000000E+00  0.00000000000E+00  0.39999999674E+01  0.40000000000E+01  0.51100000000E-03 0. -1.
    9000002   -1    0    0    0    0 -0.00000000000E+00 -0.00000000000E+00  0.00000000000E+00  0.93800000000E+00  0.93800000000E+00 0. -1.
         11    1    1    2    0    0 -0.68725845288E-02 -0.11803705087E+00  0.13955519617E+01  0.14005518615E+01  0.51100000000E-03 0. -1.
    9000002    1    1    2    0    0 -0.24957615020E-01  0.36487843036E+00  0.90089124362E-01  0.10108012672E+01  0.93800000000E+00 0. -1.
         22    1    1    2    0    0  0.31830199549E-01 -0.24684137949E+00  0.25143588813E+01  0.25266468713E+01  0.00000000000E+00 0. -1.
</event>
<event>
 5    1  0.1537976E+002  0.1578127E+01  0.7818608E-02  0.3377452E+00
         11   -1    0    0    0    0  0.00000000000E+00  0.00000000000E+00  0.39999999674E+01  0.40000000000E+01  0.51100000000E-03 0.  1.
    9000002   -1    0    0    0    0 -0.00000000000E+00 -0.00000000000E+00  0.00000000000E+00  0.93800000000E+00  0.93800000000E+00 0.  1.
         11    1    1    2    0    0 -0.88874761759E-01 -0.63595410630E-01  0.61282591917E+00  0.62249415087E+00  0.51100000000E-03 0.  1.
    9000002    1    1    2    0    0 -0.11661361816E+00 -0.41861409161E-01  0.26102303207E-01  0.94650749799E+00  0.93800000000E+00 0.  1.
         22    1    1    2    0    0  0.20548837992E+00  0.10545681979E+00  0.33610717450E+01  0.33689983511E+01  0.00000000000E+00 0. -1.
</event>
<event>
 5    1  0.1537976E+002  0.1531967E+01  0.7818608E-02  0.3430684E+00
         11   -1    0    0    0    0  0.00000000000E+00  0.00000000000E+00  0.39999999674E+01  0.40000000000E+01  0.51100000000E-03 0. -1.
    9000002   -1    0    0    0    0 -0.00000000000E+00 -0.00000000000E+00  0.00000000000E+00  0.93800000000E+00  0.93800000000E+00 0. -1.
         11    1    1    2    0    0 -0.66540023548E-02  0.34865338113E+00  0.20018424801E+01  0.20319884429E+01  0.51100000000E-03 0. -1.
    9000002    1    1    2    0    0 -0.28224778621E-01 -0.71467915329E-01  0.54864535197E-01  0.94273984655E+00  0.93800000000E+00 0. -1.
         22    1    1    2    0    0  0.34878780975E-01 -0.27718546581E+00  0.19432929521E+01  0.19632717105E+01  0.00000000000E+00 0. -1.
</event>
<event>
 5    1  0.1537976E+002  0.1377933E+01  0.7818608E-02  0.3642910E+00
         11   -1    0    0    0    0  0.00000000000E+00  0.00000000000E+00  0.39999999674E+01  0.40000000000E+01  0.51100000000E-03 0. -1.
    9000002   -1    0    0    0    0 -0.00000000000E+00 -0.00000000000E+00  0.00000000000E+00  0.93800000000E+00  0.93800000000E+00 0. -1.
         11    1    1    2    0    0 -0.23630843316E+00  0.33785551437E+00  0.25057724286E+01  0.25394652487E+01  0.51100000000E-03 0. -1.
    9000002    1    1    2    0    0 -0.45570730325E-01  0.20184812912E+00  0.21870546692E+00  0.98513726960E+00  0.93800000000E+00 0. -1.
         22    1    1    2    0    0  0.28187916349E+00 -0.53970364350E+00  0.12755220718E+01  0.14133974817E+01  0.00000000000E+00 0. -1.
</event>
<event>
 5    1  0.1537976E+002  0.1599645E+01  0.7818608E-02  0.3353749E+00
         11   -1    0    0    0    0  0.00000000000E+00  0.00000000000E+00  0.39999999674E+01  0.40000000000E+01  0.51100000000E-03 0. -1.
    9000002   -1    0    0    0    0 -0.00000000000E+00 -0.00000000000E+00  0.00000000000E+00  0.93800000000E+00  0.93800000000E+00 0. -1.
         11    1    1    2    0    0 -0.38183322050E-01 -0.23447298401E+00  0.21557889891E+01  0.21688388536E+01  0.51100000000E-03 0. -1.
    9000002    1    1    2    0    0  0.65640162271E-01  0.43285071631E+00  0.12997557500E+00  0.10432669954E+01  0.93800000000E+00 0. -1.
         22    1    1    2    0    0 -0.27456840221E-01 -0.19837773231E+00  0.17142354032E+01  0.17258941510E+01  0.00000000000E+00 0. -1.
</event>
<event>
 5    1  0.1537976E+002  0.1599626E+01  0.7818608E-02  0.3353770E+00
         11   -1    0    0    0    0  0.00000000000E+00  0.00000000000E+00  0.39999999674E+01  0.40000000000E+01  0.51100000000E-03 0. -1.
    9000002   -1    0    0    0    0 -0.00000000000E+00 -0.00000000000E+00  0.00000000000E+00  0.93800000000E+00  0.93800000000E+00 0.  1.
         11    1    1    2    0    0 -0.15145784593E+00 -0.78929514179E-01  0.16309236943E+01  0.16398419756E+01  0.51100000000E-03 0. -1.
    9000002    1    1    2    0    0  0.34432839040E+00  0.17848244921E+00  0.10134687284E+00  0.10200652988E+01  0.93800000000E+00 0.  1.
         22    1    1    2    0    0 -0.19287054447E+00 -0.99552935035E-01  0.22677294003E+01  0.22780927256E+01  0.00000000000E+00 0. -1.
</event>
<event>
 5    1  0.1537976E+002  0.1599407E+01  0.7818608E-02  0.3354007E+00
         11   -1    0    0    0    0  0.00000000000E+00  0.00000000000E+00  0.39999999674E+01  0.40000000000E+01  0.51100000000E-03 0.  1.
    9000002   -1    0    0    0    0 -0.00000000000E+00 -0.00000000000E+00  0.00000000000E+00  0.93800000000E+00  0.93800000000E+00 0. -1.
         11    1    1    2    0    0  0.27036881012E-02  0.19966224592E+00  0.19335476499E+01  0.19438310364E+01  0.51100000000E-03 0.  1.
    9000002    1    1    2    0    0  0.29580553582E-01 -0.41950965148E+00  0.11985055276E+00  0.10349258485E+01  0.93800000000E+00 0. -1.
         22    1    1    2    0    0 -0.32284241683E-01  0.21984740556E+00  0.19466017647E+01  0.19592431152E+01  0.00000000000E+00 0.  1.
</event>
<event>
 5    1  0.1537976E+002  0.1599659E+01  0.7818608E-02  0.3353733E+00
         11   -1    0    0    0    0  0.00000000000E+00  0.00000000000E+00  0.39999999674E+01  0.40000000000E+01  0.51100000000E-03 0. -1.
    9000002   -1    0    0    0    0 -0.00000000000E+00 -0.00000000000E+00  0.00000000000E+00  0.93800000000E+00  0.93800000000E+00 0. -1.
         11    1    1    2    0    0 -0.35450814740E+00 -0.35637016987E+00  0.24405912698E+01  0.24918189605E+01  0.51100000000E-03 0. -1.
    9000002    1    1    2    0    0  0.52032544188E+00  0.53213278085E+00  0.40087233192E+00  0.12627139377E+01  0.93800000000E+00 0. -1.
         22    1    1    2    0    0 -0.16581729448E+00 -0.17576261098E+00  0.11585363657E+01  0.11834671018E+01  0.00000000000E+00 0. -1.
</event>
<event>
 5    1  0.1537976E+002  0.1597281E+01  0.7818608E-02  0.3356320E+00
         11   -1    0    0    0    0  0.00000000000E+00  0.00000000000E+00  0.39999999674E+01  0.40000000000E+01  0.51100000000E-03 0. -1.
    9000002   -1    0    0    0    0 -0.00000000000E+00 -0.00000000000E+00  0.00000000000E+00  0.93800000000E+00  0.93800000000E+00 0. -1.
         11    1    1    2    0    0 -0.12204556599E+00 -0.62770525478E-01  0.96156145844E+00  0.97130631549E+00  0.51100000000E-03 0. -1.
    9000002    1    1    2    0    0  0.35332237986E+00  0.10470720069E+00  0.93201376652E-01  0.10120922876E+01  0.93800000000E+00 0. -1.
         22    1    1    2    0    0 -0.23127681387E+00 -0.41936675208E-01  0.29452371323E+01  0.29546013969E+01  0.00000000000E+00 0. -1.
</event>
<event>
 5    1  0.1537976E+002  0.1575713E+01  0.7818608E-02  0.3380152E+00
         11   -1    0    0    0    0  0.00000000000E+00  0.00000000000E+00  0.39999999674E+01  0.40000000000E+01  0.51100000000E-03 0. -1.
    9000002   -1    0    0    0    0 -0.00000000000E+00 -0.00000000000E+00  0.00000000000E+00  0.93800000000E+00  0.93800000000E+00 0.  1.
         11    1    1    2    0    0  0.14939649315E+00 -0.79626568382E-01  0.13529236860E+01  0.13634744090E+01  0.51100000000E-03 0. -1.
    9000002    1    1    2    0    0  0.76887416258E-01  0.17679896093E+00  0.42729249301E-01  0.95856107584E+00  0.93800000000E+00 0.  1.
         22    1    1    2    0    0 -0.22628390941E+00 -0.97172392553E-01  0.26043470320E+01  0.26159645152E+01  0.00000000000E+00 0. -1.
</event>
<event>
 5    1  0.1537976E+002  0.1501078E+01  0.7818608E-02  0.3468263E+00
         11   -1    0    0    0    0  0.00000000000E+00  0.00000000000E+00  0.39999999674E+01  0.40000000000E+01  0.51100000000E-03 0.  1.
    9000002   -1    0    0    0    0 -0.00000000000E+00 -0.00000000000E+00  0.00000000000E+00  0.93800000000E+00  0.93800000000E+00 0.  1.
         11    1    1    2    0    0 -0.92214210588E-01  0.11229322337E+00  0.16351027462E+00  0.21874437062E+00  0.51100000000E-03 0.  1.
    9000002    1    1    2    0    0 -0.26681209622E+00  0.26518971069E+00  0.18084259630E+00  0.10266753732E+01  0.93800000000E+00 0.  1.
         22    1    1    2    0    0  0.35902630681E+00 -0.37748293406E+00  0.36556470964E+01  0.36925802562E+01  0.00000000000E+00 0.  1.
</event>
<event>
 5    1  0.1537976E+002  0.1595510E+01  0.7818608E-02  0.3358251E+00
         11   -1    0    0    0    0  0.00000000000E+00  0.00000000000E+00  0.39999999674E+01  0.40000000000E+01  0.51100000000E-03 0. -1.
    9000002   -1    0    0    0    0 -0.00000000000E+00 -0.00000000000E+00  0.00000000000E+00  0.93800000000E+00  0.93800000000E+00 0. -1.
         11    1    1    2    0    0 -0.30264471681E-01  0.11977770002E-01  0.14903160546E+00  0.15254535643E+00  0.51100000000E-03 0. -1.
    9000002    1    1    2    0    0  0.16610279818E+00  0.14655351945E+00  0.35682386891E-01  0.96446114819E+00  0.93800000000E+00 0. -1.
         22    1    1    2    0    0 -0.13583832650E+00 -0.15853128946E+00  0.38152859750E+01  0.38209934954E+01  0.00000000000E+00 0. -1.
</event>
<event>
 5    1  0.1537976E+002  0.1599385E+01  0.7818608E-02  0.3354031E+00
         11   -1    0    0    0    0  0.00000000000E+00  0.00000000000E+00  0.39999999674E+01  0.40000000000E+01  0.51100000000E-03 0.  1.
    9000002   -1    0    0    0    0 -0.00000000000E+00 -0.00000000000E+00  0.00000000000E+00  0.93800000000E+00  0.93800000000E+00 0. -1.
         11    1    1    2    0    0 -0.12134897731E+00  0.12328407976E+00  0.15286673622E+01  0.15384240976E+01  0.51100000000E-03 0.  1.
    9000002    1    1    2    0    0  0.30216668742E+00 -0.26302438638E+00  0.10850269993E+00  0.10257209029E+01  0.93800000000E+00 0. -1.
         22    1    1    2    0    0 -0.18081771011E+00  0.13974030662E+00  0.23628299052E+01  0.23738549995E+01  0.00000000000E+00 0.  1.
</event>
<event>
 5    1  0.1537976E+002  0.1599658E+01  0.7818608E-02  0.3353735E+00
         11   -1    0    0    0    0  0.00000000000E+00  0.00000000000E+00  0.39999999674E+01  0.40000000000E+01  0.51100000000E-03 0. -1.
    9000002   -1    0    0    0    0 -0.00000000000E+00 -0.00000000000E+00  0.00000000000E+00  0.93800000000E+00  0.93800000000E+00 0.  1.
         11    1    1    2    0    0 -0.65568851227E-01 -0.10942186834E+00  0.10992213208E+01  0.11065984786E+01  0.51100000000E-03 0. -1.
    9000002    1    1    2    0    0  0.23570936331E+00  0.36920679329E+00  0.13010704746E+00  0.10433812362E+01  0.93800000000E+00 0.  1.
         22    1    1    2    0    0 -0.17014051209E+00 -0.25978492495E+00  0.27706715991E+01  0.27880202853E+01  0.00000000000E+00 0. -1.
</event>
<event>
 5    1  0.1537976E+002  0.1599669E+01  0.7818608E-02  0.3353722E+00
         11   -1    0    0    0    0  0.00000000000E+00  0.00000000000E+00  0.39999999674E+01  0.40000000000E+01  0.51100000000E-03 0. -1.
    9000002   -1    0    0    0    0 -0.00000000000E+00 -0.00000000000E+00  0.00000000000E+00  0.93800000000E+00  0.93800000000E+00 0. -1.
         11    1    1    2    0    0  0.16474145317E+00  0.32390663149E-01  0.17831621344E+01  0.17910489552E+01  0.51100000000E-03 0. -1.
    9000002    1    1    2    0    0 -0.36810788894E+00 -0.71003641037E-01  0.94512542916E-01  0.10145548559E+01  0.93800000000E+00 0. -1.
         22    1    1    2    0    0  0.20336643577E+00  0.38612977887E-01  0.21223252901E+01  0.21323961888E+01  0.00000000000E+00 0. -1.
</event>
<event>
 5    1  0.1537976E+002  0.1560225E+01  0.7818608E-02  0.3397698E+00
         11   -1    0    0    0    0  0.00000000000E+00  0.00000000000E+00  0.39999999674E+01  0.40000000000E+01  0.51100000000E-03 0. -1.
    9000002   -1    0    0    0    0 -0.00000000000E+00 -0.00000000000E+00  0.00000000000E+00  0.93800000000E+00  0.93800000000E+00 0.  1.
         11    1    1    2    0    0 -0.91153523149E-01  0.80805015982E-01  0.28830134338E+00  0.31297977747E+00  0.51100000000E-03 0. -1.
    9000002    1    1    2    0    0 -0.10610730401E+00 -0.33419995272E-01  0.37596856661E-01  0.94532173342E+00  0.93800000000E+00 0.  1.
         22    1    1    2    0    0  0.19726082716E+00 -0.47385020710E-01  0.36741017673E+01  0.36796984891E+01  0.00000000000E+00 0. -1.
</event>
<event>
 5    1  0.1537976E+002  0.1599654E+01  0.7818608E-02  0.3353739E+00
         11   -1    0    0    0    0  0.00000000000E+00  0.00000000000E+00  0.39999999674E+01  0.40000000000E+01  0.51100000000E-03 0. -1.
    9000002   -1    0    0    0    0 -0.00000000000E+00 -0.00000000000E+00  0.00000000000E+00  0.93800000000E+00  0.93800000000E+00 0. -1.
         11    1    1    2    0    0  0.12309171999E-01  0.28924873776E-01  0.48233564826E+00  0.48335918606E+00  0.51100000000E-03 0. -1.
    9000002    1    1    2    0    0 -0.12061063908E+00 -0.21355988059E+00  0.39963469623E-01  0.97035860782E+00  0.93800000000E+00 0. -1.
         22    1    1    2    0    0  0.10830146708E+00  0.18463500682E+00  0.34777008495E+01  0.34842822061E+01  0.00000000000E+00 0. -1.
</event>
<event>
 5    1  0.1537976E+002  0.1599646E+01  0.7818608E-02  0.3353748E+00
         11   -1    0    0    0    0  0.00000000000E+00  0.00000000000E+00  0.39999999674E+01  0.40000000000E+01  0.51100000000E-03 0. -1.
    9000002   -1    0    0    0    0 -0.00000000000E+00 -0.00000000000E+00  0.00000000000E+00  0.93800000000E+00  0.93800000000E+00 0. -1.
         11    1    1    2    0    0  0.22325908684E+00 -0.21090670671E+00  0.22616729270E+01  0.22824309297E+01  0.51100000000E-03 0. -1.
    9000002    1    1    2    0    0 -0.36725384075E+00  0.36174826989E+00  0.18242385878E+00  0.10857530376E+01  0.93800000000E+00 0. -1.
         22    1    1    2    0    0  0.14399475392E+00 -0.15084156318E+00  0.15559031815E+01  0.15698160327E+01  0.00000000000E+00 0. -1.
</event>
<event>
 5    1  0.1537976E+002  0.1599650E+01  0.7818608E-02  0.3353743E+00
         11   -1    0    0    0    0  0.00000000000E+00  0.00000000000E+00  0.39999999674E+01  0.40000000000E+01  0.51100000000E-03 0.  1.
    9000002   -1    0    0    0    0 -0.00000000000E+00 -0.00000000000E+00  0.00000000000E+00  0.93800000000E+00  0.93800000000E+00 0.  1.
         11    1    1    2    0    0 -0.60386174963E-01 -0.15590615634E-02  0.48533186008E+00  0.48907688182E+00  0.51100000000E-03 0.  1.
    9000002    1    1    2    0    0  0.44779983639E+00  0.16368922657E-01  0.13636045906E+00  0.10484420870E+01  0.93800000000E+00 0.  1.
         22    1    1    2    0    0 -0.38741366143E+00 -0.14809861093E-01  0.33783076482E+01  0.34004810311E+01  0.00000000000E+00 0.  1.
</event>
<event>
 5    1  0.1537976E+002  0.1599677E+01  0.7818608E-02  0.3353714E+00
         11   -1    0    0    0    0  0.00000000000E+00  0.00000000000E+00  0.39999999674E+01  0.40000000000E+01  0.51100000000E-03 0. -1.
    9000002   -1    0    0    0    0 -0.00000000000E+00 -0.00000000000E+00  0.00000000000E+00  0.93800000000E+00  0.93800000000E+00 0. -1.
         11    1    1    2    0    0  0.58716510278E-01  0.23273547765E-01  0.62084379214E+00  0.62404852533E+00  0.51100000000E-03 0. -1.
    9000002    1    1    2    0    0 -0.36995810143E+00 -0.14740806713E+00  0.10695384105E+00  0.10246371354E+01  0.93800000000E+00 0. -1.
         22    1    1    2    0    0  0.31124159115E+00  0.12413451936E+00  0.32722023342E+01  0.32893143393E+01  0.00000000000E+00 0. -1.
</event>
<event>
 5    1  0.1537976E+002  0.1587318E+01  0.7818608E-02  0.3367244E+00
         11   -1    0    0    0    0  0.00000000000E+00  0.00000000000E+00  0.39999999674E+01  0.40000000000E+01  0.51100000000E-03 0. -1.
    9000002   -1    0    0    0    0 -0.00000000000E+00 -0.00000000000E+00  0.00000000000E+00  0.93800000000E+00  0.93800000000E+00 0. -1.
         11    1    1    2    0    0  0.13814294652E+00 -0.31986577611E+00  0.22746751838E+01  0.23012051281E+01  0.51100000000E-03 0. -1.
    9000002    1    1    2    0    0 -0.41447881265E+00  0.58431345303E+00  0.38273231655E+00  0.12407831896E+01  0.93800000000E+00 0. -1.
         22    1    1    2    0    0  0.27633586613E+00 -0.26444767692E+00  0.13425924670E+01  0.13960116823E+01  0.00000000000E+00 0. -1.
</event>
<event>
 5    1  0.1537976E+002  0.1599587E+01  0.7818608E-02  0.3353812E+00
         11   -1    0    0    0    0  0.00000000000E+00  0.00000000000E+00  0.39999999674E+01  0.40000000000E+01  0.51100000000E-03 0. -1.
    9000002   -1    0    0    0    0 -0.00000000000E+00 -0.00000000000E+00  0.00000000000E+00  0.93800000000E+00  0.93800000000E+00 0. -1.
         11    1    1    2    0    0 -0.27735850863E-03  0.42128655482E-02  0.43142859344E-01  0.43351961862E-01  0.51100000000E-03 0. -1.
    9000002    1    1    2    0    0  0.22642984403E+00 -0.43356643210E+00  0.16356638849E+00  0.10704430339E+01  0.93800000000E+00 0. -1.
         22    1    1    2    0    0 -0.22615248552E+00  0.42935356656E+00  0.37932907195E+01  0.38242050043E+01  0.00000000000E+00 0. -1.
</event>
<event>
 5    1  0.1537976E+002  0.1592826E+01  0.7818608E-02  0.3361187E+00
         11   -1    0    0    0    0  0.00000000000E+00  0.00000000000E+00  0.39999999674E+01  0.40000000000E+01  0.51100000000E-03 0.  1.
    9000002   -1    0    0    0    0 -0.00000000000E+00 -0.00000000000E+00  0.00000000000E+00  0.93800000000E+00  0.93800000000E+00 0. -1.
         11    1    1    2    0    0 -0.30032241588E-01  0.56771727758E-02  0.13975187020E+00  0.14305597565E+00  0.51100000000E-03 0.  1.
    9000002    1    1    2    0    0 -0.15187594912E+00  0.12932065848E+00  0.31491994698E-01  0.95949251293E+00  0.93800000000E+00 0. -1.
         22    1    1    2    0    0  0.18190819071E+00 -0.13499783126E+00  0.38287561025E+01  0.38354515114E+01  0.00000000000E+00 0.  1.
</event>
<event>
 5    1  0.1537976E+002  0.1599677E+01  0.7818608E-02  0.3353714E+00
         11   -1    0    0    0    0  0.00000000000E+00  0.00000000000E+00  0.39999999674E+01  0.40000000000E+01  0.51100000000E-03 0. -1.
    9000002   -1    0    0    0    0 -0.00000000000E+00 -0.00000000000E+00  0.00000000000E+00  0.93800000000E+00  0.93800000000E+00 0. -1.
         11    1    1    2    0    0 -0.57703776589E-01 -0.12709037730E+00  0.13332670685E+01  0.13405532540E+01  0.51100000000E-03 0.  1.
    9000002    1    1    2    0    0  0.16729912292E+00  0.37077364557E+00  0.11170555852E+00  0.10284863755E+01  0.93800000000E+00 0. -1.
         22    1    1    2    0    0 -0.10959534633E+00 -0.24368326827E+00  0.25550273404E+01  0.25689603705E+01  0.00000000000E+00 0. -1.
</event>
<event>
 5    1  0.1537976E+002  0.1599672E+01  0.7818608E-02  0.3353720E+00
         11   -1    0    0    0    0  0.00000000000E+00  0.00000000000E+00  0.39999999674E+01  0.40000000000E+01  0.51100000000E-03 0. -1.
    9000002   -1    0    0    0    0 -0.00000000000E+00 -0.00000000000E+00  0.00000000000E+00  0.93800000000E+00  0.93800000000E+00 0. -1.
         11    1    1    2    0    0 -0.28676462098E+00  0.68454373069E-01  0.16914582781E+01  0.17169599054E+01  0.51100000000E-03 0. -1.
    9000002    1    1    2    0    0  0.62310248622E+00 -0.14879209332E+00  0.28895698404E+00  0.11720648165E+01  0.93800000000E+00 0. -1.
         22    1    1    2    0    0 -0.33633786524E+00  0.80337720249E-01  0.20195847052E+01  0.20489752782E+01  0.00000000000E+00 0. -1.
</event>
<event>
 5    1  0.1537976E+002  0.1599675E+01  0.7818608E-02  0.3353716E+00
         11   -1    0    0    0    0  0.00000000000E+00  0.00000000000E+00  0.39999999674E+01  0.40000000000E+01  0.51100000000E-03 0. -1.
    9000002   -1    0    0    0    0 -0.00000000000E+00 -0.00000000000E+00  0.00000000000E+00  0.93800000000E+00  0.93800000000E+00 0. -1.
         11    1    1    2    0    0 -0.14902123286E+00  0.45181024956E-01  0.15367320774E+01  0.15446016936E+01  0.51100000000E-03 0. -1.
    9000002    1    1    2    0    0  0.37344976940E+00 -0.11457376562E+00  0.10280606506E+00  0.10212761453E+01  0.93800000000E+00 0. -1.
         22    1    1    2    0    0 -0.22442853654E+00  0.69392740662E-01  0.23604618249E+01  0.23721221611E+01  0.00000000000E+00 0. -1.
</event>
<event>
 5    1  0.1537976E+002  0.1599643E+01  0.7818608E-02  0.3353750E+00
         11   -1    0    0    0    0  0.00000000000E+00  0.00000000000E+00  0.39999999674E+01  0.40000000000E+01  0.51100000000E-03 0. -1.
    9000002   -1    0    0    0    0 -0.00000000000E+00 -0.00000000000E+00  0.00000000000E+00  0.93800000000E+00  0.93800000000E+00 0. -1.
         11    1    1    2    0    0  0.11327076424E-03 -0.14283991407E-04  0.10546830411E-01  0.10559819459E-01  0.51100000000E-03 0. -1.
    9000002    1    1    2    0    0 -0.13676552905E+00  0.17092735032E+00  0.31787971459E-01  0.96372996433E+00  0.93800000000E+00 0. -1.
         22    1    1    2    0    0  0.13665225828E+00 -0.17091306633E+00  0.39576651655E+01  0.39637102162E+01  0.00000000000E+00 0. -1.
</event>
<event>
 5    1  0.1537976E+002  0.1584862E+01  0.7818608E-02  0.3369959E+00
         11   -1    0    0    0    0  0.00000000000E+00  0.00000000000E+00  0.39999999674E+01  0.40000000000E+01  0.51100000000E-03 0. -1.
    9000002   -1    0    0    0    0 -0.00000000000E+00 -0.00000000000E+00  0.00000000000E+00  0.93800000000E+00  0.93800000000E+00 0. -1.
         11    1    1    2    0    0 -0.31437704066E-01 -0.47870750867E-01  0.21854136314E+00  0.22592150528E+00  0.51100000000E-03 0. -1.
    9000002    1    1    2    0    0  0.20342467286E+00 -0.29811148069E+00  0.99550811779E-01  0.10099536705E+01  0.93800000000E+00 0. -1.
         22    1    1    2    0    0 -0.17198696880E+00  0.34598223155E+00  0.36819077924E+01  0.37021248242E+01  0.00000000000E+00 0. -1.
</event>
<event>
 5    1  0.1537976E+002  0.1597082E+01  0.7818608E-02  0.3356536E+00
         11   -1    0    0    0    0  0.00000000000E+00  0.00000000000E+00  0.39999999674E+01  0.40000000000E+01  0.51100000000E-03 0.  1.
    9000002   -1    0    0    0    0 -0.00000000000E+00 -0.00000000000E+00  0.00000000000E+00  0.93800000000E+00  0.93800000000E+00 0. -1.
         11    1    1    2    0    0 -0.32938357212E-01  0.20242763312E-02  0.90688584719E+00  0.90748621699E+00  0.51100000000E-03 0.  1.
    9000002    1    1    2    0    0  0.10284948014E+00  0.21241930368E+00  0.38936134627E-01  0.96801859420E+00  0.93800000000E+00 0. -1.
         22    1    1    2    0    0 -0.69911122925E-01 -0.21444358001E+00  0.30541779855E+01  0.30624951888E+01  0.00000000000E+00 0.  1.
</event>
<event>
 5    1  0.1537976E+002  0.1580084E+01  0.7818608E-02  0.3375267E+00
         11   -1    0    0    0    0  0.00000000000E+00  0.00000000000E+00  0.39999999674E+01  0.40000000000E+01  0.51100000000E-03 0. -1.
    9000002   -1    0    0    0    0 -0.00000000000E+00 -0.00000000000E+00  0.00000000000E+00  0.93800000000E+00  0.93800000000E+00 0. -1.
         11    1    1    2    0    0 -0.95990731106E-01  0.58395668101E-01  0.65219405172E+00  0.66180179566E+00  0.51100000000E-03 0. -1.
    9000002    1    1    2    0    0 -0.13619075067E-01  0.11454884271E+00  0.23259791616E-01  0.94535280953E+00  0.93800000000E+00 0. -1.
         22    1    1    2    0    0  0.10960980617E+00 -0.17294451081E+00  0.33245461240E+01  0.33308453948E+01  0.00000000000E+00 0. -1.
</event>
<event>
 5    1  0.1537976E+002  0.1599644E+01  0.7818608E-02  0.3353750E+00
         11   -1    0    0    0    0  0.00000000000E+00  0.00000000000E+00  0.39999999674E+01  0.40000000000E+01  0.51100000000E-03 0. -1.
    9000002   -1    0    0    0    0 -0.00000000000E+00 -0.00000000000E+00  0.00000000000E+00  0.93800000000E+00  0.93800000000E+00 0.  1.
         11    1    1    2    0    0  0.80173014045E-01  0.14488537419E-01  0.77769532933E+00  0.78195135160E+00  0.51100000000E-03 0. -1.
    9000002    1    1    2    0    0 -0.39758906753E+00 -0.45015071249E-01  0.10802241481E+00  0.10254834301E+01  0.93800000000E+00 0.  1.
         22    1    1    2    0    0  0.31741605348E+00  0.30526533830E-01  0.31142822232E+01  0.31305652183E+01  0.00000000000E+00 0. -1.
</event>
<event>
 5    1  0.1537976E+002  0.1595673E+01  0.7818608E-02  0.3358073E+00
         11   -1    0    0    0    0  0.00000000000E+00  0.00000000000E+00  0.39999999674E+01  0.40000000000E+01  0.51100000000E-03 0.  1.
    9000002   -1    0    0    0    0 -0.00000000000E+00 -0.00000000000E+00  0.00000000000E+00  0.93800000000E+00  0.93800000000E+00 0. -1.
         11    1    1    2    0    0  0.17891892074E-01 -0.13014682458E-01  0.10081537058E+00  0.10321580221E+00  0.51100000000E-03 0.  1.
    9000002    1    1    2    0    0 -0.72106898981E-01 -0.19251944618E+00  0.31000783049E-01  0.96076437829E+00  0.93800000000E+00 0. -1.
         22    1    1    2    0    0  0.54215006907E-01  0.20553412864E+00  0.38681838137E+01  0.38740198195E+01  0.00000000000E+00 0.  1.
</event>
<event>
 5    1  0.1537976E+002  0.1599501E+01  0.7818608E-02  0.3353905E+00
         11   -1    0    0    0    0  0.00000000000E+00  0.00000000000E+00  0.39999999674E+01  0.40000000000E+01  0.51100000000E-03 0. -1.
    9000002   -1    0    0    0    0 -0.00000000000E+00 -0.00000000000E+00  0.00000000000E+00  0.93800000000E+00  0.93800000000E+00 0. -1.
         11    1    1    2    0    0 -0.18131793665E-01  0.51559014104E-01  0.79468478589E+00  0.79656215321E+00  0.51100000000E-03 0. -1.
    9000002    1    1    2    0    0  0.39444969851E-01 -0.29420294024E+00  0.58900192799E-01  0.98560869944E+00  0.93800000000E+00 0. -1.
         22    1    1    2    0    0 -0.21313176187E-01  0.24264392614E+00  0.31464149887E+01  0.31558291474E+01  0.00000000000E+00 0. -1.
</event>
<event>
 5    1  0.1537976E+002  0.1592592E+01  0.7818608E-02  0.3361443E+00
         11   -1    0    0    0    0  0.00000000000E+00  0.00000000000E+00  0.39999999674E+01  0.40000000000E+01  0.51100000000E-03 0.  1.
    9000002   -1    0    0    0    0 -0.00000000000E+00 -0.00000000000E+00  0.00000000000E+00  0.93800000000E+00  0.93800000000E+00 0.  1.
         11    1    1    2    0    0 -0.35896855282E-02  0.57237396574E-01  0.13400676233E+01  0.13412943382E+01  0.51100000000E-03 0.  1.
    9000002    1    1    2    0    0 -0.27126395057E+00 -0.16361067395E+00  0.72670893758E-01  0.99271226562E+00  0.93800000000E+00 0.  1.
         22    1    1    2    0    0  0.27485363610E+00  0.10637327737E+00  0.25872614503E+01  0.26039933962E+01  0.00000000000E+00 0.  1.
</event>
<event>
 5    1  0.1537976E+002  0.1599667E+01  0.7818608E-02  0.3353724E+00
         11   -1    0    0    0    0  0.00000000000E+00  0.00000000000E+00  0.39999999674E+01  0.40000000000E+01  0.51100000000E-03 0.  1.
    9000002   -1    0    0    0    0 -0.00000000000E+00 -0.00000000000E+00  0.00000000000E+00  0.93800000000E+00  0.93800000000E+00 0.  1.
         11    1    1    2    0    0  0.18125237015E+00  0.14034778927E+00  0.19071134211E+01  0.19208414265E+01  0.51100000000E-03 0.  1.
    9000002    1    1    2    0    0 -0.35947183242E+00 -0.28649664278E+00  0.14372769497E+00  0.10544202079E+01  0.93800000000E+00 0.  1.
         22    1    1    2    0    0  0.17821946227E+00  0.14614885351E+00  0.19491588513E+01  0.19627383656E+01  0.00000000000E+00 0.  1.
</event>
<event>
 5    1  0.1537976E+002  0.1599516E+01  0.7818608E-02  0.3353888E+00
         11   -1    0    0    0    0  0.00000000000E+00  0.00000000000E+00  0.39999999674E+01  0.40000000000E+01  0.51100000000E-03 0. -1.
    9000002   -1    0    0    0    0 -0.00000000000E+00 -0.00000000000E+00  0.00000000000E+00  0.93800000000E+00  0.93800000000E+00 0.  1.
         11    1    1    2    0    0  0.25612706977E+00 -0.13978855006E+00  0.14092120143E+01  0.14391041231E+01  0.51100000000E-03 0. -1.
    9000002    1    1    2    0    0 -0.63871397809E+00  0.39159541551E+00  0.40700098779E+00  0.12675946984E+01  0.93800000000E+00 0.  1.
         22    1    1    2    0    0  0.38258690832E+00 -0.25180686545E+00  0.21837869652E+01  0.22313011786E+01  0.00000000000E+00 0. -1.
</event>
<event>
 5    1  0.1537976E+002  0.1599677E+01  0.7818608E-02  0.3353714E+00
         11   -1    0    0    0    0  0.00000000000E+00  0.00000000000E+00  0.39999999674E+01  0.40000000000E+01  0.51100000000E-03 0. -1.
    9000002   -1    0    0    0    0 -0.00000000000E+00 -0.00000000000E+00  0.00000000000E+00  0.93800000000E+00  0.93800000000E+00 0. -1.
         11    1    1    2    0    0 -0.50383789806E-01  0.12210043232E+00  0.11979664184E+01  0.12052264695E+01  0.51100000000E-03 0. -1.
    9000002    1    1    2    0    0  0.16279334999E+00 -0.39367529669E+00  0.12283824608E+00  0.10375042885E+01  0.93800000000E+00 0. -1.
         22    1    1    2    0    0 -0.11240956018E+00  0.27157486437E+00  0.26791953028E+01  0.26952692420E+01  0.00000000000E+00 0. -1.
</event>
<event>
 5    1  0.1537976E+002  0.1599655E+01  0.7818608E-02  0.3353738E+00
         11   -1    0    0    0    0  0.00000000000E+00  0.00000000000E+00  0.39999999674E+01  0.40000000000E+01  0.51100000000E-03 0.  1.
    9000002   -1    0    0    0    0 -0.00000000000E+00 -0.00000000000E+00  0.00000000000E+00  0.93800000000E+00  0.93800000000E+00 0.  1.
         11    1    1    2    0    0 -0.40801704346E-02 -0.10069853856E-01  0.14420285382E+00  0.14461249572E+00  0.51100000000E-03 0.  1.
    9000002    1    1    2    0    0  0.10865461905E+00  0.22009456632E+00  0.40024679516E-01  0.97040889286E+00  0.93800000000E+00 0.  1.
         22    1    1    2    0    0 -0.10457444862E+00 -0.21002471246E+00  0.38157724340E+01  0.38229786114E+01  0.00000000000E+00 0.  1.
</event>
<event>
 5    1  0.1537976E+002  0.1596940E+01  0.7818608E-02  0.3356692E+00
         11   -1    0    0    0    0  0.00000000000E+00  0.00000000000E+00  0.39999999674E+01  0.40000000000E+01  0.51100000000E-03 0.  1.
    9000002   -1    0    0    0    0 -0.00000000000E+00 -0.00000000000E+00  0.00000000000E+00  0.93800000000E+00  0.93800000000E+00 0.  1.
         11    1    1    2    0    0  0.23851268815E-02 -0.28291204121E+00  0.24143591681E+01  0.24308795457E+01  0.51100000000E-03 0.  1.
    9000002    1    1    2    0    0  0.63592335813E-01  0.51572371465E+00  0.18797967879E+00  0.10886667510E+01  0.93800000000E+00 0.  1.
         22    1    1    2    0    0 -0.65977462695E-01 -0.23281167344E+00  0.13976611204E+01  0.14184537033E+01  0.00000000000E+00 0.  1.
</event>
<event>
 5    1  0.1537976E+002  0.1599674E+01  0.7818608E-02  0.3353718E+00
         11   -1    0    0    0    0  0.00000000000E+00  0.00000000000E+00  0.39999999674E+01  0.40000000000E+01  0.51100000000E-03 0. -1.
    9000002   -1    0    0    0    0 -0.00000000000E+00 -0.00000000000E+00  0.00000000000E+00  0.93800000000E+00  0.93800000000E+00 0. -1.
         11    1    1    2    0    0 -0.49687127729E-01 -0.11597758780E+00  0.14186012582E+01  0.14242013209E+01  0.51100000000E-03 0. -1.
    9000002    1    1    2    0    0  0.13893112003E+00  0.32573809686E+00  0.84128061802E-01  0.10061454640E+01  0.93800000000E+00 0. -1.
         22    1    1    2    0    0 -0.89243992305E-01 -0.20976050905E+00  0.24972706474E+01  0.25076532152E+01  0.00000000000E+00 0. -1.
</event>
<event>
 5    1  0.1537976E+002  0.1599677E+01  0.7818608E-02  0.3353714E+00
         11   -1    0    0    0    0  0.00000000000E+00  0.00000000000E+00  0.39999999674E+01  0.40000000000E+01  0.51100000000E-03 0.  1.
    9000002   -1    0    0    0    0 -0.00000000000E+00 -0.00000000000E+00  0.00000000000E+00  0.93800000000E+00  0.93800000000E+00 0.  1.
         11    1    1    2    0    0  0.70784329216E-01  0.19136583131E+00  0.12239217294E+01  0.12408126222E+01  0.51100000000E-03 0. -1.
    9000002    1    1    2    0    0 -0.21603861869E+00 -0.58332761932E+00  0.27127873202E+00  0.11577477906E+01  0.93800000000E+00 0.  1.
         22    1    1    2    0    0  0.14525428948E+00  0.39196178802E+00  0.25047995059E+01  0.25394395871E+01  0.00000000000E+00 0.  1.
</event>
<event>
 5    1  0.1537976E+002  0.1599672E+01  0.7818608E-02  0.3353719E+00
         11   -1    0    0    0    0  0.00000000000E+00  0.00000000000E+00  0.39999999674E+01  0.40000000000E+01  0.51100000000E-03 0. -1.
    9000002   -1    0    0    0    0 -0.00000000000E+00 -0.00000000000E+00  0.00000000000E+00  0.93800000000E+00  0.93800000000E+00 0. -1.
         11    1    1    2    0    0 -0.63609398241E+00 -0.17997245751E+00  0.26083976135E+01  0.26908630607E+01  0.51100000000E-03 0. -1.
    9000002    1    1    2    0    0  0.83779007830E+00  0.23853704389E+00  0.57382948221E+00  0.14028244406E+01  0.93800000000E+00 0. -1.
         22    1    1    2    0    0 -0.20169609589E+00 -0.58564586376E-01  0.81777287161E+00  0.84431249867E+00  0.00000000000E+00 0. -1.
</event>
<event>
 5    1  0.1537976E+002  0.1599672E+01  0.7818608E-02  0.3353719E+00
         11   -1    0    0    0    0  0.00000000000E+00  0.00000000000E+00  0.39999999674E+01  0.40000000000E+01  0.51100000000E-03 0. -1.
    9000002   -1    0    0    0    0 -0.00000000000E+00 -0.00000000000E+00  0.00000000000E+00  0.93800000000E+00  0.93800000000E+00 0.  1.
         11    1    1    2    0    0 -0.13075203510E-01  0.14419226713E+00  0.15118427801E+01  0.15187597650E+01  0.51100000000E-03 0. -1.
    9000002    1    1    2    0    0  0.36386670766E-01 -0.37833781186E+00  0.97205755679E-01  0.10167381416E+01  0.93800000000E+00 0.  1.
         22    1    1    2    0    0 -0.23311467256E-01  0.23414554473E+00  0.23909514316E+01  0.24025020934E+01  0.00000000000E+00 0. -1.
</event>
<event>
 5    1  0.1537976E+002  0.1599491E+01  0.7818608E-02  0.3353916E+00
         11   -1    0    0    0    0  0.00000000000E+00  0.00000000000E+00  0.39999999674E+01  0.40000000000E+01  0.51100000000E-03 0. -1.
    9000002   -1    0    0    0    0 -0.00000000000E+00 -0.00000000000E+00  0.00000000000E+00  0.93800000000E+00  0.93800000000E+00 0. -1.
         11    1    1    2    0    0 -0.79955312454E-01  0.14821800576E+00  0.17272959738E+01  0.17354864077E+01  0.51100000000E-03 0. -1.
    9000002    1    1    2    0    0  0.20653871010E+00 -0.35868438078E+00  0.11592084555E+00  0.10317918231E+01  0.93800000000E+00 0. -1.
         22    1    1    2    0    0 -0.12658339765E+00  0.21046637502E+00  0.21567831480E+01  0.21707217692E+01  0.00000000000E+00 0. -1.
</event>
<event>
 5    1  0.1537976E+002  0.1599636E+01  0.7818608E-02  0.3353758E+00
         11   -1    0    0    0    0  0.00000000000E+00  0.00000000000E+00  0.39999999674E+01  0.40000000000E+01  0.51100000000E-03 0.  1.
    9000002   -1    0    0    0    0 -0.00000000000E+00 -0.00000000000E+00  0.00000000000E+00  0.93800000000E+00  0.93800000000E+00 0. -1.
         11    1    1    2    0    0 -0.14629838123E-02  0.33190420048E-02  0.61213386677E-01  0.61322884725E-01  0.51100000000E-03 0.  1.
    9000002    1    1    2    0    0  0.21223910388E+00 -0.20745176194E+00  0.58774746391E-01  0.98558619185E+00  0.93800000000E+00 0. -1.
         22    1    1    2    0    0 -0.21077612007E+00  0.20413271993E+00  0.38800118343E+01  0.38910909234E+01  0.00000000000E+00 0.  1.
</event>
<event>
 5    1  0.1537976E+002  0.1599677E+01  0.7818608E-02  0.3353714E+00
         11   -1    0    0    0    0  0.00000000000E+00  0.00000000000E+00  0.39999999674E+01  0.40000000000E+01  0.51100000000E-03 0.  1.
    9000002   -1    0    0    0    0 -0.00000000000E+00 -0.00000000000E+00  0.00000000000E+00  0.93800000000E+00  0.93800000000E+00 0. -1.
         11    1    1    2    0    0 -0.87726718800E-01  0.14678978160E+00  0.14520799243E+01  0.14621147646E+01  0.51100000000E-03 0.  1.
    9000002    1    1    2    0    0  0.23183693495E+00 -0.38913366968E+00  0.13941190659E+00  0.10509296156E+01  0.93800000000E+00 0. -1.
         22    1    1    2    0    0 -0.14411021615E+00  0.24234388808E+00  0.24085081365E+01  0.24249556198E+01  0.00000000000E+00 0.  1.
</event>
<event>
 5    1  0.1537976E+002  0.1599369E+01  0.7818608E-02  0.3354049E+00
         11   -1    0    0    0    0  0.00000000000E+00  0.00000000000E+00  0.39999999674E+01  0.40000000000E+01  0.51100000000E-03 0.  1.
    9000002   -1    0    0    0    0 -0.00000000000E+00 -0.00000000000E+00  0.00000000000E+00  0.93800000000E+00  0.93800000000E+00 0. -1.
         11    1    1    2    0    0 -0.10521319169E+00  0.15636175516E+00  0.14220586959E+01  0.14344929453E+01  0.51100000000E-03 0.  1.
    9000002    1    1    2    0    0  0.23668828466E+00 -0.45006867125E+00  0.17755031443E+00  0.10816428556E+01  0.93800000000E+00 0. -1.
         22    1    1    2    0    0 -0.13147509297E+00  0.29370691609E+00  0.24003909570E+01  0.24218641991E+01  0.00000000000E+00 0.  1.
</event>
<event>
 5    1  0.1537976E+002  0.1599655E+01  0.7818608E-02  0.3353738E+00
         11   -1    0    0    0    0  0.00000000000E+00  0.00000000000E+00  0.39999999674E+01  0.40000000000E+01  0.51100000000E-03 0. -1.
    9000002   -1    0    0    0    0 -0.00000000000E+00 -0.00000000000E+00  0.00000000000E+00  0.93800000000E+00  0.93800000000E+00 0. -1.
         11    1    1    2    0    0  0.48666470116E-01 -0.10681506782E-01  0.58260232125E+00  0.58472920720E+00  0.51100000000E-03 0. -1.
    9000002    1    1    2    0    0 -0.32140081697E+00  0.97886385434E-01  0.75590298404E-01  0.99921875624E+00  0.93800000000E+00 0. -1.
         22    1    1    2    0    0  0.27273434686E+00 -0.87204878652E-01  0.33418073477E+01  0.33540520366E+01  0.00000000000E+00 0. -1.
</event>
<event>
 5    1  0.1537976E+002  0.1599674E+01  0.7818608E-02  0.3353717E+00
         11   -1    0    0    0    0  0.00000000000E+00  0.00000000000E+00  0.39999999674E+01  0.40000000000E+01  0.51100000000E-03 0. -1.
    9000002   -1    0    0    0    0 -0.00000000000E+00 -0.00000000000E+00  0.00000000000E+00  0.93800000000E+00  0.93800000000E+00 0. -1.
         11    1    1    2    0    0  0.29057502387E-02 -0.30057427255E-02  0.73292661699E-01  0.73413576767E-01  0.51100000000E-03 0.  1.
    9000002    1    1    2    0    0 -0.14747851783E+00  0.16736433958E+00  0.32993366154E-01  0.96472446719E+00  0.93800000000E+00 0. -1.
         22    1    1    2    0    0  0.14457276759E+00 -0.16435859685E+00  0.38937139395E+01  0.38998619560E+01  0.00000000000E+00 0. -1.
</event>
<event>
 5    1  0.1537976E+002  0.1599383E+01  0.7818608E-02  0.3354033E+00
         11   -1    0    0    0    0  0.00000000000E+00  0.00000000000E+00  0.39999999674E+01  0.40000000000E+01  0.51100000000E-03 0. -1.
    9000002   -1    0    0    0    0 -0.00000000000E+00 -0.00000000000E+00  0.00000000000E+00  0.93800000000E+00  0.93800000000E+00 0.  1.
         11    1    1    2    0    0  0.10017748573E+00 -0.24217281261E+00  0.20651035879E+01  0.20816667095E+01  0.51100000000E-03 0. -1.
    9000002    1    1    2    0    0 -0.21427551767E+00  0.47214297506E+00  0.18488629001E+00  0.10875936404E+01  0.93800000000E+00 0.  1.
         22    1    1    2    0    0  0.11409803194E+00 -0.22997016245E+00  0.17500100895E+01  0.17687396501E+01  0.00000000000E+00 0. -1.
</event>
<event>
 5    1  0.1537976E+002  0.1583520E+01  0.7818608E-02  0.3371447E+00
         11   -1    0    0    0    0  0.00000000000E+00  0.00000000000E+00  0.39999999674E+01  0.40000000000E+01  0.51100000000E-03 0.  1.
    9000002   -1    0    0    0    0 -0.00000000000E+00 -0.00000000000E+00  0.00000000000E+00  0.93800000000E+00  0.93800000000E+00 0. -1.
         11    1    1    2    0    0 -0.14915437810E+00 -0.66808765536E-02  0.16782817026E+01  0.16849099077E+01  0.51100000000E-03 0.  1.
    9000002    1    1    2    0    0  0.44583100303E+00  0.33998556065E+00  0.23315233553E+00  0.11173895812E+01  0.93800000000E+00 0. -1.
         22    1    1    2    0    0 -0.29667662493E+00 -0.33330468410E+00  0.20885659292E+01  0.21357005111E+01  0.00000000000E+00 0.  1.
</event>
<event>
 5    1  0.1537976E+002  0.1589277E+01  0.7818608E-02  0.3365085E+00
         11   -1    0    0    0    0  0.00000000000E+00  0.00000000000E+00  0.39999999674E+01  0.40000000000E+01  0.51100000000E-03 0.  1.
    9000002   -1    0    0    0    0 -0.00000000000E+00 -0.00000000000E+00  0.00000000000E+00  0.93800000000E+00  0.93800000000E+00 0.  1.
         11    1    1    2    0    0 -0.18854506966E+00 -0.14636903863E+00  0.92483020610E+00  0.95513575475E+00  0.51100000000E-03 0.  1.
    9000002    1    1    2    0    0  0.43195064156E+00  0.32296150218E+00  0.21029413430E+00  0.11022491150E+01  0.93800000000E+00 0.  1.
         22    1    1    2    0    0 -0.24340557189E+00 -0.17659246355E+00  0.28648756270E+01  0.28806151302E+01  0.00000000000E+00 0.  1.
</event>
<event>
 5    1  0.1537976E+002  0.1589634E+01  0.7818608E-02  0.3364691E+00
         11   -1    0    0    0    0  0.00000000000E+00  0.00000000000E+00  0.39999999674E+01  0.40000000000E+01  0.51100000000E-03 0.  1.
    9000002   -1    0    0    0    0 -0.00000000000E+00 -0.00000000000E+00  0.00000000000E+00  0.93800000000E+00  0.93800000000E+00 0.  1.
         11    1    1    2    0    0 -0.38913800424E-01  0.36619749121E-01  0.48048683861E+00  0.48344922493E+00  0.51100000000E-03 0.  1.
    9000002    1    1    2    0    0 -0.10948745590E+00  0.18414177410E+00  0.38013986632E-01  0.96290433541E+00  0.93800000000E+00 0.  1.
         22    1    1    2    0    0  0.14840125633E+00 -0.22076152322E+00  0.34814991421E+01  0.34916464397E+01  0.00000000000E+00 0.  1.
</event>
<event>
 5    1  0.1715930E+002  0.1594299E+01  0.7818608E-02  0.3359574E+00
         11   -1    0    0    0    0  0.00000000000E+00  0.00000000000E+00  0.39999999674E+01  0.40000000000E+01  0.51100000000E-03 0.  1.
    9000002   -1    0    0    0    0 -0.00000000000E+00 -0.00000000000E+00  0.00000000000E+00  0.93800000000E+00  0.93800000000E+00 0. -1.
         11    1    1    2    0    0 -0.39401354455E-01  0.55583287635E-02  0.48000089047E+00  0.48164766970E+00  0.51100000000E-03 0.  1.
    9000002    1    1    2    0    0 -0.11691430898E+00  0.12811543591E+00  0.23891404350E-01  0.95419983220E+00  0.93800000000E+00 0. -1.
         22    1    1    2    0    0  0.15631566344E+00 -0.13367376467E+00  0.34961076725E+01  0.35021524981E+01  0.00000000000E+00 0.  1.
</event>
<event>
 5    1  0.1537976E+002  0.1598672E+01  0.7818608E-02  0.3354805E+00
         11   -1    0    0    0    0  0.00000000000E+00  0.00000000000E+00  0.39999999674E+01  0.40000000000E+01  0.51100000000E-03 0.  1.
    9000002   -1    0    0    0    0 -0.00000000000E+00 -0.00000000000E+00  0.00000000000E+00  0.93800000000E+00  0.93800000000E+00 0. -1.
         11    1    1    2    0    0 -0.28804049389E+00 -0.11784034327E+00  0.20239206125E+01  0.20477081285E+01  0.51100000000E-03 0.  1.
    9000002    1    1    2    0    0  0.50531253019E+00  0.15950456490E+00  0.19414567429E+00  0.10946775791E+01  0.93800000000E+00 0. -1.
         22    1    1    2    0    0 -0.21727203630E+00 -0.41664221633E-01  0.17819336806E+01  0.17956142924E+01  0.00000000000E+00 0. -1.
</event>
<event>
 5    1  0.1537976E+002  0.1599600E+01  0.7818608E-02  0.3353798E+00
         11   -1    0    0    0    0  0.00000000000E+00  0.00000000000E+00  0.39999999674E+01  0.40000000000E+01  0.51100000000E-03 0. -1.
    9000002   -1    0    0    0    0 -0.00000000000E+00 -0.00000000000E+00  0.00000000000E+00  0.93800000000E+00  0.93800000000E+00 0.  1.
         11    1    1    2    0    0  0.10552691247E-01  0.32629422428E-01  0.37152211537E+00  0.37310183841E+00  0.51100000000E-03 0. -1.
    9000002    1    1    2    0    0 -0.98378489697E-01 -0.40509730105E+00  0.11754511304E+00  0.10331713334E+01  0.93800000000E+00 0.  1.
         22    1    1    2    0    0  0.87825798450E-01  0.37246787862E+00  0.35109327390E+01  0.35317268282E+01  0.00000000000E+00 0. -1.
</event>
<event>
 5    1  0.1537976E+002  0.1599669E+01  0.7818608E-02  0.3353722E+00
         11   -1    0    0    0    0  0.00000000000E+00  0.00000000000E+00  0.39999999674E+01  0.40000000000E+01  0.51100000000E-03 0.  1.
    9000002   -1    0    0    0    0 -0.00000000000E+00 -0.00000000000E+00  0.00000000000E+00  0.93800000000E+00  0.93800000000E+00 0.  1.
         11    1    1    2    0    0 -0.23975813964E+00  0.20693591234E-01  0.20022279526E+01  0.20166380998E+01  0.51100000000E-03 0.  1.
    9000002    1    1    2    0    0  0.45547676807E+00 -0.40408750538E-01  0.14217241673E+00  0.10531614071E+01  0.93800000000E+00 0.  1.
         22    1    1    2    0    0 -0.21571862843E+00  0.19715159304E-01  0.18555995980E+01  0.18682004931E+01  0.00000000000E+00 0. -1.
</event>
<event>
 5    1  0.1537976E+002  0.1599628E+01  0.7818608E-02  0.3353767E+00
         11   -1    0    0    0    0  0.00000000000E+00  0.00000000000E+00  0.39999999674E+01  0.40000000000E+01  0.51100000000E-03 0. -1.
    9000002   -1    0    0    0    0 -0.00000000000E+00 -0.00000000000E+00  0.00000000000E+00  0.93800000000E+00  0.93800000000E+00 0.  1.
         11    1    1    2    0    0 -0.19268761907E-01  0.70594326176E-01  0.57527409311E+00  0.57990980971E+00  0.51100000000E-03 0. -1.
    9000002    1    1    2    0    0  0.12010187864E+00 -0.50742464174E+00  0.18686848184E+00  0.10893429477E+01  0.93800000000E+00 0.  1.
         22    1    1    2    0    0 -0.10083311673E+00  0.43683031556E+00  0.32378573924E+01  0.32687472425E+01  0.00000000000E+00 0. -1.
</event>
<event>
 5    1  0.1537976E+002  0.1590825E+01  0.7818608E-02  0.3363382E+00
         11   -1    0    0    0    0  0.00000000000E+00  0.00000000000E+00  0.39999999674E+01  0.40000000000E+01  0.51100000000E-03 0. -1.
    9000002   -1    0    0    0    0 -0.00000000000E+00 -0.00000000000E+00  0.00000000000E+00  0.93800000000E+00  0.93800000000E+00 0.  1.
         11    1    1    2    0    0  0.85760732687E-02 -0.55007077180E-02  0.15400394651E+01  0.15400732522E+01  0.51100000000E-03 0. -1.
    9000002    1    1    2    0    0  0.25676232467E+00 -0.37708978722E-01  0.51596673738E-01  0.97460508679E+00  0.93800000000E+00 0.  1.
         22    1    1    2    0    0 -0.26533839794E+00  0.43209686440E-01  0.24083638285E+01  0.24233216610E+01  0.00000000000E+00 0. -1.
</event>
<event>
 5    1  0.1537976E+002  0.1599183E+01  0.7818608E-02  0.3354250E+00
         11   -1    0    0    0    0  0.00000000000E+00  0.00000000000E+00  0.39999999674E+01  0.40000000000E+01  0.51100000000E-03 0.  1.
    9000002   -1    0    0    0    0 -0.00000000000E+00 -0.00000000000E+00  0.00000000000E+00  0.93800000000E+00  0.93800000000E+00 0.  1.
         11    1    1    2    0    0 -0.11513157436E-01  0.15814822548E-01  0.48904821515E+00  0.48943955630E+00  0.51100000000E-03 0.  1.
    9000002    1    1    2    0    0  0.36592444112E-01 -0.25861971123E+00  0.45739118036E-01  0.97476111377E+00  0.93800000000E+00 0.  1.
         22    1    1    2    0    0 -0.25079286677E-01  0.24280488868E+00  0.34652126342E+01  0.34737993299E+01  0.00000000000E+00 0.  1.
</event>
<event>
 5    1  0.1537976E+002  0.1551947E+01  0.7818608E-02  0.3407228E+00
         11   -1    0    0    0    0  0.00000000000E+00  0.00000000000E+00  0.39999999674E+01  0.40000000000E+01  0.51100000000E-03 0.  1.
    9000002   -1    0    0    0    0 -0.00000000000E+00 -0.00000000000E+00  0.00000000000E+00  0.93800000000E+00  0.93800000000E+00 0. -1.
         11    1    1    2    0    0  0.17801322687E+00 -0.75849918068E-01  0.83205098127E+00  0.85425465499E+00  0.51100000000E-03 0.  1.
    9000002    1    1    2    0    0  0.76839567279E-01 -0.75447198308E-01  0.43386296529E-01  0.94515764270E+00  0.93800000000E+00 0. -1.
         22    1    1    2    0    0 -0.25485279415E+00  0.15129711638E+00  0.31245626896E+01  0.31385877023E+01  0.00000000000E+00 0.  1.
</event>
<event>
 5    1  0.1537976E+002  0.1599677E+01  0.7818608E-02  0.3353714E+00
         11   -1    0    0    0    0  0.00000000000E+00  0.00000000000E+00  0.39999999674E+01  0.40000000000E+01  0.51100000000E-03 0. -1.
    9000002   -1    0    0    0    0 -0.00000000000E+00 -0.00000000000E+00  0.00000000000E+00  0.93800000000E+00  0.93800000000E+00 0. -1.
         11    1    1    2    0    0 -0.64253716887E-01  0.12992545171E+00  0.16295033842E+01  0.16359372553E+01  0.51100000000E-03 0. -1.
    9000002    1    1    2    0    0  0.15447595618E+00 -0.31276776552E+00  0.81581599829E-01  0.10040846845E+01  0.93800000000E+00 0. -1.
         22    1    1    2    0    0 -0.90222239296E-01  0.18284231381E+00  0.22889149834E+01  0.22979780602E+01  0.00000000000E+00 0.  1.
</event>
<event>
 5    1  0.1537976E+002  0.1599675E+01  0.7818608E-02  0.3353716E+00
         11   -1    0    0    0    0  0.00000000000E+00  0.00000000000E+00  0.39999999674E+01  0.40000000000E+01  0.51100000000E-03 0.  1.
    9000002   -1    0    0    0    0 -0.00000000000E+00 -0.00000000000E+00  0.00000000000E+00  0.93800000000E+00  0.93800000000E+00 0.  1.
         11    1    1    2    0    0 -0.57052817394E-01  0.37343936763E-01  0.98225493651E+00  0.98461902024E+00  0.51100000000E-03 0.  1.
    9000002    1    1    2    0    0  0.23092409199E+00 -0.15501819010E+00  0.51505890973E-01  0.97972109926E+00  0.93800000000E+00 0.  1.
         22    1    1    2    0    0 -0.17387127459E+00  0.11767425333E+00  0.29662391399E+01  0.29736598805E+01  0.00000000000E+00 0.  1.
</event>
<event>
 5    1  0.1537976E+002  0.1591801E+01  0.7818608E-02  0.3362311E+00
         11   -1    0    0    0    0  0.00000000000E+00  0.00000000000E+00  0.39999999674E+01  0.40000000000E+01  0.51100000000E-03 0. -1.
    9000002   -1    0    0    0    0 -0.00000000000E+00 -0.00000000000E+00  0.00000000000E+00  0.93800000000E+00  0.93800000000E+00 0.  1.
         11    1    1    2    0    0  0.56938769298E-01 -0.23935409803E-01  0.35013544331E+00  0.35554186402E+00  0.51100000000E-03 0. -1.
    9000002    1    1    2    0    0  0.43946175630E-01  0.25601306335E+00  0.50926180843E-01  0.97463399841E+00  0.93800000000E+00 0.  1.
         22    1    1    2    0    0 -0.10088494493E+00 -0.23207765355E+00  0.35989383432E+01  0.36078241376E+01  0.00000000000E+00 0. -1.
</event>
<event>
 5    1  0.1537976E+002  0.1581118E+01  0.7818608E-02  0.3374116E+00
         11   -1    0    0    0    0  0.00000000000E+00  0.00000000000E+00  0.39999999674E+01  0.40000000000E+01  0.51100000000E-03 0. -1.
    9000002   -1    0    0    0    0 -0.00000000000E+00 -0.00000000000E+00  0.00000000000E+00  0.93800000000E+00  0.93800000000E+00 0. -1.
         11    1    1    2    0    0  0.14483021357E+00  0.16304892257E+00  0.13172161360E+01  0.13351476892E+01  0.51100000000E-03 0. -1.
    9000002    1    1    2    0    0 -0.31289414647E+00 -0.38895773677E-01  0.81211273298E-01  0.99290226055E+00  0.93800000000E+00 0. -1.
         22    1    1    2    0    0  0.16806393290E+00 -0.12415314890E+00  0.26015725580E+01  0.26099500502E+01  0.00000000000E+00 0. -1.
</event>
<event>
 5    1  0.1537976E+002  0.1491520E+01  0.7818608E-02  0.3480231E+00
         11   -1    0    0    0    0  0.00000000000E+00  0.00000000000E+00  0.39999999674E+01  0.40000000000E+01  0.51100000000E-03 0. -1.
    9000002   -1    0    0    0    0 -0.00000000000E+00 -0.00000000000E+00  0.00000000000E+00  0.93800000000E+00  0.93800000000E+00 0. -1.
         11    1    1    2    0    0  0.27571558421E+00 -0.25679436680E+00  0.28348231141E+01  0.28597525731E+01  0.51100000000E-03 0. -1.
    9000002    1    1    2    0    0  0.99097525400E-01  0.29473662314E+00  0.15521758795E+00  0.10003131990E+01  0.93800000000E+00 0. -1.
         22    1    1    2    0    0 -0.37481310961E+00 -0.37942256343E-01  0.10099592653E+01  0.10779342279E+01  0.00000000000E+00 0. -1.
</event>
<event>
 5    1  0.1537976E+002  0.1599677E+01  0.7818608E-02  0.3353714E+00
         11   -1    0    0    0    0  0.00000000000E+00  0.00000000000E+00  0.39999999674E+01  0.40000000000E+01  0.51100000000E-03 0.  1.
    9000002   -1    0    0    0    0 -0.00000000000E+00 -0.00000000000E+00  0.00000000000E+00  0.93800000000E+00  0.93800000000E+00 0. -1.
         11    1    1    2    0    0  0.37416523822E-01  0.45253299103E+00  0.21844848166E+01  0.22311791231E+01  0.51100000000E-03 0.  1.
    9000002    1    1    2    0    0 -0.61028983192E-01 -0.74567982296E+00  0.40556750362E+00  0.12665275106E+01  0.93800000000E+00 0. -1.
         22    1    1    2    0    0  0.23612459370E-01  0.29314683193E+00  0.14099476471E+01  0.14402933663E+01  0.00000000000E+00 0.  1.
</event>
<event>
 5    1  0.1537976E+002  0.1599310E+01  0.7818608E-02  0.3354113E+00
         11   -1    0    0    0    0  0.00000000000E+00  0.00000000000E+00  0.39999999674E+01  0.40000000000E+01  0.51100000000E-03 0. -1.
    9000002   -1    0    0    0    0 -0.00000000000E+00 -0.00000000000E+00  0.00000000000E+00  0.93800000000E+00  0.93800000000E+00 0. -1.
         11    1    1    2    0    0 -0.14017316185E+00 -0.14577790437E-01  0.14898874693E+01  0.14965379913E+01  0.51100000000E-03 0. -1.
    9000002    1    1    2    0    0  0.33593248197E+00  0.87283488531E-01  0.81044979750E-01  0.10034347655E+01  0.93800000000E+00 0. -1.
         22    1    1    2    0    0 -0.19575932011E+00 -0.72705698095E-01  0.24290675183E+01  0.24380272432E+01  0.00000000000E+00 0. -1.
</event>
<event>
 5    1  0.1537976E+002  0.1599651E+01  0.7818608E-02  0.3353743E+00
         11   -1    0    0    0    0  0.00000000000E+00  0.00000000000E+00  0.39999999674E+01  0.40000000000E+01  0.51100000000E-03 0. -1.
    9000002   -1    0    0    0    0 -0.00000000000E+00 -0.00000000000E+00  0.00000000000E+00  0.93800000000E+00  0.93800000000E+00 0. -1.
         11    1    1    2    0    0 -0.64484815859E-01  0.10317888329E+00  0.13391407398E+01  0.13446569657E+01  0.51100000000E-03 0. -1.
    9000002    1    1    2    0    0  0.19145077184E+00 -0.28510462501E+00  0.79043098870E-01  0.10020129025E+01  0.93800000000E+00 0. -1.
         22    1    1    2    0    0 -0.12696595599E+00  0.18192574173E+00  0.25818161287E+01  0.25913301318E+01  0.00000000000E+00 0. -1.
</event>
<event>
 5    1  0.1537976E+002  0.1582831E+01  0.7818608E-02  0.3372211E+00
         11   -1    0    0    0    0  0.00000000000E+00  0.00000000000E+00  0.39999999674E+01  0.40000000000E+01  0.51100000000E-03 0. -1.
    9000002   -1    0    0    0    0 -0.00000000000E+00 -0.00000000000E+00  0.00000000000E+00  0.93800000000E+00  0.93800000000E+00 0. -1.
         11    1    1    2    0    0  0.32697268816E+00  0.17969363909E+00  0.26691028989E+01  0.26950531514E+01  0.51100000000E-03 0. -1.
    9000002    1    1    2    0    0 -0.61932719548E+00 -0.14446346342E+00  0.30209900278E+00  0.11728357408E+01  0.93800000000E+00 0. -1.
         22    1    1    2    0    0  0.29235450732E+00 -0.35230175666E-01  0.10287980657E+01  0.10701111079E+01  0.00000000000E+00 0. -1.
</event>
<event>
 5    1  0.1537976E+002  0.1599097E+01  0.7818608E-02  0.3354344E+00
         11   -1    0    0    0    0  0.00000000000E+00  0.00000000000E+00  0.39999999674E+01  0.40000000000E+01  0.51100000000E-03 0. -1.
    9000002   -1    0    0    0    0 -0.00000000000E+00 -0.00000000000E+00  0.00000000000E+00  0.93800000000E+00  0.93800000000E+00 0. -1.
         11    1    1    2    0    0 -0.10304010222E+00  0.17213764522E-01  0.10008509971E+01  0.10062885053E+01  0.51100000000E-03 0. -1.
    9000002    1    1    2    0    0  0.39459277798E+00 -0.16481429485E+00  0.12429596735E+00  0.10383451737E+01  0.93800000000E+00 0. -1.
         22    1    1    2    0    0 -0.29155267577E+00  0.14760053033E+00  0.28748530029E+01  0.28933663211E+01  0.00000000000E+00 0. -1.
</event>
<event>
 5    1  0.1537976E+002  0.1599665E+01  0.7818608E-02  0.3353727E+00
         11   -1    0    0    0    0  0.00000000000E+00  0.00000000000E+00  0.39999999674E+01  0.40000000000E+01  0.51100000000E-03 0.  1.
    9000002   -1    0    0    0    0 -0.00000000000E+00 -0.00000000000E+00  0.00000000000E+00  0.93800000000E+00  0.93800000000E+00 0. -1.
         11    1    1    2    0    0  0.98241450791E-02 -0.38248783433E-02  0.19257573328E+00  0.19286476529E+00  0.51100000000E-03 0.  1.
    9000002    1    1    2    0    0 -0.21656190788E+00  0.11058927004E+00  0.39267449301E-01  0.96980151535E+00  0.93800000000E+00 0. -1.
         22    1    1    2    0    0  0.20673776280E+00 -0.10676439170E+00  0.37681567848E+01  0.37753337194E+01  0.00000000000E+00 0.  1.
</event>
<event>
 5    1  0.1537976E+002  0.1595070E+01  0.7818608E-02  0.3358732E+00
         11   -1    0    0    0    0  0.00000000000E+00  0.00000000000E+00  0.39999999674E+01  0.40000000000E+01  0.51100000000E-03 0.  1.
    9000002   -1    0    0    0    0 -0.00000000000E+00 -0.00000000000E+00  0.00000000000E+00  0.93800000000E+00  0.93800000000E+00 0.  1.
         11    1    1    2    0    0  0.10304185745E+00  0.52735093620E-01  0.98036443634E+00  0.98717440387E+00  0.51100000000E-03 0.  1.
    9000002    1    1    2    0    0 -0.46295338754E+00  0.66197414341E-01  0.15298685541E+00  0.10592246762E+01  0.93800000000E+00 0.  1.
         22    1    1    2    0    0  0.35991153009E+00 -0.11893250796E+00  0.28666486756E+01  0.28916009200E+01  0.00000000000E+00 0.  1.
</event>
<event>
 5    1  0.1537976E+002  0.1599539E+01  0.7818608E-02  0.3353864E+00
         11   -1    0    0    0    0  0.00000000000E+00  0.00000000000E+00  0.39999999674E+01  0.40000000000E+01  0.51100000000E-03 0.  1.
    9000002   -1    0    0    0    0 -0.00000000000E+00 -0.00000000000E+00  0.00000000000E+00  0.93800000000E+00  0.93800000000E+00 0.  1.
         11    1    1    2    0    0 -0.41575093710E-01 -0.10029492526E-01  0.49569195911E+00  0.49753377633E+00  0.51100000000E-03 0.  1.
    9000002    1    1    2    0    0  0.36333098623E+00  0.14344131302E+00  0.10291345548E+00  0.10212835038E+01  0.93800000000E+00 0.  1.
         22    1    1    2    0    0 -0.32175589252E+00 -0.13341182049E+00  0.34013945528E+01  0.34191827199E+01  0.00000000000E+00 0.  1.
</event>
<event>
 5    1  0.1537976E+002  0.1599447E+01  0.7818608E-02  0.3353963E+00
         11   -1    0    0    0    0  0.00000000000E+00  0.00000000000E+00  0.39999999674E+01  0.40000000000E+01  0.51100000000E-03 0. -1.
    9000002   -1    0    0    0    0 -0.00000000000E+00 -0.00000000000E+00  0.00000000000E+00  0.93800000000E+00  0.93800000000E+00 0.  1.
         11    1    1    2    0    0 -0.79604868841E-01 -0.20960096175E+00  0.15539462360E+01  0.15700377906E+01  0.51100000000E-03 0. -1.
    9000002    1    1    2    0    0  0.18376573494E+00  0.47291820951E+00  0.17664777520E+00  0.10809578691E+01  0.93800000000E+00 0.  1.
         22    1    1    2    0    0 -0.10416086610E+00 -0.26331724776E+00  0.22694059561E+01  0.22870043404E+01  0.00000000000E+00 0. -1.
</event>
<event>
 5    1  0.1537976E+002  0.1599666E+01  0.7818608E-02  0.3353726E+00
         11   -1    0    0    0    0  0.00000000000E+00  0.00000000000E+00  0.39999999674E+01  0.40000000000E+01  0.51100000000E-03 0.  1.
    9000002   -1    0    0    0    0 -0.00000000000E+00 -0.00000000000E+00  0.00000000000E+00  0.93800000000E+00  0.93800000000E+00 0. -1.
         11    1    1    2    0    0  0.12565985921E+00 -0.17155448700E+00  0.14991445103E+01  0.15141518637E+01  0.51100000000E-03 0.  1.
    9000002    1    1    2    0    0 -0.31743689539E+00  0.44414212014E+00  0.20570024962E+00  0.11046198433E+01  0.93800000000E+00 0. -1.
         22    1    1    2    0    0  0.19177703618E+00 -0.27258763314E+00  0.22951552074E+01  0.23192282931E+01  0.00000000000E+00 0.  1.
</event>
<event>
 5    1  0.1537976E+002  0.1599586E+01  0.7818608E-02  0.3353813E+00
         11   -1    0    0    0    0  0.00000000000E+00  0.00000000000E+00  0.39999999674E+01  0.40000000000E+01  0.51100000000E-03 0. -1.
    9000002   -1    0    0    0    0 -0.00000000000E+00 -0.00000000000E+00  0.00000000000E+00  0.93800000000E+00  0.93800000000E+00 0.  1.
         11    1    1    2    0    0  0.41927780295E-01  0.46086367633E+00  0.20931956988E+01  0.21437401339E+01  0.51100000000E-03 0. -1.
    9000002    1    1    2    0    0 -0.90138441635E-01 -0.78159498972E+00  0.45408716721E+00  0.13057774780E+01  0.93800000000E+00 0.  1.
         22    1    1    2    0    0  0.48210661340E-01  0.32073131339E+00  0.14527171013E+01  0.14884823881E+01  0.00000000000E+00 0.  1.
</event>
<event>
 5    1  0.1537976E+002  0.1599636E+01  0.7818608E-02  0.3353759E+00
         11   -1    0    0    0    0  0.00000000000E+00  0.00000000000E+00  0.39999999674E+01  0.40000000000E+01  0.51100000000E-03 0. -1.
    9000002   -1    0    0    0    0 -0.00000000000E+00 -0.00000000000E+00  0.00000000000E+00  0.93800000000E+00  0.93800000000E+00 0. -1.
         11    1    1    2    0    0  0.89202881290E-01 -0.36532110436E-02  0.52525587690E+00  0.53278935548E+00  0.51100000000E-03 0. -1.
    9000002    1    1    2    0    0 -0.65013512727E+00  0.56849944841E-01  0.30077383022E+00  0.11816160531E+01  0.93800000000E+00 0. -1.
         22    1    1    2    0    0  0.56093224598E+00 -0.53196733797E-01  0.31739702602E+01  0.32235945914E+01  0.00000000000E+00 0. -1.
</event>
<event>
 5    1  0.1537976E+002  0.1599667E+01  0.7818608E-02  0.3353725E+00
         11   -1    0    0    0    0  0.00000000000E+00  0.00000000000E+00  0.39999999674E+01  0.40000000000E+01  0.51100000000E-03 0. -1.
    9000002   -1    0    0    0    0 -0.00000000000E+00 -0.00000000000E+00  0.00000000000E+00  0.93800000000E+00  0.93800000000E+00 0.  1.
         11    1    1    2    0    0  0.19037531884E+00  0.66204093634E-01  0.16401268558E+01  0.16524654636E+01  0.51100000000E-03 0. -1.
    9000002    1    1    2    0    0 -0.44015819647E+00 -0.15026405692E+00  0.14726286237E+00  0.10572837251E+01  0.93800000000E+00 0.  1.
         22    1    1    2    0    0  0.24978287763E+00  0.84059963289E-01  0.22126102492E+01  0.22282508113E+01  0.00000000000E+00 0. -1.
</event>
<event>
 5    1  0.1537976E+002  0.1599677E+01  0.7818608E-02  0.3353714E+00
         11   -1    0    0    0    0  0.00000000000E+00  0.00000000000E+00  0.39999999674E+01  0.40000000000E+01  0.51100000000E-03 0.  1.
    9000002   -1    0    0    0    0 -0.00000000000E+00 -0.00000000000E+00  0.00000000000E+00  0.93800000000E+00  0.93800000000E+00 0. -1.
         11    1    1    2    0    0 -0.20261656666E+00  0.22567991201E+00  0.21951935196E+01  0.22160459710E+01  0.51100000000E-03 0.  1.
    9000002    1    1    2    0    0  0.35118229959E+00 -0.39125437381E+00  0.19006412207E+00  0.10919603304E+01  0.93800000000E+00 0. -1.
         22    1    1    2    0    0 -0.14856573293E+00  0.16557446180E+00  0.16147423257E+01  0.16299936987E+01  0.00000000000E+00 0.  1.
</event>
<event>
 5    1  0.1537976E+002  0.1599653E+01  0.7818608E-02  0.3353740E+00
         11   -1    0    0    0    0  0.00000000000E+00  0.00000000000E+00  0.39999999674E+01  0.40000000000E+01  0.51100000000E-03 0.  1.
    9000002   -1    0    0    0    0 -0.00000000000E+00 -0.00000000000E+00  0.00000000000E+00  0.93800000000E+00  0.93800000000E+00 0. -1.
         11    1    1    2    0    0  0.62535643473E-01 -0.46086886547E-01  0.97541158056E+00  0.97850024038E+00  0.51100000000E-03 0.  1.
    9000002    1    1    2    0    0 -0.26831926085E+00  0.19743814207E+00  0.74295666539E-01  0.99816876918E+00  0.93800000000E+00 0. -1.
         22    1    1    2    0    0  0.20578361738E+00 -0.15135125553E+00  0.29502927203E+01  0.29613309904E+01  0.00000000000E+00 0.  1.
</event>
<event>
 5    1  0.1537976E+002  0.1599660E+01  0.7818608E-02  0.3353732E+00
         11   -1    0    0    0    0  0.00000000000E+00  0.00000000000E+00  0.39999999674E+01  0.40000000000E+01  0.51100000000E-03 0. -1.
    9000002   -1    0    0    0    0 -0.00000000000E+00 -0.00000000000E+00  0.00000000000E+00  0.93800000000E+00  0.93800000000E+00 0. -1.
         11    1    1    2    0    0  0.13056252165E-02  0.61743590531E-03  0.16331415153E-01  0.16403113308E-01  0.51100000000E-03 0.  1.
    9000002    1    1    2    0    0 -0.38414588897E+00 -0.91229394313E-01  0.10509616717E+00  0.10231227056E+01  0.93800000000E+00 0. -1.
         22    1    1    2    0    0  0.38284026375E+00  0.90611958408E-01  0.38785723850E+01  0.38984741811E+01  0.00000000000E+00 0. -1.
</event>
<event>
 5    1  0.1537976E+002  0.1598675E+01  0.7818608E-02  0.3354803E+00
         11   -1    0    0    0    0  0.00000000000E+00  0.00000000000E+00  0.39999999674E+01  0.40000000000E+01  0.51100000000E-03 0.  1.
    9000002   -1    0    0    0    0 -0.00000000000E+00 -0.00000000000E+00  0.00000000000E+00  0.93800000000E+00  0.93800000000E+00 0. -1.
         11    1    1    2    0    0  0.16656413045E+00 -0.84663105588E-01  0.88911511599E+00  0.90853585598E+00  0.51100000000E-03 0.  1.
    9000002    1    1    2    0    0 -0.68446643595E+00  0.21173512669E+00  0.36966961650E+00  0.12368612255E+01  0.93800000000E+00 0. -1.
         22    1    1    2    0    0  0.51790230549E+00 -0.12707202110E+00  0.27412152349E+01  0.27926029185E+01  0.00000000000E+00 0.  1.
</event>
<event>
 5    1  0.1537976E+002  0.1599676E+01  0.7818608E-02  0.3353715E+00
         11   -1    0    0    0    0  0.00000000000E+00  0.00000000000E+00  0.39999999674E+01  0.40000000000E+01  0.51100000000E-03 0. -1.
    9000002   -1    0    0    0    0 -0.00000000000E+00 -0.00000000000E+00  0.00000000000E+00  0.93800000000E+00  0.93800000000E+00 0. -1.
         11    1    1    2    0    0 -0.38147155731E+00  0.15033512490E+00  0.25040114766E+01  0.25373598355E+01  0.51100000000E-03 0. -1.
    9000002    1    1    2    0    0  0.57071022570E+00 -0.22522810792E+00  0.26341475962E+00  0.11513770876E+01  0.93800000000E+00 0. -1.
         22    1    1    2    0    0 -0.18923866839E+00  0.74892983022E-01  0.12325737312E+01  0.12492630769E+01  0.00000000000E+00 0. -1.
</event>
<event>
 5    1  0.1537976E+002  0.1573903E+01  0.7818608E-02  0.3382184E+00
         11   -1    0    0    0    0  0.00000000000E+00  0.00000000000E+00  0.39999999674E+01  0.40000000000E+01  0.51100000000E-03 0. -1.
    9000002   -1    0    0    0    0 -0.00000000000E+00 -0.00000000000E+00  0.00000000000E+00  0.93800000000E+00  0.93800000000E+00 0.  1.
         11    1    1    2    0    0 -0.99102499036E-01 -0.13112509745E+00  0.17941536326E+01  0.18016666215E+01  0.51100000000E-03 0. -1.
    9000002    1    1    2    0    0 -0.82347364040E-01 -0.99737854263E-02  0.23539105423E-01  0.94195469862E+00  0.93800000000E+00 0.  1.
         22    1    1    2    0    0  0.18144986308E+00  0.14109888288E+00  0.21823072293E+01  0.21943786799E+01  0.00000000000E+00 0. -1.
</event>
<event>
 5    1  0.1537976E+002  0.1585514E+01  0.7818608E-02  0.3369238E+00
         11   -1    0    0    0    0  0.00000000000E+00  0.00000000000E+00  0.39999999674E+01  0.40000000000E+01  0.51100000000E-03 0. -1.
    9000002   -1    0    0    0    0 -0.00000000000E+00 -0.00000000000E+00  0.00000000000E+00  0.93800000000E+00  0.93800000000E+00 0.  1.
         11    1    1    2    0    0  0.15722483593E-01 -0.52530863044E-01  0.99760203850E-01  0.11383781206E+00  0.51100000000E-03 0. -1.
    9000002    1    1    2    0    0 -0.30583431098E+00  0.23374557259E+00  0.11151203915E+00  0.10200247808E+01  0.93800000000E+00 0.  1.
         22    1    1    2    0    0  0.29011182739E+00 -0.18121470955E+00  0.37887277244E+01  0.38041374072E+01  0.00000000000E+00 0. -1.
</event>
<event>
 5    1  0.1537976E+002  0.1588941E+01  0.7818608E-02  0.3365454E+00
         11   -1    0    0    0    0  0.00000000000E+00  0.00000000000E+00  0.39999999674E+01  0.40000000000E+01  0.51100000000E-03 0. -1.
    9000002   -1    0    0    0    0 -0.00000000000E+00 -0.00000000000E+00  0.00000000000E+00  0.93800000000E+00  0.93800000000E+00 0.  1.
         11    1    1    2    0    0  0.56833171741E-02  0.13847959236E+00  0.39415734747E+00  0.41781475953E+00  0.51100000000E-03 0. -1.
    9000002    1    1    2    0    0 -0.89317007866E-01 -0.57213069482E+00  0.24343854261E+00  0.11289009628E+01  0.93800000000E+00 0.  1.
         22    1    1    2    0    0  0.83633690691E-01  0.43365110246E+00  0.33624040773E+01  0.33912842776E+01  0.00000000000E+00 0. -1.
</event>
<event>
 5    1  0.1537976E+002  0.1589065E+01  0.7818608E-02  0.3365319E+00
         11   -1    0    0    0    0  0.00000000000E+00  0.00000000000E+00  0.39999999674E+01  0.40000000000E+01  0.51100000000E-03 0.  1.
    9000002   -1    0    0    0    0 -0.00000000000E+00 -0.00000000000E+00  0.00000000000E+00  0.93800000000E+00  0.93800000000E+00 0. -1.
         11    1    1    2    0    0 -0.14317898776E-01  0.12115370812E+00  0.45177664480E+00  0.46795899513E+00  0.51100000000E-03 0.  1.
    9000002    1    1    2    0    0 -0.20725941371E-01 -0.36674255645E+00  0.99338762356E-01  0.10122459469E+01  0.93800000000E+00 0. -1.
         22    1    1    2    0    0  0.35043840147E-01  0.24558884833E+00  0.34488845602E+01  0.34577950579E+01  0.00000000000E+00 0.  1.
</event>
<event>
 5    1  0.1537976E+002  0.1599677E+01  0.7818608E-02  0.3353714E+00
         11   -1    0    0    0    0  0.00000000000E+00  0.00000000000E+00  0.39999999674E+01  0.40000000000E+01  0.51100000000E-03 0.  1.
    9000002   -1    0    0    0    0 -0.00000000000E+00 -0.00000000000E+00  0.00000000000E+00  0.93800000000E+00  0.93800000000E+00 0. -1.
         11    1    1    2    0    0  0.24829080271E+00 -0.17800570395E+00  0.22366555821E+01  0.22574239317E+01  0.51100000000E-03 0.  1.
    9000002    1    1    2    0    0 -0.42333297020E+00  0.30442439196E+00  0.18680972368E+00  0.10893240505E+01  0.93800000000E+00 0. -1.
         22    1    1    2    0    0  0.17504216749E+00 -0.12641868801E+00  0.15765346616E+01  0.15912520179E+01  0.00000000000E+00 0.  1.
</event>
<event>
 5    1  0.1537976E+002  0.1599668E+01  0.7818608E-02  0.3353724E+00
         11   -1    0    0    0    0  0.00000000000E+00  0.00000000000E+00  0.39999999674E+01  0.40000000000E+01  0.51100000000E-03 0. -1.
    9000002   -1    0    0    0    0 -0.00000000000E+00 -0.00000000000E+00  0.00000000000E+00  0.93800000000E+00  0.93800000000E+00 0. -1.
         11    1    1    2    0    0 -0.21692661364E+00 -0.99675567979E-01  0.74137294354E+00  0.77886229662E+00  0.51100000000E-03 0. -1.
    9000002    1    1    2    0    0  0.91561357757E+00  0.43236127947E+00  0.83090717878E+00  0.16110664912E+01  0.93800000000E+00 0. -1.
         22    1    1    2    0    0 -0.69868696394E+00 -0.33268571149E+00  0.24277198450E+01  0.25480712122E+01  0.00000000000E+00 0. -1.
</event>
<event>
 5    1  0.1537976E+002  0.1599658E+01  0.7818608E-02  0.3353735E+00
         11   -1    0    0    0    0  0.00000000000E+00  0.00000000000E+00  0.39999999674E+01  0.40000000000E+01  0.51100000000E-03 0.  1.
    9000002   -1    0    0    0    0 -0.00000000000E+00 -0.00000000000E+00  0.00000000000E+00  0.93800000000E+00  0.93800000000E+00 0.  1.
         11    1    1    2    0    0  0.12154825860E+00  0.51486105418E-01  0.12913238964E+01  0.12980533366E+01  0.51100000000E-03 0.  1.
    9000002    1    1    2    0    0 -0.36636567857E+00 -0.17013674151E+00  0.11013387740E+00  0.10272019238E+01  0.93800000000E+00 0.  1.
         22    1    1    2    0    0  0.24481741997E+00  0.11865063609E+00  0.25985421936E+01  0.26127447396E+01  0.00000000000E+00 0.  1.
</event>
<event>
 5    1  0.1537976E+002  0.1582767E+01  0.7818608E-02  0.3372283E+00
         11   -1    0    0    0    0  0.00000000000E+00  0.00000000000E+00  0.39999999674E+01  0.40000000000E+01  0.51100000000E-03 0.  1.
    9000002   -1    0    0    0    0 -0.00000000000E+00 -0.00000000000E+00  0.00000000000E+00  0.93800000000E+00  0.93800000000E+00 0.  1.
         11    1    1    2    0    0  0.11702716762E+00  0.38030335928E+00  0.16229163376E+01  0.16709828554E+01  0.51100000000E-03 0.  1.
    9000002    1    1    2    0    0 -0.21569277125E-01 -0.61129346672E+00  0.27893407774E+00  0.11540334293E+01  0.93800000000E+00 0.  1.
         22    1    1    2    0    0 -0.95457890493E-01  0.23099010744E+00  0.20981495521E+01  0.21129837154E+01  0.00000000000E+00 0.  1.
</event>
<event>
 5    1  0.1537976E+002  0.1599349E+01  0.7818608E-02  0.3354070E+00
         11   -1    0    0    0    0  0.00000000000E+00  0.00000000000E+00  0.39999999674E+01  0.40000000000E+01  0.51100000000E-03 0.  1.
    9000002   -1    0    0    0    0 -0.00000000000E+00 -0.00000000000E+00  0.00000000000E+00  0.93800000000E+00  0.93800000000E+00 0.  1.
         11    1    1    2    0    0  0.50909973157E-01 -0.78823889909E-02  0.72656772935E+00  0.72839198504E+00  0.51100000000E-03 0.  1.
    9000002    1    1    2    0    0 -0.35318571491E+00  0.88385987100E-01  0.89285466261E-01  0.10101327271E+01  0.93800000000E+00 0.  1.
         22    1    1    2    0    0  0.30227574176E+00 -0.80503598109E-01  0.31841467718E+01  0.31994752878E+01  0.00000000000E+00 0.  1.
</event>
<event>
 5    1  0.1537976E+002  0.1599673E+01  0.7818608E-02  0.3353718E+00
         11   -1    0    0    0    0  0.00000000000E+00  0.00000000000E+00  0.39999999674E+01  0.40000000000E+01  0.51100000000E-03 0. -1.
    9000002   -1    0    0    0    0 -0.00000000000E+00 -0.00000000000E+00  0.00000000000E+00  0.93800000000E+00  0.93800000000E+00 0.  1.
         11    1    1    2    0    0  0.90489725740E-02 -0.22525624257E-01  0.11504558899E+00  0.11757991461E+00  0.51100000000E-03 0.  1.
    9000002    1    1    2    0    0 -0.30074797289E+00  0.70783546480E+00  0.43131882423E+00  0.12873850693E+01  0.93800000000E+00 0.  1.
         22    1    1    2    0    0  0.29169900032E+00 -0.68530984055E+00  0.34536355541E+01  0.35330350161E+01  0.00000000000E+00 0. -1.
</event>
<event>
 5    1  0.1537976E+002  0.1599677E+01  0.7818608E-02  0.3353714E+00
         11   -1    0    0    0    0  0.00000000000E+00  0.00000000000E+00  0.39999999674E+01  0.40000000000E+01  0.51100000000E-03 0. -1.
    9000002   -1    0    0    0    0 -0.00000000000E+00 -0.00000000000E+00  0.00000000000E+00  0.93800000000E+00  0.93800000000E+00 0.  1.
         11    1    1    2    0    0 -0.10950919252E+00 -0.15400799345E+00  0.18379916503E+01  0.18476807877E+01  0.51100000000E-03 0. -1.
    9000002    1    1    2    0    0  0.23340999343E+00  0.32632846032E+00  0.10859502467E+00  0.10259665533E+01  0.93800000000E+00 0.  1.
         22    1    1    2    0    0 -0.12390080091E+00 -0.17232046687E+00  0.20534132924E+01  0.20643526591E+01  0.00000000000E+00 0. -1.
</event>
<event>
 5    1  0.1537976E+002  0.1596844E+01  0.7818608E-02  0.3356796E+00
         11   -1    0    0    0    0  0.00000000000E+00  0.00000000000E+00  0.39999999674E+01  0.40000000000E+01  0.51100000000E-03 0. -1.
    9000002   -1    0    0    0    0 -0.00000000000E+00 -0.00000000000E+00  0.00000000000E+00  0.93800000000E+00  0.93800000000E+00 0.  1.
         11    1    1    2    0    0  0.33755167227E+00  0.54379583408E-01  0.17174942035E+01  0.17511952692E+01  0.51100000000E-03 0. -1.
    9000002    1    1    2    0    0 -0.60554273619E+00 -0.62595050116E-01  0.26190607663E+00  0.11484942049E+01  0.93800000000E+00 0.  1.
         22    1    1    2    0    0  0.26799106392E+00  0.82154667081E-02  0.20205996872E+01  0.20383105259E+01  0.00000000000E+00 0. -1.
</event>
<event>
 5    1  0.1537976E+002  0.1599518E+01  0.7818608E-02  0.3353887E+00
         11   -1    0    0    0    0  0.00000000000E+00  0.00000000000E+00  0.39999999674E+01  0.40000000000E+01  0.51100000000E-03 0. -1.
    9000002   -1    0    0    0    0 -0.00000000000E+00 -0.00000000000E+00  0.00000000000E+00  0.93800000000E+00  0.93800000000E+00 0.  1.
         11    1    1    2    0    0  0.92102293498E-01  0.30464846022E+00  0.21198340610E+01  0.21435928307E+01  0.51100000000E-03 0. -1.
    9000002    1    1    2    0    0 -0.16020352060E+00 -0.51874642259E+00  0.20347125485E+00  0.11027273328E+01  0.93800000000E+00 0.  1.
         22    1    1    2    0    0  0.68101227099E-01  0.21409796237E+00  0.16766946515E+01  0.16916798365E+01  0.00000000000E+00 0. -1.
</event>
<event>
 5    1  0.1537976E+002  0.1503500E+01  0.7818608E-02  0.3465257E+00
         11   -1    0    0    0    0  0.00000000000E+00  0.00000000000E+00  0.39999999674E+01  0.40000000000E+01  0.51100000000E-03 0. -1.
    9000002   -1    0    0    0    0 -0.00000000000E+00 -0.00000000000E+00  0.00000000000E+00  0.93800000000E+00  0.93800000000E+00 0.  1.
         11    1    1    2    0    0 -0.11333175825E+00  0.21777254638E+00  0.48658521607E+00  0.54500862654E+00  0.51100000000E-03 0. -1.
    9000002    1    1    2    0    0 -0.29163950083E-02  0.47516742685E-01  0.74779854979E-01  0.94217958633E+00  0.93800000000E+00 0.  1.
         22    1    1    2    0    0  0.11624815326E+00 -0.26528928906E+00  0.34386348963E+01  0.34508117871E+01  0.00000000000E+00 0. -1.
</event>
<event>
 5    1  0.1537976E+002  0.1599632E+01  0.7818608E-02  0.3353763E+00
         11   -1    0    0    0    0  0.00000000000E+00  0.00000000000E+00  0.39999999674E+01  0.40000000000E+01  0.51100000000E-03 0. -1.
    9000002   -1    0    0    0    0 -0.00000000000E+00 -0.00000000000E+00  0.00000000000E+00  0.93800000000E+00  0.93800000000E+00 0.  1.
         11    1    1    2    0    0  0.47618971884E-01  0.23207953747E-01  0.50868531258E+00  0.51143639287E+00  0.51100000000E-03 0. -1.
    9000002    1    1    2    0    0 -0.40366308388E+00 -0.17345112556E+00  0.13093810205E+00  0.10440392544E+01  0.93800000000E+00 0.  1.
         22    1    1    2    0    0  0.35604411200E+00  0.15024317181E+00  0.33603765527E+01  0.33825243527E+01  0.00000000000E+00 0. -1.
</event>
<event>
 5    1  0.1537976E+002  0.1277189E+01  0.7818608E-02  0.3826531E+00
         11   -1    0    0    0    0  0.00000000000E+00  0.00000000000E+00  0.39999999674E+01  0.40000000000E+01  0.51100000000E-03 0.  1.
    9000002   -1    0    0    0    0 -0.00000000000E+00 -0.00000000000E+00  0.00000000000E+00  0.93800000000E+00  0.93800000000E+00 0. -1.
         11    1    1    2    0    0 -0.74700219632E+00 -0.40988140164E-01  0.17558599682E+01  0.19085955041E+01  0.51100000000E-03 0.  1.
    9000002    1    1    2    0    0  0.14891139163E+00 -0.12596699142E+00  0.32401847715E+00  0.10113724631E+01  0.93800000000E+00 0. -1.
         22    1    1    2    0    0  0.59809080469E+00  0.16695513159E+00  0.19201215220E+01  0.20180320329E+01  0.00000000000E+00 0. -1.
</event>
<event>
 5    1  0.1537976E+002  0.1598488E+01  0.7818608E-02  0.3355006E+00
         11   -1    0    0    0    0  0.00000000000E+00  0.00000000000E+00  0.39999999674E+01  0.40000000000E+01  0.51100000000E-03 0.  1.
    9000002   -1    0    0    0    0 -0.00000000000E+00 -0.00000000000E+00  0.00000000000E+00  0.93800000000E+00  0.93800000000E+00 0. -1.
         11    1    1    2    0    0  0.32295228192E-01 -0.12108623263E+00  0.14920396316E+01  0.14972933517E+01  0.51100000000E-03 0.  1.
    9000002    1    1    2    0    0 -0.18650102344E+00  0.34271835146E+00  0.10354347304E+00  0.10211776295E+01  0.93800000000E+00 0. -1.
         22    1    1    2    0    0  0.15420579524E+00 -0.22163211883E+00  0.24044168627E+01  0.24195290188E+01  0.00000000000E+00 0.  1.
</event>
<event>
 5    1  0.1537976E+002  0.1562629E+01  0.7818608E-02  0.3394951E+00
         11   -1    0    0    0    0  0.00000000000E+00  0.00000000000E+00  0.39999999674E+01  0.40000000000E+01  0.51100000000E-03 0.  1.
    9000002   -1    0    0    0    0 -0.00000000000E+00 -0.00000000000E+00  0.00000000000E+00  0.93800000000E+00  0.93800000000E+00 0.  1.
         11    1    1    2    0    0  0.21562505922E+00  0.10209718770E+00  0.24872741736E+01  0.24986898722E+01  0.51100000000E-03 0.  1.
    9000002    1    1    2    0    0  0.96529774467E-02 -0.20908057127E+00  0.57410815194E-01  0.96278131835E+00  0.93800000000E+00 0.  1.
         22    1    1    2    0    0 -0.22527803666E+00  0.10698338357E+00  0.14553149786E+01  0.14765288094E+01  0.00000000000E+00 0.  1.
</event>
<event>
 5    1  0.1537976E+002  0.1599675E+01  0.7818608E-02  0.3353717E+00
         11   -1    0    0    0    0  0.00000000000E+00  0.00000000000E+00  0.39999999674E+01  0.40000000000E+01  0.51100000000E-03 0. -1.
    9000002   -1    0    0    0    0 -0.00000000000E+00 -0.00000000000E+00  0.00000000000E+00  0.93800000000E+00  0.93800000000E+00 0. -1.
         11    1    1    2    0    0  0.10726605151E+00 -0.25073031738E+00  0.16557909384E+01  0.16780988024E+01  0.51100000000E-03 0. -1.
    9000002    1    1    2    0    0 -0.24212409445E+00  0.56926019119E+00  0.26808619117E+00  0.11551603561E+01  0.93800000000E+00 0. -1.
         22    1    1    2    0    0  0.13485804295E+00 -0.31852987381E+00  0.20761228378E+01  0.21047408415E+01  0.00000000000E+00 0. -1.
</event>
<event>
 5    1  0.1537976E+002  0.1599677E+01  0.7818608E-02  0.3353714E+00
         11   -1    0    0    0    0  0.00000000000E+00  0.00000000000E+00  0.39999999674E+01  0.40000000000E+01  0.51100000000E-03 0.  1.
    9000002   -1    0    0    0    0 -0.00000000000E+00 -0.00000000000E+00  0.00000000000E+00  0.93800000000E+00  0.93800000000E+00 0. -1.
         11    1    1    2    0    0 -0.10965920508E+00  0.52488287675E-01  0.94056758571E+00  0.94839222161E+00  0.51100000000E-03 0.  1.
    9000002    1    1    2    0    0  0.44725244341E+00 -0.21458072455E+00  0.16834469168E+00  0.10743665905E+01  0.93800000000E+00 0. -1.
         22    1    1    2    0    0 -0.33759323834E+00  0.16209243688E+00  0.28910876900E+01  0.29152411879E+01  0.00000000000E+00 0.  1.
</event>
<event>
 5    1  0.2049813E+002  0.1591423E+01  0.7818608E-02  0.3362726E+00
         11   -1    0    0    0    0  0.00000000000E+00  0.00000000000E+00  0.39999999674E+01  0.40000000000E+01  0.51100000000E-03 0. -1.
    9000002   -1    0    0    0    0 -0.00000000000E+00 -0.00000000000E+00  0.00000000000E+00  0.93800000000E+00  0.93800000000E+00 0.  1.
         11    1    1    2    0    0  0.14712067414E-01  0.63609156275E-02  0.21544190530E-01  0.26857390823E-01  0.51100000000E-03 0. -1.
    9000002    1    1    2    0    0  0.18941232925E+00 -0.41263182700E-01  0.31067579895E-01  0.95832607981E+00  0.93800000000E+00 0.  1.
         22    1    1    2    0    0 -0.20412439666E+00  0.34902267073E-01  0.39473881969E+01  0.39528165294E+01  0.00000000000E+00 0. -1.
</event>
<event>
 5    1  0.1537976E+002  0.1575816E+01  0.7818608E-02  0.3380037E+00
         11   -1    0    0    0    0  0.00000000000E+00  0.00000000000E+00  0.39999999674E+01  0.40000000000E+01  0.51100000000E-03 0. -1.
    9000002   -1    0    0    0    0 -0.00000000000E+00 -0.00000000000E+00  0.00000000000E+00  0.93800000000E+00  0.93800000000E+00 0. -1.
         11    1    1    2    0    0  0.14056282009E+00 -0.18925956107E-01  0.20393955781E+01  0.20443215704E+01  0.51100000000E-03 0. -1.
    9000002    1    1    2    0    0  0.88103150250E-01  0.24377274741E-01  0.23107744417E-01  0.94272709967E+00  0.93800000000E+00 0. -1.
         22    1    1    2    0    0 -0.22866597034E+00 -0.54513186333E-02  0.19374966449E+01  0.19509513299E+01  0.00000000000E+00 0. -1.
</event>
<event>
 5    1  0.1537976E+002  0.1598306E+01  0.7818608E-02  0.3355204E+00
         11   -1    0    0    0    0  0.00000000000E+00  0.00000000000E+00  0.39999999674E+01  0.40000000000E+01  0.51100000000E-03 0.  1.
    9000002   -1    0    0    0    0 -0.00000000000E+00 -0.00000000000E+00  0.00000000000E+00  0.93800000000E+00  0.93800000000E+00 0.  1.
         11    1    1    2    0    0  0.21400192851E+00 -0.46903488588E-01  0.22706670166E+01  0.22812114597E+01  0.51100000000E-03 0.  1.
    9000002    1    1    2    0    0 -0.38475238812E+00  0.15306245585E+00  0.11702112697E+00  0.10319885948E+01  0.93800000000E+00 0.  1.
         22    1    1    2    0    0  0.17075045961E+00 -0.10615896726E+00  0.16123118238E+01  0.16247999455E+01  0.00000000000E+00 0.  1.
</event>
<event>
 5    1  0.1537976E+002  0.1599509E+01  0.7818608E-02  0.3353897E+00
         11   -1    0    0    0    0  0.00000000000E+00  0.00000000000E+00  0.39999999674E+01  0.40000000000E+01  0.51100000000E-03 0.  1.
    9000002   -1    0    0    0    0 -0.00000000000E+00 -0.00000000000E+00  0.00000000000E+00  0.93800000000E+00  0.93800000000E+00 0. -1.
         11    1    1    2    0    0 -0.42194578743E-03 -0.26756531108E-01  0.39049266802E+00  0.39140883344E+00  0.51100000000E-03 0.  1.
    9000002    1    1    2    0    0 -0.89778892234E-01  0.26852206609E+00  0.53527697577E-01  0.98126121083E+00  0.93800000000E+00 0. -1.
         22    1    1    2    0    0  0.90200838022E-01 -0.24176553499E+00  0.35559796018E+01  0.35653299557E+01  0.00000000000E+00 0.  1.
</event>
<event>
 5    1  0.1537976E+002  0.1583272E+01  0.7818608E-02  0.3371722E+00
         11   -1    0    0    0    0  0.00000000000E+00  0.00000000000E+00  0.39999999674E+01  0.40000000000E+01  0.51100000000E-03 0. -1.
    9000002   -1    0    0    0    0 -0.00000000000E+00 -0.00000000000E+00  0.00000000000E+00  0.93800000000E+00  0.93800000000E+00 0. -1.
         11    1    1    2    0    0  0.67847493232E-01  0.98201004606E-01  0.22760576121E+01  0.22791852129E+01  0.51100000000E-03 0. -1.
    9000002    1    1    2    0    0 -0.20175598526E+00  0.80824527449E-01  0.43782300248E-01  0.96384592734E+00  0.93800000000E+00 0. -1.
         22    1    1    2    0    0  0.13390849203E+00 -0.17902553205E+00  0.16801600550E+01  0.16949688598E+01  0.00000000000E+00 0.  1.
</event>
<event>
 5    1  0.1537976E+002  0.1592820E+01  0.7818608E-02  0.3361194E+00
         11   -1    0    0    0    0  0.00000000000E+00  0.00000000000E+00  0.39999999674E+01  0.40000000000E+01  0.51100000000E-03 0. -1.
    9000002   -1    0    0    0    0 -0.00000000000E+00 -0.00000000000E+00  0.00000000000E+00  0.93800000000E+00  0.93800000000E+00 0. -1.
         11    1    1    2    0    0 -0.11059587873E+00 -0.44592676710E-01  0.15921918366E+01  0.15966512020E+01  0.51100000000E-03 0. -1.
    9000002    1    1    2    0    0  0.22693759481E+00 -0.12719741534E+00  0.50277392034E-01  0.97470594056E+00  0.93800000000E+00 0. -1.
         22    1    1    2    0    0 -0.11634171608E+00  0.17179009205E+00  0.23575307387E+01  0.23666428574E+01  0.00000000000E+00 0. -1.
</event>
<event>
 5    1  0.1537976E+002  0.1548594E+01  0.7818608E-02  0.3411120E+00
         11   -1    0    0    0    0  0.00000000000E+00  0.00000000000E+00  0.39999999674E+01  0.40000000000E+01  0.51100000000E-03 0.  1.
    9000002   -1    0    0    0    0 -0.00000000000E+00 -0.00000000000E+00  0.00000000000E+00  0.93800000000E+00  0.93800000000E+00 0.  1.
         11    1    1    2    0    0 -0.19620980085E+00  0.17784037352E+00  0.17839156903E+01  0.18034635942E+01  0.51100000000E-03 0.  1.
    9000002    1    1    2    0    0  0.45917357289E-01  0.62485967823E-01  0.42088864998E-01  0.94214031462E+00  0.93800000000E+00 0.  1.
         22    1    1    2    0    0  0.15029244356E+00 -0.24032634135E+00  0.21739954121E+01  0.21923960912E+01  0.00000000000E+00 0.  1.
</event>
<event>
 5    1  0.1537976E+002  0.1530122E+01  0.7818608E-02  0.3432883E+00
         11   -1    0    0    0    0  0.00000000000E+00  0.00000000000E+00  0.39999999674E+01  0.40000000000E+01  0.51100000000E-03 0.  1.
    9000002   -1    0    0    0    0 -0.00000000000E+00 -0.00000000000E+00  0.00000000000E+00  0.93800000000E+00  0.93800000000E+00 0.  1.
         11    1    1    2    0    0 -0.15586343109E+00 -0.26307426694E+00  0.10640747480E+01  0.11071390200E+01  0.51100000000E-03 0.  1.
    9000002    1    1    2    0    0  0.88813251322E-01  0.45892203475E-01  0.59197723666E-01  0.94516784670E+00  0.93800000000E+00 0.  1.
         22    1    1    2    0    0  0.67050179764E-01  0.21718206346E+00  0.28767274957E+01  0.28856931333E+01  0.00000000000E+00 0.  1.
</event>
<event>
 5    1  0.1537976E+002  0.1599664E+01  0.7818608E-02  0.3353728E+00
         11   -1    0    0    0    0  0.00000000000E+00  0.00000000000E+00  0.39999999674E+01  0.40000000000E+01  0.51100000000E-03 0. -1.
    9000002   -1    0    0    0    0 -0.00000000000E+00 -0.00000000000E+00  0.00000000000E+00  0.93800000000E+00  0.93800000000E+00 0.  1.
         11    1    1    2    0    0 -0.85185414603E-01 -0.94688784863E-01  0.10359952893E+01  0.10437954883E+01  0.51100000000E-03 0. -1.
    9000002    1    1    2    0    0  0.30650824020E+00  0.36182471392E+00  0.15329956784E+00  0.10621719175E+01  0.93800000000E+00 0.  1.
         22    1    1    2    0    0 -0.22132282559E+00 -0.26713592906E+00  0.28107051103E+01  0.28320325942E+01  0.00000000000E+00 0. -1.
</event>
<event>
 5    1  0.1537976E+002  0.1588141E+01  0.7818608E-02  0.3366336E+00
         11   -1    0    0    0    0  0.00000000000E+00  0.00000000000E+00  0.39999999674E+01  0.40000000000E+01  0.51100000000E-03 0. -1.
    9000002   -1    0    0    0    0 -0.00000000000E+00 -0.00000000000E+00  0.00000000000E+00  0.93800000000E+00  0.93800000000E+00 0.  1.
         11    1    1    2    0    0  0.73788017868E-02  0.24860749516E+00  0.11864983686E+01  0.12122865887E+01  0.51100000000E-03 0. -1.
    9000002    1    1    2    0    0  0.11461123125E+00 -0.44167266210E+00  0.15162855801E+00  0.10540615231E+01  0.93800000000E+00 0.  1.
         22    1    1    2    0    0 -0.12199003303E+00  0.19306516694E+00  0.26618730407E+01  0.26716518882E+01  0.00000000000E+00 0. -1.
</event>
<event>
 5    1  0.1537976E+002  0.1599663E+01  0.7818608E-02  0.3353729E+00
         11   -1    0    0    0    0  0.00000000000E+00  0.00000000000E+00  0.39999999674E+01  0.40000000000E+01  0.51100000000E-03 0.  1.
    9000002   -1    0    0    0    0 -0.00000000000E+00 -0.00000000000E+00  0.00000000000E+00  0.93800000000E+00  0.93800000000E+00 0. -1.
         11    1    1    2    0    0 -0.30400968725E-02 -0.14237378962E+00  0.14399286496E+01  0.14469534599E+01  0.51100000000E-03 0.  1.
    9000002    1    1    2    0    0  0.19193316713E-01  0.38984720548E+00  0.10264849197E+00  0.10211414887E+01  0.93800000000E+00 0. -1.
         22    1    1    2    0    0 -0.16153219840E-01 -0.24747341587E+00  0.24574228258E+01  0.24699050514E+01  0.00000000000E+00 0.  1.
</event>
<event>
 5    1  0.1537976E+002  0.1599217E+01  0.7818608E-02  0.3354214E+00
         11   -1    0    0    0    0  0.00000000000E+00  0.00000000000E+00  0.39999999674E+01  0.40000000000E+01  0.51100000000E-03 0.  1.
    9000002   -1    0    0    0    0 -0.00000000000E+00 -0.00000000000E+00  0.00000000000E+00  0.93800000000E+00  0.93800000000E+00 0. -1.
         11    1    1    2    0    0 -0.77853097918E-01 -0.38943242548E-01  0.74152125852E+00  0.74661350039E+00  0.51100000000E-03 0.  1.
    9000002    1    1    2    0    0  0.31012569587E+00  0.16941334611E+00  0.84135232028E-01  0.10058834755E+01  0.93800000000E+00 0. -1.
         22    1    1    2    0    0 -0.23227259795E+00 -0.13047010356E+00  0.31743434768E+01  0.31855030241E+01  0.00000000000E+00 0.  1.
</event>
<event>
 5    1  0.1537976E+002  0.1599676E+01  0.7818608E-02  0.3353715E+00
         11   -1    0    0    0    0  0.00000000000E+00  0.00000000000E+00  0.39999999674E+01  0.40000000000E+01  0.51100000000E-03 0. -1.
    9000002   -1    0    0    0    0 -0.00000000000E+00 -0.00000000000E+00  0.00000000000E+00  0.93800000000E+00  0.93800000000E+00 0. -1.
         11    1    1    2    0    0 -0.47488577239E-01  0.19488990791E-01  0.74982980258E+00  0.75158497836E+00  0.51100000000E-03 0. -1.
    9000002    1    1    2    0    0  0.24665933137E+00 -0.99508947597E-01  0.47054093965E-01  0.97611523099E+00  0.93800000000E+00 0. -1.
         22    1    1    2    0    0 -0.19917075414E+00  0.80019956806E-01  0.32031160708E+01  0.32102997907E+01  0.00000000000E+00 0.  1.
</event>
<event>
 5    1  0.1537976E+002  0.1599272E+01  0.7818608E-02  0.3354154E+00
         11   -1    0    0    0    0  0.00000000000E+00  0.00000000000E+00  0.39999999674E+01  0.40000000000E+01  0.51100000000E-03 0.  1.
    9000002   -1    0    0    0    0 -0.00000000000E+00 -0.00000000000E+00  0.00000000000E+00  0.93800000000E+00  0.93800000000E+00 0.  1.
         11    1    1    2    0    0 -0.13808052719E-01 -0.37273735041E-01  0.56465859331E+00  0.56605616485E+00  0.51100000000E-03 0.  1.
    9000002    1    1    2    0    0 -0.21310775155E-01  0.24866814719E+00  0.41687170205E-01  0.97153065660E+00  0.93800000000E+00 0.  1.
         22    1    1    2    0    0  0.35118827874E-01 -0.21139441214E+00  0.33936542038E+01  0.34004131785E+01  0.00000000000E+00 0.  1.
</event>
<event>
 5    1  0.1537976E+002  0.1599623E+01  0.7818608E-02  0.3353773E+00
         11   -1    0    0    0    0  0.00000000000E+00  0.00000000000E+00  0.39999999674E+01  0.40000000000E+01  0.51100000000E-03 0.  1.
    9000002   -1    0    0    0    0 -0.00000000000E+00 -0.00000000000E+00  0.00000000000E+00  0.93800000000E+00  0.93800000000E+00 0.  1.
         11    1    1    2    0    0  0.29454915637E-01  0.29745189901E-01  0.55165865684E+00  0.55324488535E+00  0.51100000000E-03 0.  1.
    9000002    1    1    2    0    0 -0.16698495782E+00 -0.21188330011E+00  0.48464309723E-01  0.97722632912E+00  0.93800000000E+00 0.  1.
         22    1    1    2    0    0  0.13753004218E+00  0.18213811021E+00  0.33998770008E+01  0.34075287855E+01  0.00000000000E+00 0.  1.
</event>
<event>
 5    1  0.1537976E+002  0.1599677E+01  0.7818608E-02  0.3353714E+00
         11   -1    0    0    0    0  0.00000000000E+00  0.00000000000E+00  0.39999999674E+01  0.40000000000E+01  0.51100000000E-03 0. -1.
    9000002   -1    0    0    0    0 -0.00000000000E+00 -0.00000000000E+00  0.00000000000E+00  0.93800000000E+00  0.93800000000E+00 0.  1.
         11    1    1    2    0    0 -0.56969998401E-01  0.25025716249E+00  0.19488465073E+01  0.19656747438E+01  0.51100000000E-03 0. -1.
    9000002    1    1    2    0    0  0.11237874371E+00 -0.49150075315E+00  0.17413847231E+00  0.10790598593E+01  0.93800000000E+00 0.  1.
         22    1    1    2    0    0 -0.55408745307E-01  0.24124359066E+00  0.18770149877E+01  0.18932653969E+01  0.00000000000E+00 0. -1.
</event>
<event>
 5    1  0.1537976E+002  0.1599659E+01  0.7818608E-02  0.3353733E+00
         11   -1    0    0    0    0  0.00000000000E+00  0.00000000000E+00  0.39999999674E+01  0.40000000000E+01  0.51100000000E-03 0.  1.
    9000002   -1    0    0    0    0 -0.00000000000E+00 -0.00000000000E+00  0.00000000000E+00  0.93800000000E+00  0.93800000000E+00 0. -1.
         11    1    1    2    0    0  0.85512145721E-01 -0.16976843313E+00  0.16643646050E+01  0.16751846010E+01  0.51100000000E-03 0.  1.
    9000002    1    1    2    0    0 -0.19916872489E+00  0.38341039131E+00  0.12647236154E+00  0.10404378729E+01  0.93800000000E+00 0. -1.
         22    1    1    2    0    0  0.11365657917E+00 -0.21364195819E+00  0.22091630008E+01  0.22223775261E+01  0.00000000000E+00 0.  1.
</event>
<event>
 5    1  0.1537976E+002  0.1599667E+01  0.7818608E-02  0.3353725E+00
         11   -1    0    0    0    0  0.00000000000E+00  0.00000000000E+00  0.39999999674E+01  0.40000000000E+01  0.51100000000E-03 0. -1.
    9000002   -1    0    0    0    0 -0.00000000000E+00 -0.00000000000E+00  0.00000000000E+00  0.93800000000E+00  0.93800000000E+00 0. -1.
         11    1    1    2    0    0  0.30823799926E-01  0.20753676172E-02  0.45702244203E+00  0.45806570210E+00  0.51100000000E-03 0. -1.
    9000002    1    1    2    0    0 -0.27832154769E+00 -0.88437099993E-03  0.51584637528E-01  0.97977989408E+00  0.93800000000E+00 0. -1.
         22    1    1    2    0    0  0.24749774777E+00 -0.11909966173E-02  0.34913928878E+01  0.35001544038E+01  0.00000000000E+00 0. -1.
</event>
<event>
 5    1  0.1537976E+002  0.1599656E+01  0.7818608E-02  0.3353737E+00
         11   -1    0    0    0    0  0.00000000000E+00  0.00000000000E+00  0.39999999674E+01  0.40000000000E+01  0.51100000000E-03 0. -1.
    9000002   -1    0    0    0    0 -0.00000000000E+00 -0.00000000000E+00  0.00000000000E+00  0.93800000000E+00  0.93800000000E+00 0.  1.
         11    1    1    2    0    0  0.33244344144E-01  0.36434441477E-01  0.78481397021E+00  0.78636243800E+00  0.51100000000E-03 0. -1.
    9000002    1    1    2    0    0 -0.18958263480E+00 -0.18165428512E+00  0.45857527140E-01  0.97513423051E+00  0.93800000000E+00 0.  1.
         22    1    1    2    0    0  0.15633829066E+00  0.14521984365E+00  0.31693284700E+01  0.31765033315E+01  0.00000000000E+00 0. -1.
</event>
<event>
 5    1  0.1537976E+002  0.1599646E+01  0.7818608E-02  0.3353747E+00
         11   -1    0    0    0    0  0.00000000000E+00  0.00000000000E+00  0.39999999674E+01  0.40000000000E+01  0.51100000000E-03 0. -1.
    9000002   -1    0    0    0    0 -0.00000000000E+00 -0.00000000000E+00  0.00000000000E+00  0.93800000000E+00  0.93800000000E+00 0.  1.
         11    1    1    2    0    0  0.70290145341E-01 -0.46105000792E-01  0.11929366755E+01  0.11958948735E+01  0.51100000000E-03 0. -1.
    9000002    1    1    2    0    0 -0.24912746915E+00  0.16341092319E+00  0.59230551574E-01  0.98596140084E+00  0.93800000000E+00 0.  1.
         22    1    1    2    0    0  0.17883732381E+00 -0.11730592240E+00  0.27478327403E+01  0.27561437256E+01  0.00000000000E+00 0. -1.
</event>
<event>
 5    1  0.1537976E+002  0.1599677E+01  0.7818608E-02  0.3353714E+00
         11   -1    0    0    0    0  0.00000000000E+00  0.00000000000E+00  0.39999999674E+01  0.40000000000E+01  0.51100000000E-03 0.  1.
    9000002   -1    0    0    0    0 -0.00000000000E+00 -0.00000000000E+00  0.00000000000E+00  0.93800000000E+00  0.93800000000E+00 0.  1.
         11    1    1    2    0    0 -0.22792389327E+00 -0.29271291894E+00  0.20631343351E+01  0.20962236760E+01  0.51100000000E-03 0.  1.
    9000002    1    1    2    0    0  0.40641122638E+00  0.52363248372E+00  0.31100592794E+00  0.11899284643E+01  0.93800000000E+00 0.  1.
         22    1    1    2    0    0 -0.17848733311E+00 -0.23091956477E+00  0.16258597044E+01  0.16518478597E+01  0.00000000000E+00 0.  1.
</event>
<event>
 5    1  0.1537976E+002  0.1599660E+01  0.7818608E-02  0.3353732E+00
         11   -1    0    0    0    0  0.00000000000E+00  0.00000000000E+00  0.39999999674E+01  0.40000000000E+01  0.51100000000E-03 0. -1.
    9000002   -1    0    0    0    0 -0.00000000000E+00 -0.00000000000E+00  0.00000000000E+00  0.93800000000E+00  0.93800000000E+00 0. -1.
         11    1    1    2    0    0  0.16898645692E-01 -0.34453631486E+00  0.22694003060E+01  0.22954670214E+01  0.51100000000E-03 0. -1.
    9000002    1    1    2    0    0 -0.30260084906E-01  0.56568345260E+00  0.22238029196E+00  0.11181280944E+01  0.93800000000E+00 0. -1.
         22    1    1    2    0    0  0.13361439214E-01 -0.22114713774E+00  0.15082193694E+01  0.15244048842E+01  0.00000000000E+00 0. -1.
</event>
<event>
 5    1  0.1537976E+002  0.1539344E+01  0.7818608E-02  0.3421949E+00
         11   -1    0    0    0    0  0.00000000000E+00  0.00000000000E+00  0.39999999674E+01  0.40000000000E+01  0.51100000000E-03 0. -1.
    9000002   -1    0    0    0    0 -0.00000000000E+00 -0.00000000000E+00  0.00000000000E+00  0.93800000000E+00  0.93800000000E+00 0. -1.
         11    1    1    2    0    0 -0.26798316302E+00  0.17565027430E+00  0.27516181812E+01  0.27702113404E+01  0.51100000000E-03 0. -1.
    9000002    1    1    2    0    0  0.15088406102E-01 -0.12691840066E+00  0.56449899618E-01  0.94834937211E+00  0.93800000000E+00 0. -1.
         22    1    1    2    0    0  0.25289475692E+00 -0.48731873648E-01  0.11919318866E+01  0.12194392875E+01  0.00000000000E+00 0. -1.
</event>
<event>
 5    1  0.1537976E+002  0.1520092E+01  0.7818608E-02  0.3444937E+00
         11   -1    0    0    0    0  0.00000000000E+00  0.00000000000E+00  0.39999999674E+01  0.40000000000E+01  0.51100000000E-03 0.  1.
    9000002   -1    0    0    0    0 -0.00000000000E+00 -0.00000000000E+00  0.00000000000E+00  0.93800000000E+00  0.93800000000E+00 0.  1.
         11    1    1    2    0    0  0.28038495765E-01  0.26441143506E-02 -0.21404988204E-01  0.35377722177E-01  0.51100000000E-03 0.  1.
    9000002    1    1    2    0    0  0.24809959518E+00  0.94701985621E-01  0.11088126948E+00  0.98115265435E+00  0.93800000000E+00 0.  1.
         22    1    1    2    0    0 -0.27613809094E+00 -0.97346099972E-01  0.39105236861E+01  0.39214696235E+01  0.00000000000E+00 0.  1.
</event>
<event>
 5    1  0.1537976E+002  0.1599661E+01  0.7818608E-02  0.3353731E+00
         11   -1    0    0    0    0  0.00000000000E+00  0.00000000000E+00  0.39999999674E+01  0.40000000000E+01  0.51100000000E-03 0. -1.
    9000002   -1    0    0    0    0 -0.00000000000E+00 -0.00000000000E+00  0.00000000000E+00  0.93800000000E+00  0.93800000000E+00 0. -1.
         11    1    1    2    0    0  0.64574391181E-01 -0.35994842844E-01  0.79654030886E+00  0.79996387760E+00  0.51100000000E-03 0. -1.
    9000002    1    1    2    0    0 -0.32715889679E+00  0.19185530787E+00  0.96786537927E-01  0.10163921668E+01  0.93800000000E+00 0. -1.
         22    1    1    2    0    0  0.26258450561E+00 -0.15586046502E+00  0.31066731206E+01  0.31216439556E+01  0.00000000000E+00 0.  1.
</event>
<event>
 5    1  0.1537976E+002  0.1599591E+01  0.7818608E-02  0.3353808E+00
         11   -1    0    0    0    0  0.00000000000E+00  0.00000000000E+00  0.39999999674E+01  0.40000000000E+01  0.51100000000E-03 0. -1.
    9000002   -1    0    0    0    0 -0.00000000000E+00 -0.00000000000E+00  0.00000000000E+00  0.93800000000E+00  0.93800000000E+00 0.  1.
         11    1    1    2    0    0  0.42572720601E-01 -0.20383611276E-01  0.63895607316E+00  0.64069731754E+00  0.51100000000E-03 0. -1.
    9000002    1    1    2    0    0 -0.21392534283E+00  0.13713300606E+00  0.42972419117E-01  0.97275903617E+00  0.93800000000E+00 0.  1.
         22    1    1    2    0    0  0.17135262223E+00 -0.11674939478E+00  0.33180714751E+01  0.33245436463E+01  0.00000000000E+00 0. -1.
</event>
<event>
 5    1  0.1537976E+002  0.1591596E+01  0.7818608E-02  0.3362535E+00
         11   -1    0    0    0    0  0.00000000000E+00  0.00000000000E+00  0.39999999674E+01  0.40000000000E+01  0.51100000000E-03 0.  1.
    9000002   -1    0    0    0    0 -0.00000000000E+00 -0.00000000000E+00  0.00000000000E+00  0.93800000000E+00  0.93800000000E+00 0. -1.
         11    1    1    2    0    0  0.15539181426E-01 -0.16176100788E-01  0.53043686173E-01  0.57593629508E-01  0.51100000000E-03 0.  1.
    9000002    1    1    2    0    0  0.14637701922E+00 -0.14997986333E+00  0.35194397961E-01  0.96177067787E+00  0.93800000000E+00 0. -1.
         22    1    1    2    0    0 -0.16191620065E+00  0.16615596412E+00  0.39117618832E+01  0.39186356926E+01  0.00000000000E+00 0.  1.
</event>
<event>
 5    1  0.1537976E+002  0.1599676E+01  0.7818608E-02  0.3353715E+00
         11   -1    0    0    0    0  0.00000000000E+00  0.00000000000E+00  0.39999999674E+01  0.40000000000E+01  0.51100000000E-03 0.  1.
    9000002   -1    0    0    0    0 -0.00000000000E+00 -0.00000000000E+00  0.00000000000E+00  0.93800000000E+00  0.93800000000E+00 0.  1.
         11    1    1    2    0    0  0.92185013674E-02  0.16333944137E-01  0.13892067279E+00  0.14018199937E+00  0.51100000000E-03 0. -1.
    9000002    1    1    2    0    0 -0.25345205692E+00 -0.44451362960E+00  0.17959612494E+00  0.10834800783E+01  0.93800000000E+00 0.  1.
         22    1    1    2    0    0  0.24423355556E+00  0.42817968546E+00  0.36814831696E+01  0.37143379223E+01  0.00000000000E+00 0.  1.
</event>
<event>
 5    1  0.1537976E+002  0.1545228E+01  0.7818608E-02  0.3415044E+00
         11   -1    0    0    0    0  0.00000000000E+00  0.00000000000E+00  0.39999999674E+01  0.40000000000E+01  0.51100000000E-03 0.  1.
    9000002   -1    0    0    0    0 -0.00000000000E+00 -0.00000000000E+00  0.00000000000E+00  0.93800000000E+00  0.93800000000E+00 0.  1.
         11    1    1    2    0    0  0.12816439880E+00 -0.15336298130E+00  0.73503331688E+00  0.76172209840E+00  0.51100000000E-03 0.  1.
    9000002    1    1    2    0    0  0.10751632112E+00 -0.45039959006E-01  0.49949682849E-01  0.94653437763E+00  0.93800000000E+00 0.  1.
         22    1    1    2    0    0 -0.23568071991E+00  0.19840294031E+00  0.32150169676E+01  0.32297435240E+01  0.00000000000E+00 0.  1.
</event>
<event>
 5    1  0.1537976E+002  0.1599189E+01  0.7818608E-02  0.3354244E+00
         11   -1    0    0    0    0  0.00000000000E+00  0.00000000000E+00  0.39999999674E+01  0.40000000000E+01  0.51100000000E-03 0.  1.
    9000002   -1    0    0    0    0 -0.00000000000E+00 -0.00000000000E+00  0.00000000000E+00  0.93800000000E+00  0.93800000000E+00 0. -1.
         11    1    1    2    0    0 -0.75981747670E-02 -0.45187261779E-01  0.39847732999E+00  0.40110355836E+00  0.51100000000E-03 0.  1.
    9000002    1    1    2    0    0  0.43664118574E-01  0.29102537696E+00  0.58123868730E-01  0.98479678584E+00  0.93800000000E+00 0. -1.
         22    1    1    2    0    0 -0.36065943807E-01 -0.24583811518E+00  0.35433987686E+01  0.35520996558E+01  0.00000000000E+00 0.  1.
</event>
<event>
 5    1  0.1537976E+002  0.1587962E+01  0.7818608E-02  0.3366533E+00
         11   -1    0    0    0    0  0.00000000000E+00  0.00000000000E+00  0.39999999674E+01  0.40000000000E+01  0.51100000000E-03 0.  1.
    9000002   -1    0    0    0    0 -0.00000000000E+00 -0.00000000000E+00  0.00000000000E+00  0.93800000000E+00  0.93800000000E+00 0. -1.
         11    1    1    2    0    0  0.18698891561E+00  0.12066788166E+00  0.18736248046E+01  0.18867951033E+01  0.51100000000E-03 0.  1.
    9000002    1    1    2    0    0 -0.13579204698E+00 -0.34683146737E+00  0.10288983028E+00  0.10144761525E+01  0.93800000000E+00 0. -1.
         22    1    1    2    0    0 -0.51196868628E-01  0.22616358570E+00  0.20234853324E+01  0.20367287442E+01  0.00000000000E+00 0.  1.
</event>
<event>
 5    1  0.1537976E+002  0.1599656E+01  0.7818608E-02  0.3353737E+00
         11   -1    0    0    0    0  0.00000000000E+00  0.00000000000E+00  0.39999999674E+01  0.40000000000E+01  0.51100000000E-03 0.  1.
    9000002   -1    0    0    0    0 -0.00000000000E+00 -0.00000000000E+00  0.00000000000E+00  0.93800000000E+00  0.93800000000E+00 0. -1.
         11    1    1    2    0    0 -0.56231497879E-01  0.72296190586E-02  0.31997942023E+00  0.32496359678E+00  0.51100000000E-03 0.  1.
    9000002    1    1    2    0    0  0.62594243221E+00 -0.61102385937E-01  0.27775783782E+00  0.11629835968E+01  0.93800000000E+00 0. -1.
         22    1    1    2    0    0 -0.56971093433E+00  0.53872766879E-01  0.34022627093E+01  0.34500528064E+01  0.00000000000E+00 0.  1.
</event>
<event>
 5    1  0.1537976E+002  0.1599675E+01  0.7818608E-02  0.3353717E+00
         11   -1    0    0    0    0  0.00000000000E+00  0.00000000000E+00  0.39999999674E+01  0.40000000000E+01  0.51100000000E-03 0.  1.
    9000002   -1    0    0    0    0 -0.00000000000E+00 -0.00000000000E+00  0.00000000000E+00  0.93800000000E+00  0.93800000000E+00 0. -1.
         11    1    1    2    0    0  0.42124731811E-01  0.72518270126E-01  0.10049015649E+01  0.10083951650E+01  0.51100000000E-03 0.  1.
    9000002    1    1    2    0    0 -0.16411411427E+00 -0.27735745986E+00  0.69438209623E-01  0.99424658310E+00  0.93800000000E+00 0. -1.
         22    1    1    2    0    0  0.12198938245E+00  0.20483918974E+00  0.29256601928E+01  0.29353582519E+01  0.00000000000E+00 0.  1.
</event>
<event>
 5    1  0.1537976E+002  0.1571239E+01  0.7818608E-02  0.3385183E+00
         11   -1    0    0    0    0  0.00000000000E+00  0.00000000000E+00  0.39999999674E+01  0.40000000000E+01  0.51100000000E-03 0.  1.
    9000002   -1    0    0    0    0 -0.00000000000E+00 -0.00000000000E+00  0.00000000000E+00  0.93800000000E+00  0.93800000000E+00 0.  1.
         11    1    1    2    0    0  0.16001972623E+00 -0.13404009707E-01  0.17876789968E+01  0.17948767191E+01  0.51100000000E-03 0.  1.
    9000002    1    1    2    0    0  0.70714258387E-01 -0.10990147042E+00  0.32456433720E-01  0.94761609296E+00  0.93800000000E+00 0.  1.
         22    1    1    2    0    0 -0.23073398461E+00  0.12330548013E+00  0.21798645369E+01  0.21955071879E+01  0.00000000000E+00 0. -1.
</event>
<event>
 5    1  0.1537976E+002  0.1599430E+01  0.7818608E-02  0.3353983E+00
         11   -1    0    0    0    0  0.00000000000E+00  0.00000000000E+00  0.39999999674E+01  0.40000000000E+01  0.51100000000E-03 0. -1.
    9000002   -1    0    0    0    0 -0.00000000000E+00 -0.00000000000E+00  0.00000000000E+00  0.93800000000E+00  0.93800000000E+00 0.  1.
         11    1    1    2    0    0  0.96545175923E-01 -0.19609633205E+00  0.15077422988E+01  0.15235031484E+01  0.51100000000E-03 0. -1.
    9000002    1    1    2    0    0 -0.28430533261E+00  0.47200796353E+00  0.20998575547E+00  0.11079526422E+01  0.93800000000E+00 0.  1.
         22    1    1    2    0    0  0.18776015669E+00 -0.27591163147E+00  0.22822719131E+01  0.23065442094E+01  0.00000000000E+00 0. -1.
</event>
<event>
 5    1  0.1537976E+002  0.1599675E+01  0.7818608E-02  0.3353716E+00
         11   -1    0    0    0    0  0.00000000000E+00  0.00000000000E+00  0.39999999674E+01  0.40000000000E+01  0.51100000000E-03 0.  1.
    9000002   -1    0    0    0    0 -0.00000000000E+00 -0.00000000000E+00  0.00000000000E+00  0.93800000000E+00  0.93800000000E+00 0. -1.
         11    1    1    2    0    0  0.17200343633E-01 -0.30239305181E-01  0.29025361133E+00  0.29233146839E+00  0.51100000000E-03 0.  1.
    9000002    1    1    2    0    0 -0.23788966901E+00  0.39747235360E+00  0.14602774997E+00  0.10562877781E+01  0.93800000000E+00 0. -1.
         22    1    1    2    0    0  0.22068932537E+00 -0.36723304842E+00  0.35637186061E+01  0.35893807535E+01  0.00000000000E+00 0.  1.
</event>
<event>
 5    1  0.1537976E+002  0.1599661E+01  0.7818608E-02  0.3353732E+00
         11   -1    0    0    0    0  0.00000000000E+00  0.00000000000E+00  0.39999999674E+01  0.40000000000E+01  0.51100000000E-03 0. -1.
    9000002   -1    0    0    0    0 -0.00000000000E+00 -0.00000000000E+00  0.00000000000E+00  0.93800000000E+00  0.93800000000E+00 0. -1.
         11    1    1    2    0    0  0.77393709273E-01 -0.63821254619E-02  0.97286061976E+00  0.97595520613E+00  0.51100000000E-03 0. -1.
    9000002    1    1    2    0    0 -0.32312531515E+00  0.12427007898E-01  0.69927502515E-01  0.99463473468E+00  0.93800000000E+00 0. -1.
         22    1    1    2    0    0  0.24573160588E+00 -0.60448824363E-02  0.29572118451E+01  0.29674100592E+01  0.00000000000E+00 0. -1.
</event>
<event>
 5    1  0.1537976E+002  0.1599400E+01  0.7818608E-02  0.3354015E+00
         11   -1    0    0    0    0  0.00000000000E+00  0.00000000000E+00  0.39999999674E+01  0.40000000000E+01  0.51100000000E-03 0. -1.
    9000002   -1    0    0    0    0 -0.00000000000E+00 -0.00000000000E+00  0.00000000000E+00  0.93800000000E+00  0.93800000000E+00 0.  1.
         11    1    1    2    0    0 -0.41863050275E-01 -0.49782304276E-02  0.73634457725E+00  0.73755060527E+00  0.51100000000E-03 0. -1.
    9000002    1    1    2    0    0  0.24726181910E+00 -0.53960844235E-01  0.42769838801E-01  0.97248313045E+00  0.93800000000E+00 0.  1.
         22    1    1    2    0    0 -0.20539876883E+00  0.58939074663E-01  0.32208855513E+01  0.32279662643E+01  0.00000000000E+00 0. -1.
</event>
<event>
 5    1  0.1537976E+002  0.1573734E+01  0.7818608E-02  0.3382375E+00
         11   -1    0    0    0    0  0.00000000000E+00  0.00000000000E+00  0.39999999674E+01  0.40000000000E+01  0.51100000000E-03 0.  1.
    9000002   -1    0    0    0    0 -0.00000000000E+00 -0.00000000000E+00  0.00000000000E+00  0.93800000000E+00  0.93800000000E+00 0. -1.
         11    1    1    2    0    0  0.14645340801E-01 -0.23289504629E+00  0.14964203350E+01  0.15145060807E+01  0.51100000000E-03 0.  1.
    9000002    1    1    2    0    0  0.24098989435E+00  0.20296926482E+00  0.87081522703E-01  0.99332766157E+00  0.93800000000E+00 0. -1.
         22    1    1    2    0    0 -0.25563523516E+00  0.29925781466E-01  0.24164981097E+01  0.24301662577E+01  0.00000000000E+00 0. -1.
</event>
<event>
 5    1  0.1537976E+002  0.1599661E+01  0.7818608E-02  0.3353731E+00
         11   -1    0    0    0    0  0.00000000000E+00  0.00000000000E+00  0.39999999674E+01  0.40000000000E+01  0.51100000000E-03 0. -1.
    9000002   -1    0    0    0    0 -0.00000000000E+00 -0.00000000000E+00  0.00000000000E+00  0.93800000000E+00  0.93800000000E+00 0. -1.
         11    1    1    2    0    0 -0.19957103594E+00 -0.33956381086E+00  0.17106812622E+01  0.17554380713E+01  0.51100000000E-03 0. -1.
    9000002    1    1    2    0    0  0.41857322306E+00  0.69278335184E+00  0.48417975232E+00  0.13301978605E+01  0.93800000000E+00 0. -1.
         22    1    1    2    0    0 -0.21900218712E+00 -0.35321954098E+00  0.18051389528E+01  0.18523640682E+01  0.00000000000E+00 0. -1.
</event>
<event>
 5    1  0.1537976E+002  0.1598827E+01  0.7818608E-02  0.3354637E+00
         11   -1    0    0    0    0  0.00000000000E+00  0.00000000000E+00  0.39999999674E+01  0.40000000000E+01  0.51100000000E-03 0. -1.
    9000002   -1    0    0    0    0 -0.00000000000E+00 -0.00000000000E+00  0.00000000000E+00  0.93800000000E+00  0.93800000000E+00 0. -1.
         11    1    1    2    0    0 -0.19516418074E-01 -0.10897632992E-01  0.11148138129E+00  0.11370140049E+00  0.51100000000E-03 0. -1.
    9000002    1    1    2    0    0  0.29463364413E+00  0.24160062290E+00  0.98392993618E-01  0.10172045155E+01  0.93800000000E+00 0. -1.
         22    1    1    2    0    0 -0.27511722605E+00 -0.23070298990E+00  0.37901255925E+01  0.38070940840E+01  0.00000000000E+00 0. -1.
</event>
<event>
 5    1  0.1537976E+002  0.1565652E+01  0.7818608E-02  0.3391508E+00
         11   -1    0    0    0    0  0.00000000000E+00  0.00000000000E+00  0.39999999674E+01  0.40000000000E+01  0.51100000000E-03 0.  1.
    9000002   -1    0    0    0    0 -0.00000000000E+00 -0.00000000000E+00  0.00000000000E+00  0.93800000000E+00  0.93800000000E+00 0.  1.
         11    1    1    2    0    0 -0.16540288608E+00 -0.81671211639E-01  0.31515304758E+01  0.31569245957E+01  0.51100000000E-03 0.  1.
    9000002    1    1    2    0    0  0.99840705631E-01  0.29408247979E+00  0.91690606069E-01  0.99232244692E+00  0.93800000000E+00 0.  1.
         22    1    1    2    0    0  0.65562180453E-01 -0.21241126815E+00  0.75677888547E+00  0.78875295742E+00  0.00000000000E+00 0.  1.
</event>
<event>
 5    1  0.1537976E+002  0.1575915E+01  0.7818608E-02  0.3379926E+00
         11   -1    0    0    0    0  0.00000000000E+00  0.00000000000E+00  0.39999999674E+01  0.40000000000E+01  0.51100000000E-03 0.  1.
    9000002   -1    0    0    0    0 -0.00000000000E+00 -0.00000000000E+00  0.00000000000E+00  0.93800000000E+00  0.93800000000E+00 0.  1.
         11    1    1    2    0    0  0.16847256743E-01  0.13589730456E+00  0.94267935740E+00  0.95257363990E+00  0.51100000000E-03 0.  1.
    9000002    1    1    2    0    0  0.19383458948E-01  0.86424070988E-01  0.22688375840E-01  0.94244554268E+00  0.93800000000E+00 0.  1.
         22    1    1    2    0    0 -0.36230715691E-01 -0.22232137555E+00  0.30346322341E+01  0.30429808174E+01  0.00000000000E+00 0.  1.
</event>
<event>
 5    1  0.1537976E+002  0.1599598E+01  0.7818608E-02  0.3353800E+00
         11   -1    0    0    0    0  0.00000000000E+00  0.00000000000E+00  0.39999999674E+01  0.40000000000E+01  0.51100000000E-03 0.  1.
    9000002   -1    0    0    0    0 -0.00000000000E+00 -0.00000000000E+00  0.00000000000E+00  0.93800000000E+00  0.93800000000E+00 0.  1.
         11    1    1    2    0    0 -0.18968317519E-01 -0.16138419243E-01  0.24145483950E+00  0.24273637198E+00  0.51100000000E-03 0.  1.
    9000002    1    1    2    0    0  0.22575154194E+00  0.27634200375E+00  0.85503894159E-01  0.10072157553E+01  0.93800000000E+00 0.  1.
         22    1    1    2    0    0 -0.20678322442E+00 -0.26020358451E+00  0.36730412337E+01  0.36880478728E+01  0.00000000000E+00 0.  1.
</event>
<event>
 5    1  0.1537976E+002  0.1599677E+01  0.7818608E-02  0.3353714E+00
         11   -1    0    0    0    0  0.00000000000E+00  0.00000000000E+00  0.39999999674E+01  0.40000000000E+01  0.51100000000E-03 0. -1.
    9000002   -1    0    0    0    0 -0.00000000000E+00 -0.00000000000E+00  0.00000000000E+00  0.93800000000E+00  0.93800000000E+00 0.  1.
         11    1    1    2    0    0 -0.91667656081E-01 -0.53864887783E-01  0.13007504203E+01  0.13050886186E+01  0.51100000000E-03 0.  1.
    9000002    1    1    2    0    0  0.27554604270E+00  0.16213690633E+00  0.68318092596E-01  0.99334050548E+00  0.93800000000E+00 0.  1.
         22    1    1    2    0    0 -0.18387838662E+00 -0.10827201855E+00  0.26309314544E+01  0.26395708759E+01  0.00000000000E+00 0. -1.
</event>
<event>
 5    1  0.1537976E+002  0.1579784E+01  0.7818608E-02  0.3375602E+00
         11   -1    0    0    0    0  0.00000000000E+00  0.00000000000E+00  0.39999999674E+01  0.40000000000E+01  0.51100000000E-03 0.  1.
    9000002   -1    0    0    0    0 -0.00000000000E+00 -0.00000000000E+00  0.00000000000E+00  0.93800000000E+00  0.93800000000E+00 0. -1.
         11    1    1    2    0    0  0.10103218447E+00 -0.11554751033E+00  0.15146196319E+01  0.15223769638E+01  0.51100000000E-03 0.  1.
    9000002    1    1    2    0    0 -0.17363561519E+00 -0.11956504874E+00  0.44561119197E-01  0.96243172282E+00  0.93800000000E+00 0. -1.
         22    1    1    2    0    0  0.72603430727E-01  0.23511255907E+00  0.24408192163E+01  0.24531913134E+01  0.00000000000E+00 0.  1.
</event>
<event>
 5    1  0.1537976E+002  0.1599677E+01  0.7818608E-02  0.3353714E+00
         11   -1    0    0    0    0  0.00000000000E+00  0.00000000000E+00  0.39999999674E+01  0.40000000000E+01  0.51100000000E-03 0.  1.
    9000002   -1    0    0    0    0 -0.00000000000E+00 -0.00000000000E+00  0.00000000000E+00  0.93800000000E+00  0.93800000000E+00 0.  1.
         11    1    1    2    0    0  0.15728345403E+00 -0.13144045828E+00  0.18334105914E+01  0.18448331461E+01  0.51100000000E-03 0.  1.
    9000002    1    1    2    0    0 -0.33325696414E+00  0.27785957015E+00  0.12757068762E+00  0.10413378055E+01  0.93800000000E+00 0.  1.
         22    1    1    2    0    0  0.17597351011E+00 -0.14641911187E+00  0.20390186883E+01  0.20518290484E+01  0.00000000000E+00 0. -1.
</event>
<event>
 5    1  0.1537976E+002  0.1599662E+01  0.7818608E-02  0.3353730E+00
         11   -1    0    0    0    0  0.00000000000E+00  0.00000000000E+00  0.39999999674E+01  0.40000000000E+01  0.51100000000E-03 0. -1.
    9000002   -1    0    0    0    0 -0.00000000000E+00 -0.00000000000E+00  0.00000000000E+00  0.93800000000E+00  0.93800000000E+00 0.  1.
         11    1    1    2    0    0 -0.14436437036E-02  0.69893251008E+00  0.17934898009E+01  0.19248674409E+01  0.51100000000E-03 0. -1.
    9000002    1    1    2    0    0  0.83677516438E-02 -0.11228886332E+01  0.11071051804E+01  0.18347955696E+01  0.93800000000E+00 0.  1.
         22    1    1    2    0    0 -0.69241079402E-02  0.42395612308E+00  0.10994049861E+01  0.11783369896E+01  0.00000000000E+00 0.  1.
</event>
<event>
 5    1  0.1537976E+002  0.1597466E+01  0.7818608E-02  0.3356118E+00
         11   -1    0    0    0    0  0.00000000000E+00  0.00000000000E+00  0.39999999674E+01  0.40000000000E+01  0.51100000000E-03 0.  1.
    9000002   -1    0    0    0    0 -0.00000000000E+00 -0.00000000000E+00  0.00000000000E+00  0.93800000000E+00  0.93800000000E+00 0.  1.
         11    1    1    2    0    0  0.15959240183E-02 -0.18522084422E-01  0.66082802139E-01  0.68649926761E-01  0.51100000000E-03 0.  1.
    9000002    1    1    2    0    0 -0.55023188796E-01  0.23090136632E+00  0.39075294264E-01  0.96835627271E+00  0.93800000000E+00 0.  1.
         22    1    1    2    0    0  0.53427264777E-01 -0.21237928190E+00  0.38948418710E+01  0.39009938005E+01  0.00000000000E+00 0.  1.
</event>
<event>
 5    1  0.1537976E+002  0.1599676E+01  0.7818608E-02  0.3353715E+00
         11   -1    0    0    0    0  0.00000000000E+00  0.00000000000E+00  0.39999999674E+01  0.40000000000E+01  0.51100000000E-03 0.  1.
    9000002   -1    0    0    0    0 -0.00000000000E+00 -0.00000000000E+00  0.00000000000E+00  0.93800000000E+00  0.93800000000E+00 0. -1.
         11    1    1    2    0    0  0.63650446230E-01 -0.39369739564E-01  0.65859360441E+00  0.66283267315E+00  0.51100000000E-03 0.  1.
    9000002    1    1    2    0    0 -0.37080420857E+00  0.23384786510E+00  0.13030667964E+00  0.10435537436E+01  0.93800000000E+00 0. -1.
         22    1    1    2    0    0  0.30715376234E+00 -0.19447812554E+00  0.32110996833E+01  0.32316135832E+01  0.00000000000E+00 0.  1.
</event>
<event>
 5    1  0.1537976E+002  0.1597866E+01  0.7818608E-02  0.3355683E+00
         11   -1    0    0    0    0  0.00000000000E+00  0.00000000000E+00  0.39999999674E+01  0.40000000000E+01  0.51100000000E-03 0.  1.
    9000002   -1    0    0    0    0 -0.00000000000E+00 -0.00000000000E+00  0.00000000000E+00  0.93800000000E+00  0.93800000000E+00 0.  1.
         11    1    1    2    0    0 -0.18947134816E-01  0.36732514996E-02  0.94592664994E+00  0.94612365729E+00  0.51100000000E-03 0.  1.
    9000002    1    1    2    0    0  0.25503858359E+00  0.34894895597E-01  0.45432834135E-01  0.97374045581E+00  0.93800000000E+00 0.  1.
         22    1    1    2    0    0 -0.23609144878E+00 -0.38568147096E-01  0.30086404833E+01  0.30181358869E+01  0.00000000000E+00 0.  1.
</event>
<event>
 5    1  0.1537976E+002  0.1599637E+01  0.7818608E-02  0.3353758E+00
         11   -1    0    0    0    0  0.00000000000E+00  0.00000000000E+00  0.39999999674E+01  0.40000000000E+01  0.51100000000E-03 0. -1.
    9000002   -1    0    0    0    0 -0.00000000000E+00 -0.00000000000E+00  0.00000000000E+00  0.93800000000E+00  0.93800000000E+00 0. -1.
         11    1    1    2    0    0 -0.22182686363E+00 -0.11902582557E+00  0.21836322070E+01  0.21980955806E+01  0.51100000000E-03 0. -1.
    9000002    1    1    2    0    0  0.40443173427E+00  0.20506243090E+00  0.13975700018E+00  0.10511858291E+01  0.93800000000E+00 0. -1.
         22    1    1    2    0    0 -0.18260487064E+00 -0.86036605329E-01  0.16766107602E+01  0.16887185903E+01  0.00000000000E+00 0. -1.
</event>
<event>
 5    1  0.1537976E+002  0.1599676E+01  0.7818608E-02  0.3353715E+00
         11   -1    0    0    0    0  0.00000000000E+00  0.00000000000E+00  0.39999999674E+01  0.40000000000E+01  0.51100000000E-03 0.  1.
    9000002   -1    0    0    0    0 -0.00000000000E+00 -0.00000000000E+00  0.00000000000E+00  0.93800000000E+00  0.93800000000E+00 0.  1.
         11    1    1    2    0    0 -0.33216996769E-01 -0.12691502131E+00  0.15144666318E+01  0.15201382278E+01  0.51100000000E-03 0. -1.
    9000002    1    1    2    0    0  0.83940300619E-01  0.32928374326E+00  0.77341231198E-01  0.10006495009E+01  0.93800000000E+00 0.  1.
         22    1    1    2    0    0 -0.50723303850E-01 -0.20236872195E+00  0.24081921044E+01  0.24172122713E+01  0.00000000000E+00 0.  1.
</event>
<event>
 5    1  0.1537976E+002  0.1581948E+01  0.7818608E-02  0.3373193E+00
         11   -1    0    0    0    0  0.00000000000E+00  0.00000000000E+00  0.39999999674E+01  0.40000000000E+01  0.51100000000E-03 0. -1.
    9000002   -1    0    0    0    0 -0.00000000000E+00 -0.00000000000E+00  0.00000000000E+00  0.93800000000E+00  0.93800000000E+00 0.  1.
         11    1    1    2    0    0  0.20295081206E+00  0.11577971563E+00  0.19837600505E+01  0.19974729470E+01  0.51100000000E-03 0. -1.
    9000002    1    1    2    0    0 -0.95484836714E-01 -0.31156574974E+00  0.85229441858E-01  0.99664368167E+00  0.93800000000E+00 0.  1.
         22    1    1    2    0    0 -0.10746597534E+00  0.19578603411E+00  0.19310104750E+01  0.19438833714E+01  0.00000000000E+00 0.  1.
</event>
<event>
 5    1  0.1537976E+002  0.1558027E+01  0.7818608E-02  0.3400219E+00
         11   -1    0    0    0    0  0.00000000000E+00  0.00000000000E+00  0.39999999674E+01  0.40000000000E+01  0.51100000000E-03 0. -1.
    9000002   -1    0    0    0    0 -0.00000000000E+00 -0.00000000000E+00  0.00000000000E+00  0.93800000000E+00  0.93800000000E+00 0. -1.
         11    1    1    2    0    0  0.15914136574E+00  0.37743162941E-01  0.20049165089E+00  0.25874250489E+00  0.51100000000E-03 0. -1.
    9000002    1    1    2    0    0 -0.52419214774E+00 -0.75945973754E+00  0.72953572486E+00  0.15045341055E+01  0.93800000000E+00 0. -1.
         22    1    1    2    0    0  0.36505078199E+00  0.72171657460E+00  0.30699725916E+01  0.31747233896E+01  0.00000000000E+00 0. -1.
</event>
<event>
 5    1  0.1537976E+002  0.1576072E+01  0.7818608E-02  0.3379751E+00
         11   -1    0    0    0    0  0.00000000000E+00  0.00000000000E+00  0.39999999674E+01  0.40000000000E+01  0.51100000000E-03 0. -1.
    9000002   -1    0    0    0    0 -0.00000000000E+00 -0.00000000000E+00  0.00000000000E+00  0.93800000000E+00  0.93800000000E+00 0. -1.
         11    1    1    2    0    0 -0.80927487261E-01  0.60723886233E-01  0.25525940241E+00  0.27458017444E+00  0.51100000000E-03 0. -1.
    9000002    1    1    2    0    0  0.32465310238E+00  0.16436685185E+00  0.10835267712E+00  0.10119290496E+01  0.93800000000E+00 0. -1.
         22    1    1    2    0    0 -0.24372561512E+00 -0.22509073809E+00  0.36363878878E+01  0.36514907759E+01  0.00000000000E+00 0. -1.
</event>
<event>
 5    1  0.1537976E+002  0.1599470E+01  0.7818608E-02  0.3353939E+00
         11   -1    0    0    0    0  0.00000000000E+00  0.00000000000E+00  0.39999999674E+01  0.40000000000E+01  0.51100000000E-03 0.  1.
    9000002   -1    0    0    0    0 -0.00000000000E+00 -0.00000000000E+00  0.00000000000E+00  0.93800000000E+00  0.93800000000E+00 0.  1.
         11    1    1    2    0    0 -0.62213583638E-01 -0.20879509068E-02  0.89101524303E+00  0.89318716626E+00  0.51100000000E-03 0.  1.
    9000002    1    1    2    0    0  0.33170638006E+00  0.37154185606E-01  0.74736256949E-01  0.99841828117E+00  0.93800000000E+00 0.  1.
         22    1    1    2    0    0 -0.26949279642E+00 -0.35066234699E-01  0.30342484674E+01  0.30463945526E+01  0.00000000000E+00 0.  1.
</event>
<event>
 5    1  0.1537976E+002  0.1599665E+01  0.7818608E-02  0.3353727E+00
         11   -1    0    0    0    0  0.00000000000E+00  0.00000000000E+00  0.39999999674E+01  0.40000000000E+01  0.51100000000E-03 0. -1.
    9000002   -1    0    0    0    0 -0.00000000000E+00 -0.00000000000E+00  0.00000000000E+00  0.93800000000E+00  0.93800000000E+00 0. -1.
         11    1    1    2    0    0 -0.18538656412E-01  0.59157186716E-01  0.52189876925E+00  0.52556811261E+00  0.51100000000E-03 0. -1.
    9000002    1    1    2    0    0  0.13190924696E+00 -0.41801134284E+00  0.13028370257E+00  0.10435283299E+01  0.93800000000E+00 0. -1.
         22    1    1    2    0    0 -0.11337059054E+00  0.35885415612E+00  0.33478174955E+01  0.33689035575E+01  0.00000000000E+00 0. -1.
</event>
<event>
 5    1  0.1537976E+002  0.1595639E+01  0.7818608E-02  0.3358110E+00
         11   -1    0    0    0    0  0.00000000000E+00  0.00000000000E+00  0.39999999674E+01  0.40000000000E+01  0.51100000000E-03 0.  1.
    9000002   -1    0    0    0    0 -0.00000000000E+00 -0.00000000000E+00  0.00000000000E+00  0.93800000000E+00  0.93800000000E+00 0. -1.
         11    1    1    2    0    0  0.18215383502E-01  0.21709793862E-01  0.68885204073E+00  0.68943492114E+00  0.51100000000E-03 0.  1.
    9000002    1    1    2    0    0 -0.36264963995E+00 -0.31975009026E+00  0.16317759306E+00  0.10678135645E+01  0.93800000000E+00 0. -1.
         22    1    1    2    0    0  0.34443425645E+00  0.29804029640E+00  0.31479703336E+01  0.31807515144E+01  0.00000000000E+00 0.  1.
</event>
<event>
 5    1  0.1537976E+002  0.1489477E+01  0.7818608E-02  0.3482810E+00
         11   -1    0    0    0    0  0.00000000000E+00  0.00000000000E+00  0.39999999674E+01  0.40000000000E+01  0.51100000000E-03 0.  1.
    9000002   -1    0    0    0    0 -0.00000000000E+00 -0.00000000000E+00  0.00000000000E+00  0.93800000000E+00  0.93800000000E+00 0.  1.
         11    1    1    2    0    0 -0.40138637277E+00  0.42275662309E-01  0.11550457084E+01  0.12235314060E+01  0.51100000000E-03 0.  1.
    9000002    1    1    2    0    0  0.12456646338E+00  0.81348237814E-02  0.95972555808E-01  0.95112444539E+00  0.93800000000E+00 0.  1.
         22    1    1    2    0    0  0.27681990938E+00 -0.50410486090E-01  0.27489817031E+01  0.27633441486E+01  0.00000000000E+00 0.  1.
</event>
<event>
 5    1  0.1537976E+002  0.1599270E+01  0.7818608E-02  0.3354156E+00
         11   -1    0    0    0    0  0.00000000000E+00  0.00000000000E+00  0.39999999674E+01  0.40000000000E+01  0.51100000000E-03 0. -1.
    9000002   -1    0    0    0    0 -0.00000000000E+00 -0.00000000000E+00  0.00000000000E+00  0.93800000000E+00  0.93800000000E+00 0.  1.
         11    1    1    2    0    0 -0.52400432143E+00  0.25983108024E+00  0.24820342283E+01  0.25500170373E+01  0.51100000000E-03 0. -1.
    9000002    1    1    2    0    0  0.73235793836E+00 -0.33844459891E+00  0.48110621971E+00  0.13274788477E+01  0.93800000000E+00 0.  1.
         22    1    1    2    0    0 -0.20835361693E+00  0.78613518668E-01  0.10368595193E+01  0.10605041150E+01  0.00000000000E+00 0. -1.
</event>
<event>
 5    1  0.1537976E+002  0.1599674E+01  0.7818608E-02  0.3353718E+00
         11   -1    0    0    0    0  0.00000000000E+00  0.00000000000E+00  0.39999999674E+01  0.40000000000E+01  0.51100000000E-03 0. -1.
    9000002   -1    0    0    0    0 -0.00000000000E+00 -0.00000000000E+00  0.00000000000E+00  0.93800000000E+00  0.93800000000E+00 0. -1.
         11    1    1    2    0    0  0.86963541143E-01 -0.69171144695E-02  0.97375640608E+00  0.97765653656E+00  0.51100000000E-03 0. -1.
    9000002    1    1    2    0    0 -0.34355538701E+00  0.31860679385E-01  0.79780514806E-01  0.10026237267E+01  0.93800000000E+00 0. -1.
         22    1    1    2    0    0  0.25659184587E+00 -0.24943564915E-01  0.29464630465E+01  0.29577197367E+01  0.00000000000E+00 0.  1.
</event>
<event>
 5    1  0.1537976E+002  0.1593515E+01  0.7818608E-02  0.3360432E+00
         11   -1    0    0    0    0  0.00000000000E+00  0.00000000000E+00  0.39999999674E+01  0.40000000000E+01  0.51100000000E-03 0.  1.
    9000002   -1    0    0    0    0 -0.00000000000E+00 -0.00000000000E+00  0.00000000000E+00  0.93800000000E+00  0.93800000000E+00 0.  1.
         11    1    1    2    0    0  0.14856295194E-01  0.75912645789E-01  0.12394375406E+01  0.12418490720E+01  0.51100000000E-03 0.  1.
    9000002    1    1    2    0    0 -0.24327583551E+00 -0.42641301350E-01  0.45231132971E-01  0.97102588437E+00  0.93800000000E+00 0.  1.
         22    1    1    2    0    0  0.22841954031E+00 -0.33271344439E-01  0.27153312938E+01  0.27251250437E+01  0.00000000000E+00 0.  1.
</event>
<event>
 5    1  0.1537976E+002  0.1599659E+01  0.7818608E-02  0.3353734E+00
         11   -1    0    0    0    0  0.00000000000E+00  0.00000000000E+00  0.39999999674E+01  0.40000000000E+01  0.51100000000E-03 0.  1.
    9000002   -1    0    0    0    0 -0.00000000000E+00 -0.00000000000E+00  0.00000000000E+00  0.93800000000E+00  0.93800000000E+00 0.  1.
         11    1    1    2    0    0  0.90746073135E-03  0.21542138324E-02  0.29323302964E-01  0.29420763755E-01  0.51100000000E-03 0. -1.
    9000002    1    1    2    0    0 -0.59172110208E-01 -0.21728223222E+00  0.33641239623E-01  0.96524019812E+00  0.93800000000E+00 0.  1.
         22    1    1    2    0    0  0.58264649477E-01  0.21512801839E+00  0.39370354248E+01  0.39433390381E+01  0.00000000000E+00 0.  1.
</event>
<event>
 5    1  0.1537976E+002  0.1599609E+01  0.7818608E-02  0.3353788E+00
         11   -1    0    0    0    0  0.00000000000E+00  0.00000000000E+00  0.39999999674E+01  0.40000000000E+01  0.51100000000E-03 0.  1.
    9000002   -1    0    0    0    0 -0.00000000000E+00 -0.00000000000E+00  0.00000000000E+00  0.93800000000E+00  0.93800000000E+00 0. -1.
         11    1    1    2    0    0  0.19833330288E-02  0.99533409715E-02  0.17746285898E+00  0.17775356550E+00  0.51100000000E-03 0.  1.
    9000002    1    1    2    0    0  0.47046233139E-01 -0.22453449583E+00  0.34960157408E-01  0.96627910071E+00  0.93800000000E+00 0. -1.
         22    1    1    2    0    0 -0.49029566168E-01  0.21458115486E+00  0.37875769510E+01  0.37939673338E+01  0.00000000000E+00 0.  1.
</event>
<event>
 5    1  0.1537976E+002  0.1596499E+01  0.7818608E-02  0.3357172E+00
         11   -1    0    0    0    0  0.00000000000E+00  0.00000000000E+00  0.39999999674E+01  0.40000000000E+01  0.51100000000E-03 0. -1.
    9000002   -1    0    0    0    0 -0.00000000000E+00 -0.00000000000E+00  0.00000000000E+00  0.93800000000E+00  0.93800000000E+00 0. -1.
         11    1    1    2    0    0  0.31680858944E-02  0.21348128085E-01  0.37370863426E+00  0.37433164946E+00  0.51100000000E-03 0. -1.
    9000002    1    1    2    0    0 -0.19692732430E+00  0.16092003971E+00  0.45414779923E-01  0.97292452558E+00  0.93800000000E+00 0. -1.
         22    1    1    2    0    0  0.19375923840E+00 -0.18226816780E+00  0.35808765532E+01  0.35907438250E+01  0.00000000000E+00 0. -1.
</event>
<event>
 5    1  0.1537976E+002  0.1599481E+01  0.7818608E-02  0.3353927E+00
         11   -1    0    0    0    0  0.00000000000E+00  0.00000000000E+00  0.39999999674E+01  0.40000000000E+01  0.51100000000E-03 0. -1.
    9000002   -1    0    0    0    0 -0.00000000000E+00 -0.00000000000E+00  0.00000000000E+00  0.93800000000E+00  0.93800000000E+00 0. -1.
         11    1    1    2    0    0 -0.38289670564E-01 -0.19034627894E-01  0.27770376989E+00  0.28097697568E+00  0.51100000000E-03 0. -1.
    9000002    1    1    2    0    0  0.58677105369E+00  0.33974783964E+00  0.32688180765E+00  0.12026739293E+01  0.93800000000E+00 0. -1.
         22    1    1    2    0    0 -0.54848138313E+00 -0.32071321175E+00  0.33954143898E+01  0.34543490950E+01  0.00000000000E+00 0. -1.
</event>
<event>
 5    1  0.1537976E+002  0.1599497E+01  0.7818608E-02  0.3353909E+00
         11   -1    0    0    0    0  0.00000000000E+00  0.00000000000E+00  0.39999999674E+01  0.40000000000E+01  0.51100000000E-03 0.  1.
    9000002   -1    0    0    0    0 -0.00000000000E+00 -0.00000000000E+00  0.00000000000E+00  0.93800000000E+00  0.93800000000E+00 0. -1.
         11    1    1    2    0    0 -0.26866524208E-01  0.81312356951E-01  0.86132909234E+00  0.86557586377E+00  0.51100000000E-03 0.  1.
    9000002    1    1    2    0    0  0.16941016866E+00 -0.33118835369E+00  0.93168947978E-01  0.10133656713E+01  0.93800000000E+00 0. -1.
         22    1    1    2    0    0 -0.14254364446E+00  0.24987599674E+00  0.30455019270E+01  0.30590584649E+01  0.00000000000E+00 0.  1.
</event>
<event>
 5    1  0.1537976E+002  0.1599666E+01  0.7818608E-02  0.3353726E+00
         11   -1    0    0    0    0  0.00000000000E+00  0.00000000000E+00  0.39999999674E+01  0.40000000000E+01  0.51100000000E-03 0. -1.
    9000002   -1    0    0    0    0 -0.00000000000E+00 -0.00000000000E+00  0.00000000000E+00  0.93800000000E+00  0.93800000000E+00 0. -1.
         11    1    1    2    0    0  0.21430541004E-01  0.17777450798E+00  0.17326459396E+01  0.17418740645E+01  0.51100000000E-03 0. -1.
    9000002    1    1    2    0    0 -0.49441025701E-01 -0.39062924031E+00  0.10450094575E+00  0.10226436652E+01  0.93800000000E+00 0. -1.
         22    1    1    2    0    0  0.28010484697E-01  0.21285473233E+00  0.21628530821E+01  0.21734822702E+01  0.00000000000E+00 0.  1.
</event>
<event>
 5    1  0.1537976E+002  0.1599646E+01  0.7818608E-02  0.3353747E+00
         11   -1    0    0    0    0  0.00000000000E+00  0.00000000000E+00  0.39999999674E+01  0.40000000000E+01  0.51100000000E-03 0. -1.
    9000002   -1    0    0    0    0 -0.00000000000E+00 -0.00000000000E+00  0.00000000000E+00  0.93800000000E+00  0.93800000000E+00 0. -1.
         11    1    1    2    0    0  0.97383121432E-01  0.11009732431E+00  0.14435169546E+01  0.14509811689E+01  0.51100000000E-03 0. -1.
    9000002    1    1    2    0    0 -0.25043679010E+00 -0.28581699900E+00  0.97190163019E-01  0.10167103179E+01  0.93800000000E+00 0. -1.
         22    1    1    2    0    0  0.15305366867E+00  0.17571967469E+00  0.24592928498E+01  0.24703085132E+01  0.00000000000E+00 0. -1.
</event>
<event>
 5    1  0.1537976E+002  0.1599676E+01  0.7818608E-02  0.3353715E+00
         11   -1    0    0    0    0  0.00000000000E+00  0.00000000000E+00  0.39999999674E+01  0.40000000000E+01  0.51100000000E-03 0. -1.
    9000002   -1    0    0    0    0 -0.00000000000E+00 -0.00000000000E+00  0.00000000000E+00  0.93800000000E+00  0.93800000000E+00 0. -1.
         11    1    1    2    0    0  0.11618431505E+00  0.25134171221E+00  0.19281358050E+01  0.19479166807E+01  0.51100000000E-03 0. -1.
    9000002    1    1    2    0    0 -0.22667542310E+00 -0.49522348956E+00  0.20467474132E+00  0.11037951811E+01  0.93800000000E+00 0. -1.
         22    1    1    2    0    0  0.11049110806E+00  0.24388177735E+00  0.18671894211E+01  0.18862881382E+01  0.00000000000E+00 0. -1.
</event>
<event>
 5    1  0.1537976E+002  0.1594361E+01  0.7818608E-02  0.3359507E+00
         11   -1    0    0    0    0  0.00000000000E+00  0.00000000000E+00  0.39999999674E+01  0.40000000000E+01  0.51100000000E-03 0.  1.
    9000002   -1    0    0    0    0 -0.00000000000E+00 -0.00000000000E+00  0.00000000000E+00  0.93800000000E+00  0.93800000000E+00 0. -1.
         11    1    1    2    0    0 -0.33924378530E-01 -0.10214781601E-01  0.31206434846E+00  0.31406945716E+00  0.51100000000E-03 0.  1.
    9000002    1    1    2    0    0 -0.16806470725E+00  0.91187383424E-01  0.28174103166E-01  0.95770489443E+00  0.93800000000E+00 0. -1.
         22    1    1    2    0    0  0.20198908578E+00 -0.80972601823E-01  0.36597615157E+01  0.36662256484E+01  0.00000000000E+00 0.  1.
</event>
<event>
 5    1  0.1537976E+002  0.1599603E+01  0.7818608E-02  0.3353794E+00
         11   -1    0    0    0    0  0.00000000000E+00  0.00000000000E+00  0.39999999674E+01  0.40000000000E+01  0.51100000000E-03 0.  1.
    9000002   -1    0    0    0    0 -0.00000000000E+00 -0.00000000000E+00  0.00000000000E+00  0.93800000000E+00  0.93800000000E+00 0.  1.
         11    1    1    2    0    0  0.18764851481E-01 -0.35600213165E-02  0.15872557989E+00  0.15987139906E+00  0.51100000000E-03 0.  1.
    9000002    1    1    2    0    0 -0.36218505629E+00  0.77692433002E-01  0.92277895581E-01  0.10127059490E+01  0.93800000000E+00 0.  1.
         22    1    1    2    0    0  0.34342020481E+00 -0.74132411686E-01  0.37489964919E+01  0.37654226519E+01  0.00000000000E+00 0.  1.
</event>
<event>
 5    1  0.1537976E+002  0.1599653E+01  0.7818608E-02  0.3353740E+00
         11   -1    0    0    0    0  0.00000000000E+00  0.00000000000E+00  0.39999999674E+01  0.40000000000E+01  0.51100000000E-03 0. -1.
    9000002   -1    0    0    0    0 -0.00000000000E+00 -0.00000000000E+00  0.00000000000E+00  0.93800000000E+00  0.93800000000E+00 0.  1.
         11    1    1    2    0    0 -0.87876009424E-01 -0.37615595452E+00  0.20404421577E+01  0.20766848473E+01  0.51100000000E-03 0. -1.
    9000002    1    1    2    0    0  0.16065753539E+00  0.68264927015E+00  0.35164199672E+00  0.12228315352E+01  0.93800000000E+00 0.  1.
         22    1    1    2    0    0 -0.72781525970E-01 -0.30649331563E+00  0.16079158130E+01  0.16384836175E+01  0.00000000000E+00 0.  1.
</event>
<event>
 5    1  0.1537976E+002  0.1549593E+01  0.7818608E-02  0.3409959E+00
         11   -1    0    0    0    0  0.00000000000E+00  0.00000000000E+00  0.39999999674E+01  0.40000000000E+01  0.51100000000E-03 0.  1.
    9000002   -1    0    0    0    0 -0.00000000000E+00 -0.00000000000E+00  0.00000000000E+00  0.93800000000E+00  0.93800000000E+00 0.  1.
         11    1    1    2    0    0  0.77655643199E-01 -0.17056029963E+00  0.24322443824E+01  0.24394536707E+01  0.51100000000E-03 0.  1.
    9000002    1    1    2    0    0 -0.50531195588E+00  0.33564742835E+00  0.30915256068E+00  0.11590593922E+01  0.93800000000E+00 0.  1.
         22    1    1    2    0    0  0.42765631268E+00 -0.16508712873E+00  0.12586030243E+01  0.13394869371E+01  0.00000000000E+00 0. -1.
</event>
<event>
 5    1  0.1537976E+002  0.1599673E+01  0.7818608E-02  0.3353718E+00
         11   -1    0    0    0    0  0.00000000000E+00  0.00000000000E+00  0.39999999674E+01  0.40000000000E+01  0.51100000000E-03 0. -1.
    9000002   -1    0    0    0    0 -0.00000000000E+00 -0.00000000000E+00  0.00000000000E+00  0.93800000000E+00  0.93800000000E+00 0.  1.
         11    1    1    2    0    0 -0.38295318226E-01 -0.10512071745E-03  0.40934035636E+00  0.41112811983E+00  0.51100000000E-03 0. -1.
    9000002    1    1    2    0    0  0.37492642886E+00  0.96672668412E-02  0.94590660749E-01  0.10146204592E+01  0.93800000000E+00 0.  1.
         22    1    1    2    0    0 -0.33663111063E+00 -0.95621461237E-02  0.34960689503E+01  0.35122514210E+01  0.00000000000E+00 0. -1.
</event>
<event>
 5    1  0.1537976E+002  0.1599478E+01  0.7818608E-02  0.3353930E+00
         11   -1    0    0    0    0  0.00000000000E+00  0.00000000000E+00  0.39999999674E+01  0.40000000000E+01  0.51100000000E-03 0.  1.
    9000002   -1    0    0    0    0 -0.00000000000E+00 -0.00000000000E+00  0.00000000000E+00  0.93800000000E+00  0.93800000000E+00 0.  1.
         11    1    1    2    0    0 -0.40607843026E-02  0.23081993504E-01  0.61365120773E+00  0.61409879845E+00  0.51100000000E-03 0.  1.
    9000002    1    1    2    0    0  0.67481504917E-01 -0.21702437211E+00  0.34406706790E-01  0.96575418874E+00  0.93800000000E+00 0.  1.
         22    1    1    2    0    0 -0.63420720614E-01  0.19394237861E+00  0.33519420528E+01  0.33581470128E+01  0.00000000000E+00 0. -1.
</event>
<event>
 5    1  0.1537976E+002  0.1599641E+01  0.7818608E-02  0.3353753E+00
         11   -1    0    0    0    0  0.00000000000E+00  0.00000000000E+00  0.39999999674E+01  0.40000000000E+01  0.51100000000E-03 0. -1.
    9000002   -1    0    0    0    0 -0.00000000000E+00 -0.00000000000E+00  0.00000000000E+00  0.93800000000E+00  0.93800000000E+00 0.  1.
         11    1    1    2    0    0 -0.81558520473E-02 -0.23252540109E-01  0.26650769428E+00  0.26764493415E+00  0.51100000000E-03 0. -1.
    9000002    1    1    2    0    0  0.68223948324E-01  0.35221177555E+00  0.86413134989E-01  0.10079776148E+01  0.93800000000E+00 0.  1.
         22    1    1    2    0    0 -0.60068096277E-01 -0.32895923544E+00  0.36470791381E+01  0.36623774511E+01  0.00000000000E+00 0. -1.
</event>
<event>
 5    1  0.1537976E+002  0.1599386E+01  0.7818608E-02  0.3354030E+00
         11   -1    0    0    0    0  0.00000000000E+00  0.00000000000E+00  0.39999999674E+01  0.40000000000E+01  0.51100000000E-03 0. -1.
    9000002   -1    0    0    0    0 -0.00000000000E+00 -0.00000000000E+00  0.00000000000E+00  0.93800000000E+00  0.93800000000E+00 0. -1.
         11    1    1    2    0    0  0.33011765359E-01  0.15379051310E-01  0.44279394097E+00  0.44428935071E+00  0.51100000000E-03 0. -1.
    9000002    1    1    2    0    0 -0.24301971209E+00 -0.34276364393E-01  0.40220294266E-01  0.97040976999E+00  0.93800000000E+00 0. -1.
         22    1    1    2    0    0  0.21000794673E+00  0.18897313084E-01  0.35169857321E+01  0.35233008793E+01  0.00000000000E+00 0. -1.
</event>
<event>
 5    1  0.1537976E+002  0.1564851E+01  0.7818608E-02  0.3392419E+00
         11   -1    0    0    0    0  0.00000000000E+00  0.00000000000E+00  0.39999999674E+01  0.40000000000E+01  0.51100000000E-03 0.  1.
    9000002   -1    0    0    0    0 -0.00000000000E+00 -0.00000000000E+00  0.00000000000E+00  0.93800000000E+00  0.93800000000E+00 0.  1.
         11    1    1    2    0    0 -0.16130304905E+00  0.15279077877E+00  0.27978290706E+01  0.28066370384E+01  0.51100000000E-03 0.  1.
    9000002    1    1    2    0    0  0.34627645313E+00 -0.43896793431E+00  0.25026038516E+00  0.11203010710E+01  0.93800000000E+00 0.  1.
         22    1    1    2    0    0 -0.18497340408E+00  0.28617715553E+00  0.95191051160E+00  0.10110618906E+01  0.00000000000E+00 0. -1.
</event>
<event>
 5    1  0.1537976E+002  0.1599656E+01  0.7818608E-02  0.3353737E+00
         11   -1    0    0    0    0  0.00000000000E+00  0.00000000000E+00  0.39999999674E+01  0.40000000000E+01  0.51100000000E-03 0.  1.
    9000002   -1    0    0    0    0 -0.00000000000E+00 -0.00000000000E+00  0.00000000000E+00  0.93800000000E+00  0.93800000000E+00 0.  1.
         11    1    1    2    0    0  0.36590237288E-01  0.24804733859E+00  0.18208981523E+01  0.18380796146E+01  0.51100000000E-03 0.  1.
    9000002    1    1    2    0    0 -0.69001034883E-01 -0.52736275997E+00  0.19474296297E+00  0.10957378542E+01  0.93800000000E+00 0.  1.
         22    1    1    2    0    0  0.32410797595E-01  0.27931542139E+00  0.19843588521E+01  0.20041825312E+01  0.00000000000E+00 0.  1.
</event>
<event>
 5    1  0.1537976E+002  0.1598175E+01  0.7818608E-02  0.3355347E+00
         11   -1    0    0    0    0  0.00000000000E+00  0.00000000000E+00  0.39999999674E+01  0.40000000000E+01  0.51100000000E-03 0. -1.
    9000002   -1    0    0    0    0 -0.00000000000E+00 -0.00000000000E+00  0.00000000000E+00  0.93800000000E+00  0.93800000000E+00 0. -1.
         11    1    1    2    0    0 -0.47320881809E+00  0.29349322206E+00  0.27052874180E+01  0.27620002049E+01  0.51100000000E-03 0. -1.
    9000002    1    1    2    0    0  0.67494833449E+00 -0.38926048803E+00  0.44599942831E+00  0.12983984257E+01  0.93800000000E+00 0. -1.
         22    1    1    2    0    0 -0.20173951640E+00  0.95767265976E-01  0.84871312104E+00  0.87760136938E+00  0.00000000000E+00 0. -1.
</event>
<event>
 5    1  0.1537976E+002  0.1573133E+01  0.7818608E-02  0.3383050E+00
         11   -1    0    0    0    0  0.00000000000E+00  0.00000000000E+00  0.39999999674E+01  0.40000000000E+01  0.51100000000E-03 0.  1.
    9000002   -1    0    0    0    0 -0.00000000000E+00 -0.00000000000E+00  0.00000000000E+00  0.93800000000E+00  0.93800000000E+00 0.  1.
         11    1    1    2    0    0 -0.58097288426E-01 -0.95233242168E-01  0.43990414278E+00  0.45382880174E+00  0.51100000000E-03 0.  1.
    9000002    1    1    2    0    0 -0.22498688636E-02 -0.12397504341E+00  0.29870132995E-01  0.94663144789E+00  0.93800000000E+00 0.  1.
         22    1    1    2    0    0  0.60347157289E-01  0.21920828558E+00  0.35302256916E+01  0.35375397504E+01  0.00000000000E+00 0.  1.
</event>
<event>
 5    1  0.1537976E+002  0.1572241E+01  0.7818608E-02  0.3384055E+00
         11   -1    0    0    0    0  0.00000000000E+00  0.00000000000E+00  0.39999999674E+01  0.40000000000E+01  0.51100000000E-03 0.  1.
    9000002   -1    0    0    0    0 -0.00000000000E+00 -0.00000000000E+00  0.00000000000E+00  0.93800000000E+00  0.93800000000E+00 0. -1.
         11    1    1    2    0    0  0.76366379822E-01  0.12804414955E+00  0.56424042144E+00  0.58360486847E+00  0.51100000000E-03 0.  1.
    9000002    1    1    2    0    0 -0.50695361656E+00  0.95733540925E-01  0.20822177682E+00  0.10905811242E+01  0.93800000000E+00 0. -1.
         22    1    1    2    0    0  0.43058723674E+00 -0.22377769047E+00  0.32275377691E+01  0.32638140073E+01  0.00000000000E+00 0.  1.
</event>
<event>
 5    1  0.1537976E+002  0.1599661E+01  0.7818608E-02  0.3353731E+00
         11   -1    0    0    0    0  0.00000000000E+00  0.00000000000E+00  0.39999999674E+01  0.40000000000E+01  0.51100000000E-03 0.  1.
    9000002   -1    0    0    0    0 -0.00000000000E+00 -0.00000000000E+00  0.00000000000E+00  0.93800000000E+00  0.93800000000E+00 0. -1.
         11    1    1    2    0    0  0.60111868489E-01 -0.28455214569E-01  0.77824974359E+00  0.78108646160E+00  0.51100000000E-03 0.  1.
    9000002    1    1    2    0    0 -0.31914368347E+00  0.15281382449E+00  0.83999692399E-01  0.10060341465E+01  0.93800000000E+00 0. -1.
         22    1    1    2    0    0  0.25903181498E+00 -0.12435860993E+00  0.31377505314E+01  0.31508793919E+01  0.00000000000E+00 0.  1.
</event>
<event>
 5    1  0.1537976E+002  0.1599672E+01  0.7818608E-02  0.3353719E+00
         11   -1    0    0    0    0  0.00000000000E+00  0.00000000000E+00  0.39999999674E+01  0.40000000000E+01  0.51100000000E-03 0.  1.
    9000002   -1    0    0    0    0 -0.00000000000E+00 -0.00000000000E+00  0.00000000000E+00  0.93800000000E+00  0.93800000000E+00 0.  1.
         11    1    1    2    0    0 -0.32292553354E+00 -0.21964388994E-01  0.11102352476E+01  0.11564540201E+01  0.51100000000E-03 0.  1.
    9000002    1    1    2    0    0  0.95846037655E+00  0.60698735291E-01  0.72629535558E+00  0.15263287894E+01  0.93800000000E+00 0.  1.
         22    1    1    2    0    0 -0.63553484300E+00 -0.38734346297E-01  0.21634693642E+01  0.22552171904E+01  0.00000000000E+00 0.  1.
</event>
<event>
 5    1  0.1537976E+002  0.1580450E+01  0.7818608E-02  0.3374860E+00
         11   -1    0    0    0    0  0.00000000000E+00  0.00000000000E+00  0.39999999674E+01  0.40000000000E+01  0.51100000000E-03 0. -1.
    9000002   -1    0    0    0    0 -0.00000000000E+00 -0.00000000000E+00  0.00000000000E+00  0.93800000000E+00  0.93800000000E+00 0. -1.
         11    1    1    2    0    0  0.12311520123E+00  0.16123837718E+00  0.27421884025E+01  0.27496822840E+01  0.51100000000E-03 0. -1.
    9000002    1    1    2    0    0 -0.37050314559E+00 -0.13781546799E+00  0.12146270212E+00  0.10251160286E+01  0.93800000000E+00 0. -1.
         22    1    1    2    0    0  0.24738794436E+00 -0.23422909194E-01  0.11363488628E+01  0.11632016874E+01  0.00000000000E+00 0. -1.
</event>
<event>
 5    1  0.1537976E+002  0.1599675E+01  0.7818608E-02  0.3353716E+00
         11   -1    0    0    0    0  0.00000000000E+00  0.00000000000E+00  0.39999999674E+01  0.40000000000E+01  0.51100000000E-03 0.  1.
    9000002   -1    0    0    0    0 -0.00000000000E+00 -0.00000000000E+00  0.00000000000E+00  0.93800000000E+00  0.93800000000E+00 0.  1.
         11    1    1    2    0    0  0.33534726934E+00  0.40154914064E+00  0.18897725394E+01  0.19608518596E+01  0.51100000000E-03 0.  1.
    9000002    1    1    2    0    0 -0.59025039184E+00 -0.70948205210E+00  0.65865865383E+00  0.14715418885E+01  0.93800000000E+00 0.  1.
         22    1    1    2    0    0  0.25490312250E+00  0.30793291146E+00  0.14515687741E+01  0.15056062519E+01  0.00000000000E+00 0.  1.
</event>
<event>
 5    1  0.1537976E+002  0.1541148E+01  0.7818608E-02  0.3419825E+00
         11   -1    0    0    0    0  0.00000000000E+00  0.00000000000E+00  0.39999999674E+01  0.40000000000E+01  0.51100000000E-03 0. -1.
    9000002   -1    0    0    0    0 -0.00000000000E+00 -0.00000000000E+00  0.00000000000E+00  0.93800000000E+00  0.93800000000E+00 0.  1.
         11    1    1    2    0    0 -0.11807316151E+00 -0.29779765416E+00  0.24450407952E+01  0.24659378471E+01  0.51100000000E-03 0. -1.
    9000002    1    1    2    0    0 -0.54618985676E-01  0.95763323889E-01  0.52111186777E-01  0.94589292395E+00  0.93800000000E+00 0.  1.
         22    1    1    2    0    0  0.17269214719E+00  0.20203433027E+00  0.15028479854E+01  0.15261692290E+01  0.00000000000E+00 0. -1.
</event>
<event>
 5    1  0.1537976E+002  0.1598094E+01  0.7818608E-02  0.3355434E+00
         11   -1    0    0    0    0  0.00000000000E+00  0.00000000000E+00  0.39999999674E+01  0.40000000000E+01  0.51100000000E-03 0.  1.
    9000002   -1    0    0    0    0 -0.00000000000E+00 -0.00000000000E+00  0.00000000000E+00  0.93800000000E+00  0.93800000000E+00 0. -1.
         11    1    1    2    0    0 -0.22175225931E-01  0.64112772642E-01  0.15878095888E+01  0.15892582357E+01  0.51100000000E-03 0.  1.
    9000002    1    1    2    0    0  0.83442866647E-01 -0.27268851660E+00  0.55408348817E-01  0.98195510294E+00  0.93800000000E+00 0. -1.
         22    1    1    2    0    0 -0.61267640717E-01  0.20857574395E+00  0.23567820297E+01  0.23667866613E+01  0.00000000000E+00 0. -1.
</event>
<event>
 5    1  0.1537976E+002  0.1598838E+01  0.7818608E-02  0.3354625E+00
         11   -1    0    0    0    0  0.00000000000E+00  0.00000000000E+00  0.39999999674E+01  0.40000000000E+01  0.51100000000E-03 0.  1.
    9000002   -1    0    0    0    0 -0.00000000000E+00 -0.00000000000E+00  0.00000000000E+00  0.93800000000E+00  0.93800000000E+00 0.  1.
         11    1    1    2    0    0  0.17604885183E+00  0.14881454290E+00  0.19835392358E+01  0.19968893628E+01  0.51100000000E-03 0.  1.
    9000002    1    1    2    0    0 -0.40435224202E+00 -0.30548685240E+00  0.17677211899E+00  0.10807013161E+01  0.93800000000E+00 0.  1.
         22    1    1    2    0    0  0.22830339019E+00  0.15667230949E+00  0.18396886126E+01  0.18604093210E+01  0.00000000000E+00 0.  1.
</event>
<event>
 5    1  0.1537976E+002  0.1503679E+01  0.7818608E-02  0.3465035E+00
         11   -1    0    0    0    0  0.00000000000E+00  0.00000000000E+00  0.39999999674E+01  0.40000000000E+01  0.51100000000E-03 0. -1.
    9000002   -1    0    0    0    0 -0.00000000000E+00 -0.00000000000E+00  0.00000000000E+00  0.93800000000E+00  0.93800000000E+00 0. -1.
         11    1    1    2    0    0 -0.14077183724E+00 -0.20563992027E+00  0.57593034175E+00  0.62753526327E+00  0.51100000000E-03 0. -1.
    9000002    1    1    2    0    0  0.93827603469E-01 -0.20419930951E+00  0.10997317924E+00  0.97079301467E+00  0.93800000000E+00 0. -1.
         22    1    1    2    0    0  0.46944233772E-01  0.40983922979E+00  0.33140964464E+01  0.33396717221E+01  0.00000000000E+00 0. -1.
</event>
<event>
 5    1  0.1537976E+002  0.1595210E+01  0.7818608E-02  0.3358578E+00
         11   -1    0    0    0    0  0.00000000000E+00  0.00000000000E+00  0.39999999674E+01  0.40000000000E+01  0.51100000000E-03 0. -1.
    9000002   -1    0    0    0    0 -0.00000000000E+00 -0.00000000000E+00  0.00000000000E+00  0.93800000000E+00  0.93800000000E+00 0. -1.
         11    1    1    2    0    0 -0.50235802486E-01  0.37583397183E-01  0.29612807090E+00  0.30270157431E+00  0.51100000000E-03 0. -1.
    9000002    1    1    2    0    0  0.13960580512E+00 -0.28704892532E+00  0.71636482360E-01  0.99340960935E+00  0.93800000000E+00 0. -1.
         22    1    1    2    0    0 -0.89370002633E-01  0.24946552814E+00  0.36322354141E+01  0.36418888163E+01  0.00000000000E+00 0. -1.
</event>
<event>
 5    1  0.1537976E+002  0.1571991E+01  0.7818608E-02  0.3384336E+00
         11   -1    0    0    0    0  0.00000000000E+00  0.00000000000E+00  0.39999999674E+01  0.40000000000E+01  0.51100000000E-03 0.  1.
    9000002   -1    0    0    0    0 -0.00000000000E+00 -0.00000000000E+00  0.00000000000E+00  0.93800000000E+00  0.93800000000E+00 0. -1.
         11    1    1    2    0    0  0.10439622542E+00  0.16698417887E-01  0.52511451248E+00  0.53565186584E+00  0.51100000000E-03 0.  1.
    9000002    1    1    2    0    0  0.19595548873E+00  0.16942237917E+00  0.66160220934E-01  0.97535822699E+00  0.93800000000E+00 0. -1.
         22    1    1    2    0    0 -0.30035171415E+00 -0.18612079705E+00  0.34087252339E+01  0.34269899072E+01  0.00000000000E+00 0.  1.
</event>
<event>
 5    1  0.1537976E+002  0.1599676E+01  0.7818608E-02  0.3353715E+00
         11   -1    0    0    0    0  0.00000000000E+00  0.00000000000E+00  0.39999999674E+01  0.40000000000E+01  0.51100000000E-03 0.  1.
    9000002   -1    0    0    0    0 -0.00000000000E+00 -0.00000000000E+00  0.00000000000E+00  0.93800000000E+00  0.93800000000E+00 0. -1.
         11    1    1    2    0    0  0.26436085512E-01 -0.14857072821E-02  0.41679593661E+00  0.41763643021E+00  0.51100000000E-03 0.  1.
    9000002    1    1    2    0    0 -0.24766253366E+00  0.19451991924E-01  0.40992670891E-01  0.97120518411E+00  0.93800000000E+00 0. -1.
         22    1    1    2    0    0  0.22122644815E+00 -0.17966284642E-01  0.35422113599E+01  0.35491583857E+01  0.00000000000E+00 0.  1.
</event>
<event>
 5    1  0.1537976E+002  0.1599677E+01  0.7818608E-02  0.3353714E+00
         11   -1    0    0    0    0  0.00000000000E+00  0.00000000000E+00  0.39999999674E+01  0.40000000000E+01  0.51100000000E-03 0. -1.
    9000002   -1    0    0    0    0 -0.00000000000E+00 -0.00000000000E+00  0.00000000000E+00  0.93800000000E+00  0.93800000000E+00 0.  1.
         11    1    1    2    0    0  0.20229803396E+00 -0.65405398678E-01  0.16395820953E+01  0.16533094293E+01  0.51100000000E-03 0. -1.
    9000002    1    1    2    0    0 -0.47295219853E+00  0.15256310099E+00  0.16897127357E+00  0.10748742127E+01  0.93800000000E+00 0.  1.
         22    1    1    2    0    0  0.27065416457E+00 -0.87157702310E-01  0.21914465985E+01  0.22098163580E+01  0.00000000000E+00 0. -1.
</event>
<event>
 5    1  0.1537976E+002  0.1599358E+01  0.7818608E-02  0.3354060E+00
         11   -1    0    0    0    0  0.00000000000E+00  0.00000000000E+00  0.39999999674E+01  0.40000000000E+01  0.51100000000E-03 0. -1.
    9000002   -1    0    0    0    0 -0.00000000000E+00 -0.00000000000E+00  0.00000000000E+00  0.93800000000E+00  0.93800000000E+00 0. -1.
         11    1    1    2    0    0  0.39969436172E+00 -0.77061981907E-01  0.22567484615E+01  0.22931655002E+01  0.51100000000E-03 0. -1.
    9000002    1    1    2    0    0 -0.62345223531E+00  0.13360491567E+00  0.28636753732E+00  0.11697834542E+01  0.93800000000E+00 0. -1.
         22    1    1    2    0    0  0.22375787359E+00 -0.56542933761E-01  0.14568839686E+01  0.14750510456E+01  0.00000000000E+00 0. -1.
</event>
<event>
 5    1  0.1537976E+002  0.1599676E+01  0.7818608E-02  0.3353715E+00
         11   -1    0    0    0    0  0.00000000000E+00  0.00000000000E+00  0.39999999674E+01  0.40000000000E+01  0.51100000000E-03 0.  1.
    9000002   -1    0    0    0    0 -0.00000000000E+00 -0.00000000000E+00  0.00000000000E+00  0.93800000000E+00  0.93800000000E+00 0.  1.
         11    1    1    2    0    0 -0.32889282220E-02 -0.37615400058E-01  0.56661078764E+00  0.56786774972E+00  0.51100000000E-03 0.  1.
    9000002    1    1    2    0    0  0.24332852746E-01  0.25712308275E+00  0.44340473834E-01  0.97391706270E+00  0.93800000000E+00 0.  1.
         22    1    1    2    0    0 -0.21043924524E-01 -0.21950768269E+00  0.33890487059E+01  0.33962151876E+01  0.00000000000E+00 0.  1.
</event>
<event>
 5    1  0.1537976E+002  0.1582130E+01  0.7818608E-02  0.3372990E+00
         11   -1    0    0    0    0  0.00000000000E+00  0.00000000000E+00  0.39999999674E+01  0.40000000000E+01  0.51100000000E-03 0. -1.
    9000002   -1    0    0    0    0 -0.00000000000E+00 -0.00000000000E+00  0.00000000000E+00  0.93800000000E+00  0.93800000000E+00 0.  1.
         11    1    1    2    0    0  0.86297515365E-01  0.23247953930E-01  0.45403995321E+00  0.46275292409E+00  0.51100000000E-03 0. -1.
    9000002    1    1    2    0    0  0.12820447661E+00 -0.97313636009E-01  0.30217843262E-01  0.95218876785E+00  0.93800000000E+00 0.  1.
         22    1    1    2    0    0 -0.21450199197E+00  0.74065682079E-01  0.35157421709E+01  0.35230583081E+01  0.00000000000E+00 0. -1.
</event>
<event>
 5    1  0.1537976E+002  0.1599673E+01  0.7818608E-02  0.3353718E+00
         11   -1    0    0    0    0  0.00000000000E+00  0.00000000000E+00  0.39999999674E+01  0.40000000000E+01  0.51100000000E-03 0. -1.
    9000002   -1    0    0    0    0 -0.00000000000E+00 -0.00000000000E+00  0.00000000000E+00  0.93800000000E+00  0.93800000000E+00 0. -1.
         11    1    1    2    0    0  0.22263537173E-04  0.11766619099E-01  0.20855306863E+00  0.20888536898E+00  0.51100000000E-03 0. -1.
    9000002    1    1    2    0    0 -0.18462300749E-01 -0.22412651150E+00  0.33537285681E-01  0.96516438975E+00  0.93800000000E+00 0. -1.
         22    1    1    2    0    0  0.18440037212E-01  0.21235989240E+00  0.37579096131E+01  0.37639502413E+01  0.00000000000E+00 0. -1.
</event>
<event>
 5    1  0.1537976E+002  0.1599674E+01  0.7818608E-02  0.3353717E+00
         11   -1    0    0    0    0  0.00000000000E+00  0.00000000000E+00  0.39999999674E+01  0.40000000000E+01  0.51100000000E-03 0.  1.
    9000002   -1    0    0    0    0 -0.00000000000E+00 -0.00000000000E+00  0.00000000000E+00  0.93800000000E+00  0.93800000000E+00 0.  1.
         11    1    1    2    0    0 -0.64649207842E-02  0.15416689192E-01  0.18493881112E+00  0.18569354993E+00  0.51100000000E-03 0.  1.
    9000002    1    1    2    0    0  0.12238541498E+00 -0.33242407468E+00  0.84180258415E-01  0.10061879900E+01  0.93800000000E+00 0.  1.
         22    1    1    2    0    0 -0.11592049420E+00  0.31700738549E+00  0.37308808978E+01  0.37461184601E+01  0.00000000000E+00 0.  1.
</event>
<event>
 5    1  0.1537976E+002  0.1599667E+01  0.7818608E-02  0.3353725E+00
         11   -1    0    0    0    0  0.00000000000E+00  0.00000000000E+00  0.39999999674E+01  0.40000000000E+01  0.51100000000E-03 0.  1.
    9000002   -1    0    0    0    0 -0.00000000000E+00 -0.00000000000E+00  0.00000000000E+00  0.93800000000E+00  0.93800000000E+00 0.  1.
         11    1    1    2    0    0  0.12311102706E+00 -0.64076748087E-01  0.13521548193E+01  0.13592590155E+01  0.51100000000E-03 0.  1.
    9000002    1    1    2    0    0 -0.34579020710E+00  0.17951757541E+00  0.10226423360E+00  0.10208326997E+01  0.93800000000E+00 0.  1.
         22    1    1    2    0    0  0.22267918004E+00 -0.11544082732E+00  0.25455809144E+01  0.25579082849E+01  0.00000000000E+00 0.  1.
</event>
<event>
 5    1  0.1537976E+002  0.1557494E+01  0.7818608E-02  0.3400831E+00
         11   -1    0    0    0    0  0.00000000000E+00  0.00000000000E+00  0.39999999674E+01  0.40000000000E+01  0.51100000000E-03 0. -1.
    9000002   -1    0    0    0    0 -0.00000000000E+00 -0.00000000000E+00  0.00000000000E+00  0.93800000000E+00  0.93800000000E+00 0. -1.
         11    1    1    2    0    0 -0.23334973086E-01  0.22017715191E+00  0.80157291474E+00  0.83158998188E+00  0.51100000000E-03 0. -1.
    9000002    1    1    2    0    0 -0.30254193293E+00 -0.18543174648E+00  0.11936329986E+00  0.10099545292E+01  0.93800000000E+00 0. -1.
         22    1    1    2    0    0  0.32587690601E+00 -0.34745405433E-01  0.30790637528E+01  0.30964554889E+01  0.00000000000E+00 0. -1.
</event>
<event>
 5    1  0.1537976E+002  0.1599632E+01  0.7818608E-02  0.3353763E+00
         11   -1    0    0    0    0  0.00000000000E+00  0.00000000000E+00  0.39999999674E+01  0.40000000000E+01  0.51100000000E-03 0. -1.
    9000002   -1    0    0    0    0 -0.00000000000E+00 -0.00000000000E+00  0.00000000000E+00  0.93800000000E+00  0.93800000000E+00 0. -1.
         11    1    1    2    0    0  0.18922160822E+00 -0.27393961583E-01  0.16880682874E+01  0.16988613982E+01  0.51100000000E-03 0. -1.
    9000002    1    1    2    0    0 -0.42263312733E+00  0.48869146377E-01  0.12254544123E+00  0.10372407334E+01  0.93800000000E+00 0. -1.
         22    1    1    2    0    0  0.23341151910E+00 -0.21475184794E-01  0.21893862387E+01  0.22018978685E+01  0.00000000000E+00 0.  1.
</event>
<event>
 5    1  0.1537976E+002  0.1599182E+01  0.7818608E-02  0.3354251E+00
         11   -1    0    0    0    0  0.00000000000E+00  0.00000000000E+00  0.39999999674E+01  0.40000000000E+01  0.51100000000E-03 0.  1.
    9000002   -1    0    0    0    0 -0.00000000000E+00 -0.00000000000E+00  0.00000000000E+00  0.93800000000E+00  0.93800000000E+00 0. -1.
         11    1    1    2    0    0  0.21338893063E+00 -0.71931925146E-01  0.20768333588E+01  0.20890060074E+01  0.51100000000E-03 0.  1.
    9000002    1    1    2    0    0 -0.44065042925E+00  0.15486865197E+00  0.14898432623E+00  0.10583937970E+01  0.93800000000E+00 0. -1.
         22    1    1    2    0    0  0.22726149862E+00 -0.82936726821E-01  0.17741822823E+01  0.17906001956E+01  0.00000000000E+00 0.  1.
</event>
<event>
 5    1  0.1537976E+002  0.1599675E+01  0.7818608E-02  0.3353717E+00
         11   -1    0    0    0    0  0.00000000000E+00  0.00000000000E+00  0.39999999674E+01  0.40000000000E+01  0.51100000000E-03 0. -1.
    9000002   -1    0    0    0    0 -0.00000000000E+00 -0.00000000000E+00  0.00000000000E+00  0.93800000000E+00  0.93800000000E+00 0. -1.
         11    1    1    2    0    0 -0.47150146449E-01 -0.21160046475E-02  0.72969129957E+00  0.73121629330E+00  0.51100000000E-03 0.  1.
    9000002    1    1    2    0    0  0.24938594716E+00  0.15860509893E-01  0.41483067123E-01  0.97160164227E+00  0.93800000000E+00 0. -1.
         22    1    1    2    0    0 -0.20223580071E+00 -0.13744505245E-01  0.32288256007E+01  0.32351820644E+01  0.00000000000E+00 0. -1.
</event>
<event>
 5    1  0.1537976E+002  0.1599607E+01  0.7818608E-02  0.3353790E+00
         11   -1    0    0    0    0  0.00000000000E+00  0.00000000000E+00  0.39999999674E+01  0.40000000000E+01  0.51100000000E-03 0.  1.
    9000002   -1    0    0    0    0 -0.00000000000E+00 -0.00000000000E+00  0.00000000000E+00  0.93800000000E+00  0.93800000000E+00 0.  1.
         11    1    1    2    0    0 -0.25460877307E+00  0.49260494427E-01  0.16732106688E+01  0.16931882432E+01  0.51100000000E-03 0.  1.
    9000002    1    1    2    0    0  0.56325594194E+00 -0.13101173999E+00  0.23233981104E+00  0.11261647837E+01  0.93800000000E+00 0.  1.
         22    1    1    2    0    0 -0.30864716887E+00  0.81751245560E-01  0.20944494876E+01  0.21186469732E+01  0.00000000000E+00 0. -1.
</event>
<event>
 5    1  0.1537976E+002  0.1599676E+01  0.7818608E-02  0.3353715E+00
         11   -1    0    0    0    0  0.00000000000E+00  0.00000000000E+00  0.39999999674E+01  0.40000000000E+01  0.51100000000E-03 0. -1.
    9000002   -1    0    0    0    0 -0.00000000000E+00 -0.00000000000E+00  0.00000000000E+00  0.93800000000E+00  0.93800000000E+00 0.  1.
         11    1    1    2    0    0 -0.41868788116E+00 -0.66976813322E-01  0.22317776169E+01  0.22716991500E+01  0.51100000000E-03 0. -1.
    9000002    1    1    2    0    0  0.68435987847E+00  0.11025398744E+00  0.34278106253E+00  0.12156674059E+01  0.93800000000E+00 0.  1.
         22    1    1    2    0    0 -0.26567199730E+00 -0.43277174120E-01  0.14254412879E+01  0.14506334441E+01  0.00000000000E+00 0. -1.
</event>
<event>
 5    1  0.1537976E+002  0.1591523E+01  0.7818608E-02  0.3362615E+00
         11   -1    0    0    0    0  0.00000000000E+00  0.00000000000E+00  0.39999999674E+01  0.40000000000E+01  0.51100000000E-03 0. -1.
    9000002   -1    0    0    0    0 -0.00000000000E+00 -0.00000000000E+00  0.00000000000E+00  0.93800000000E+00  0.93800000000E+00 0.  1.
         11    1    1    2    0    0 -0.69051137981E-01  0.36097976010E+00  0.26583838433E+01  0.26836690121E+01  0.51100000000E-03 0. -1.
    9000002    1    1    2    0    0  0.15211321721E+00 -0.62857748180E+00  0.30350339123E+00  0.11790701378E+01  0.93800000000E+00 0.  1.
         22    1    1    2    0    0 -0.83062079228E-01  0.26759772171E+00  0.10381127328E+01  0.10752608501E+01  0.00000000000E+00 0. -1.
</event>
<event>
 5    1  0.1537976E+002  0.1613824E+01  0.7818608E-02  0.3338495E+00
         11   -1    0    0    0    0  0.00000000000E+00  0.00000000000E+00  0.39999999674E+01  0.40000000000E+01  0.51100000000E-03 0. -1.
    9000002   -1    0    0    0    0 -0.00000000000E+00 -0.00000000000E+00  0.00000000000E+00  0.93800000000E+00  0.93800000000E+00 0. -1.
         11    1    1    2    0    0  0.34755159684E+00  0.16639458746E+00  0.30064858978E+00  0.48874237269E+00  0.51100000000E-03 0. -1.
    9000002    1    1    2    0    0  0.26422448615E+00  0.12230065561E+00  0.36627099939E+00  0.10482225310E+01  0.93800000000E+00 0. -1.
         22    1    1    2    0    0 -0.61177608299E+00 -0.28869524306E+00  0.33330803782E+01  0.34010350963E+01  0.00000000000E+00 0. -1.
</event>
<event>
 5    1  0.1537976E+002  0.1599669E+01  0.7818608E-02  0.3353723E+00
         11   -1    0    0    0    0  0.00000000000E+00  0.00000000000E+00  0.39999999674E+01  0.40000000000E+01  0.51100000000E-03 0. -1.
    9000002   -1    0    0    0    0 -0.00000000000E+00 -0.00000000000E+00  0.00000000000E+00  0.93800000000E+00  0.93800000000E+00 0.  1.
         11    1    1    2    0    0 -0.11583261319E+00  0.38337863620E-01  0.13868198020E+01  0.13921768603E+01  0.51100000000E-03 0. -1.
    9000002    1    1    2    0    0  0.33639344482E+00 -0.10621988852E+00  0.83472870213E-01  0.10056117215E+01  0.93800000000E+00 0.  1.
         22    1    1    2    0    0 -0.22056083162E+00  0.67882024902E-01  0.25297072952E+01  0.25402114182E+01  0.00000000000E+00 0. -1.
</event>
<event>
 5    1  0.1537976E+002  0.1562799E+01  0.7818608E-02  0.3394756E+00
         11   -1    0    0    0    0  0.00000000000E+00  0.00000000000E+00  0.39999999674E+01  0.40000000000E+01  0.51100000000E-03 0. -1.
    9000002   -1    0    0    0    0 -0.00000000000E+00 -0.00000000000E+00  0.00000000000E+00  0.93800000000E+00  0.93800000000E+00 0.  1.
         11    1    1    2    0    0  0.20628386921E-01 -0.14862737731E+00  0.27375287603E+01  0.27416381239E+01  0.51100000000E-03 0. -1.
    9000002    1    1    2    0    0 -0.30960992377E-01 -0.95034467189E-01  0.34006577074E-01  0.94392297370E+00  0.93800000000E+00 0.  1.
         22    1    1    2    0    0  0.10332605456E-01  0.24366184449E+00  0.12284646300E+01  0.12524389024E+01  0.00000000000E+00 0. -1.
</event>
<event>
 5    1  0.1537976E+002  0.1599676E+01  0.7818608E-02  0.3353715E+00
         11   -1    0    0    0    0  0.00000000000E+00  0.00000000000E+00  0.39999999674E+01  0.40000000000E+01  0.51100000000E-03 0.  1.
    9000002   -1    0    0    0    0 -0.00000000000E+00 -0.00000000000E+00  0.00000000000E+00  0.93800000000E+00  0.93800000000E+00 0.  1.
         11    1    1    2    0    0 -0.28773637270E-01 -0.26794304909E-01  0.55839617345E+00  0.55977888904E+00  0.51100000000E-03 0.  1.
    9000002    1    1    2    0    0  0.20256722622E+00  0.19565665552E+00  0.52825604288E-01  0.98079026935E+00  0.93800000000E+00 0.  1.
         22    1    1    2    0    0 -0.17379358895E+00 -0.16886235061E+00  0.33887781896E+01  0.33974308416E+01  0.00000000000E+00 0.  1.
</event>
<event>
 5    1  0.1537976E+002  0.1558390E+01  0.7818608E-02  0.3399801E+00
         11   -1    0    0    0    0  0.00000000000E+00  0.00000000000E+00  0.39999999674E+01  0.40000000000E+01  0.51100000000E-03 0.  1.
    9000002   -1    0    0    0    0 -0.00000000000E+00 -0.00000000000E+00  0.00000000000E+00  0.93800000000E+00  0.93800000000E+00 0. -1.
         11    1    1    2    0    0  0.18785054234E+00  0.28026794989E-02  0.24083590377E+01  0.24156757226E+01  0.51100000000E-03 0.  1.
    9000002    1    1    2    0    0  0.78818840665E-01 -0.69281389406E-01  0.38057132862E-01  0.94461879397E+00  0.93800000000E+00 0. -1.
         22    1    1    2    0    0 -0.26666938300E+00  0.66478709907E-01  0.15535837968E+01  0.15777054834E+01  0.00000000000E+00 0.  1.
</event>
<event>
 5    1  0.1537976E+002  0.1599674E+01  0.7818608E-02  0.3353718E+00
         11   -1    0    0    0    0  0.00000000000E+00  0.00000000000E+00  0.39999999674E+01  0.40000000000E+01  0.51100000000E-03 0.  1.
    9000002   -1    0    0    0    0 -0.00000000000E+00 -0.00000000000E+00  0.00000000000E+00  0.93800000000E+00  0.93800000000E+00 0.  1.
         11    1    1    2    0    0 -0.17068441318E-01  0.34168351829E-01  0.61229716501E+00  0.61348747938E+00  0.51100000000E-03 0.  1.
    9000002    1    1    2    0    0  0.11332867405E+00 -0.23020494187E+00  0.43760217038E-01  0.97344576645E+00  0.93800000000E+00 0.  1.
         22    1    1    2    0    0 -0.96260232733E-01  0.19603659004E+00  0.33439425853E+01  0.33510667542E+01  0.00000000000E+00 0.  1.
</event>
<event>
 5    1  0.1537976E+002  0.1579765E+01  0.7818608E-02  0.3375622E+00
         11   -1    0    0    0    0  0.00000000000E+00  0.00000000000E+00  0.39999999674E+01  0.40000000000E+01  0.51100000000E-03 0. -1.
    9000002   -1    0    0    0    0 -0.00000000000E+00 -0.00000000000E+00  0.00000000000E+00  0.93800000000E+00  0.93800000000E+00 0.  1.
         11    1    1    2    0    0  0.14395923317E+00 -0.13657513767E-01  0.15084799589E+01  0.15153952738E+01  0.51100000000E-03 0. -1.
    9000002    1    1    2    0    0 -0.10865129110E-01 -0.19364254664E+00  0.39934533758E-01  0.95867317366E+00  0.93800000000E+00 0.  1.
         22    1    1    2    0    0 -0.13309410406E+00  0.20730006041E+00  0.24515854747E+01  0.24639315525E+01  0.00000000000E+00 0. -1.
</event>
<event>
 5    1  0.1537976E+002  0.1579285E+01  0.7818608E-02  0.3376158E+00
         11   -1    0    0    0    0  0.00000000000E+00  0.00000000000E+00  0.39999999674E+01  0.40000000000E+01  0.51100000000E-03 0. -1.
    9000002   -1    0    0    0    0 -0.00000000000E+00 -0.00000000000E+00  0.00000000000E+00  0.93800000000E+00  0.93800000000E+00 0.  1.
         11    1    1    2    0    0  0.31761333519E+00  0.16578180304E+00  0.14424855545E+01  0.14863131141E+01  0.51100000000E-03 0. -1.
    9000002    1    1    2    0    0 -0.38750838794E+00 -0.42805934697E+00  0.25158737720E+00  0.11298397070E+01  0.93800000000E+00 0.  1.
         22    1    1    2    0    0  0.69895052746E-01  0.26227754393E+00  0.23059270356E+01  0.23218471789E+01  0.00000000000E+00 0. -1.
</event>
<event>
 5    1  0.1537976E+002  0.1599633E+01  0.7818608E-02  0.3353761E+00
         11   -1    0    0    0    0  0.00000000000E+00  0.00000000000E+00  0.39999999674E+01  0.40000000000E+01  0.51100000000E-03 0.  1.
    9000002   -1    0    0    0    0 -0.00000000000E+00 -0.00000000000E+00  0.00000000000E+00  0.93800000000E+00  0.93800000000E+00 0. -1.
         11    1    1    2    0    0  0.16564486067E-01 -0.30704207817E-02  0.18157457206E+00  0.18235513709E+00  0.51100000000E-03 0.  1.
    9000002    1    1    2    0    0 -0.33978510637E+00 -0.28799488513E-02  0.77367921748E-01  0.10006457954E+01  0.93800000000E+00 0. -1.
         22    1    1    2    0    0  0.32322062031E+00  0.59503696330E-02  0.37410574735E+01  0.37549990675E+01  0.00000000000E+00 0.  1.
</event>
<event>
 5    1  0.1537976E+002  0.1595380E+01  0.7818608E-02  0.3358393E+00
         11   -1    0    0    0    0  0.00000000000E+00  0.00000000000E+00  0.39999999674E+01  0.40000000000E+01  0.51100000000E-03 0.  1.
    9000002   -1    0    0    0    0 -0.00000000000E+00 -0.00000000000E+00  0.00000000000E+00  0.93800000000E+00  0.93800000000E+00 0.  1.
         11    1    1    2    0    0  0.92426545472E-01 -0.15492804979E+00  0.23240440747E+01  0.23310354972E+01  0.51100000000E-03 0.  1.
    9000002    1    1    2    0    0 -0.28447272723E+00  0.27006896535E+00  0.10724579317E+00  0.10223539694E+01  0.93800000000E+00 0.  1.
         22    1    1    2    0    0  0.19204618176E+00 -0.11514091556E+00  0.15687100995E+01  0.15846105334E+01  0.00000000000E+00 0.  1.
</event>
<event>
 5    1  0.1537976E+002  0.1599669E+01  0.7818608E-02  0.3353723E+00
         11   -1    0    0    0    0  0.00000000000E+00  0.00000000000E+00  0.39999999674E+01  0.40000000000E+01  0.51100000000E-03 0.  1.
    9000002   -1    0    0    0    0 -0.00000000000E+00 -0.00000000000E+00  0.00000000000E+00  0.93800000000E+00  0.93800000000E+00 0. -1.
         11    1    1    2    0    0 -0.14853279912E+00 -0.22968716002E+00  0.21227115475E+01  0.21402623107E+01  0.51100000000E-03 0.  1.
    9000002    1    1    2    0    0  0.26248624642E+00  0.41689386145E+00  0.16594550260E+00  0.10724184963E+01  0.93800000000E+00 0. -1.
         22    1    1    2    0    0 -0.11395344730E+00 -0.18720670143E+00  0.17113429173E+01  0.17253191930E+01  0.00000000000E+00 0.  1.
</event>
<event>
 5    1  0.1537976E+002  0.1598995E+01  0.7818608E-02  0.3354455E+00
         11   -1    0    0    0    0  0.00000000000E+00  0.00000000000E+00  0.39999999674E+01  0.40000000000E+01  0.51100000000E-03 0. -1.
    9000002   -1    0    0    0    0 -0.00000000000E+00 -0.00000000000E+00  0.00000000000E+00  0.93800000000E+00  0.93800000000E+00 0.  1.
         11    1    1    2    0    0 -0.14590591774E+00  0.78418636746E-01  0.19612966562E+01  0.19682791606E+01  0.51100000000E-03 0. -1.
    9000002    1    1    2    0    0  0.35230041843E+00 -0.14703517621E+00  0.98637490979E-01  0.10175009988E+01  0.93800000000E+00 0.  1.
         22    1    1    2    0    0 -0.20639450069E+00  0.68616539468E-01  0.19400658202E+01  0.19522198406E+01  0.00000000000E+00 0. -1.
</event>
<event>
 5    1  0.1537976E+002  0.1389055E+01  0.7818608E-02  0.3624579E+00
         11   -1    0    0    0    0  0.00000000000E+00  0.00000000000E+00  0.39999999674E+01  0.40000000000E+01  0.51100000000E-03 0. -1.
    9000002   -1    0    0    0    0 -0.00000000000E+00 -0.00000000000E+00  0.00000000000E+00  0.93800000000E+00  0.93800000000E+00 0.  1.
         11    1    1    2    0    0 -0.12488867364E+00 -0.45421641781E+00  0.35154705084E+01  0.35468920045E+01  0.51100000000E-03 0. -1.
    9000002    1    1    2    0    0  0.16252554220E+00  0.15771662349E+00  0.21492736863E+00  0.98859843161E+00  0.93800000000E+00 0.  1.
         22    1    1    2    0    0 -0.37636868558E-01  0.29649979432E+00  0.26960209028E+00  0.40250956385E+00  0.00000000000E+00 0.  1.
</event>
<event>
 5    1  0.1537976E+002  0.1590517E+01  0.7818608E-02  0.3363721E+00
         11   -1    0    0    0    0  0.00000000000E+00  0.00000000000E+00  0.39999999674E+01  0.40000000000E+01  0.51100000000E-03 0. -1.
    9000002   -1    0    0    0    0 -0.00000000000E+00 -0.00000000000E+00  0.00000000000E+00  0.93800000000E+00  0.93800000000E+00 0.  1.
         11    1    1    2    0    0 -0.33750680762E-02  0.79910650644E-01  0.71822830543E+00  0.72266815553E+00  0.51100000000E-03 0. -1.
    9000002    1    1    2    0    0  0.31653717253E+00 -0.51974231808E-01  0.76068077868E-01  0.99424717995E+00  0.93800000000E+00 0.  1.
         22    1    1    2    0    0 -0.31316210446E+00 -0.27936418836E-01  0.32057035841E+01  0.32210846645E+01  0.00000000000E+00 0. -1.
</event>
<event>
 5    1  0.1537976E+002  0.1413829E+01  0.7818608E-02  0.3584963E+00
         11   -1    0    0    0    0  0.00000000000E+00  0.00000000000E+00  0.39999999674E+01  0.40000000000E+01  0.51100000000E-03 0.  1.
    9000002   -1    0    0    0    0 -0.00000000000E+00 -0.00000000000E+00  0.00000000000E+00  0.93800000000E+00  0.93800000000E+00 0. -1.
         11    1    1    2    0    0  0.29506843016E+00 -0.56742968784E+00  0.34182146952E+01  0.34775327163E+01  0.51100000000E-03 0.  1.
    9000002    1    1    2    0    0 -0.43107356692E+00  0.37196285242E+00  0.43266244116E+00  0.11795005603E+01  0.93800000000E+00 0. -1.
         22    1    1    2    0    0  0.13600513676E+00  0.19546683541E+00  0.14912283101E+00  0.28096672348E+00  0.00000000000E+00 0. -1.
</event>
<event>
 5    1  0.1537976E+002  0.1587440E+01  0.7818608E-02  0.3367110E+00
         11   -1    0    0    0    0  0.00000000000E+00  0.00000000000E+00  0.39999999674E+01  0.40000000000E+01  0.51100000000E-03 0.  1.
    9000002   -1    0    0    0    0 -0.00000000000E+00 -0.00000000000E+00  0.00000000000E+00  0.93800000000E+00  0.93800000000E+00 0. -1.
         11    1    1    2    0    0 -0.50235208694E+00 -0.69266336858E-01  0.57479477636E+00  0.76651467091E+00  0.51100000000E-03 0.  1.
    9000002    1    1    2    0    0  0.81433858583E-01  0.10290400463E-01  0.25855483015E+00  0.97643840864E+00  0.93800000000E+00 0. -1.
         22    1    1    2    0    0  0.42091822835E+00  0.58975936394E-01  0.31666503608E+01  0.31950469205E+01  0.00000000000E+00 0. -1.
</event>
<event>
 5    1  0.1537976E+002  0.1599625E+01  0.7818608E-02  0.3353771E+00
         11   -1    0    0    0    0  0.00000000000E+00  0.00000000000E+00  0.39999999674E+01  0.40000000000E+01  0.51100000000E-03 0. -1.
    9000002   -1    0    0    0    0 -0.00000000000E+00 -0.00000000000E+00  0.00000000000E+00  0.93800000000E+00  0.93800000000E+00 0.  1.
         11    1    1    2    0    0  0.20810946411E-01  0.43887355685E-01  0.45783873783E+00  0.46040826064E+00  0.51100000000E-03 0. -1.
    9000002    1    1    2    0    0 -0.16963019039E+00 -0.32754928360E+00  0.91469878621E-01  0.10120640658E+01  0.93800000000E+00 0.  1.
         22    1    1    2    0    0  0.14881924398E+00  0.28366192791E+00  0.34506913509E+01  0.34655276735E+01  0.00000000000E+00 0. -1.
</event>
<event>
 5    1  0.1537976E+002  0.1595444E+01  0.7818608E-02  0.3358323E+00
         11   -1    0    0    0    0  0.00000000000E+00  0.00000000000E+00  0.39999999674E+01  0.40000000000E+01  0.51100000000E-03 0. -1.
    9000002   -1    0    0    0    0 -0.00000000000E+00 -0.00000000000E+00  0.00000000000E+00  0.93800000000E+00  0.93800000000E+00 0.  1.
         11    1    1    2    0    0  0.55744426174E+00 -0.13193228498E+00  0.24124159052E+01  0.24794961168E+01  0.51100000000E-03 0. -1.
    9000002    1    1    2    0    0 -0.73490732435E+00  0.26034157293E+00  0.45009226935E+00  0.13001129031E+01  0.93800000000E+00 0.  1.
         22    1    1    2    0    0  0.17746306261E+00 -0.12840928796E+00  0.11374917928E+01  0.11583909800E+01  0.00000000000E+00 0. -1.
</event>
<event>
 5    1  0.1537976E+002  0.1583916E+01  0.7818608E-02  0.3371008E+00
         11   -1    0    0    0    0  0.00000000000E+00  0.00000000000E+00  0.39999999674E+01  0.40000000000E+01  0.51100000000E-03 0.  1.
    9000002   -1    0    0    0    0 -0.00000000000E+00 -0.00000000000E+00  0.00000000000E+00  0.93800000000E+00  0.93800000000E+00 0. -1.
         11    1    1    2    0    0  0.13621385828E+00 -0.10335470698E+00  0.26423806479E+01  0.26479071283E+01  0.51100000000E-03 0.  1.
    9000002    1    1    2    0    0 -0.36131309370E+00  0.17885072029E-01  0.10075990990E+00  0.10103779426E+01  0.93800000000E+00 0. -1.
         22    1    1    2    0    0  0.22509923542E+00  0.85469634949E-01  0.12568594096E+01  0.12797149291E+01  0.00000000000E+00 0. -1.
</event>
<event>
 5    1  0.1537976E+002  0.1599481E+01  0.7818608E-02  0.3353927E+00
         11   -1    0    0    0    0  0.00000000000E+00  0.00000000000E+00  0.39999999674E+01  0.40000000000E+01  0.51100000000E-03 0. -1.
    9000002   -1    0    0    0    0 -0.00000000000E+00 -0.00000000000E+00  0.00000000000E+00  0.93800000000E+00  0.93800000000E+00 0.  1.
         11    1    1    2    0    0  0.63860938509E-01 -0.23651226546E-01  0.96849860516E+00  0.97089000886E+00  0.51100000000E-03 0. -1.
    9000002    1    1    2    0    0 -0.27541764477E+00  0.15283537847E+00  0.66435986391E-01  0.99170120109E+00  0.93800000000E+00 0.  1.
         22    1    1    2    0    0  0.21155670626E+00 -0.12918415192E+00  0.29650653758E+01  0.29754087900E+01  0.00000000000E+00 0. -1.
</event>
<event>
 5    1  0.1537976E+002  0.1599674E+01  0.7818608E-02  0.3353717E+00
         11   -1    0    0    0    0  0.00000000000E+00  0.00000000000E+00  0.39999999674E+01  0.40000000000E+01  0.51100000000E-03 0. -1.
    9000002   -1    0    0    0    0 -0.00000000000E+00 -0.00000000000E+00  0.00000000000E+00  0.93800000000E+00  0.93800000000E+00 0. -1.
         11    1    1    2    0    0 -0.87728086111E-02  0.53490668288E-01  0.29663738277E+00  0.30154968370E+00  0.51100000000E-03 0. -1.
    9000002    1    1    2    0    0  0.10197626105E+00 -0.67355657347E+00  0.33003298122E+00  0.12053395307E+01  0.93800000000E+00 0. -1.
         22    1    1    2    0    0 -0.93203452435E-01  0.62006590518E+00  0.33733296034E+01  0.34311107856E+01  0.00000000000E+00 0. -1.
</event>
<event>
 5    1  0.1537976E+002  0.1597376E+01  0.7818608E-02  0.3356216E+00
         11   -1    0    0    0    0  0.00000000000E+00  0.00000000000E+00  0.39999999674E+01  0.40000000000E+01  0.51100000000E-03 0.  1.
    9000002   -1    0    0    0    0 -0.00000000000E+00 -0.00000000000E+00  0.00000000000E+00  0.93800000000E+00  0.93800000000E+00 0.  1.
         11    1    1    2    0    0  0.32639655891E+00  0.30721175295E+00  0.24429097340E+01  0.24836912056E+01  0.51100000000E-03 0.  1.
    9000002    1    1    2    0    0 -0.51445313191E+00 -0.52770338333E+00  0.39492965483E+00  0.12565613069E+01  0.93800000000E+00 0.  1.
         22    1    1    2    0    0  0.18805657300E+00  0.22049163038E+00  0.11621605785E+01  0.11977474875E+01  0.00000000000E+00 0.  1.
</event>
<event>
 5    1  0.1537976E+002  0.1599644E+01  0.7818608E-02  0.3353750E+00
         11   -1    0    0    0    0  0.00000000000E+00  0.00000000000E+00  0.39999999674E+01  0.40000000000E+01  0.51100000000E-03 0. -1.
    9000002   -1    0    0    0    0 -0.00000000000E+00 -0.00000000000E+00  0.00000000000E+00  0.93800000000E+00  0.93800000000E+00 0. -1.
         11    1    1    2    0    0 -0.23071920274E+00  0.11283310160E+00  0.19670716070E+01  0.19837675336E+01  0.51100000000E-03 0. -1.
    9000002    1    1    2    0    0  0.43682943404E+00 -0.21729359000E+00  0.16265261691E+00  0.10697365715E+01  0.93800000000E+00 0. -1.
         22    1    1    2    0    0 -0.20611023129E+00  0.10446048839E+00  0.18702757435E+01  0.18844958949E+01  0.00000000000E+00 0. -1.
</event>
<event>
 5    1  0.1537976E+002  0.1599277E+01  0.7818608E-02  0.3354149E+00
         11   -1    0    0    0    0  0.00000000000E+00  0.00000000000E+00  0.39999999674E+01  0.40000000000E+01  0.51100000000E-03 0. -1.
    9000002   -1    0    0    0    0 -0.00000000000E+00 -0.00000000000E+00  0.00000000000E+00  0.93800000000E+00  0.93800000000E+00 0.  1.
         11    1    1    2    0    0  0.52972357430E-01  0.22767545902E-01  0.92396882828E+00  0.92576621701E+00  0.51100000000E-03 0. -1.
    9000002    1    1    2    0    0 -0.27031341950E+00 -0.21996006826E-01  0.49252627056E-01  0.97766200210E+00  0.93800000000E+00 0.  1.
         22    1    1    2    0    0  0.21734106207E+00 -0.77153907640E-03  0.30267785120E+01  0.30345717809E+01  0.00000000000E+00 0.  1.
</event>
<event>
 5    1  0.1537976E+002  0.1599426E+01  0.7818608E-02  0.3353987E+00
         11   -1    0    0    0    0  0.00000000000E+00  0.00000000000E+00  0.39999999674E+01  0.40000000000E+01  0.51100000000E-03 0.  1.
    9000002   -1    0    0    0    0 -0.00000000000E+00 -0.00000000000E+00  0.00000000000E+00  0.93800000000E+00  0.93800000000E+00 0. -1.
         11    1    1    2    0    0  0.20882966932E+00  0.25624622577E+00  0.20982383753E+01  0.21241178168E+01  0.51100000000E-03 0.  1.
    9000002    1    1    2    0    0 -0.34846619454E+00 -0.48114650420E+00  0.24617801489E+00  0.11372678938E+01  0.93800000000E+00 0. -1.
         22    1    1    2    0    0  0.13963652522E+00  0.22490027842E+00  0.16555835772E+01  0.16766142894E+01  0.00000000000E+00 0.  1.
</event>
<event>
 5    1  0.1537976E+002  0.1590925E+01  0.7818608E-02  0.3363272E+00
         11   -1    0    0    0    0  0.00000000000E+00  0.00000000000E+00  0.39999999674E+01  0.40000000000E+01  0.51100000000E-03 0.  1.
    9000002   -1    0    0    0    0 -0.00000000000E+00 -0.00000000000E+00  0.00000000000E+00  0.93800000000E+00  0.93800000000E+00 0. -1.
         11    1    1    2    0    0  0.31264933424E-01  0.26316783592E-01  0.13191869276E+00  0.13810456829E+00  0.51100000000E-03 0.  1.
    9000002    1    1    2    0    0  0.15151002115E+00 -0.22716108791E+00  0.56409111687E-01  0.97856192152E+00  0.93800000000E+00 0. -1.
         22    1    1    2    0    0 -0.18277495458E+00  0.20084430432E+00  0.38116721629E+01  0.38213335102E+01  0.00000000000E+00 0.  1.
</event>
<event>
 5    1  0.1537976E+002  0.1571342E+01  0.7818608E-02  0.3385067E+00
         11   -1    0    0    0    0  0.00000000000E+00  0.00000000000E+00  0.39999999674E+01  0.40000000000E+01  0.51100000000E-03 0.  1.
    9000002   -1    0    0    0    0 -0.00000000000E+00 -0.00000000000E+00  0.00000000000E+00  0.93800000000E+00  0.93800000000E+00 0.  1.
         11    1    1    2    0    0  0.81347283188E-02  0.13748346884E+00  0.82102010309E+00  0.83249153078E+00  0.51100000000E-03 0.  1.
    9000002    1    1    2    0    0  0.29658023614E-01  0.12627648616E+00  0.32206049408E-01  0.94747378800E+00  0.93800000000E+00 0.  1.
         22    1    1    2    0    0 -0.37792751933E-01 -0.26375995500E+00  0.31467738149E+01  0.31580346812E+01  0.00000000000E+00 0.  1.
</event>
<event>
 5    1  0.1537976E+002  0.1596318E+01  0.7818608E-02  0.3357369E+00
         11   -1    0    0    0    0  0.00000000000E+00  0.00000000000E+00  0.39999999674E+01  0.40000000000E+01  0.51100000000E-03 0. -1.
    9000002   -1    0    0    0    0 -0.00000000000E+00 -0.00000000000E+00  0.00000000000E+00  0.93800000000E+00  0.93800000000E+00 0.  1.
         11    1    1    2    0    0  0.20939662324E-01  0.22631410146E-01  0.89150517225E+00  0.89203833070E+00  0.51100000000E-03 0. -1.
    9000002    1    1    2    0    0 -0.21646280372E+00  0.12684688960E+00  0.44389552947E-01  0.97198802009E+00  0.93800000000E+00 0.  1.
         22    1    1    2    0    0  0.19552314139E+00 -0.14947829974E+00  0.30641052422E+01  0.30739736492E+01  0.00000000000E+00 0. -1.
</event>
<event>
 5    1  0.1537976E+002  0.1483610E+01  0.7818608E-02  0.3490262E+00
         11   -1    0    0    0    0  0.00000000000E+00  0.00000000000E+00  0.39999999674E+01  0.40000000000E+01  0.51100000000E-03 0. -1.
    9000002   -1    0    0    0    0 -0.00000000000E+00 -0.00000000000E+00  0.00000000000E+00  0.93800000000E+00  0.93800000000E+00 0.  1.
         11    1    1    2    0    0  0.21925399472E+00 -0.17147637578E+00  0.74769548808E+00  0.79782533531E+00  0.51100000000E-03 0. -1.
    9000002    1    1    2    0    0  0.82678123282E-02 -0.35407949554E+00  0.18462379500E+00  0.10194952631E+01  0.93800000000E+00 0.  1.
         22    1    1    2    0    0 -0.22752180705E+00  0.52555587132E+00  0.30676806843E+01  0.31206794015E+01  0.00000000000E+00 0. -1.
</event>
<event>
 5    1  0.1537976E+002  0.1599476E+01  0.7818608E-02  0.3353932E+00
         11   -1    0    0    0    0  0.00000000000E+00  0.00000000000E+00  0.39999999674E+01  0.40000000000E+01  0.51100000000E-03 0.  1.
    9000002   -1    0    0    0    0 -0.00000000000E+00 -0.00000000000E+00  0.00000000000E+00  0.93800000000E+00  0.93800000000E+00 0. -1.
         11    1    1    2    0    0 -0.47138872066E-01  0.26461530042E-01  0.56750405499E+00  0.57007315266E+00  0.51100000000E-03 0.  1.
    9000002    1    1    2    0    0  0.24575539304E+00 -0.16663146821E+00  0.58954018635E-01  0.98563752755E+00  0.93800000000E+00 0. -1.
         22    1    1    2    0    0 -0.19861652097E+00  0.14016993817E+00  0.33735418937E+01  0.33822893198E+01  0.00000000000E+00 0.  1.
</event>
<event>
 5    1  0.1537976E+002  0.1593734E+01  0.7818608E-02  0.3360193E+00
         11   -1    0    0    0    0  0.00000000000E+00  0.00000000000E+00  0.39999999674E+01  0.40000000000E+01  0.51100000000E-03 0. -1.
    9000002   -1    0    0    0    0 -0.00000000000E+00 -0.00000000000E+00  0.00000000000E+00  0.93800000000E+00  0.93800000000E+00 0. -1.
         11    1    1    2    0    0 -0.35323692694E-02  0.41094913815E-02  0.82402998379E+00  0.82404796029E+00  0.51100000000E-03 0. -1.
    9000002    1    1    2    0    0  0.34610980797E+00 -0.16211294160E+00  0.10321073178E+00  0.10181203564E+01  0.93800000000E+00 0. -1.
         22    1    1    2    0    0 -0.34257743870E+00  0.15800345022E+00  0.30727592518E+01  0.30958316833E+01  0.00000000000E+00 0. -1.
</event>
<event>
 5    1  0.1537976E+002  0.1562128E+01  0.7818608E-02  0.3395523E+00
         11   -1    0    0    0    0  0.00000000000E+00  0.00000000000E+00  0.39999999674E+01  0.40000000000E+01  0.51100000000E-03 0. -1.
    9000002   -1    0    0    0    0 -0.00000000000E+00 -0.00000000000E+00  0.00000000000E+00  0.93800000000E+00  0.93800000000E+00 0. -1.
         11    1    1    2    0    0  0.20589646273E+00  0.89831523664E-01  0.13600152168E+01  0.13784428559E+01  0.51100000000E-03 0. -1.
    9000002    1    1    2    0    0 -0.26920012537E+00  0.29311027671E+00  0.13869302658E+00  0.10283297610E+01  0.93800000000E+00 0. -1.
         22    1    1    2    0    0  0.63303662647E-01 -0.38294180037E+00  0.25012917240E+01  0.25312273831E+01  0.00000000000E+00 0. -1.
</event>
<event>
 5    1  0.1537976E+002  0.1599659E+01  0.7818608E-02  0.3353734E+00
         11   -1    0    0    0    0  0.00000000000E+00  0.00000000000E+00  0.39999999674E+01  0.40000000000E+01  0.51100000000E-03 0. -1.
    9000002   -1    0    0    0    0 -0.00000000000E+00 -0.00000000000E+00  0.00000000000E+00  0.93800000000E+00  0.93800000000E+00 0.  1.
         11    1    1    2    0    0  0.23908973807E-01 -0.64706784658E-01  0.96195062123E+00  0.96442100030E+00  0.51100000000E-03 0. -1.
    9000002    1    1    2    0    0 -0.82220741482E-01  0.25723789904E+00  0.48539497768E-01  0.97730838013E+00  0.93800000000E+00 0.  1.
         22    1    1    2    0    0  0.58311767675E-01 -0.19253111438E+00  0.29895098484E+01  0.29962706196E+01  0.00000000000E+00 0. -1.
</event>
<event>
 5    1  0.1537976E+002  0.1597161E+01  0.7818608E-02  0.3356450E+00
         11   -1    0    0    0    0  0.00000000000E+00  0.00000000000E+00  0.39999999674E+01  0.40000000000E+01  0.51100000000E-03 0.  1.
    9000002   -1    0    0    0    0 -0.00000000000E+00 -0.00000000000E+00  0.00000000000E+00  0.93800000000E+00  0.93800000000E+00 0.  1.
         11    1    1    2    0    0 -0.14681169764E-01 -0.90914234498E-02  0.79238717783E+00  0.79257547997E+00  0.51100000000E-03 0.  1.
    9000002    1    1    2    0    0  0.19300833168E-01  0.28020159727E+00  0.54487600555E-01  0.98066220274E+00  0.93800000000E+00 0.  1.
         22    1    1    2    0    0 -0.46196634031E-02 -0.27111017382E+00  0.31531251890E+01  0.31647623173E+01  0.00000000000E+00 0.  1.
</event>
<event>
 5    1  0.1537976E+002  0.1596588E+01  0.7818608E-02  0.3357075E+00
         11   -1    0    0    0    0  0.00000000000E+00  0.00000000000E+00  0.39999999674E+01  0.40000000000E+01  0.51100000000E-03 0.  1.
    9000002   -1    0    0    0    0 -0.00000000000E+00 -0.00000000000E+00  0.00000000000E+00  0.93800000000E+00  0.93800000000E+00 0. -1.
         11    1    1    2    0    0 -0.71170800734E-01  0.12283680695E-01  0.18314204969E+01  0.18328440930E+01  0.51100000000E-03 0.  1.
    9000002    1    1    2    0    0  0.27556176391E+00 -0.10195442899E+00  0.59972146942E-01  0.98476883060E+00  0.93800000000E+00 0. -1.
         22    1    1    2    0    0 -0.20439096317E+00  0.89670748295E-01  0.21086073235E+01  0.21203870764E+01  0.00000000000E+00 0.  1.
</event>
<event>
 5    1  0.1537976E+002  0.1597626E+01  0.7818608E-02  0.3355944E+00
         11   -1    0    0    0    0  0.00000000000E+00  0.00000000000E+00  0.39999999674E+01  0.40000000000E+01  0.51100000000E-03 0. -1.
    9000002   -1    0    0    0    0 -0.00000000000E+00 -0.00000000000E+00  0.00000000000E+00  0.93800000000E+00  0.93800000000E+00 0.  1.
         11    1    1    2    0    0 -0.33403871859E-01  0.39670396336E+00  0.20107187702E+01  0.20497512257E+01  0.51100000000E-03 0. -1.
    9000002    1    1    2    0    0 -0.33717416221E-01 -0.69259578278E+00  0.34531203808E+00  0.12165155922E+01  0.93800000000E+00 0.  1.
         22    1    1    2    0    0  0.67121288080E-01  0.29589181942E+00  0.16439691591E+01  0.16717331821E+01  0.00000000000E+00 0. -1.
</event>
<event>
 5    1  0.1537976E+002  0.1599653E+01  0.7818608E-02  0.3353740E+00
         11   -1    0    0    0    0  0.00000000000E+00  0.00000000000E+00  0.39999999674E+01  0.40000000000E+01  0.51100000000E-03 0.  1.
    9000002   -1    0    0    0    0 -0.00000000000E+00 -0.00000000000E+00  0.00000000000E+00  0.93800000000E+00  0.93800000000E+00 0.  1.
         11    1    1    2    0    0 -0.52516108009E-02  0.32350746641E-02  0.84147110970E-01  0.84374418692E-01  0.51100000000E-03 0.  1.
    9000002    1    1    2    0    0  0.19579904635E+00 -0.96697349161E-01  0.31624745693E-01  0.96360353280E+00  0.93800000000E+00 0.  1.
         22    1    1    2    0    0 -0.19054743554E+00  0.93462274497E-01  0.38842281107E+01  0.38900220485E+01  0.00000000000E+00 0.  1.
</event>
<event>
 5    1  0.1537976E+002  0.1599677E+01  0.7818608E-02  0.3353714E+00
         11   -1    0    0    0    0  0.00000000000E+00  0.00000000000E+00  0.39999999674E+01  0.40000000000E+01  0.51100000000E-03 0. -1.
    9000002   -1    0    0    0    0 -0.00000000000E+00 -0.00000000000E+00  0.00000000000E+00  0.93800000000E+00  0.93800000000E+00 0.  1.
         11    1    1    2    0    0  0.99328052883E-01 -0.87300230967E-01  0.11334199192E+01  0.11411083939E+01  0.51100000000E-03 0. -1.
    9000002    1    1    2    0    0 -0.33970433755E+00  0.29934060889E+00  0.13929292730E+00  0.10508331726E+01  0.93800000000E+00 0.  1.
         22    1    1    2    0    0  0.24037628467E+00 -0.21204037792E+00  0.27272871209E+01  0.27460584334E+01  0.00000000000E+00 0. -1.
</event>
<event>
 5    1  0.1537976E+002  0.1521336E+01  0.7818608E-02  0.3443433E+00
         11   -1    0    0    0    0  0.00000000000E+00  0.00000000000E+00  0.39999999674E+01  0.40000000000E+01  0.51100000000E-03 0.  1.
    9000002   -1    0    0    0    0 -0.00000000000E+00 -0.00000000000E+00  0.00000000000E+00  0.93800000000E+00  0.93800000000E+00 0. -1.
         11    1    1    2    0    0  0.28658113043E+00  0.12359859536E-01  0.56584980372E+00  0.63440347725E+00  0.51100000000E-03 0.  1.
    9000002    1    1    2    0    0 -0.31285892733E+00  0.27643537271E+00  0.18709933200E+00  0.10436222419E+01  0.93800000000E+00 0. -1.
         22    1    1    2    0    0  0.26277796900E-01 -0.28879523224E+00  0.32470508316E+01  0.32599742809E+01  0.00000000000E+00 0.  1.
</event>
<event>
 5    1  0.1537976E+002  0.1599677E+01  0.7818608E-02  0.3353714E+00
         11   -1    0    0    0    0  0.00000000000E+00  0.00000000000E+00  0.39999999674E+01  0.40000000000E+01  0.51100000000E-03 0. -1.
    9000002   -1    0    0    0    0 -0.00000000000E+00 -0.00000000000E+00  0.00000000000E+00  0.93800000000E+00  0.93800000000E+00 0. -1.
         11    1    1    2    0    0  0.18487639663E+00 -0.90034077835E-02  0.14520960025E+01  0.14638454170E+01  0.51100000000E-03 0. -1.
    9000002    1    1    2    0    0 -0.48870672327E+00  0.21786198512E-01  0.16352778450E+00  0.10704644955E+01  0.93800000000E+00 0. -1.
         22    1    1    2    0    0  0.30383032664E+00 -0.12782790729E-01  0.23843761804E+01  0.24036900875E+01  0.00000000000E+00 0.  1.
</event>
<event>
 5    1  0.1537976E+002  0.1557159E+01  0.7818608E-02  0.3401215E+00
         11   -1    0    0    0    0  0.00000000000E+00  0.00000000000E+00  0.39999999674E+01  0.40000000000E+01  0.51100000000E-03 0. -1.
    9000002   -1    0    0    0    0 -0.00000000000E+00 -0.00000000000E+00  0.00000000000E+00  0.93800000000E+00  0.93800000000E+00 0.  1.
         11    1    1    2    0    0 -0.12403817087E+00 -0.58180353362E-01  0.39483994517E+00  0.41793452211E+00  0.51100000000E-03 0. -1.
    9000002    1    1    2    0    0 -0.54596881099E-01 -0.17894813228E+00  0.55578386584E-01  0.95808987602E+00  0.93800000000E+00 0.  1.
         22    1    1    2    0    0  0.17863505197E+00  0.23712848564E+00  0.35495816356E+01  0.35619756019E+01  0.00000000000E+00 0. -1.
</event>
<event>
 5    1  0.1537976E+002  0.1599676E+01  0.7818608E-02  0.3353716E+00
         11   -1    0    0    0    0  0.00000000000E+00  0.00000000000E+00  0.39999999674E+01  0.40000000000E+01  0.51100000000E-03 0.  1.
    9000002   -1    0    0    0    0 -0.00000000000E+00 -0.00000000000E+00  0.00000000000E+00  0.93800000000E+00  0.93800000000E+00 0.  1.
         11    1    1    2    0    0  0.11596294711E+00  0.31977978010E+00  0.19877244657E+01  0.20166197771E+01  0.51100000000E-03 0.  1.
    9000002    1    1    2    0    0 -0.21898797073E+00 -0.59888720860E+00  0.28609775711E+00  0.11697510618E+01  0.93800000000E+00 0.  1.
         22    1    1    2    0    0  0.10302502362E+00  0.27910742850E+00  0.17261777446E+01  0.17516291611E+01  0.00000000000E+00 0.  1.
</event>
<event>
 5    1  0.2208231E+002  0.1556966E+01  0.7818608E-02  0.3401437E+00
         11   -1    0    0    0    0  0.00000000000E+00  0.00000000000E+00  0.39999999674E+01  0.40000000000E+01  0.51100000000E-03 0. -1.
    9000002   -1    0    0    0    0 -0.00000000000E+00 -0.00000000000E+00  0.00000000000E+00  0.93800000000E+00  0.93800000000E+00 0.  1.
         11    1    1    2    0    0  0.13033708850E+00  0.13448748717E+00  0.74340387375E+00  0.76663173785E+00  0.51100000000E-03 0. -1.
    9000002    1    1    2    0    0  0.66821399996E-01 -0.10414801300E-01  0.34713483157E-01  0.94107523264E+00  0.93800000000E+00 0.  1.
         22    1    1    2    0    0 -0.19715848850E+00 -0.12407268587E+00  0.32218826105E+01  0.32302930295E+01  0.00000000000E+00 0. -1.
</event>
<event>
 5    1  0.1537976E+002  0.1599676E+01  0.7818608E-02  0.3353715E+00
         11   -1    0    0    0    0  0.00000000000E+00  0.00000000000E+00  0.39999999674E+01  0.40000000000E+01  0.51100000000E-03 0.  1.
    9000002   -1    0    0    0    0 -0.00000000000E+00 -0.00000000000E+00  0.00000000000E+00  0.93800000000E+00  0.93800000000E+00 0. -1.
         11    1    1    2    0    0  0.31510030841E-01 -0.19052990567E-01  0.43819618704E+00  0.43974089866E+00  0.51100000000E-03 0. -1.
    9000002    1    1    2    0    0 -0.28507325153E+00  0.16680938950E+00  0.72994151382E-01  0.99712801450E+00  0.93800000000E+00 0. -1.
         22    1    1    2    0    0  0.25356322068E+00 -0.14775639893E+00  0.34888096289E+01  0.35011310868E+01  0.00000000000E+00 0.  1.
</event>
<event>
 5    1  0.1537976E+002  0.1598328E+01  0.7818608E-02  0.3355180E+00
         11   -1    0    0    0    0  0.00000000000E+00  0.00000000000E+00  0.39999999674E+01  0.40000000000E+01  0.51100000000E-03 0. -1.
    9000002   -1    0    0    0    0 -0.00000000000E+00 -0.00000000000E+00  0.00000000000E+00  0.93800000000E+00  0.93800000000E+00 0.  1.
         11    1    1    2    0    0  0.47287603975E-02  0.25747838661E-01  0.48375143252E+00  0.48445951529E+00  0.51100000000E-03 0. -1.
    9000002    1    1    2    0    0 -0.27168327944E+00 -0.17331660053E+00  0.70498678789E-01  0.99431610268E+00  0.93800000000E+00 0.  1.
         22    1    1    2    0    0  0.26695451904E+00  0.14756876187E+00  0.34457498561E+01  0.34592243820E+01  0.00000000000E+00 0. -1.
</event>
<event>
 5    1  0.1537976E+002  0.1589667E+01  0.7818608E-02  0.3364655E+00
         11   -1    0    0    0    0  0.00000000000E+00  0.00000000000E+00  0.39999999674E+01  0.40000000000E+01  0.51100000000E-03 0.  1.
    9000002   -1    0    0    0    0 -0.00000000000E+00 -0.00000000000E+00  0.00000000000E+00  0.93800000000E+00  0.93800000000E+00 0.  1.
         11    1    1    2    0    0 -0.14036531758E-01 -0.15396920584E-01  0.32457075846E-01  0.38572169770E-01  0.51100000000E-03 0.  1.
    9000002    1    1    2    0    0 -0.20772626386E-01 -0.25604459435E+00  0.51572409075E-01  0.97390659187E+00  0.93800000000E+00 0.  1.
         22    1    1    2    0    0  0.34809158143E-01  0.27144151493E+00  0.39159704824E+01  0.39255212384E+01  0.00000000000E+00 0.  1.
</event>
<event>
 5    1  0.1537976E+002  0.1597396E+01  0.7818608E-02  0.3356195E+00
         11   -1    0    0    0    0  0.00000000000E+00  0.00000000000E+00  0.39999999674E+01  0.40000000000E+01  0.51100000000E-03 0. -1.
    9000002   -1    0    0    0    0 -0.00000000000E+00 -0.00000000000E+00  0.00000000000E+00  0.93800000000E+00  0.93800000000E+00 0. -1.
         11    1    1    2    0    0 -0.24362696484E-01 -0.88341608945E-02  0.12436491012E+00  0.12703729913E+00  0.51100000000E-03 0. -1.
    9000002    1    1    2    0    0  0.23107326370E+00 -0.59695451019E-01  0.39541786303E-01  0.96869290951E+00  0.93800000000E+00 0. -1.
         22    1    1    2    0    0 -0.20671056722E+00  0.68529611914E-01  0.38360932709E+01  0.38422697914E+01  0.00000000000E+00 0. -1.
</event>
<event>
 5    1  0.1537976E+002  0.1599676E+01  0.7818608E-02  0.3353716E+00
         11   -1    0    0    0    0  0.00000000000E+00  0.00000000000E+00  0.39999999674E+01  0.40000000000E+01  0.51100000000E-03 0. -1.
    9000002   -1    0    0    0    0 -0.00000000000E+00 -0.00000000000E+00  0.00000000000E+00  0.93800000000E+00  0.93800000000E+00 0. -1.
         11    1    1    2    0    0  0.99317897369E-02  0.89337823436E-02  0.18992223144E+00  0.19039214277E+00  0.51100000000E-03 0.  1.
    9000002    1    1    2    0    0 -0.19915234947E+00 -0.18227764273E+00  0.48496342060E-01  0.97728332255E+00  0.93800000000E+00 0. -1.
         22    1    1    2    0    0  0.18922055973E+00  0.17334386038E+00  0.37615813939E+01  0.37703245347E+01  0.00000000000E+00 0. -1.
</event>
<event>
 5    1  0.1537976E+002  0.1592216E+01  0.7818608E-02  0.3361856E+00
         11   -1    0    0    0    0  0.00000000000E+00  0.00000000000E+00  0.39999999674E+01  0.40000000000E+01  0.51100000000E-03 0.  1.
    9000002   -1    0    0    0    0 -0.00000000000E+00 -0.00000000000E+00  0.00000000000E+00  0.93800000000E+00  0.93800000000E+00 0.  1.
         11    1    1    2    0    0  0.31761443448E-02 -0.33430191228E+00  0.15963264961E+01  0.16309587364E+01  0.51100000000E-03 0.  1.
    9000002    1    1    2    0    0  0.37423123125E-01  0.55033232507E+00  0.21730870033E+00  0.11096545541E+01  0.93800000000E+00 0.  1.
         22    1    1    2    0    0 -0.40599267470E-01 -0.21603041279E+00  0.21863647709E+01  0.21973867095E+01  0.00000000000E+00 0.  1.
</event>
<event>
 5    1  0.1537976E+002  0.1599677E+01  0.7818608E-02  0.3353714E+00
         11   -1    0    0    0    0  0.00000000000E+00  0.00000000000E+00  0.39999999674E+01  0.40000000000E+01  0.51100000000E-03 0.  1.
    9000002   -1    0    0    0    0 -0.00000000000E+00 -0.00000000000E+00  0.00000000000E+00  0.93800000000E+00  0.93800000000E+00 0.  1.
         11    1    1    2    0    0 -0.13941966391E+00 -0.17303764277E+00  0.19027827876E+01  0.19157146099E+01  0.51100000000E-03 0.  1.
    9000002    1    1    2    0    0  0.28268267722E+00  0.35195000658E+00  0.13843208307E+00  0.10501360601E+01  0.93800000000E+00 0.  1.
         22    1    1    2    0    0 -0.14326301331E+00 -0.17891236381E+00  0.19587850967E+01  0.19721493300E+01  0.00000000000E+00 0.  1.
</event>
<event>
 5    1  0.1537976E+002  0.1597012E+01  0.7818608E-02  0.3356613E+00
         11   -1    0    0    0    0  0.00000000000E+00  0.00000000000E+00  0.39999999674E+01  0.40000000000E+01  0.51100000000E-03 0. -1.
    9000002   -1    0    0    0    0 -0.00000000000E+00 -0.00000000000E+00  0.00000000000E+00  0.93800000000E+00  0.93800000000E+00 0.  1.
         11    1    1    2    0    0 -0.23633507405E+00  0.71880690277E-01  0.18364729394E+01  0.18530122015E+01  0.51100000000E-03 0. -1.
    9000002    1    1    2    0    0  0.48598744916E+00 -0.27617090238E+00  0.21872685216E+00  0.11136155548E+01  0.93800000000E+00 0.  1.
         22    1    1    2    0    0 -0.24965237512E+00  0.20429021210E+00  0.19448001758E+01  0.19713722437E+01  0.00000000000E+00 0.  1.
</event>
<event>
 5    1  0.1537976E+002  0.1598018E+01  0.7818608E-02  0.3355518E+00
         11   -1    0    0    0    0  0.00000000000E+00  0.00000000000E+00  0.39999999674E+01  0.40000000000E+01  0.51100000000E-03 0. -1.
    9000002   -1    0    0    0    0 -0.00000000000E+00 -0.00000000000E+00  0.00000000000E+00  0.93800000000E+00  0.93800000000E+00 0.  1.
         11    1    1    2    0    0  0.60876715000E-01 -0.35241269464E-02  0.11213386709E+01  0.11229955787E+01  0.51100000000E-03 0. -1.
    9000002    1    1    2    0    0 -0.33429588366E+00 -0.84183660075E-01  0.80970788271E-01  0.10026170231E+01  0.93800000000E+00 0.  1.
         22    1    1    2    0    0  0.27341916866E+00  0.87707787021E-01  0.27976905082E+01  0.28123873982E+01  0.00000000000E+00 0. -1.
</event>
<event>
 5    1  0.1537976E+002  0.1599640E+01  0.7818608E-02  0.3353754E+00
         11   -1    0    0    0    0  0.00000000000E+00  0.00000000000E+00  0.39999999674E+01  0.40000000000E+01  0.51100000000E-03 0.  1.
    9000002   -1    0    0    0    0 -0.00000000000E+00 -0.00000000000E+00  0.00000000000E+00  0.93800000000E+00  0.93800000000E+00 0. -1.
         11    1    1    2    0    0 -0.17302337554E+00 -0.12245800941E+00  0.10066856602E+01  0.10287610666E+01  0.51100000000E-03 0.  1.
    9000002    1    1    2    0    0  0.63680275337E+00  0.43324638982E+00  0.43278281173E+00  0.12885515679E+01  0.93800000000E+00 0. -1.
         22    1    1    2    0    0 -0.46377937783E+00 -0.31078838041E+00  0.25605314955E+01  0.26206873655E+01  0.00000000000E+00 0.  1.
</event>
<event>
 5    1  0.2257077E+002  0.1563341E+01  0.7818608E-02  0.3394139E+00
         11   -1    0    0    0    0  0.00000000000E+00  0.00000000000E+00  0.39999999674E+01  0.40000000000E+01  0.51100000000E-03 0.  1.
    9000002   -1    0    0    0    0 -0.00000000000E+00 -0.00000000000E+00  0.00000000000E+00  0.93800000000E+00  0.93800000000E+00 0. -1.
         11    1    1    2    0    0  0.18361132752E+00 -0.81311384803E-01  0.18531953511E+01  0.18640434360E+01  0.51100000000E-03 0.  1.
    9000002    1    1    2    0    0  0.64829077841E-01 -0.30477414261E-03  0.29641598715E-01  0.94070480311E+00  0.93800000000E+00 0. -1.
         22    1    1    2    0    0 -0.24844040536E+00  0.81616158946E-01  0.21171630176E+01  0.21332517609E+01  0.00000000000E+00 0.  1.
</event>
<event>
 5    1  0.1537976E+002  0.1599661E+01  0.7818608E-02  0.3353731E+00
         11   -1    0    0    0    0  0.00000000000E+00  0.00000000000E+00  0.39999999674E+01  0.40000000000E+01  0.51100000000E-03 0. -1.
    9000002   -1    0    0    0    0 -0.00000000000E+00 -0.00000000000E+00  0.00000000000E+00  0.93800000000E+00  0.93800000000E+00 0. -1.
         11    1    1    2    0    0 -0.26995120465E+00 -0.12360556631E-01  0.92528197566E+00  0.96393642521E+00  0.51100000000E-03 0. -1.
    9000002    1    1    2    0    0  0.95945097569E+00  0.28986293363E-01  0.72538974307E+00  0.15255886272E+01  0.93800000000E+00 0. -1.
         22    1    1    2    0    0 -0.68949977104E+00 -0.16625736732E-01  0.23493282486E+01  0.24484749476E+01  0.00000000000E+00 0. -1.
</event>
<event>
 5    1  0.1537976E+002  0.1599675E+01  0.7818608E-02  0.3353716E+00
         11   -1    0    0    0    0  0.00000000000E+00  0.00000000000E+00  0.39999999674E+01  0.40000000000E+01  0.51100000000E-03 0.  1.
    9000002   -1    0    0    0    0 -0.00000000000E+00 -0.00000000000E+00  0.00000000000E+00  0.93800000000E+00  0.93800000000E+00 0.  1.
         11    1    1    2    0    0 -0.18426904852E-01 -0.36150497646E-01  0.47280903284E+00  0.47454720730E+00  0.51100000000E-03 0.  1.
    9000002    1    1    2    0    0  0.16099289962E+00  0.29682284196E+00  0.76353056833E-01  0.99984813973E+00  0.93800000000E+00 0.  1.
         22    1    1    2    0    0 -0.14256599477E+00 -0.26067234432E+00  0.34508378777E+01  0.34636046530E+01  0.00000000000E+00 0.  1.
</event>
<event>
 5    1  0.1537976E+002  0.1593549E+01  0.7818608E-02  0.3360395E+00
         11   -1    0    0    0    0  0.00000000000E+00  0.00000000000E+00  0.39999999674E+01  0.40000000000E+01  0.51100000000E-03 0. -1.
    9000002   -1    0    0    0    0 -0.00000000000E+00 -0.00000000000E+00  0.00000000000E+00  0.93800000000E+00  0.93800000000E+00 0. -1.
         11    1    1    2    0    0 -0.17732918574E-01  0.10749292049E-01  0.17394806903E+01  0.17396043621E+01  0.51100000000E-03 0. -1.
    9000002    1    1    2    0    0  0.14077787737E+00  0.16369985564E+00  0.35524516263E-01  0.96318328720E+00  0.93800000000E+00 0. -1.
         22    1    1    2    0    0 -0.12304495879E+00 -0.17444914769E+00  0.22249947608E+01  0.22352123507E+01  0.00000000000E+00 0. -1.
</event>
<event>
 5    1  0.1537976E+002  0.1569263E+01  0.7818608E-02  0.3387415E+00
         11   -1    0    0    0    0  0.00000000000E+00  0.00000000000E+00  0.39999999674E+01  0.40000000000E+01  0.51100000000E-03 0. -1.
    9000002   -1    0    0    0    0 -0.00000000000E+00 -0.00000000000E+00  0.00000000000E+00  0.93800000000E+00  0.93800000000E+00 0. -1.
         11    1    1    2    0    0 -0.11848380444E+00 -0.56142756277E-01  0.45273247566E+00  0.47133573664E+00  0.51100000000E-03 0. -1.
    9000002    1    1    2    0    0  0.53666825116E-01 -0.15524635277E+00  0.40710760201E-01  0.95314370593E+00  0.93800000000E+00 0. -1.
         22    1    1    2    0    0  0.64816979320E-01  0.21138910904E+00  0.35065567315E+01  0.35135205574E+01  0.00000000000E+00 0. -1.
</event>
<event>
 5    1  0.1537976E+002  0.1496212E+01  0.7818608E-02  0.3474336E+00
         11   -1    0    0    0    0  0.00000000000E+00  0.00000000000E+00  0.39999999674E+01  0.40000000000E+01  0.51100000000E-03 0. -1.
    9000002   -1    0    0    0    0 -0.00000000000E+00 -0.00000000000E+00  0.00000000000E+00  0.93800000000E+00  0.93800000000E+00 0.  1.
         11    1    1    2    0    0 -0.88115411496E-01  0.40286054902E-01  0.26314821852E-01  0.10039931739E+00  0.51100000000E-03 0. -1.
    9000002    1    1    2    0    0  0.42285799909E-01  0.15589155577E+00  0.98172458871E-01  0.95685531702E+00  0.93800000000E+00 0.  1.
         22    1    1    2    0    0  0.45829611587E-01 -0.19617761067E+00  0.38755126866E+01  0.38807453656E+01  0.00000000000E+00 0. -1.
</event>
<event>
 5    1  0.1537976E+002  0.1599249E+01  0.7818608E-02  0.3354179E+00
         11   -1    0    0    0    0  0.00000000000E+00  0.00000000000E+00  0.39999999674E+01  0.40000000000E+01  0.51100000000E-03 0. -1.
    9000002   -1    0    0    0    0 -0.00000000000E+00 -0.00000000000E+00  0.00000000000E+00  0.93800000000E+00  0.93800000000E+00 0. -1.
         11    1    1    2    0    0  0.19781974248E-01 -0.19935884780E-01  0.22118144607E+00  0.22295797634E+00  0.51100000000E-03 0. -1.
    9000002    1    1    2    0    0 -0.14551330174E+00  0.35501020992E+00  0.99443263032E-01  0.10183021814E+01  0.93800000000E+00 0. -1.
         22    1    1    2    0    0  0.12573132749E+00 -0.33507432514E+00  0.36793752583E+01  0.36967398422E+01  0.00000000000E+00 0. -1.
</event>
<event>
 5    1  0.1537976E+002  0.1599676E+01  0.7818608E-02  0.3353715E+00
         11   -1    0    0    0    0  0.00000000000E+00  0.00000000000E+00  0.39999999674E+01  0.40000000000E+01  0.51100000000E-03 0.  1.
    9000002   -1    0    0    0    0 -0.00000000000E+00 -0.00000000000E+00  0.00000000000E+00  0.93800000000E+00  0.93800000000E+00 0. -1.
         11    1    1    2    0    0 -0.18199545496E+00  0.37857797571E+00  0.19861579308E+01  0.20300904454E+01  0.51100000000E-03 0.  1.
    9000002    1    1    2    0    0  0.32759279841E+00 -0.68127070538E+00  0.41500979512E+00  0.12741757907E+01  0.93800000000E+00 0. -1.
         22    1    1    2    0    0 -0.14559734345E+00  0.30269272967E+00  0.15988322415E+01  0.16337337639E+01  0.00000000000E+00 0.  1.
</event>
<event>
 5    1  0.1537976E+002  0.1526724E+01  0.7818608E-02  0.3436947E+00
         11   -1    0    0    0    0  0.00000000000E+00  0.00000000000E+00  0.39999999674E+01  0.40000000000E+01  0.51100000000E-03 0. -1.
    9000002   -1    0    0    0    0 -0.00000000000E+00 -0.00000000000E+00  0.00000000000E+00  0.93800000000E+00  0.93800000000E+00 0.  1.
         11    1    1    2    0    0 -0.42071318276E+00 -0.24220279271E+00  0.19585540640E+01  0.20178196296E+01  0.51100000000E-03 0. -1.
    9000002    1    1    2    0    0  0.18821986089E+00  0.40636140260E+00  0.20202820128E+00  0.10588747328E+01  0.93800000000E+00 0.  1.
         22    1    1    2    0    0  0.23249332186E+00 -0.16415860989E+00  0.18394177021E+01  0.18613056376E+01  0.00000000000E+00 0. -1.
</event>
<event>
 5    1  0.1537976E+002  0.1598165E+01  0.7818608E-02  0.3355357E+00
         11   -1    0    0    0    0  0.00000000000E+00  0.00000000000E+00  0.39999999674E+01  0.40000000000E+01  0.51100000000E-03 0.  1.
    9000002   -1    0    0    0    0 -0.00000000000E+00 -0.00000000000E+00  0.00000000000E+00  0.93800000000E+00  0.93800000000E+00 0. -1.
         11    1    1    2    0    0 -0.12847412882E+00  0.71548624019E-01  0.10968999477E+01  0.11067134064E+01  0.51100000000E-03 0.  1.
    9000002    1    1    2    0    0  0.42240959105E+00 -0.10662385120E+00  0.12993316331E+00  0.10423651640E+01  0.93800000000E+00 0. -1.
         22    1    1    2    0    0 -0.29393546223E+00  0.35075227177E-01  0.27731668563E+01  0.27889214296E+01  0.00000000000E+00 0.  1.
</event>
<event>
 5    1  0.1537976E+002  0.1599499E+01  0.7818608E-02  0.3353907E+00
         11   -1    0    0    0    0  0.00000000000E+00  0.00000000000E+00  0.39999999674E+01  0.40000000000E+01  0.51100000000E-03 0. -1.
    9000002   -1    0    0    0    0 -0.00000000000E+00 -0.00000000000E+00  0.00000000000E+00  0.93800000000E+00  0.93800000000E+00 0.  1.
         11    1    1    2    0    0 -0.19464905893E-02 -0.32806820146E-01  0.42104307718E+00  0.42232405832E+00  0.51100000000E-03 0. -1.
    9000002    1    1    2    0    0  0.81165759871E-01  0.23977927901E+00  0.42715516543E-01  0.97249709438E+00  0.93800000000E+00 0.  1.
         22    1    1    2    0    0 -0.79219269281E-01 -0.20697245886E+00  0.35362413736E+01  0.35431788473E+01  0.00000000000E+00 0. -1.
</event>
<event>
 5    1  0.1537976E+002  0.1598958E+01  0.7818608E-02  0.3354495E+00
         11   -1    0    0    0    0  0.00000000000E+00  0.00000000000E+00  0.39999999674E+01  0.40000000000E+01  0.51100000000E-03 0. -1.
    9000002   -1    0    0    0    0 -0.00000000000E+00 -0.00000000000E+00  0.00000000000E+00  0.93800000000E+00  0.93800000000E+00 0. -1.
         11    1    1    2    0    0 -0.15492631025E+00 -0.14217816017E+00  0.21074409536E+01  0.21179056694E+01  0.51100000000E-03 0. -1.
    9000002    1    1    2    0    0  0.30475871376E+00  0.31667762666E+00  0.13160889279E+00  0.10441874801E+01  0.93800000000E+00 0. -1.
         22    1    1    2    0    0 -0.14983240351E+00 -0.17449946649E+00  0.17609501210E+01  0.17759068505E+01  0.00000000000E+00 0. -1.
</event>
<event>
 5    1  0.1537976E+002  0.1580872E+01  0.7818608E-02  0.3374390E+00
         11   -1    0    0    0    0  0.00000000000E+00  0.00000000000E+00  0.39999999674E+01  0.40000000000E+01  0.51100000000E-03 0.  1.
    9000002   -1    0    0    0    0 -0.00000000000E+00 -0.00000000000E+00  0.00000000000E+00  0.93800000000E+00  0.93800000000E+00 0.  1.
         11    1    1    2    0    0  0.16248787380E-01  0.16598654831E-01  0.26170034375E+01  0.26171065686E+01  0.51100000000E-03 0.  1.
    9000002    1    1    2    0    0  0.11433694064E+00  0.16694184410E+00  0.41347796717E-01  0.96046663430E+00  0.93800000000E+00 0.  1.
         22    1    1    2    0    0 -0.13058572802E+00 -0.18354049893E+00  0.13416487331E+01  0.13604267971E+01  0.00000000000E+00 0.  1.
</event>
<event>
 5    1  0.1537976E+002  0.1580375E+01  0.7818608E-02  0.3374943E+00
         11   -1    0    0    0    0  0.00000000000E+00  0.00000000000E+00  0.39999999674E+01  0.40000000000E+01  0.51100000000E-03 0. -1.
    9000002   -1    0    0    0    0 -0.00000000000E+00 -0.00000000000E+00  0.00000000000E+00  0.93800000000E+00  0.93800000000E+00 0.  1.
         11    1    1    2    0    0  0.35393736805E-01 -0.10616396026E+00  0.65190750381E+00  0.66144323846E+00  0.51100000000E-03 0. -1.
    9000002    1    1    2    0    0  0.15581372953E+00 -0.11312545675E-01  0.30527536532E-01  0.95141043850E+00  0.93800000000E+00 0.  1.
         22    1    1    2    0    0 -0.19120746633E+00  0.11747650594E+00  0.33175649270E+01  0.33251463230E+01  0.00000000000E+00 0. -1.
</event>
<event>
 5    1  0.1537976E+002  0.1597702E+01  0.7818608E-02  0.3355861E+00
         11   -1    0    0    0    0  0.00000000000E+00  0.00000000000E+00  0.39999999674E+01  0.40000000000E+01  0.51100000000E-03 0.  1.
    9000002   -1    0    0    0    0 -0.00000000000E+00 -0.00000000000E+00  0.00000000000E+00  0.93800000000E+00  0.93800000000E+00 0.  1.
         11    1    1    2    0    0  0.14235086465E+00 -0.31876678880E+00  0.19387183357E+01  0.19698997641E+01  0.51100000000E-03 0.  1.
    9000002    1    1    2    0    0 -0.17141345749E+00  0.62683561247E+00  0.30006960539E+00  0.11799115334E+01  0.93800000000E+00 0.  1.
         22    1    1    2    0    0  0.29062592844E-01 -0.30806882367E+00  0.17612120263E+01  0.17881887025E+01  0.00000000000E+00 0.  1.
</event>
<event>
 5    1  0.1537976E+002  0.1599671E+01  0.7818608E-02  0.3353721E+00
         11   -1    0    0    0    0  0.00000000000E+00  0.00000000000E+00  0.39999999674E+01  0.40000000000E+01  0.51100000000E-03 0.  1.
    9000002   -1    0    0    0    0 -0.00000000000E+00 -0.00000000000E+00  0.00000000000E+00  0.93800000000E+00  0.93800000000E+00 0.  1.
         11    1    1    2    0    0  0.84043900600E-01 -0.44068807103E-01  0.87967428982E+00  0.88477825147E+00  0.51100000000E-03 0.  1.
    9000002    1    1    2    0    0 -0.36896756153E+00  0.20525937143E+00  0.12060548992E+00  0.10356921141E+01  0.93800000000E+00 0.  1.
         22    1    1    2    0    0  0.28492366093E+00 -0.16119056432E+00  0.29997201876E+01  0.30175296344E+01  0.00000000000E+00 0.  1.
</event>
<event>
 5    1  0.1537976E+002  0.1599677E+01  0.7818608E-02  0.3353714E+00
         11   -1    0    0    0    0  0.00000000000E+00  0.00000000000E+00  0.39999999674E+01  0.40000000000E+01  0.51100000000E-03 0. -1.
    9000002   -1    0    0    0    0 -0.00000000000E+00 -0.00000000000E+00  0.00000000000E+00  0.93800000000E+00  0.93800000000E+00 0.  1.
         11    1    1    2    0    0 -0.36624661667E-01 -0.73584351405E-01  0.41622404334E+00  0.42426258142E+00  0.51100000000E-03 0. -1.
    9000002    1    1    2    0    0  0.31998211798E+00  0.64271004970E+00  0.37021121918E+00  0.12378873578E+01  0.93800000000E+00 0.  1.
         22    1    1    2    0    0 -0.28335745631E+00 -0.56912569830E+00  0.32135647048E+01  0.32758500608E+01  0.00000000000E+00 0. -1.
</event>
<event>
 5    1  0.1537976E+002  0.1599648E+01  0.7818608E-02  0.3353745E+00
         11   -1    0    0    0    0  0.00000000000E+00  0.00000000000E+00  0.39999999674E+01  0.40000000000E+01  0.51100000000E-03 0.  1.
    9000002   -1    0    0    0    0 -0.00000000000E+00 -0.00000000000E+00  0.00000000000E+00  0.93800000000E+00  0.93800000000E+00 0.  1.
         11    1    1    2    0    0  0.67313326859E-01 -0.10562172786E+00  0.13029678180E+01  0.13089738077E+01  0.51100000000E-03 0.  1.
    9000002    1    1    2    0    0 -0.21639656031E+00  0.32625873546E+00  0.10329770742E+00  0.10216587738E+01  0.93800000000E+00 0.  1.
         22    1    1    2    0    0  0.14908323345E+00 -0.22063700760E+00  0.25937344419E+01  0.26073674184E+01  0.00000000000E+00 0.  1.
</event>
<event>
 5    1  0.1537976E+002  0.1599665E+01  0.7818608E-02  0.3353728E+00
         11   -1    0    0    0    0  0.00000000000E+00  0.00000000000E+00  0.39999999674E+01  0.40000000000E+01  0.51100000000E-03 0. -1.
    9000002   -1    0    0    0    0 -0.00000000000E+00 -0.00000000000E+00  0.00000000000E+00  0.93800000000E+00  0.93800000000E+00 0. -1.
         11    1    1    2    0    0 -0.38375068187E-02  0.65253553647E-02  0.15474831297E+00  0.15493420606E+00  0.51100000000E-03 0. -1.
    9000002    1    1    2    0    0  0.78178279101E-01 -0.20231727320E+00  0.31186717911E-01  0.96325527963E+00  0.93800000000E+00 0. -1.
         22    1    1    2    0    0 -0.74340772282E-01  0.19579191784E+00  0.38140649365E+01  0.38198105143E+01  0.00000000000E+00 0. -1.
</event>
<event>
 5    1  0.1537976E+002  0.1599103E+01  0.7818608E-02  0.3354338E+00
         11   -1    0    0    0    0  0.00000000000E+00  0.00000000000E+00  0.39999999674E+01  0.40000000000E+01  0.51100000000E-03 0. -1.
    9000002   -1    0    0    0    0 -0.00000000000E+00 -0.00000000000E+00  0.00000000000E+00  0.93800000000E+00  0.93800000000E+00 0. -1.
         11    1    1    2    0    0  0.27463823739E-01  0.36579625414E-01  0.80923003748E+00  0.81052195855E+00  0.51100000000E-03 0. -1.
    9000002    1    1    2    0    0 -0.40409782894E-01 -0.24314524577E+00  0.40784875009E-01  0.97070076086E+00  0.93800000000E+00 0. -1.
         22    1    1    2    0    0  0.12945959155E-01  0.20656562036E+00  0.31499850549E+01  0.31567772806E+01  0.00000000000E+00 0. -1.
</event>
<event>
 5    1  0.1537976E+002  0.1599641E+01  0.7818608E-02  0.3353753E+00
         11   -1    0    0    0    0  0.00000000000E+00  0.00000000000E+00  0.39999999674E+01  0.40000000000E+01  0.51100000000E-03 0.  1.
    9000002   -1    0    0    0    0 -0.00000000000E+00 -0.00000000000E+00  0.00000000000E+00  0.93800000000E+00  0.93800000000E+00 0.  1.
         11    1    1    2    0    0  0.14239819100E+00 -0.12778636028E+00  0.14677377060E+01  0.14801556788E+01  0.51100000000E-03 0.  1.
    9000002    1    1    2    0    0 -0.37332257585E+00  0.31560477292E+00  0.16332326194E+00  0.10702778173E+01  0.93800000000E+00 0.  1.
         22    1    1    2    0    0  0.23092438485E+00 -0.18781841264E+00  0.23689389994E+01  0.23875665039E+01  0.00000000000E+00 0.  1.
</event>
<event>
 5    1  0.1537976E+002  0.1593774E+01  0.7818608E-02  0.3360149E+00
         11   -1    0    0    0    0  0.00000000000E+00  0.00000000000E+00  0.39999999674E+01  0.40000000000E+01  0.51100000000E-03 0. -1.
    9000002   -1    0    0    0    0 -0.00000000000E+00 -0.00000000000E+00  0.00000000000E+00  0.93800000000E+00  0.93800000000E+00 0.  1.
         11    1    1    2    0    0  0.21475428770E-01  0.22126901141E-01  0.19472342134E+00  0.19715036327E+00  0.51100000000E-03 0. -1.
    9000002    1    1    2    0    0  0.29400471436E+00 -0.89590760625E-01  0.67715528272E-01  0.98939105981E+00  0.93800000000E+00 0.  1.
         22    1    1    2    0    0 -0.31548014313E+00  0.67463859483E-01  0.37375610177E+01  0.37514585769E+01  0.00000000000E+00 0. -1.
</event>
<event>
 5    1  0.1537976E+002  0.1599616E+01  0.7818608E-02  0.3353780E+00
         11   -1    0    0    0    0  0.00000000000E+00  0.00000000000E+00  0.39999999674E+01  0.40000000000E+01  0.51100000000E-03 0.  1.
    9000002   -1    0    0    0    0 -0.00000000000E+00 -0.00000000000E+00  0.00000000000E+00  0.93800000000E+00  0.93800000000E+00 0.  1.
         11    1    1    2    0    0  0.44584956715E-01  0.80809898035E-01  0.62587957505E+00  0.63264805506E+00  0.51100000000E-03 0.  1.
    9000002    1    1    2    0    0 -0.25033441448E+00 -0.45558467274E+00  0.18567204094E+00  0.10883670428E+01  0.93800000000E+00 0.  1.
         22    1    1    2    0    0  0.20574945777E+00  0.37477477471E+00  0.31884483514E+01  0.32169849021E+01  0.00000000000E+00 0.  1.
</event>
<event>
 5    1  0.1537976E+002  0.1599562E+01  0.7818608E-02  0.3353839E+00
         11   -1    0    0    0    0  0.00000000000E+00  0.00000000000E+00  0.39999999674E+01  0.40000000000E+01  0.51100000000E-03 0.  1.
    9000002   -1    0    0    0    0 -0.00000000000E+00 -0.00000000000E+00  0.00000000000E+00  0.93800000000E+00  0.93800000000E+00 0. -1.
         11    1    1    2    0    0  0.80693955164E-02 -0.15179204453E-02  0.13663625206E+00  0.13688369415E+00  0.51100000000E-03 0.  1.
    9000002    1    1    2    0    0 -0.24210409459E+00  0.17900329709E+00  0.60574384910E-01  0.98700042001E+00  0.93800000000E+00 0. -1.
         22    1    1    2    0    0  0.23403469908E+00 -0.17748537665E+00  0.38027893304E+01  0.38141158858E+01  0.00000000000E+00 0.  1.
</event>
<event>
 5    1  0.1537976E+002  0.1598019E+01  0.7818608E-02  0.3355516E+00
         11   -1    0    0    0    0  0.00000000000E+00  0.00000000000E+00  0.39999999674E+01  0.40000000000E+01  0.51100000000E-03 0.  1.
    9000002   -1    0    0    0    0 -0.00000000000E+00 -0.00000000000E+00  0.00000000000E+00  0.93800000000E+00  0.93800000000E+00 0.  1.
         11    1    1    2    0    0 -0.73265954125E-01 -0.14491783214E-01  0.11885815112E+01  0.11909257666E+01  0.51100000000E-03 0.  1.
    9000002    1    1    2    0    0  0.36219885705E+00  0.13231952467E+00  0.10148442987E+00  0.10192347905E+01  0.93800000000E+00 0.  1.
         22    1    1    2    0    0 -0.28893290293E+00 -0.11782774146E+00  0.27099340263E+01  0.27278394429E+01  0.00000000000E+00 0.  1.
</event>
<event>
 5    1  0.1537976E+002  0.1599664E+01  0.7818608E-02  0.3353729E+00
         11   -1    0    0    0    0  0.00000000000E+00  0.00000000000E+00  0.39999999674E+01  0.40000000000E+01  0.51100000000E-03 0.  1.
    9000002   -1    0    0    0    0 -0.00000000000E+00 -0.00000000000E+00  0.00000000000E+00  0.93800000000E+00  0.93800000000E+00 0.  1.
         11    1    1    2    0    0 -0.13679019816E+00  0.35482542696E-01  0.10035944308E+01  0.10134952451E+01  0.51100000000E-03 0.  1.
    9000002    1    1    2    0    0  0.50973752236E+00 -0.12351597003E+00  0.18912598594E+00  0.10911925472E+01  0.93800000000E+00 0.  1.
         22    1    1    2    0    0 -0.37294732420E+00  0.88033427339E-01  0.28072795506E+01  0.28333122077E+01  0.00000000000E+00 0.  1.
</event>
<event>
 5    1  0.1537976E+002  0.1595000E+01  0.7818608E-02  0.3358808E+00
         11   -1    0    0    0    0  0.00000000000E+00  0.00000000000E+00  0.39999999674E+01  0.40000000000E+01  0.51100000000E-03 0. -1.
    9000002   -1    0    0    0    0 -0.00000000000E+00 -0.00000000000E+00  0.00000000000E+00  0.93800000000E+00  0.93800000000E+00 0.  1.
         11    1    1    2    0    0 -0.11943754629E+00  0.26646794114E+00  0.18800504543E+01  0.19025930892E+01  0.51100000000E-03 0. -1.
    9000002    1    1    2    0    0  0.86907023391E-01 -0.48193958264E+00  0.16807579030E+00  0.10714065817E+01  0.93800000000E+00 0.  1.
         22    1    1    2    0    0  0.32530522900E-01  0.21547164150E+00  0.19518737227E+01  0.19640003291E+01  0.00000000000E+00 0.  1.
</event>
<event>
 5    1  0.1537976E+002  0.1599389E+01  0.7818608E-02  0.3354026E+00
         11   -1    0    0    0    0  0.00000000000E+00  0.00000000000E+00  0.39999999674E+01  0.40000000000E+01  0.51100000000E-03 0.  1.
    9000002   -1    0    0    0    0 -0.00000000000E+00 -0.00000000000E+00  0.00000000000E+00  0.93800000000E+00  0.93800000000E+00 0. -1.
         11    1    1    2    0    0 -0.18315637901E-02  0.11560246170E+00  0.10186291138E+01  0.10251696525E+01  0.51100000000E-03 0.  1.
    9000002    1    1    2    0    0 -0.46758767137E-01 -0.39886836708E+00  0.10905021896E+00  0.10261668026E+01  0.93800000000E+00 0. -1.
         22    1    1    2    0    0  0.48590330927E-01  0.28326590538E+00  0.28723206346E+01  0.28866635449E+01  0.00000000000E+00 0.  1.
</event>
<event>
 5    1  0.1537976E+002  0.1599672E+01  0.7818608E-02  0.3353719E+00
         11   -1    0    0    0    0  0.00000000000E+00  0.00000000000E+00  0.39999999674E+01  0.40000000000E+01  0.51100000000E-03 0.  1.
    9000002   -1    0    0    0    0 -0.00000000000E+00 -0.00000000000E+00  0.00000000000E+00  0.93800000000E+00  0.93800000000E+00 0.  1.
         11    1    1    2    0    0 -0.14995606293E-01  0.31894846157E-01  0.56304105592E+00  0.56414328073E+00  0.51100000000E-03 0.  1.
    9000002    1    1    2    0    0  0.10638506666E+00 -0.23643961880E+00  0.44690432309E-01  0.97419849645E+00  0.93800000000E+00 0.  1.
         22    1    1    2    0    0 -0.91389460368E-01  0.20454477264E+00  0.33922684791E+01  0.33996582228E+01  0.00000000000E+00 0.  1.
</event>
<event>
 5    1  0.1537976E+002  0.1599582E+01  0.7818608E-02  0.3353817E+00
         11   -1    0    0    0    0  0.00000000000E+00  0.00000000000E+00  0.39999999674E+01  0.40000000000E+01  0.51100000000E-03 0. -1.
    9000002   -1    0    0    0    0 -0.00000000000E+00 -0.00000000000E+00  0.00000000000E+00  0.93800000000E+00  0.93800000000E+00 0.  1.
         11    1    1    2    0    0 -0.15689220899E+00  0.18285985926E+00  0.21617417888E+01  0.21751277471E+01  0.51100000000E-03 0. -1.
    9000002    1    1    2    0    0  0.27628216601E+00 -0.34748661424E+00  0.13381584984E+00  0.10463409884E+01  0.93800000000E+00 0.  1.
         22    1    1    2    0    0 -0.11938995702E+00  0.16462675498E+00  0.17044423287E+01  0.17165312646E+01  0.00000000000E+00 0. -1.
</event>
<event>
 5    1  0.1537976E+002  0.1594205E+01  0.7818608E-02  0.3359678E+00
         11   -1    0    0    0    0  0.00000000000E+00  0.00000000000E+00  0.39999999674E+01  0.40000000000E+01  0.51100000000E-03 0.  1.
    9000002   -1    0    0    0    0 -0.00000000000E+00 -0.00000000000E+00  0.00000000000E+00  0.93800000000E+00  0.93800000000E+00 0.  1.
         11    1    1    2    0    0  0.11749353588E+00 -0.97746409098E-01  0.79071709866E+00  0.80535264493E+00  0.51100000000E-03 0.  1.
    9000002    1    1    2    0    0 -0.36830295413E+00  0.19216128499E+00  0.12125763290E+00  0.10330152172E+01  0.93800000000E+00 0.  1.
         22    1    1    2    0    0  0.25080941825E+00 -0.94414875889E-01  0.30880252358E+01  0.30996321379E+01  0.00000000000E+00 0.  1.
</event>
<event>
 5    1  0.1537976E+002  0.1599677E+01  0.7818608E-02  0.3353714E+00
         11   -1    0    0    0    0  0.00000000000E+00  0.00000000000E+00  0.39999999674E+01  0.40000000000E+01  0.51100000000E-03 0. -1.
    9000002   -1    0    0    0    0 -0.00000000000E+00 -0.00000000000E+00  0.00000000000E+00  0.93800000000E+00  0.93800000000E+00 0. -1.
         11    1    1    2    0    0  0.38502481686E-01 -0.18291697930E+00  0.15791008517E+01  0.15901260401E+01  0.51100000000E-03 0. -1.
    9000002    1    1    2    0    0 -0.93992802173E-01  0.44789041438E+00  0.14241091907E+00  0.10533590746E+01  0.93800000000E+00 0. -1.
         22    1    1    2    0    0  0.55490320487E-01 -0.26497343508E+00  0.22784881966E+01  0.22945148853E+01  0.00000000000E+00 0. -1.
</event>
<event>
 5    1  0.1537976E+002  0.1525996E+01  0.7818608E-02  0.3437821E+00
         11   -1    0    0    0    0  0.00000000000E+00  0.00000000000E+00  0.39999999674E+01  0.40000000000E+01  0.51100000000E-03 0. -1.
    9000002   -1    0    0    0    0 -0.00000000000E+00 -0.00000000000E+00  0.00000000000E+00  0.93800000000E+00  0.93800000000E+00 0.  1.
         11    1    1    2    0    0  0.21769501246E+00 -0.35191686481E+00  0.26910951564E+01  0.27227247382E+01  0.51100000000E-03 0. -1.
    9000002    1    1    2    0    0 -0.18107094585E+00  0.92635329340E-01  0.84867995470E-01  0.96354271744E+00  0.93800000000E+00 0.  1.
         22    1    1    2    0    0 -0.36624066615E-01  0.25928153547E+00  0.12240368155E+01  0.12517325443E+01  0.00000000000E+00 0. -1.
</event>
<event>
 5    1  0.1537976E+002  0.1599676E+01  0.7818608E-02  0.3353715E+00
         11   -1    0    0    0    0  0.00000000000E+00  0.00000000000E+00  0.39999999674E+01  0.40000000000E+01  0.51100000000E-03 0.  1.
    9000002   -1    0    0    0    0 -0.00000000000E+00 -0.00000000000E+00  0.00000000000E+00  0.93800000000E+00  0.93800000000E+00 0. -1.
         11    1    1    2    0    0  0.20648226780E-02  0.38615931157E-01  0.58225485115E+00  0.58353785348E+00  0.51100000000E-03 0. -1.
    9000002    1    1    2    0    0 -0.13986582150E-01 -0.26563715999E+00  0.47064346173E-01  0.97612385378E+00  0.93800000000E+00 0. -1.
         22    1    1    2    0    0  0.11921759472E-01  0.22702122883E+00  0.33706807700E+01  0.33783382927E+01  0.00000000000E+00 0.  1.
</event>
<event>
 5    1  0.1537976E+002  0.1450011E+01  0.7818608E-02  0.3534190E+00
         11   -1    0    0    0    0  0.00000000000E+00  0.00000000000E+00  0.39999999674E+01  0.40000000000E+01  0.51100000000E-03 0. -1.
    9000002   -1    0    0    0    0 -0.00000000000E+00 -0.00000000000E+00  0.00000000000E+00  0.93800000000E+00  0.93800000000E+00 0.  1.
         11    1    1    2    0    0 -0.20296698287E+00 -0.35217627810E+00  0.11919232477E+01  0.12593272079E+01  0.51100000000E-03 0. -1.
    9000002    1    1    2    0    0  0.67001635827E-02 -0.94357074781E-01  0.12428218533E+00  0.95091440800E+00  0.93800000000E+00 0.  1.
         22    1    1    2    0    0  0.19626681929E+00  0.44653335288E+00  0.26837945343E+01  0.27277583841E+01  0.00000000000E+00 0. -1.
</event>
<event>
 5    1  0.1537976E+002  0.1562715E+01  0.7818608E-02  0.3394852E+00
         11   -1    0    0    0    0  0.00000000000E+00  0.00000000000E+00  0.39999999674E+01  0.40000000000E+01  0.51100000000E-03 0. -1.
    9000002   -1    0    0    0    0 -0.00000000000E+00 -0.00000000000E+00  0.00000000000E+00  0.93800000000E+00  0.93800000000E+00 0. -1.
         11    1    1    2    0    0  0.84305308037E-01 -0.14937670790E+00  0.32434057690E+01  0.32479381197E+01  0.51100000000E-03 0. -1.
    9000002    1    1    2    0    0 -0.25341860539E+00  0.28693254920E-01  0.72090262848E-01  0.97472319067E+00  0.93800000000E+00 0. -1.
         22    1    1    2    0    0  0.16911329735E+00  0.12068345298E+00  0.68450393554E+00  0.71533868967E+00  0.00000000000E+00 0. -1.
</event>
<event>
 5    1  0.1537976E+002  0.1599658E+01  0.7818608E-02  0.3353734E+00
         11   -1    0    0    0    0  0.00000000000E+00  0.00000000000E+00  0.39999999674E+01  0.40000000000E+01  0.51100000000E-03 0. -1.
    9000002   -1    0    0    0    0 -0.00000000000E+00 -0.00000000000E+00  0.00000000000E+00  0.93800000000E+00  0.93800000000E+00 0. -1.
         11    1    1    2    0    0  0.19820118352E-01 -0.32278033559E-01  0.28002298690E+00  0.28257360608E+00  0.51100000000E-03 0. -1.
    9000002    1    1    2    0    0 -0.27638633012E+00  0.40551690132E+00  0.16462786198E+00  0.10713448062E+01  0.93800000000E+00 0. -1.
         22    1    1    2    0    0  0.25656621177E+00 -0.37323886776E+00  0.35553491185E+01  0.35840815878E+01  0.00000000000E+00 0. -1.
</event>
<event>
 5    1  0.1537976E+002  0.1599563E+01  0.7818608E-02  0.3353838E+00
         11   -1    0    0    0    0  0.00000000000E+00  0.00000000000E+00  0.39999999674E+01  0.40000000000E+01  0.51100000000E-03 0. -1.
    9000002   -1    0    0    0    0 -0.00000000000E+00 -0.00000000000E+00  0.00000000000E+00  0.93800000000E+00  0.93800000000E+00 0.  1.
         11    1    1    2    0    0  0.13354878238E+00 -0.44066077174E-01  0.13343027724E+01  0.13416934247E+01  0.51100000000E-03 0. -1.
    9000002    1    1    2    0    0 -0.37798729522E+00  0.16218756790E+00  0.11437921836E+00  0.10305851775E+01  0.93800000000E+00 0.  1.
         22    1    1    2    0    0  0.24443851283E+00 -0.11812149073E+00  0.25513179766E+01  0.25657213978E+01  0.00000000000E+00 0. -1.
</event>
<event>
 5    1  0.1537976E+002  0.1599624E+01  0.7818608E-02  0.3353771E+00
         11   -1    0    0    0    0  0.00000000000E+00  0.00000000000E+00  0.39999999674E+01  0.40000000000E+01  0.51100000000E-03 0. -1.
    9000002   -1    0    0    0    0 -0.00000000000E+00 -0.00000000000E+00  0.00000000000E+00  0.93800000000E+00  0.93800000000E+00 0. -1.
         11    1    1    2    0    0  0.11838314236E-01 -0.24832039322E-01  0.38674489497E+00  0.38772238879E+00  0.51100000000E-03 0. -1.
    9000002    1    1    2    0    0 -0.86598534621E-01  0.21443529950E+00  0.35518483092E-01  0.96674058905E+00  0.93800000000E+00 0. -1.
         22    1    1    2    0    0  0.74760220385E-01 -0.18960326018E+00  0.35777365893E+01  0.35835370222E+01  0.00000000000E+00 0. -1.
</event>
<event>
 5    1  0.1537976E+002  0.1598909E+01  0.7818608E-02  0.3354548E+00
         11   -1    0    0    0    0  0.00000000000E+00  0.00000000000E+00  0.39999999674E+01  0.40000000000E+01  0.51100000000E-03 0. -1.
    9000002   -1    0    0    0    0 -0.00000000000E+00 -0.00000000000E+00  0.00000000000E+00  0.93800000000E+00  0.93800000000E+00 0.  1.
         11    1    1    2    0    0 -0.72002641781E+00 -0.17192062020E+00  0.21943278974E+01  0.23158302884E+01  0.51100000000E-03 0. -1.
    9000002    1    1    2    0    0  0.10393798370E+01  0.21704978914E+00  0.94492935113E+00  0.17029845963E+01  0.93800000000E+00 0.  1.
         22    1    1    2    0    0 -0.31935341923E+00 -0.45129168937E-01  0.86074271881E+00  0.91918511533E+00  0.00000000000E+00 0. -1.
</event>
<event>
 5    1  0.1537976E+002  0.1599664E+01  0.7818608E-02  0.3353728E+00
         11   -1    0    0    0    0  0.00000000000E+00  0.00000000000E+00  0.39999999674E+01  0.40000000000E+01  0.51100000000E-03 0. -1.
    9000002   -1    0    0    0    0 -0.00000000000E+00 -0.00000000000E+00  0.00000000000E+00  0.93800000000E+00  0.93800000000E+00 0.  1.
         11    1    1    2    0    0 -0.49259263378E-03 -0.15290162392E-02  0.32281335637E-01  0.32325319638E-01  0.51100000000E-03 0. -1.
    9000002    1    1    2    0    0  0.70307190429E-03  0.22929246910E+00  0.34882272889E-01  0.96624857240E+00  0.93800000000E+00 0.  1.
         22    1    1    2    0    0 -0.21047927051E-03 -0.22776345286E+00  0.39328363588E+01  0.39394261080E+01  0.00000000000E+00 0. -1.
</event>
<event>
 5    1  0.1537976E+002  0.1599632E+01  0.7818608E-02  0.3353763E+00
         11   -1    0    0    0    0  0.00000000000E+00  0.00000000000E+00  0.39999999674E+01  0.40000000000E+01  0.51100000000E-03 0. -1.
    9000002   -1    0    0    0    0 -0.00000000000E+00 -0.00000000000E+00  0.00000000000E+00  0.93800000000E+00  0.93800000000E+00 0.  1.
         11    1    1    2    0    0  0.66026768697E-01  0.10270533425E+00  0.13565246245E+01  0.13620085307E+01  0.51100000000E-03 0. -1.
    9000002    1    1    2    0    0 -0.16871671075E+00 -0.29912502083E+00  0.79060218967E-01  0.10020157807E+01  0.93800000000E+00 0.  1.
         22    1    1    2    0    0  0.10268994206E+00  0.19641968658E+00  0.25644151239E+01  0.25739756886E+01  0.00000000000E+00 0. -1.
</event>
<event>
 5    1  0.1537976E+002  0.1599650E+01  0.7818608E-02  0.3353743E+00
         11   -1    0    0    0    0  0.00000000000E+00  0.00000000000E+00  0.39999999674E+01  0.40000000000E+01  0.51100000000E-03 0.  1.
    9000002   -1    0    0    0    0 -0.00000000000E+00 -0.00000000000E+00  0.00000000000E+00  0.93800000000E+00  0.93800000000E+00 0.  1.
         11    1    1    2    0    0  0.15288195533E+00 -0.78358768622E-01  0.15484829606E+01  0.15579835459E+01  0.51100000000E-03 0.  1.
    9000002    1    1    2    0    0 -0.36794618507E+00  0.19614969404E+00  0.11755597086E+00  0.10332098063E+01  0.93800000000E+00 0.  1.
         22    1    1    2    0    0  0.21506422974E+00 -0.11779092542E+00  0.23339610359E+01  0.23468066478E+01  0.00000000000E+00 0.  1.
</event>
<event>
 5    1  0.1537976E+002  0.1599636E+01  0.7818608E-02  0.3353759E+00
         11   -1    0    0    0    0  0.00000000000E+00  0.00000000000E+00  0.39999999674E+01  0.40000000000E+01  0.51100000000E-03 0.  1.
    9000002   -1    0    0    0    0 -0.00000000000E+00 -0.00000000000E+00  0.00000000000E+00  0.93800000000E+00  0.93800000000E+00 0.  1.
         11    1    1    2    0    0 -0.12196043199E+00  0.58277301911E-01  0.11179651263E+01  0.11261069557E+01  0.51100000000E-03 0.  1.
    9000002    1    1    2    0    0  0.42325081617E+00 -0.22420097602E+00  0.15653950886E+00  0.10647797654E+01  0.93800000000E+00 0.  1.
         22    1    1    2    0    0 -0.30129038418E+00  0.16592367411E+00  0.27254953321E+01  0.27471132788E+01  0.00000000000E+00 0.  1.
</event>
<event>
 5    1  0.1537976E+002  0.1594676E+01  0.7818608E-02  0.3359162E+00
         11   -1    0    0    0    0  0.00000000000E+00  0.00000000000E+00  0.39999999674E+01  0.40000000000E+01  0.51100000000E-03 0.  1.
    9000002   -1    0    0    0    0 -0.00000000000E+00 -0.00000000000E+00  0.00000000000E+00  0.93800000000E+00  0.93800000000E+00 0.  1.
         11    1    1    2    0    0  0.14936987575E+00  0.43324683657E-01  0.85868244899E+00  0.87265353797E+00  0.51100000000E-03 0.  1.
    9000002    1    1    2    0    0 -0.38692853142E+00 -0.56101686904E-01  0.10713625355E+00  0.10218528585E+01  0.93800000000E+00 0.  1.
         22    1    1    2    0    0  0.23755865567E+00  0.12777003247E-01  0.30341812648E+01  0.30434936035E+01  0.00000000000E+00 0.  1.
</event>
<event>
 5    1  0.1537976E+002  0.1580675E+01  0.7818608E-02  0.3374609E+00
         11   -1    0    0    0    0  0.00000000000E+00  0.00000000000E+00  0.39999999674E+01  0.40000000000E+01  0.51100000000E-03 0. -1.
    9000002   -1    0    0    0    0 -0.00000000000E+00 -0.00000000000E+00  0.00000000000E+00  0.93800000000E+00  0.93800000000E+00 0.  1.
         11    1    1    2    0    0 -0.23281765864E+00 -0.17247602869E+00  0.12337883416E+01  0.12673539268E+01  0.51100000000E-03 0. -1.
    9000002    1    1    2    0    0  0.23756214262E+00  0.47654014611E+00  0.21304830628E+00  0.10994361570E+01  0.93800000000E+00 0.  1.
         22    1    1    2    0    0 -0.47444839853E-02 -0.30406411742E+00  0.25531633195E+01  0.25712099163E+01  0.00000000000E+00 0. -1.
</event>
<event>
 5    1  0.1537976E+002  0.1592266E+01  0.7818608E-02  0.3361801E+00
         11   -1    0    0    0    0  0.00000000000E+00  0.00000000000E+00  0.39999999674E+01  0.40000000000E+01  0.51100000000E-03 0.  1.
    9000002   -1    0    0    0    0 -0.00000000000E+00 -0.00000000000E+00  0.00000000000E+00  0.93800000000E+00  0.93800000000E+00 0.  1.
         11    1    1    2    0    0  0.12231826615E+00 -0.15678519888E+00  0.21617395038E+01  0.21708664860E+01  0.51100000000E-03 0.  1.
    9000002    1    1    2    0    0 -0.39243152119E+00  0.22038920673E+00  0.14401602826E+00  0.10503135330E+01  0.93800000000E+00 0.  1.
         22    1    1    2    0    0  0.27011325505E+00 -0.63604007852E-01  0.16942444353E+01  0.17168199809E+01  0.00000000000E+00 0.  1.
</event>
<event>
 5    1  0.1537976E+002  0.1599577E+01  0.7818608E-02  0.3353822E+00
         11   -1    0    0    0    0  0.00000000000E+00  0.00000000000E+00  0.39999999674E+01  0.40000000000E+01  0.51100000000E-03 0. -1.
    9000002   -1    0    0    0    0 -0.00000000000E+00 -0.00000000000E+00  0.00000000000E+00  0.93800000000E+00  0.93800000000E+00 0.  1.
         11    1    1    2    0    0 -0.21744535775E-01 -0.77091467372E-01  0.76877822813E+00  0.77293993579E+00  0.51100000000E-03 0. -1.
    9000002    1    1    2    0    0  0.61924911517E-01  0.39529914149E+00  0.10807268778E+00  0.10254851592E+01  0.93800000000E+00 0.  1.
         22    1    1    2    0    0 -0.40180375742E-01 -0.31820767412E+00  0.31231490515E+01  0.31395749050E+01  0.00000000000E+00 0.  1.
</event>
<event>
 5    1  0.1537976E+002  0.1590342E+01  0.7818608E-02  0.3363913E+00
         11   -1    0    0    0    0  0.00000000000E+00  0.00000000000E+00  0.39999999674E+01  0.40000000000E+01  0.51100000000E-03 0.  1.
    9000002   -1    0    0    0    0 -0.00000000000E+00 -0.00000000000E+00  0.00000000000E+00  0.93800000000E+00  0.93800000000E+00 0.  1.
         11    1    1    2    0    0  0.72732048230E-01 -0.84797674017E-02  0.40834385059E+00  0.41485758849E+00  0.51100000000E-03 0.  1.
    9000002    1    1    2    0    0 -0.94942687324E-01 -0.23540703244E+00  0.49993646161E-01  0.97302309811E+00  0.93800000000E+00 0.  1.
         22    1    1    2    0    0  0.22210639093E-01  0.24388679985E+00  0.35416624706E+01  0.35501193134E+01  0.00000000000E+00 0.  1.
</event>
<event>
 5    1  0.1537976E+002  0.1599014E+01  0.7818608E-02  0.3354435E+00
         11   -1    0    0    0    0  0.00000000000E+00  0.00000000000E+00  0.39999999674E+01  0.40000000000E+01  0.51100000000E-03 0. -1.
    9000002   -1    0    0    0    0 -0.00000000000E+00 -0.00000000000E+00  0.00000000000E+00  0.93800000000E+00  0.93800000000E+00 0. -1.
         11    1    1    2    0    0  0.91492019005E-01  0.18625287310E+00  0.17706744615E+01  0.17827925376E+01  0.51100000000E-03 0. -1.
    9000002    1    1    2    0    0 -0.13900107035E+00 -0.38096640704E+00  0.11156309467E+00  0.10279820159E+01  0.93800000000E+00 0. -1.
         22    1    1    2    0    0  0.47509051341E-01  0.19471353394E+00  0.21177624112E+01  0.21272254465E+01  0.00000000000E+00 0. -1.
</event>
<event>
 5    1  0.1537976E+002  0.1599121E+01  0.7818608E-02  0.3354318E+00
         11   -1    0    0    0    0  0.00000000000E+00  0.00000000000E+00  0.39999999674E+01  0.40000000000E+01  0.51100000000E-03 0. -1.
    9000002   -1    0    0    0    0 -0.00000000000E+00 -0.00000000000E+00  0.00000000000E+00  0.93800000000E+00  0.93800000000E+00 0.  1.
         11    1    1    2    0    0 -0.27790962643E+00  0.22896416015E+00  0.25041852250E+01  0.25299411553E+01  0.51100000000E-03 0. -1.
    9000002    1    1    2    0    0  0.44895755274E+00 -0.37035960813E+00  0.23598506688E+00  0.11288321732E+01  0.93800000000E+00 0.  1.
         22    1    1    2    0    0 -0.17104792631E+00  0.14139544798E+00  0.12598296755E+01  0.12792266715E+01  0.00000000000E+00 0. -1.
</event>
<event>
 5    1  0.1537976E+002  0.1599677E+01  0.7818608E-02  0.3353714E+00
         11   -1    0    0    0    0  0.00000000000E+00  0.00000000000E+00  0.39999999674E+01  0.40000000000E+01  0.51100000000E-03 0. -1.
    9000002   -1    0    0    0    0 -0.00000000000E+00 -0.00000000000E+00  0.00000000000E+00  0.93800000000E+00  0.93800000000E+00 0. -1.
         11    1    1    2    0    0  0.26532586176E+00 -0.23389081901E+00  0.22631110448E+01  0.22905838972E+01  0.51100000000E-03 0. -1.
    9000002    1    1    2    0    0 -0.44088537543E+00  0.38789963730E+00  0.23995295980E+00  0.11323724943E+01  0.93800000000E+00 0. -1.
         22    1    1    2    0    0  0.17555951367E+00 -0.15400881829E+00  0.14969359628E+01  0.15150436085E+01  0.00000000000E+00 0. -1.
</event>
<event>
 5    1  0.1537976E+002  0.1596523E+01  0.7818608E-02  0.3357146E+00
         11   -1    0    0    0    0  0.00000000000E+00  0.00000000000E+00  0.39999999674E+01  0.40000000000E+01  0.51100000000E-03 0. -1.
    9000002   -1    0    0    0    0 -0.00000000000E+00 -0.00000000000E+00  0.00000000000E+00  0.93800000000E+00  0.93800000000E+00 0.  1.
         11    1    1    2    0    0 -0.20010472313E+00 -0.63035560629E-01  0.16664634783E+01  0.16796178636E+01  0.51100000000E-03 0. -1.
    9000002    1    1    2    0    0  0.49987671129E+00  0.28742159828E+00  0.23391529398E+00  0.11256323851E+01  0.93800000000E+00 0.  1.
         22    1    1    2    0    0 -0.29977198817E+00 -0.22438603765E+00  0.20996211951E+01  0.21327497513E+01  0.00000000000E+00 0.  1.
</event>
<event>
 5    1  0.1537976E+002  0.1599549E+01  0.7818608E-02  0.3353853E+00
         11   -1    0    0    0    0  0.00000000000E+00  0.00000000000E+00  0.39999999674E+01  0.40000000000E+01  0.51100000000E-03 0.  1.
    9000002   -1    0    0    0    0 -0.00000000000E+00 -0.00000000000E+00  0.00000000000E+00  0.93800000000E+00  0.93800000000E+00 0. -1.
         11    1    1    2    0    0 -0.16986278230E+00 -0.44672842435E+00  0.20693747413E+01  0.21238483305E+01  0.51100000000E-03 0.  1.
    9000002    1    1    2    0    0  0.29677371227E+00  0.77385309313E+00  0.51131623960E+00  0.13521137315E+01  0.93800000000E+00 0. -1.
         22    1    1    2    0    0 -0.12691092997E+00 -0.32712466879E+00  0.14193089865E+01  0.14620379380E+01  0.00000000000E+00 0. -1.
</event>
<event>
 5    1  0.1537976E+002  0.1598895E+01  0.7818608E-02  0.3354564E+00
         11   -1    0    0    0    0  0.00000000000E+00  0.00000000000E+00  0.39999999674E+01  0.40000000000E+01  0.51100000000E-03 0. -1.
    9000002   -1    0    0    0    0 -0.00000000000E+00 -0.00000000000E+00  0.00000000000E+00  0.93800000000E+00  0.93800000000E+00 0.  1.
         11    1    1    2    0    0  0.53499815836E-01  0.40731393791E-01  0.90695710105E+00  0.90944638160E+00  0.51100000000E-03 0. -1.
    9000002    1    1    2    0    0 -0.12149867748E+00 -0.22985468762E+00  0.45538539699E-01  0.97442950728E+00  0.93800000000E+00 0.  1.
         22    1    1    2    0    0  0.67998861646E-01  0.18912329383E+00  0.30475043266E+01  0.30541241111E+01  0.00000000000E+00 0. -1.
</event>
<event>
 5    1  0.1537976E+002  0.1599676E+01  0.7818608E-02  0.3353715E+00
         11   -1    0    0    0    0  0.00000000000E+00  0.00000000000E+00  0.39999999674E+01  0.40000000000E+01  0.51100000000E-03 0. -1.
    9000002   -1    0    0    0    0 -0.00000000000E+00 -0.00000000000E+00  0.00000000000E+00  0.93800000000E+00  0.93800000000E+00 0.  1.
         11    1    1    2    0    0  0.80099089564E-01  0.11944400293E+00  0.14487961550E+01  0.14559166507E+01  0.51100000000E-03 0.  1.
    9000002    1    1    2    0    0 -0.21748855673E+00 -0.31848410405E+00  0.10014402848E+00  0.10191203184E+01  0.93800000000E+00 0.  1.
         22    1    1    2    0    0  0.13738946717E+00  0.19904010112E+00  0.24510597839E+01  0.24629630309E+01  0.00000000000E+00 0. -1.
</event>
<event>
 5    1  0.1537976E+002  0.1599676E+01  0.7818608E-02  0.3353715E+00
         11   -1    0    0    0    0  0.00000000000E+00  0.00000000000E+00  0.39999999674E+01  0.40000000000E+01  0.51100000000E-03 0.  1.
    9000002   -1    0    0    0    0 -0.00000000000E+00 -0.00000000000E+00  0.00000000000E+00  0.93800000000E+00  0.93800000000E+00 0. -1.
         11    1    1    2    0    0  0.82086568208E-01 -0.34652205805E+00  0.22207112743E+01  0.22490830501E+01  0.51100000000E-03 0.  1.
    9000002    1    1    2    0    0 -0.13821479706E+00  0.58628079520E+00  0.25327327073E+00  0.11431622154E+01  0.93800000000E+00 0. -1.
         22    1    1    2    0    0  0.56128228853E-01 -0.23975873715E+00  0.15260154223E+01  0.15457547345E+01  0.00000000000E+00 0.  1.
</event>
<event>
 5    1  0.1537976E+002  0.1599674E+01  0.7818608E-02  0.3353718E+00
         11   -1    0    0    0    0  0.00000000000E+00  0.00000000000E+00  0.39999999674E+01  0.40000000000E+01  0.51100000000E-03 0.  1.
    9000002   -1    0    0    0    0 -0.00000000000E+00 -0.00000000000E+00  0.00000000000E+00  0.93800000000E+00  0.93800000000E+00 0.  1.
         11    1    1    2    0    0 -0.14658250259E+00 -0.19101888720E+00  0.20330714236E+01  0.20472797366E+01  0.51100000000E-03 0.  1.
    9000002    1    1    2    0    0  0.28200516855E+00  0.36338505813E+00  0.14391597618E+00  0.10545764191E+01  0.93800000000E+00 0.  1.
         22    1    1    2    0    0 -0.13542266596E+00 -0.17236617093E+00  0.18230125676E+01  0.18361438443E+01  0.00000000000E+00 0.  1.
</event>
<event>
 5    1  0.1537976E+002  0.1599573E+01  0.7818608E-02  0.3353827E+00
         11   -1    0    0    0    0  0.00000000000E+00  0.00000000000E+00  0.39999999674E+01  0.40000000000E+01  0.51100000000E-03 0.  1.
    9000002   -1    0    0    0    0 -0.00000000000E+00 -0.00000000000E+00  0.00000000000E+00  0.93800000000E+00  0.93800000000E+00 0.  1.
         11    1    1    2    0    0  0.14150172822E+00  0.14769128640E+00  0.18435789927E+01  0.18548906218E+01  0.51100000000E-03 0.  1.
    9000002    1    1    2    0    0 -0.31136852973E+00 -0.33016831375E+00  0.14005517366E+00  0.10513899982E+01  0.93800000000E+00 0.  1.
         22    1    1    2    0    0  0.16986680151E+00  0.18247702734E+00  0.20163658010E+01  0.20317193800E+01  0.00000000000E+00 0. -1.
</event>
<event>
 5    1  0.1537976E+002  0.1596864E+01  0.7818608E-02  0.3356774E+00
         11   -1    0    0    0    0  0.00000000000E+00  0.00000000000E+00  0.39999999674E+01  0.40000000000E+01  0.51100000000E-03 0. -1.
    9000002   -1    0    0    0    0 -0.00000000000E+00 -0.00000000000E+00  0.00000000000E+00  0.93800000000E+00  0.93800000000E+00 0. -1.
         11    1    1    2    0    0 -0.28535539545E-01  0.44556284198E-03  0.40137278234E+00  0.40238643996E+00  0.51100000000E-03 0. -1.
    9000002    1    1    2    0    0  0.68514792145E-03  0.25159885320E+00  0.44210582017E-01  0.97216306653E+00  0.93800000000E+00 0. -1.
         22    1    1    2    0    0  0.27850391623E-01 -0.25204441604E+00  0.35544166030E+01  0.35634504935E+01  0.00000000000E+00 0. -1.
</event>
<event>
 5    1  0.1537976E+002  0.1599647E+01  0.7818608E-02  0.3353746E+00
         11   -1    0    0    0    0  0.00000000000E+00  0.00000000000E+00  0.39999999674E+01  0.40000000000E+01  0.51100000000E-03 0. -1.
    9000002   -1    0    0    0    0 -0.00000000000E+00 -0.00000000000E+00  0.00000000000E+00  0.93800000000E+00  0.93800000000E+00 0.  1.
         11    1    1    2    0    0 -0.46259862143E-02 -0.45118277071E-01  0.58599243224E+00  0.58774522579E+00  0.51100000000E-03 0. -1.
    9000002    1    1    2    0    0  0.16147730869E-02  0.31315494717E+00  0.65528134441E-01  0.99106335057E+00  0.93800000000E+00 0.  1.
         22    1    1    2    0    0  0.30112131273E-02 -0.26803667010E+00  0.33484794007E+01  0.33591914236E+01  0.00000000000E+00 0. -1.
</event>
<event>
 5    1  0.1537976E+002  0.1599668E+01  0.7818608E-02  0.3353724E+00
         11   -1    0    0    0    0  0.00000000000E+00  0.00000000000E+00  0.39999999674E+01  0.40000000000E+01  0.51100000000E-03 0.  1.
    9000002   -1    0    0    0    0 -0.00000000000E+00 -0.00000000000E+00  0.00000000000E+00  0.93800000000E+00  0.93800000000E+00 0. -1.
         11    1    1    2    0    0 -0.87905312516E-01  0.12712112080E+00  0.10554926773E+01  0.10667484129E+01  0.51100000000E-03 0.  1.
    9000002    1    1    2    0    0  0.30964112767E+00 -0.44747456790E+00  0.20430751576E+00  0.11034929442E+01  0.93800000000E+00 0. -1.
         22    1    1    2    0    0 -0.22173581515E+00  0.32035344709E+00  0.27401997743E+01  0.27677586430E+01  0.00000000000E+00 0.  1.
</event>
<event>
 5    1  0.1537976E+002  0.1599657E+01  0.7818608E-02  0.3353736E+00
         11   -1    0    0    0    0  0.00000000000E+00  0.00000000000E+00  0.39999999674E+01  0.40000000000E+01  0.51100000000E-03 0. -1.
    9000002   -1    0    0    0    0 -0.00000000000E+00 -0.00000000000E+00  0.00000000000E+00  0.93800000000E+00  0.93800000000E+00 0.  1.
         11    1    1    2    0    0  0.16950306372E-01 -0.52358234478E-01  0.80282209004E+00  0.80470632344E+00  0.51100000000E-03 0. -1.
    9000002    1    1    2    0    0 -0.97151643182E-01  0.24128229044E+00  0.44994192132E-01  0.97443525325E+00  0.93800000000E+00 0.  1.
         22    1    1    2    0    0  0.80201336810E-01 -0.18892405597E+00  0.31521836852E+01  0.31588584233E+01  0.00000000000E+00 0. -1.
</event>
<event>
 5    1  0.1537976E+002  0.1599649E+01  0.7818608E-02  0.3353745E+00
         11   -1    0    0    0    0  0.00000000000E+00  0.00000000000E+00  0.39999999674E+01  0.40000000000E+01  0.51100000000E-03 0.  1.
    9000002   -1    0    0    0    0 -0.00000000000E+00 -0.00000000000E+00  0.00000000000E+00  0.93800000000E+00  0.93800000000E+00 0. -1.
         11    1    1    2    0    0  0.29228832144E-01 -0.48993475165E-01  0.38228172887E+00  0.38651554508E+00  0.51100000000E-03 0.  1.
    9000002    1    1    2    0    0 -0.26915986731E+00  0.45618245407E+00  0.19307357627E+00  0.10943815018E+01  0.93800000000E+00 0. -1.
         22    1    1    2    0    0  0.23993103516E+00 -0.40718897891E+00  0.34246446622E+01  0.34571029531E+01  0.00000000000E+00 0.  1.
</event>
<event>
 5    1  0.1537976E+002  0.1597499E+01  0.7818608E-02  0.3356082E+00
         11   -1    0    0    0    0  0.00000000000E+00  0.00000000000E+00  0.39999999674E+01  0.40000000000E+01  0.51100000000E-03 0.  1.
    9000002   -1    0    0    0    0 -0.00000000000E+00 -0.00000000000E+00  0.00000000000E+00  0.93800000000E+00  0.93800000000E+00 0.  1.
         11    1    1    2    0    0 -0.53458721138E-01  0.24526090823E+00  0.16859053908E+01  0.17044905385E+01  0.51100000000E-03 0.  1.
    9000002    1    1    2    0    0  0.28347845244E-01 -0.47259718073E+00  0.15470413637E+00  0.10620400489E+01  0.93800000000E+00 0.  1.
         22    1    1    2    0    0  0.25110875894E-01  0.22733627250E+00  0.21593904401E+01  0.21714694126E+01  0.00000000000E+00 0.  1.
</event>
<event>
 5    1  0.1537976E+002  0.1599506E+01  0.7818608E-02  0.3353899E+00
         11   -1    0    0    0    0  0.00000000000E+00  0.00000000000E+00  0.39999999674E+01  0.40000000000E+01  0.51100000000E-03 0. -1.
    9000002   -1    0    0    0    0 -0.00000000000E+00 -0.00000000000E+00  0.00000000000E+00  0.93800000000E+00  0.93800000000E+00 0. -1.
         11    1    1    2    0    0  0.30896159083E-01 -0.14242780866E+00  0.16379214783E+01  0.16443926792E+01  0.51100000000E-03 0. -1.
    9000002    1    1    2    0    0 -0.41782653405E-01  0.35889290400E+00  0.87784805646E-01  0.10090094543E+01  0.93800000000E+00 0. -1.
         22    1    1    2    0    0  0.10886494322E-01 -0.21646509534E+00  0.22742936835E+01  0.22845978666E+01  0.00000000000E+00 0.  1.
</event>
<event>
 5    1  0.1537976E+002  0.1599553E+01  0.7818608E-02  0.3353849E+00
         11   -1    0    0    0    0  0.00000000000E+00  0.00000000000E+00  0.39999999674E+01  0.40000000000E+01  0.51100000000E-03 0. -1.
    9000002   -1    0    0    0    0 -0.00000000000E+00 -0.00000000000E+00  0.00000000000E+00  0.93800000000E+00  0.93800000000E+00 0.  1.
         11    1    1    2    0    0  0.40990873415E-02 -0.70055968661E-02  0.81756028618E-01  0.82159541387E-01  0.51100000000E-03 0. -1.
    9000002    1    1    2    0    0 -0.54625904436E-01  0.22569460898E+00  0.35867212284E-01  0.96698112850E+00  0.93800000000E+00 0.  1.
         22    1    1    2    0    0  0.50526817094E-01 -0.21868901212E+00  0.38823767265E+01  0.38888593301E+01  0.00000000000E+00 0. -1.
</event>
<event>
 5    1  0.1537976E+002  0.1598086E+01  0.7818608E-02  0.3355443E+00
         11   -1    0    0    0    0  0.00000000000E+00  0.00000000000E+00  0.39999999674E+01  0.40000000000E+01  0.51100000000E-03 0.  1.
    9000002   -1    0    0    0    0 -0.00000000000E+00 -0.00000000000E+00  0.00000000000E+00  0.93800000000E+00  0.93800000000E+00 0.  1.
         11    1    1    2    0    0 -0.13259862016E+00  0.16422271936E-01  0.12910354799E+01  0.12979310292E+01  0.51100000000E-03 0.  1.
    9000002    1    1    2    0    0  0.34306307621E+00  0.73677162152E-01  0.83844435328E-01  0.10049848197E+01  0.93800000000E+00 0.  1.
         22    1    1    2    0    0 -0.21046445605E+00 -0.90099434088E-01  0.26251200522E+01  0.26350841511E+01  0.00000000000E+00 0.  1.
</event>
<event>
 5    1  0.1681374E+002  0.1571539E+01  0.7818608E-02  0.3384845E+00
         11   -1    0    0    0    0  0.00000000000E+00  0.00000000000E+00  0.39999999674E+01  0.40000000000E+01  0.51100000000E-03 0. -1.
    9000002   -1    0    0    0    0 -0.00000000000E+00 -0.00000000000E+00  0.00000000000E+00  0.93800000000E+00  0.93800000000E+00 0. -1.
         11    1    1    2    0    0  0.11580871121E+00  0.90851958384E-01  0.72284123556E+00  0.73767570713E+00  0.51100000000E-03 0. -1.
    9000002    1    1    2    0    0  0.86160652405E-01 -0.36830995475E-01  0.26594650035E-01  0.94304371885E+00  0.93800000000E+00 0. -1.
         22    1    1    2    0    0 -0.20196936362E+00 -0.54020962909E-01  0.32505640818E+01  0.32572805740E+01  0.00000000000E+00 0. -1.
</event>
<event>
 5    1  0.1537976E+002  0.1599591E+01  0.7818608E-02  0.3353807E+00
         11   -1    0    0    0    0  0.00000000000E+00  0.00000000000E+00  0.39999999674E+01  0.40000000000E+01  0.51100000000E-03 0.  1.
    9000002   -1    0    0    0    0 -0.00000000000E+00 -0.00000000000E+00  0.00000000000E+00  0.93800000000E+00  0.93800000000E+00 0. -1.
         11    1    1    2    0    0 -0.82806235943E-01  0.51824472580E-01  0.97169832696E+00  0.97659641019E+00  0.51100000000E-03 0.  1.
    9000002    1    1    2    0    0  0.35503835834E+00 -0.23667347114E+00  0.12331846102E+00  0.10378429605E+01  0.93800000000E+00 0. -1.
         22    1    1    2    0    0 -0.27223212240E+00  0.18484899856E+00  0.29049831794E+01  0.29235606293E+01  0.00000000000E+00 0.  1.
</event>
<event>
 5    1  0.1537976E+002  0.1599674E+01  0.7818608E-02  0.3353717E+00
         11   -1    0    0    0    0  0.00000000000E+00  0.00000000000E+00  0.39999999674E+01  0.40000000000E+01  0.51100000000E-03 0. -1.
    9000002   -1    0    0    0    0 -0.00000000000E+00 -0.00000000000E+00  0.00000000000E+00  0.93800000000E+00  0.93800000000E+00 0. -1.
         11    1    1    2    0    0 -0.24130212484E-01  0.31869728166E-01  0.51940365817E+00  0.52093988902E+00  0.51100000000E-03 0. -1.
    9000002    1    1    2    0    0  0.18157980679E+00 -0.25149173581E+00  0.64253385503E-01  0.99004637112E+00  0.93800000000E+00 0. -1.
         22    1    1    2    0    0 -0.15744959431E+00  0.21962200765E+00  0.34163429237E+01  0.34270137399E+01  0.00000000000E+00 0. -1.
</event>
<event>
 5    1  0.1537976E+002  0.1598395E+01  0.7818608E-02  0.3355108E+00
         11   -1    0    0    0    0  0.00000000000E+00  0.00000000000E+00  0.39999999674E+01  0.40000000000E+01  0.51100000000E-03 0. -1.
    9000002   -1    0    0    0    0 -0.00000000000E+00 -0.00000000000E+00  0.00000000000E+00  0.93800000000E+00  0.93800000000E+00 0. -1.
         11    1    1    2    0    0 -0.16713178636E-01  0.29098929530E-01  0.11651973625E+01  0.11656805878E+01  0.51100000000E-03 0. -1.
    9000002    1    1    2    0    0  0.85635704274E-01 -0.22933942227E+00  0.40773655293E-01  0.97027652523E+00  0.93800000000E+00 0. -1.
         22    1    1    2    0    0 -0.68922525638E-01  0.20024049274E+00  0.27940289496E+01  0.28020428870E+01  0.00000000000E+00 0. -1.
</event>
<event>
 5    1  0.1537976E+002  0.1599676E+01  0.7818608E-02  0.3353715E+00
         11   -1    0    0    0    0  0.00000000000E+00  0.00000000000E+00  0.39999999674E+01  0.40000000000E+01  0.51100000000E-03 0. -1.
    9000002   -1    0    0    0    0 -0.00000000000E+00 -0.00000000000E+00  0.00000000000E+00  0.93800000000E+00  0.93800000000E+00 0. -1.
         11    1    1    2    0    0  0.35290293776E-01  0.16875841092E-01  0.43113198123E+00  0.43290327466E+00  0.51100000000E-03 0.  1.
    9000002    1    1    2    0    0 -0.31717116251E+00 -0.15533439079E+00  0.83660145503E-01  0.10057680345E+01  0.93800000000E+00 0. -1.
         22    1    1    2    0    0  0.28188086874E+00  0.13845854970E+00  0.34852078406E+01  0.34993286908E+01  0.00000000000E+00 0. -1.
</event>
<event>
 5    1  0.1537976E+002  0.1596410E+01  0.7818608E-02  0.3357269E+00
         11   -1    0    0    0    0  0.00000000000E+00  0.00000000000E+00  0.39999999674E+01  0.40000000000E+01  0.51100000000E-03 0. -1.
    9000002   -1    0    0    0    0 -0.00000000000E+00 -0.00000000000E+00  0.00000000000E+00  0.93800000000E+00  0.93800000000E+00 0.  1.
         11    1    1    2    0    0 -0.10294195670E+00 -0.97413119461E-01  0.10442100898E+01  0.10537842925E+01  0.51100000000E-03 0. -1.
    9000002    1    1    2    0    0  0.34582195401E+00  0.13940778642E+00  0.96136534366E-01  0.10139593621E+01  0.93800000000E+00 0.  1.
         22    1    1    2    0    0 -0.24287999731E+00 -0.41994666964E-01  0.28596533432E+01  0.28702563454E+01  0.00000000000E+00 0. -1.
</event>
<event>
 5    1  0.1537976E+002  0.1599580E+01  0.7818608E-02  0.3353819E+00
         11   -1    0    0    0    0  0.00000000000E+00  0.00000000000E+00  0.39999999674E+01  0.40000000000E+01  0.51100000000E-03 0. -1.
    9000002   -1    0    0    0    0 -0.00000000000E+00 -0.00000000000E+00  0.00000000000E+00  0.93800000000E+00  0.93800000000E+00 0.  1.
         11    1    1    2    0    0  0.15684489736E+00 -0.85973963980E-01  0.17026008949E+01  0.17119701846E+01  0.51100000000E-03 0. -1.
    9000002    1    1    2    0    0 -0.35977925702E+00  0.22258146607E+00  0.12117996153E+00  0.10361043412E+01  0.93800000000E+00 0.  1.
         22    1    1    2    0    0  0.20293435966E+00 -0.13660750209E+00  0.21762191109E+01  0.21899254742E+01  0.00000000000E+00 0.  1.
</event>
<event>
 5    1  0.1537976E+002  0.1568974E+01  0.7818608E-02  0.3387742E+00
         11   -1    0    0    0    0  0.00000000000E+00  0.00000000000E+00  0.39999999674E+01  0.40000000000E+01  0.51100000000E-03 0.  1.
    9000002   -1    0    0    0    0 -0.00000000000E+00 -0.00000000000E+00  0.00000000000E+00  0.93800000000E+00  0.93800000000E+00 0. -1.
         11    1    1    2    0    0 -0.97060104985E-01 -0.14526826679E+00  0.19218636908E+01  0.19297885481E+01  0.51100000000E-03 0.  1.
    9000002    1    1    2    0    0  0.94507311878E-01 -0.12202052323E+00  0.38770971369E-01  0.95140308403E+00  0.93800000000E+00 0. -1.
         22    1    1    2    0    0  0.25527931067E-02  0.26728879003E+00  0.20393653052E+01  0.20568083679E+01  0.00000000000E+00 0.  1.
</event>
<event>
 5    1  0.1537976E+002  0.1599368E+01  0.7818608E-02  0.3354050E+00
         11   -1    0    0    0    0  0.00000000000E+00  0.00000000000E+00  0.39999999674E+01  0.40000000000E+01  0.51100000000E-03 0.  1.
    9000002   -1    0    0    0    0 -0.00000000000E+00 -0.00000000000E+00  0.00000000000E+00  0.93800000000E+00  0.93800000000E+00 0.  1.
         11    1    1    2    0    0 -0.37407245444E+00  0.67019754413E-01  0.19433097975E+01  0.19801199658E+01  0.51100000000E-03 0.  1.
    9000002    1    1    2    0    0  0.66725164114E+00 -0.11888259673E+00  0.32671846910E+00  0.12024752731E+01  0.93800000000E+00 0.  1.
         22    1    1    2    0    0 -0.29317918670E+00  0.51862842322E-01  0.17299717007E+01  0.17554047611E+01  0.00000000000E+00 0.  1.
</event>
<event>
 5    1  0.1537976E+002  0.1573088E+01  0.7818608E-02  0.3383100E+00
         11   -1    0    0    0    0  0.00000000000E+00  0.00000000000E+00  0.39999999674E+01  0.40000000000E+01  0.51100000000E-03 0.  1.
    9000002   -1    0    0    0    0 -0.00000000000E+00 -0.00000000000E+00  0.00000000000E+00  0.93800000000E+00  0.93800000000E+00 0. -1.
         11    1    1    2    0    0  0.14042860464E+00 -0.23906750148E+00  0.29206485477E+01  0.29337794163E+01  0.51100000000E-03 0.  1.
    9000002    1    1    2    0    0 -0.67628863911E-01  0.49715005862E+00  0.19676945940E+00  0.10818013053E+01  0.93800000000E+00 0. -1.
         22    1    1    2    0    0 -0.72799740725E-01 -0.25808255714E+00  0.88258196022E+00  0.92241927835E+00  0.00000000000E+00 0.  1.
</event>
<event>
 5    1  0.1537976E+002  0.1584959E+01  0.7818608E-02  0.3369852E+00
         11   -1    0    0    0    0  0.00000000000E+00  0.00000000000E+00  0.39999999674E+01  0.40000000000E+01  0.51100000000E-03 0. -1.
    9000002   -1    0    0    0    0 -0.00000000000E+00 -0.00000000000E+00  0.00000000000E+00  0.93800000000E+00  0.93800000000E+00 0.  1.
         11    1    1    2    0    0  0.95559247148E-01 -0.32329095340E+00  0.12839412315E+01  0.13274614711E+01  0.51100000000E-03 0. -1.
    9000002    1    1    2    0    0 -0.49029519535E-02  0.63110343874E+00  0.29514030708E+00  0.11684465714E+01  0.93800000000E+00 0.  1.
         22    1    1    2    0    0 -0.90656295194E-01 -0.30781248534E+00  0.24209184288E+01  0.24420919575E+01  0.00000000000E+00 0. -1.
</event>
<event>
 5    1  0.1537976E+002  0.1585226E+01  0.7818608E-02  0.3369557E+00
         11   -1    0    0    0    0  0.00000000000E+00  0.00000000000E+00  0.39999999674E+01  0.40000000000E+01  0.51100000000E-03 0. -1.
    9000002   -1    0    0    0    0 -0.00000000000E+00 -0.00000000000E+00  0.00000000000E+00  0.93800000000E+00  0.93800000000E+00 0.  1.
         11    1    1    2    0    0 -0.33863136987E-01 -0.17331552704E-01  0.26884312262E+00  0.27152160221E+00  0.51100000000E-03 0. -1.
    9000002    1    1    2    0    0 -0.22291473475E+00 -0.53327250780E+00  0.24618517087E+00  0.11289471577E+01  0.93800000000E+00 0.  1.
         22    1    1    2    0    0  0.25677787174E+00  0.55060406050E+00  0.34849716739E+01  0.35375312401E+01  0.00000000000E+00 0. -1.
</event>
<event>
 5    1  0.1537976E+002  0.1590392E+01  0.7818608E-02  0.3363859E+00
         11   -1    0    0    0    0  0.00000000000E+00  0.00000000000E+00  0.39999999674E+01  0.40000000000E+01  0.51100000000E-03 0. -1.
    9000002   -1    0    0    0    0 -0.00000000000E+00 -0.00000000000E+00  0.00000000000E+00  0.93800000000E+00  0.93800000000E+00 0. -1.
         11    1    1    2    0    0  0.11099959835E+00 -0.26261028875E-01  0.78263807771E+00  0.79090655217E+00  0.51100000000E-03 0. -1.
    9000002    1    1    2    0    0 -0.23346242964E+00 -0.20261149472E+00  0.71140698122E-01  0.99018236844E+00  0.93800000000E+00 0. -1.
         22    1    1    2    0    0  0.12246283129E+00  0.22887252359E+00  0.31462211915E+01  0.31569110794E+01  0.00000000000E+00 0. -1.
</event>
<event>
 5    1  0.1537976E+002  0.1599670E+01  0.7818608E-02  0.3353722E+00
         11   -1    0    0    0    0  0.00000000000E+00  0.00000000000E+00  0.39999999674E+01  0.40000000000E+01  0.51100000000E-03 0. -1.
    9000002   -1    0    0    0    0 -0.00000000000E+00 -0.00000000000E+00  0.00000000000E+00  0.93800000000E+00  0.93800000000E+00 0.  1.
         11    1    1    2    0    0  0.34786454092E-01  0.33403692333E-01  0.54239418820E+00  0.54453431532E+00  0.51100000000E-03 0. -1.
    9000002    1    1    2    0    0 -0.24567853262E+00 -0.25633267126E+00  0.84580994319E-01  0.10065099723E+01  0.93800000000E+00 0.  1.
         22    1    1    2    0    0  0.21089207853E+00  0.22292897893E+00  0.33730247848E+01  0.33869557124E+01  0.00000000000E+00 0. -1.
</event>
<event>
 5    1  0.1537976E+002  0.1599572E+01  0.7818608E-02  0.3353828E+00
         11   -1    0    0    0    0  0.00000000000E+00  0.00000000000E+00  0.39999999674E+01  0.40000000000E+01  0.51100000000E-03 0. -1.
    9000002   -1    0    0    0    0 -0.00000000000E+00 -0.00000000000E+00  0.00000000000E+00  0.93800000000E+00  0.93800000000E+00 0. -1.
         11    1    1    2    0    0 -0.23097213854E+00  0.49267793174E-01  0.16795967887E+01  0.16961194174E+01  0.51100000000E-03 0. -1.
    9000002    1    1    2    0    0  0.50036110332E+00 -0.12540211662E+00  0.18274235110E+00  0.10859676291E+01  0.93800000000E+00 0. -1.
         22    1    1    2    0    0 -0.26938896478E+00  0.76134323441E-01  0.21376608275E+01  0.21559129535E+01  0.00000000000E+00 0. -1.
</event>
<event>
 5    1  0.1537976E+002  0.1538676E+01  0.7818608E-02  0.3422736E+00
         11   -1    0    0    0    0  0.00000000000E+00  0.00000000000E+00  0.39999999674E+01  0.40000000000E+01  0.51100000000E-03 0. -1.
    9000002   -1    0    0    0    0 -0.00000000000E+00 -0.00000000000E+00  0.00000000000E+00  0.93800000000E+00  0.93800000000E+00 0. -1.
         11    1    1    2    0    0 -0.63132398194E-01  0.46647693397E-02  0.22112402530E-01  0.67057283283E-01  0.51100000000E-03 0. -1.
    9000002    1    1    2    0    0  0.55726100696E-01  0.28126954263E+00  0.10381594838E+00  0.98632636842E+00  0.93800000000E+00 0. -1.
         22    1    1    2    0    0  0.74062974975E-02 -0.28593431197E+00  0.38740716165E+01  0.38846163483E+01  0.00000000000E+00 0. -1.
</event>
<event>
 5    1  0.1537976E+002  0.1599677E+01  0.7818608E-02  0.3353714E+00
         11   -1    0    0    0    0  0.00000000000E+00  0.00000000000E+00  0.39999999674E+01  0.40000000000E+01  0.51100000000E-03 0.  1.
    9000002   -1    0    0    0    0 -0.00000000000E+00 -0.00000000000E+00  0.00000000000E+00  0.93800000000E+00  0.93800000000E+00 0.  1.
         11    1    1    2    0    0 -0.42888237012E-02 -0.72618318464E-01  0.10531313045E+01  0.10556408574E+01  0.51100000000E-03 0.  1.
    9000002    1    1    2    0    0  0.16608009637E-01  0.27320462269E+00  0.49861438607E-01  0.97838987878E+00  0.93800000000E+00 0.  1.
         22    1    1    2    0    0 -0.12319185935E-01 -0.20058630423E+00  0.28970072242E+01  0.29039692638E+01  0.00000000000E+00 0.  1.
</event>
<event>
 5    1  0.1537976E+002  0.1599639E+01  0.7818608E-02  0.3353756E+00
         11   -1    0    0    0    0  0.00000000000E+00  0.00000000000E+00  0.39999999674E+01  0.40000000000E+01  0.51100000000E-03 0.  1.
    9000002   -1    0    0    0    0 -0.00000000000E+00 -0.00000000000E+00  0.00000000000E+00  0.93800000000E+00  0.93800000000E+00 0.  1.
         11    1    1    2    0    0 -0.25840333925E-01 -0.28719947973E-02  0.21884225266E+00  0.22038185924E+00  0.51100000000E-03 0.  1.
    9000002    1    1    2    0    0  0.42989455424E+00 -0.29370251192E-02  0.12519646747E+00  0.10393921826E+01  0.93800000000E+00 0.  1.
         22    1    1    2    0    0 -0.40405422032E+00  0.58090199165E-02  0.36559612472E+01  0.36782259581E+01  0.00000000000E+00 0.  1.
</event>
<event>
 5    1  0.1537976E+002  0.1599630E+01  0.7818608E-02  0.3353765E+00
         11   -1    0    0    0    0  0.00000000000E+00  0.00000000000E+00  0.39999999674E+01  0.40000000000E+01  0.51100000000E-03 0.  1.
    9000002   -1    0    0    0    0 -0.00000000000E+00 -0.00000000000E+00  0.00000000000E+00  0.93800000000E+00  0.93800000000E+00 0.  1.
         11    1    1    2    0    0  0.81083920079E-01  0.72874082325E-02  0.12230396803E+01  0.12257463152E+01  0.51100000000E-03 0.  1.
    9000002    1    1    2    0    0 -0.28528523434E+00 -0.16494531192E-01  0.54442583677E-01  0.98207317925E+00  0.93800000000E+00 0.  1.
         22    1    1    2    0    0  0.20420131426E+00  0.92071229596E-02  0.27225177034E+01  0.27301805056E+01  0.00000000000E+00 0.  1.
</event>
<event>
 5    1  0.1537976E+002  0.1599668E+01  0.7818608E-02  0.3353723E+00
         11   -1    0    0    0    0  0.00000000000E+00  0.00000000000E+00  0.39999999674E+01  0.40000000000E+01  0.51100000000E-03 0. -1.
    9000002   -1    0    0    0    0 -0.00000000000E+00 -0.00000000000E+00  0.00000000000E+00  0.93800000000E+00  0.93800000000E+00 0. -1.
         11    1    1    2    0    0  0.14625917452E-01  0.28229781788E-01  0.48543982485E+00  0.48648013599E+00  0.51100000000E-03 0. -1.
    9000002    1    1    2    0    0 -0.10126758348E+00 -0.22535779186E+00  0.40546652259E-01  0.97083947634E+00  0.93800000000E+00 0. -1.
         22    1    1    2    0    0  0.86641666031E-01  0.19712801007E+00  0.34740134903E+01  0.34806803877E+01  0.00000000000E+00 0. -1.
</event>
<event>
 5    1  0.1537976E+002  0.1554625E+01  0.7818608E-02  0.3404134E+00
         11   -1    0    0    0    0  0.00000000000E+00  0.00000000000E+00  0.39999999674E+01  0.40000000000E+01  0.51100000000E-03 0. -1.
    9000002   -1    0    0    0    0 -0.00000000000E+00 -0.00000000000E+00  0.00000000000E+00  0.93800000000E+00  0.93800000000E+00 0.  1.
         11    1    1    2    0    0  0.16490160580E+00  0.62602777514E-02  0.41448975693E+00  0.44613198764E+00  0.51100000000E-03 0. -1.
    9000002    1    1    2    0    0 -0.80517989184E-01  0.22875576885E+00  0.74189015519E-01  0.97167914374E+00  0.93800000000E+00 0.  1.
         22    1    1    2    0    0 -0.84383616619E-01 -0.23501604660E+00  0.35113211949E+01  0.35201888686E+01  0.00000000000E+00 0. -1.
</event>
<event>
 5    1  0.1537976E+002  0.1599674E+01  0.7818608E-02  0.3353717E+00
         11   -1    0    0    0    0  0.00000000000E+00  0.00000000000E+00  0.39999999674E+01  0.40000000000E+01  0.51100000000E-03 0.  1.
    9000002   -1    0    0    0    0 -0.00000000000E+00 -0.00000000000E+00  0.00000000000E+00  0.93800000000E+00  0.93800000000E+00 0.  1.
         11    1    1    2    0    0 -0.11337349923E+00 -0.22083910907E+00  0.11871997058E+01  0.12128754532E+01  0.51100000000E-03 0.  1.
    9000002    1    1    2    0    0  0.34713918354E+00  0.67068773586E+00  0.41410561664E+00  0.12734422301E+01  0.93800000000E+00 0.  1.
         22    1    1    2    0    0 -0.23376568430E+00 -0.44984862680E+00  0.23986946449E+01  0.24516823166E+01  0.00000000000E+00 0.  1.
</event>
<event>
 5    1  0.1537976E+002  0.1593072E+01  0.7818608E-02  0.3360917E+00
         11   -1    0    0    0    0  0.00000000000E+00  0.00000000000E+00  0.39999999674E+01  0.40000000000E+01  0.51100000000E-03 0. -1.
    9000002   -1    0    0    0    0 -0.00000000000E+00 -0.00000000000E+00  0.00000000000E+00  0.93800000000E+00  0.93800000000E+00 0. -1.
         11    1    1    2    0    0 -0.44319677036E-01 -0.11990172703E+00  0.15603706300E+01  0.15655981037E+01  0.51100000000E-03 0. -1.
    9000002    1    1    2    0    0 -0.12852715993E+00  0.28119856158E+00  0.69038657637E-01  0.99005161387E+00  0.93800000000E+00 0. -1.
         22    1    1    2    0    0  0.17284683696E+00 -0.16129683455E+00  0.23705906797E+01  0.23823502825E+01  0.00000000000E+00 0. -1.
</event>
<event>
 5    1  0.1537976E+002  0.1599676E+01  0.7818608E-02  0.3353715E+00
         11   -1    0    0    0    0  0.00000000000E+00  0.00000000000E+00  0.39999999674E+01  0.40000000000E+01  0.51100000000E-03 0.  1.
    9000002   -1    0    0    0    0 -0.00000000000E+00 -0.00000000000E+00  0.00000000000E+00  0.93800000000E+00  0.93800000000E+00 0. -1.
         11    1    1    2    0    0 -0.72417931394E-01 -0.38754457742E-02  0.75033751985E+00  0.75383421963E+00  0.51100000000E-03 0.  1.
    9000002    1    1    2    0    0  0.37337033925E+00  0.18174722835E-01  0.93950757897E-01  0.10141037795E+01  0.93800000000E+00 0. -1.
         22    1    1    2    0    0 -0.30095240785E+00 -0.14299277061E-01  0.31557116896E+01  0.31700620008E+01  0.00000000000E+00 0.  1.
</event>
<event>
 5    1  0.1537976E+002  0.1599316E+01  0.7818608E-02  0.3354107E+00
         11   -1    0    0    0    0  0.00000000000E+00  0.00000000000E+00  0.39999999674E+01  0.40000000000E+01  0.51100000000E-03 0.  1.
    9000002   -1    0    0    0    0 -0.00000000000E+00 -0.00000000000E+00  0.00000000000E+00  0.93800000000E+00  0.93800000000E+00 0.  1.
         11    1    1    2    0    0 -0.84335366392E-01  0.42192545854E-02  0.65111901831E+00  0.65657177312E+00  0.51100000000E-03 0.  1.
    9000002    1    1    2    0    0  0.40562863846E+00 -0.56069635601E-01  0.11354488585E+00  0.10297644573E+01  0.93800000000E+00 0.  1.
         22    1    1    2    0    0 -0.32129327207E+00  0.51850381016E-01  0.32353360632E+01  0.32516637696E+01  0.00000000000E+00 0.  1.
</event>
<event>
 5    1  0.1537976E+002  0.1596317E+01  0.7818608E-02  0.3357371E+00
         11   -1    0    0    0    0  0.00000000000E+00  0.00000000000E+00  0.39999999674E+01  0.40000000000E+01  0.51100000000E-03 0. -1.
    9000002   -1    0    0    0    0 -0.00000000000E+00 -0.00000000000E+00  0.00000000000E+00  0.93800000000E+00  0.93800000000E+00 0.  1.
         11    1    1    2    0    0  0.83916944523E-02  0.20432845039E-01  0.58684219885E+00  0.58725799199E+00  0.51100000000E-03 0. -1.
    9000002    1    1    2    0    0  0.27301379400E+00 -0.18679050030E+00  0.75901304187E-01  0.99751302282E+00  0.93800000000E+00 0.  1.
         22    1    1    2    0    0 -0.28140548846E+00  0.16635765526E+00  0.33372564643E+01  0.33532289852E+01  0.00000000000E+00 0. -1.
</event>
<event>
 5    1  0.1537976E+002  0.1550235E+01  0.7818608E-02  0.3409214E+00
         11   -1    0    0    0    0  0.00000000000E+00  0.00000000000E+00  0.39999999674E+01  0.40000000000E+01  0.51100000000E-03 0.  1.
    9000002   -1    0    0    0    0 -0.00000000000E+00 -0.00000000000E+00  0.00000000000E+00  0.93800000000E+00  0.93800000000E+00 0.  1.
         11    1    1    2    0    0 -0.60496958209E-01  0.97742267493E-01  0.19407001511E+00  0.22555900490E+00  0.51100000000E-03 0.  1.
    9000002    1    1    2    0    0  0.22499973631E+00  0.23543950001E+00  0.11126733769E+00  0.99914016031E+00  0.93800000000E+00 0.  1.
         22    1    1    2    0    0 -0.16450277810E+00 -0.33318176750E+00  0.36946626146E+01  0.37133008348E+01  0.00000000000E+00 0.  1.
</event>
<event>
 5    1  0.1537976E+002  0.1599649E+01  0.7818608E-02  0.3353745E+00
         11   -1    0    0    0    0  0.00000000000E+00  0.00000000000E+00  0.39999999674E+01  0.40000000000E+01  0.51100000000E-03 0. -1.
    9000002   -1    0    0    0    0 -0.00000000000E+00 -0.00000000000E+00  0.00000000000E+00  0.93800000000E+00  0.93800000000E+00 0.  1.
         11    1    1    2    0    0  0.11254909475E-01  0.98932590790E-01  0.11693394723E+01  0.11735712135E+01  0.51100000000E-03 0. -1.
    9000002    1    1    2    0    0 -0.19023128017E-01 -0.33803870706E+00  0.76789720782E-01  0.10001863367E+01  0.93800000000E+00 0.  1.
         22    1    1    2    0    0  0.77682185411E-02  0.23910611627E+00  0.27538707743E+01  0.27642424498E+01  0.00000000000E+00 0. -1.
</event>
<event>
 5    1  0.1537976E+002  0.1590536E+01  0.7818608E-02  0.3363700E+00
         11   -1    0    0    0    0  0.00000000000E+00  0.00000000000E+00  0.39999999674E+01  0.40000000000E+01  0.51100000000E-03 0. -1.
    9000002   -1    0    0    0    0 -0.00000000000E+00 -0.00000000000E+00  0.00000000000E+00  0.93800000000E+00  0.93800000000E+00 0. -1.
         11    1    1    2    0    0  0.95600148644E-01 -0.53160063053E-02  0.10196518715E+01  0.10241376121E+01  0.51100000000E-03 0. -1.
    9000002    1    1    2    0    0 -0.72306419249E-01 -0.23098162835E+00  0.45885806195E-01  0.96980938236E+00  0.93800000000E+00 0. -1.
         22    1    1    2    0    0 -0.23293729395E-01  0.23629763466E+00  0.29344622897E+01  0.29440530056E+01  0.00000000000E+00 0. -1.
</event>
<event>
 5    1  0.1537976E+002  0.1597888E+01  0.7818608E-02  0.3355659E+00
         11   -1    0    0    0    0  0.00000000000E+00  0.00000000000E+00  0.39999999674E+01  0.40000000000E+01  0.51100000000E-03 0.  1.
    9000002   -1    0    0    0    0 -0.00000000000E+00 -0.00000000000E+00  0.00000000000E+00  0.93800000000E+00  0.93800000000E+00 0. -1.
         11    1    1    2    0    0 -0.10200167500E+00  0.14184144239E+00  0.16850305491E+01  0.16940636201E+01  0.51100000000E-03 0.  1.
    9000002    1    1    2    0    0  0.12065986273E+00 -0.34427174872E+00  0.90837266682E-01  0.10105331506E+01  0.93800000000E+00 0. -1.
         22    1    1    2    0    0 -0.18658187726E-01  0.20243030633E+00  0.22241321516E+01  0.22334032293E+01  0.00000000000E+00 0.  1.
</event>
<event>
 5    1  0.1537976E+002  0.1596055E+01  0.7818608E-02  0.3357657E+00
         11   -1    0    0    0    0  0.00000000000E+00  0.00000000000E+00  0.39999999674E+01  0.40000000000E+01  0.51100000000E-03 0. -1.
    9000002   -1    0    0    0    0 -0.00000000000E+00 -0.00000000000E+00  0.00000000000E+00  0.93800000000E+00  0.93800000000E+00 0.  1.
         11    1    1    2    0    0 -0.14466116438E+00  0.22485646039E+00  0.19305586944E+01  0.19489854832E+01  0.51100000000E-03 0. -1.
    9000002    1    1    2    0    0  0.40697872064E+00 -0.37009750885E+00  0.21243952921E+00  0.11079613706E+01  0.93800000000E+00 0.  1.
         22    1    1    2    0    0 -0.26231755625E+00  0.14524104847E+00  0.18570017438E+01  0.18810531462E+01  0.00000000000E+00 0. -1.
</event>
<event>
 5    1  0.1537976E+002  0.1599369E+01  0.7818608E-02  0.3354048E+00
         11   -1    0    0    0    0  0.00000000000E+00  0.00000000000E+00  0.39999999674E+01  0.40000000000E+01  0.51100000000E-03 0.  1.
    9000002   -1    0    0    0    0 -0.00000000000E+00 -0.00000000000E+00  0.00000000000E+00  0.93800000000E+00  0.93800000000E+00 0.  1.
         11    1    1    2    0    0  0.72800323040E-01  0.17601540554E+00  0.16834443324E+01  0.16941860558E+01  0.51100000000E-03 0.  1.
    9000002    1    1    2    0    0 -0.13887052487E+00 -0.36865973220E+00  0.10485665636E+00  0.10227580062E+01  0.93800000000E+00 0.  1.
         22    1    1    2    0    0  0.66070201835E-01  0.19264432666E+00  0.22116989786E+01  0.22210559381E+01  0.00000000000E+00 0.  1.
</event>
<event>
 5    1  0.1537976E+002  0.1599072E+01  0.7818608E-02  0.3354371E+00
         11   -1    0    0    0    0  0.00000000000E+00  0.00000000000E+00  0.39999999674E+01  0.40000000000E+01  0.51100000000E-03 0. -1.
    9000002   -1    0    0    0    0 -0.00000000000E+00 -0.00000000000E+00  0.00000000000E+00  0.93800000000E+00  0.93800000000E+00 0.  1.
         11    1    1    2    0    0 -0.30521722026E-01 -0.51740249438E-01  0.65159694908E+00  0.65436035493E+00  0.51100000000E-03 0. -1.
    9000002    1    1    2    0    0  0.28928800803E+00  0.23143236347E+00  0.92735062500E-01  0.10127646727E+01  0.93800000000E+00 0.  1.
         22    1    1    2    0    0 -0.25876628600E+00 -0.17969211403E+00  0.32556679558E+01  0.32708749724E+01  0.00000000000E+00 0. -1.
</event>
<event>
 5    1  0.1537976E+002  0.1599472E+01  0.7818608E-02  0.3353937E+00
         11   -1    0    0    0    0  0.00000000000E+00  0.00000000000E+00  0.39999999674E+01  0.40000000000E+01  0.51100000000E-03 0. -1.
    9000002   -1    0    0    0    0 -0.00000000000E+00 -0.00000000000E+00  0.00000000000E+00  0.93800000000E+00  0.93800000000E+00 0.  1.
         11    1    1    2    0    0  0.85230358670E-01  0.29829731418E-01  0.10157665723E+01  0.10197725322E+01  0.51100000000E-03 0. -1.
    9000002    1    1    2    0    0 -0.36146922734E+00 -0.16112129002E+00  0.10575645112E+00  0.10235470186E+01  0.93800000000E+00 0.  1.
         22    1    1    2    0    0  0.27623886867E+00  0.13129155860E+00  0.28784769439E+01  0.28946804491E+01  0.00000000000E+00 0. -1.
</event>
<event>
 5    1  0.1537976E+002  0.1599675E+01  0.7818608E-02  0.3353717E+00
         11   -1    0    0    0    0  0.00000000000E+00  0.00000000000E+00  0.39999999674E+01  0.40000000000E+01  0.51100000000E-03 0. -1.
    9000002   -1    0    0    0    0 -0.00000000000E+00 -0.00000000000E+00  0.00000000000E+00  0.93800000000E+00  0.93800000000E+00 0. -1.
         11    1    1    2    0    0  0.32721636023E-01  0.67750855666E-02  0.51312963604E+00  0.51421677506E+00  0.51100000000E-03 0.  1.
    9000002    1    1    2    0    0 -0.25269328493E+00 -0.42960700554E-01  0.43666821109E-01  0.97337059197E+00  0.93800000000E+00 0. -1.
         22    1    1    2    0    0  0.21997164891E+00  0.36185614987E-01  0.34432035102E+01  0.34504126330E+01  0.00000000000E+00 0. -1.
</event>
<event>
 5    1  0.1537976E+002  0.1594945E+01  0.7818608E-02  0.3358868E+00
         11   -1    0    0    0    0  0.00000000000E+00  0.00000000000E+00  0.39999999674E+01  0.40000000000E+01  0.51100000000E-03 0. -1.
    9000002   -1    0    0    0    0 -0.00000000000E+00 -0.00000000000E+00  0.00000000000E+00  0.93800000000E+00  0.93800000000E+00 0. -1.
         11    1    1    2    0    0  0.24544739348E+00  0.27293265061E+00  0.12238780067E+01  0.12777379587E+01  0.51100000000E-03 0. -1.
    9000002    1    1    2    0    0 -0.56437557359E+00 -0.59229181757E+00  0.50248557202E+00  0.13422612023E+01  0.93800000000E+00 0. -1.
         22    1    1    2    0    0  0.31892818011E+00  0.31935916697E+00  0.22736363886E+01  0.23180008389E+01  0.00000000000E+00 0. -1.
</event>
<event>
 5    1  0.1537976E+002  0.1599675E+01  0.7818608E-02  0.3353716E+00
         11   -1    0    0    0    0  0.00000000000E+00  0.00000000000E+00  0.39999999674E+01  0.40000000000E+01  0.51100000000E-03 0. -1.
    9000002   -1    0    0    0    0 -0.00000000000E+00 -0.00000000000E+00  0.00000000000E+00  0.93800000000E+00  0.93800000000E+00 0.  1.
         11    1    1    2    0    0 -0.17893171101E-01 -0.31805181385E+00  0.21925683481E+01  0.22155887128E+01  0.51100000000E-03 0. -1.
    9000002    1    1    2    0    0  0.31180568384E-01  0.54743082037E+00  0.20759649494E+00  0.11061613967E+01  0.93800000000E+00 0.  1.
         22    1    1    2    0    0 -0.13287397284E-01 -0.22937900652E+00  0.15998351243E+01  0.16162498905E+01  0.00000000000E+00 0. -1.
</event>
<event>
 5    1  0.1537976E+002  0.1480614E+01  0.7818608E-02  0.3494090E+00
         11   -1    0    0    0    0  0.00000000000E+00  0.00000000000E+00  0.39999999674E+01  0.40000000000E+01  0.51100000000E-03 0.  1.
    9000002   -1    0    0    0    0 -0.00000000000E+00 -0.00000000000E+00  0.00000000000E+00  0.93800000000E+00  0.93800000000E+00 0. -1.
         11    1    1    2    0    0  0.21215174757E+00  0.18620652930E+00  0.29217283601E+01  0.29353327080E+01  0.51100000000E-03 0.  1.
    9000002    1    1    2    0    0  0.13319584973E+00 -0.43929801553E+00  0.25541642409E+00  0.10750839179E+01  0.93800000000E+00 0. -1.
         22    1    1    2    0    0 -0.34534759731E+00  0.25309148623E+00  0.82285518317E+00  0.92758337406E+00  0.00000000000E+00 0. -1.
</event>
<event>
 5    1  0.1537976E+002  0.1597137E+01  0.7818608E-02  0.3356476E+00
         11   -1    0    0    0    0  0.00000000000E+00  0.00000000000E+00  0.39999999674E+01  0.40000000000E+01  0.51100000000E-03 0. -1.
    9000002   -1    0    0    0    0 -0.00000000000E+00 -0.00000000000E+00  0.00000000000E+00  0.93800000000E+00  0.93800000000E+00 0. -1.
         11    1    1    2    0    0  0.14290365343E+00  0.15046845919E+00  0.19966779773E+01  0.20074325437E+01  0.51100000000E-03 0. -1.
    9000002    1    1    2    0    0 -0.38770218383E+00 -0.25592001374E+00  0.14911691513E+00  0.10573021759E+01  0.93800000000E+00 0. -1.
         22    1    1    2    0    0  0.24479853040E+00  0.10545155455E+00  0.18542050750E+01  0.18732652804E+01  0.00000000000E+00 0. -1.
</event>
<event>
 5    1  0.1537976E+002  0.1599620E+01  0.7818608E-02  0.3353775E+00
         11   -1    0    0    0    0  0.00000000000E+00  0.00000000000E+00  0.39999999674E+01  0.40000000000E+01  0.51100000000E-03 0. -1.
    9000002   -1    0    0    0    0 -0.00000000000E+00 -0.00000000000E+00  0.00000000000E+00  0.93800000000E+00  0.93800000000E+00 0.  1.
         11    1    1    2    0    0  0.47047734845E-02 -0.11540067649E-01  0.14773727015E+00  0.14826284149E+00  0.51100000000E-03 0. -1.
    9000002    1    1    2    0    0 -0.18020809284E+00  0.37404359687E+00  0.11655569346E+00  0.10323820992E+01  0.93800000000E+00 0.  1.
         22    1    1    2    0    0  0.17550331936E+00 -0.36250352922E+00  0.37357070037E+01  0.37573550593E+01  0.00000000000E+00 0. -1.
</event>
<event>
 5    1  0.1537976E+002  0.1549686E+01  0.7818608E-02  0.3409851E+00
         11   -1    0    0    0    0  0.00000000000E+00  0.00000000000E+00  0.39999999674E+01  0.40000000000E+01  0.51100000000E-03 0. -1.
    9000002   -1    0    0    0    0 -0.00000000000E+00 -0.00000000000E+00  0.00000000000E+00  0.93800000000E+00  0.93800000000E+00 0. -1.
         11    1    1    2    0    0  0.16974554608E+00 -0.13672196204E+00  0.67034141069E+00  0.70488602861E+00  0.51100000000E-03 0. -1.
    9000002    1    1    2    0    0  0.26458538374E-01  0.17950026796E+00  0.59972981299E-01  0.95726754825E+00  0.93800000000E+00 0. -1.
         22    1    1    2    0    0 -0.19620408446E+00 -0.42778305915E-01  0.32696855754E+01  0.32758464231E+01  0.00000000000E+00 0. -1.
</event>
<event>
 5    1  0.1537976E+002  0.1551527E+01  0.7818608E-02  0.3407715E+00
         11   -1    0    0    0    0  0.00000000000E+00  0.00000000000E+00  0.39999999674E+01  0.40000000000E+01  0.51100000000E-03 0. -1.
    9000002   -1    0    0    0    0 -0.00000000000E+00 -0.00000000000E+00  0.00000000000E+00  0.93800000000E+00  0.93800000000E+00 0. -1.
         11    1    1    2    0    0 -0.19376871694E+00 -0.40110622558E-01  0.16707811932E+01  0.16824580929E+01  0.51100000000E-03 0. -1.
    9000002    1    1    2    0    0 -0.13647397569E+00 -0.69262907709E-01  0.51915350862E-01  0.95182020365E+00  0.93800000000E+00 0. -1.
         22    1    1    2    0    0  0.33024269263E+00  0.10937353027E+00  0.22773034233E+01  0.23037217034E+01  0.00000000000E+00 0. -1.
</event>
<event>
 5    1  0.1537976E+002  0.1595559E+01  0.7818608E-02  0.3358198E+00
         11   -1    0    0    0    0  0.00000000000E+00  0.00000000000E+00  0.39999999674E+01  0.40000000000E+01  0.51100000000E-03 0.  1.
    9000002   -1    0    0    0    0 -0.00000000000E+00 -0.00000000000E+00  0.00000000000E+00  0.93800000000E+00  0.93800000000E+00 0. -1.
         11    1    1    2    0    0  0.13453237189E+00  0.25685121886E+00  0.26265041288E+01  0.26424601619E+01  0.51100000000E-03 0.  1.
    9000002    1    1    2    0    0 -0.20355326389E+00 -0.47720690137E+00  0.18863455901E+00  0.10883875021E+01  0.93800000000E+00 0. -1.
         22    1    1    2    0    0  0.69020891996E-01  0.22035568251E+00  0.11848612796E+01  0.12071523360E+01  0.00000000000E+00 0. -1.
</event>
<event>
 5    1  0.1537976E+002  0.1599661E+01  0.7818608E-02  0.3353732E+00
         11   -1    0    0    0    0  0.00000000000E+00  0.00000000000E+00  0.39999999674E+01  0.40000000000E+01  0.51100000000E-03 0. -1.
    9000002   -1    0    0    0    0 -0.00000000000E+00 -0.00000000000E+00  0.00000000000E+00  0.93800000000E+00  0.93800000000E+00 0.  1.
         11    1    1    2    0    0  0.41953624057E-01 -0.11370935706E+00  0.12255960974E+01  0.12315745936E+01  0.51100000000E-03 0. -1.
    9000002    1    1    2    0    0 -0.14012813863E+00  0.37381708662E+00  0.10750453375E+00  0.10250738189E+01  0.93800000000E+00 0.  1.
         22    1    1    2    0    0  0.98174514577E-01 -0.26010772956E+00  0.26668993362E+01  0.26813515875E+01  0.00000000000E+00 0. -1.
</event>
<event>
 5    1  0.1537976E+002  0.1599676E+01  0.7818608E-02  0.3353715E+00
         11   -1    0    0    0    0  0.00000000000E+00  0.00000000000E+00  0.39999999674E+01  0.40000000000E+01  0.51100000000E-03 0. -1.
    9000002   -1    0    0    0    0 -0.00000000000E+00 -0.00000000000E+00  0.00000000000E+00  0.93800000000E+00  0.93800000000E+00 0. -1.
         11    1    1    2    0    0 -0.18288313792E-01 -0.98936692989E-01  0.12675286874E+01  0.12715156964E+01  0.51100000000E-03 0. -1.
    9000002    1    1    2    0    0  0.60105488177E-01  0.30678235315E+00  0.65274674385E-01  0.99087479786E+00  0.93800000000E+00 0. -1.
         22    1    1    2    0    0 -0.41817174384E-01 -0.20784566017E+00  0.26671966056E+01  0.26756095057E+01  0.00000000000E+00 0. -1.
</event>
<event>
 5    1  0.1537976E+002  0.1599677E+01  0.7818608E-02  0.3353714E+00
         11   -1    0    0    0    0  0.00000000000E+00  0.00000000000E+00  0.39999999674E+01  0.40000000000E+01  0.51100000000E-03 0. -1.
    9000002   -1    0    0    0    0 -0.00000000000E+00 -0.00000000000E+00  0.00000000000E+00  0.93800000000E+00  0.93800000000E+00 0.  1.
         11    1    1    2    0    0 -0.21581117253E+00  0.16032680655E+00  0.20320222417E+01  0.20497301771E+01  0.51100000000E-03 0. -1.
    9000002    1    1    2    0    0  0.40638277046E+00 -0.30142017835E+00  0.17542402018E+00  0.10801012299E+01  0.93800000000E+00 0.  1.
         22    1    1    2    0    0 -0.19057159793E+00  0.14109337180E+00  0.17925537055E+01  0.18081685930E+01  0.00000000000E+00 0. -1.
</event>
<event>
 5    1  0.1537976E+002  0.1599676E+01  0.7818608E-02  0.3353715E+00
         11   -1    0    0    0    0  0.00000000000E+00  0.00000000000E+00  0.39999999674E+01  0.40000000000E+01  0.51100000000E-03 0. -1.
    9000002   -1    0    0    0    0 -0.00000000000E+00 -0.00000000000E+00  0.00000000000E+00  0.93800000000E+00  0.93800000000E+00 0. -1.
         11    1    1    2    0    0  0.34623790909E-01 -0.46921181458E-02  0.42869918382E+00  0.43012099949E+00  0.51100000000E-03 0.  1.
    9000002    1    1    2    0    0 -0.31640561705E+00  0.46491366123E-01  0.68359063564E-01  0.99337350639E+00  0.93800000000E+00 0. -1.
         22    1    1    2    0    0  0.28178182615E+00 -0.41799247977E-01  0.35029417200E+01  0.35145054941E+01  0.00000000000E+00 0. -1.
</event>
<event>
 5    1  0.1537976E+002  0.1599607E+01  0.7818608E-02  0.3353791E+00
         11   -1    0    0    0    0  0.00000000000E+00  0.00000000000E+00  0.39999999674E+01  0.40000000000E+01  0.51100000000E-03 0. -1.
    9000002   -1    0    0    0    0 -0.00000000000E+00 -0.00000000000E+00  0.00000000000E+00  0.93800000000E+00  0.93800000000E+00 0.  1.
         11    1    1    2    0    0 -0.19110411057E+00 -0.10159450333E+00  0.18182614360E+01  0.18310972489E+01  0.51100000000E-03 0. -1.
    9000002    1    1    2    0    0  0.38629042239E+00  0.22407519800E+00  0.13544232597E+00  0.10476729492E+01  0.93800000000E+00 0.  1.
         22    1    1    2    0    0 -0.19518631183E+00 -0.12248069467E+00  0.20462962054E+01  0.20592298019E+01  0.00000000000E+00 0. -1.
</event>
<event>
 5    1  0.1537976E+002  0.1599663E+01  0.7818608E-02  0.3353729E+00
         11   -1    0    0    0    0  0.00000000000E+00  0.00000000000E+00  0.39999999674E+01  0.40000000000E+01  0.51100000000E-03 0.  1.
    9000002   -1    0    0    0    0 -0.00000000000E+00 -0.00000000000E+00  0.00000000000E+00  0.93800000000E+00  0.93800000000E+00 0.  1.
         11    1    1    2    0    0  0.12922615816E-01  0.36555727732E-01  0.43797244249E+00  0.43968561124E+00  0.51100000000E-03 0.  1.
    9000002    1    1    2    0    0 -0.10224058897E+00 -0.30733920078E+00  0.70160445797E-01  0.99482511555E+00  0.93800000000E+00 0.  1.
         22    1    1    2    0    0  0.89317973149E-01  0.27078347305E+00  0.34918670791E+01  0.35034892732E+01  0.00000000000E+00 0.  1.
</event>
<event>
 5    1  0.1537976E+002  0.1599676E+01  0.7818608E-02  0.3353716E+00
         11   -1    0    0    0    0  0.00000000000E+00  0.00000000000E+00  0.39999999674E+01  0.40000000000E+01  0.51100000000E-03 0.  1.
    9000002   -1    0    0    0    0 -0.00000000000E+00 -0.00000000000E+00  0.00000000000E+00  0.93800000000E+00  0.93800000000E+00 0.  1.
         11    1    1    2    0    0  0.15265879770E-01  0.22004609473E+00  0.14492675768E+01  0.14659570598E+01  0.51100000000E-03 0.  1.
    9000002    1    1    2    0    0 -0.39258887861E-01 -0.57585663388E+00  0.23134059084E+00  0.11253953048E+01  0.93800000000E+00 0.  1.
         22    1    1    2    0    0  0.23993008091E-01  0.35581053915E+00  0.23193917997E+01  0.23466476354E+01  0.00000000000E+00 0.  1.
</event>
<event>
 5    1  0.1537976E+002  0.1536566E+01  0.7818608E-02  0.3425227E+00
         11   -1    0    0    0    0  0.00000000000E+00  0.00000000000E+00  0.39999999674E+01  0.40000000000E+01  0.51100000000E-03 0.  1.
    9000002   -1    0    0    0    0 -0.00000000000E+00 -0.00000000000E+00  0.00000000000E+00  0.93800000000E+00  0.93800000000E+00 0. -1.
         11    1    1    2    0    0  0.11291346303E+00 -0.27496206790E+00  0.15420023288E+01  0.15703900891E+01  0.51100000000E-03 0.  1.
    9000002    1    1    2    0    0 -0.48089543443E-01 -0.12040843510E-01  0.48868324307E-01  0.94057944865E+00  0.93800000000E+00 0. -1.
         22    1    1    2    0    0 -0.64823919590E-01  0.28700291141E+00  0.24091293143E+01  0.24270304623E+01  0.00000000000E+00 0.  1.
</event>
<event>
 5    1  0.1537976E+002  0.1599478E+01  0.7818608E-02  0.3353930E+00
         11   -1    0    0    0    0  0.00000000000E+00  0.00000000000E+00  0.39999999674E+01  0.40000000000E+01  0.51100000000E-03 0. -1.
    9000002   -1    0    0    0    0 -0.00000000000E+00 -0.00000000000E+00  0.00000000000E+00  0.93800000000E+00  0.93800000000E+00 0.  1.
         11    1    1    2    0    0  0.17131136067E-01  0.83116815716E-02  0.22687171232E+00  0.22766992521E+00  0.51100000000E-03 0. -1.
    9000002    1    1    2    0    0 -0.23399868875E+00 -0.23976323707E-01  0.36866137544E-01  0.96774653837E+00  0.93800000000E+00 0.  1.
         22    1    1    2    0    0  0.21686755268E+00  0.15664642136E-01  0.37362621175E+01  0.37425835364E+01  0.00000000000E+00 0. -1.
</event>
<event>
 5    1  0.1537976E+002  0.1526609E+01  0.7818608E-02  0.3437085E+00
         11   -1    0    0    0    0  0.00000000000E+00  0.00000000000E+00  0.39999999674E+01  0.40000000000E+01  0.51100000000E-03 0. -1.
    9000002   -1    0    0    0    0 -0.00000000000E+00 -0.00000000000E+00  0.00000000000E+00  0.93800000000E+00  0.93800000000E+00 0. -1.
         11    1    1    2    0    0  0.14795998070E+00 -0.33292275863E+00  0.22959475987E+01  0.23246731719E+01  0.51100000000E-03 0. -1.
    9000002    1    1    2    0    0 -0.42016072435E-01  0.63257174636E-01  0.58958065432E-01  0.94291403318E+00  0.93800000000E+00 0. -1.
         22    1    1    2    0    0 -0.10594390827E+00  0.26966558399E+00  0.16450943032E+01  0.16704127949E+01  0.00000000000E+00 0. -1.
</event>
<event>
 5    1  0.1537976E+002  0.1596113E+01  0.7818608E-02  0.3357593E+00
         11   -1    0    0    0    0  0.00000000000E+00  0.00000000000E+00  0.39999999674E+01  0.40000000000E+01  0.51100000000E-03 0.  1.
    9000002   -1    0    0    0    0 -0.00000000000E+00 -0.00000000000E+00  0.00000000000E+00  0.93800000000E+00  0.93800000000E+00 0. -1.
         11    1    1    2    0    0  0.25267662918E+00 -0.13080643159E+00  0.20667239835E+01  0.20862176508E+01  0.51100000000E-03 0.  1.
    9000002    1    1    2    0    0 -0.46385750457E+00  0.11008285301E+00  0.15815099059E+00  0.10640196215E+01  0.93800000000E+00 0. -1.
         22    1    1    2    0    0  0.21118087538E+00  0.20723578581E-01  0.17751249933E+01  0.17877627277E+01  0.00000000000E+00 0.  1.
</event>
<event>
 5    1  0.1537976E+002  0.1599483E+01  0.7818608E-02  0.3353924E+00
         11   -1    0    0    0    0  0.00000000000E+00  0.00000000000E+00  0.39999999674E+01  0.40000000000E+01  0.51100000000E-03 0. -1.
    9000002   -1    0    0    0    0 -0.00000000000E+00 -0.00000000000E+00  0.00000000000E+00  0.93800000000E+00  0.93800000000E+00 0.  1.
         11    1    1    2    0    0 -0.21761987305E-02 -0.12178668884E-01  0.14891773241E+00  0.14943161634E+00  0.51100000000E-03 0. -1.
    9000002    1    1    2    0    0 -0.71806724795E-01  0.21570470291E+00  0.34423593584E-01  0.96577104346E+00  0.93800000000E+00 0.  1.
         22    1    1    2    0    0  0.73982923525E-01 -0.20352603403E+00  0.38166586414E+01  0.38227973402E+01  0.00000000000E+00 0. -1.
</event>
<event>
 5    1  0.1537976E+002  0.1599677E+01  0.7818608E-02  0.3353715E+00
         11   -1    0    0    0    0  0.00000000000E+00  0.00000000000E+00  0.39999999674E+01  0.40000000000E+01  0.51100000000E-03 0.  1.
    9000002   -1    0    0    0    0 -0.00000000000E+00 -0.00000000000E+00  0.00000000000E+00  0.93800000000E+00  0.93800000000E+00 0.  1.
         11    1    1    2    0    0 -0.43236880390E-01  0.15957472885E+00  0.14124457543E+01  0.14220888832E+01  0.51100000000E-03 0.  1.
    9000002    1    1    2    0    0  0.12012367634E+00 -0.43697278000E+00  0.13955355832E+00  0.10510442920E+01  0.93800000000E+00 0.  1.
         22    1    1    2    0    0 -0.76886795951E-01  0.27739805115E+00  0.24480006548E+01  0.24648668248E+01  0.00000000000E+00 0.  1.
</event>
<event>
 5    1  0.1537976E+002  0.1591627E+01  0.7818608E-02  0.3362502E+00
         11   -1    0    0    0    0  0.00000000000E+00  0.00000000000E+00  0.39999999674E+01  0.40000000000E+01  0.51100000000E-03 0. -1.
    9000002   -1    0    0    0    0 -0.00000000000E+00 -0.00000000000E+00  0.00000000000E+00  0.93800000000E+00  0.93800000000E+00 0.  1.
         11    1    1    2    0    0 -0.29808925817E-01 -0.17247145637E-01  0.74790655865E-01  0.82340387519E-01  0.51100000000E-03 0. -1.
    9000002    1    1    2    0    0  0.37628889042E+00 -0.17100025772E+00  0.12222505796E+00  0.10322874512E+01  0.93800000000E+00 0.  1.
         22    1    1    2    0    0 -0.34647996460E+00  0.18824740335E+00  0.38029842535E+01  0.38233721612E+01  0.00000000000E+00 0. -1.
</event>
<event>
 5    1  0.1537976E+002  0.1599676E+01  0.7818608E-02  0.3353715E+00
         11   -1    0    0    0    0  0.00000000000E+00  0.00000000000E+00  0.39999999674E+01  0.40000000000E+01  0.51100000000E-03 0.  1.
    9000002   -1    0    0    0    0 -0.00000000000E+00 -0.00000000000E+00  0.00000000000E+00  0.93800000000E+00  0.93800000000E+00 0. -1.
         11    1    1    2    0    0  0.13200774153E-02  0.36804286691E-01  0.55192255780E+00  0.55315013247E+00  0.51100000000E-03 0. -1.
    9000002    1    1    2    0    0 -0.14965841399E-01 -0.26565872339E+00  0.47091596054E-01  0.97614555889E+00  0.93800000000E+00 0. -1.
         22    1    1    2    0    0  0.13645763984E-01  0.22885443670E+00  0.34009858135E+01  0.34087043086E+01  0.00000000000E+00 0.  1.
</event>
<event>
 5    1  0.1537976E+002  0.1588240E+01  0.7818608E-02  0.3366227E+00
         11   -1    0    0    0    0  0.00000000000E+00  0.00000000000E+00  0.39999999674E+01  0.40000000000E+01  0.51100000000E-03 0. -1.
    9000002   -1    0    0    0    0 -0.00000000000E+00 -0.00000000000E+00  0.00000000000E+00  0.93800000000E+00  0.93800000000E+00 0.  1.
         11    1    1    2    0    0 -0.67061605343E-01  0.98211878846E-01  0.49110669586E+00  0.50530078161E+00  0.51100000000E-03 0. -1.
    9000002    1    1    2    0    0  0.42673288889E+00 -0.10079219328E+00  0.14021707456E+00  0.10448755202E+01  0.93800000000E+00 0.  1.
         22    1    1    2    0    0 -0.35967128355E+00  0.25803144330E-02  0.33686761969E+01  0.33878236982E+01  0.00000000000E+00 0. -1.
</event>
<event>
 5    1  0.1537976E+002  0.1599079E+01  0.7818608E-02  0.3354363E+00
         11   -1    0    0    0    0  0.00000000000E+00  0.00000000000E+00  0.39999999674E+01  0.40000000000E+01  0.51100000000E-03 0.  1.
    9000002   -1    0    0    0    0 -0.00000000000E+00 -0.00000000000E+00  0.00000000000E+00  0.93800000000E+00  0.93800000000E+00 0.  1.
         11    1    1    2    0    0  0.11401950718E-02 -0.21551123482E-02  0.12573748462E+00  0.12576215930E+00  0.51100000000E-03 0.  1.
    9000002    1    1    2    0    0 -0.22688700690E+00  0.32592197595E+00  0.10683099987E+00  0.10241873417E+01  0.93800000000E+00 0.  1.
         22    1    1    2    0    0  0.22574681183E+00 -0.32376686361E+00  0.37674314829E+01  0.37880504990E+01  0.00000000000E+00 0.  1.
</event>
<event>
 5    1  0.1537976E+002  0.1599674E+01  0.7818608E-02  0.3353717E+00
         11   -1    0    0    0    0  0.00000000000E+00  0.00000000000E+00  0.39999999674E+01  0.40000000000E+01  0.51100000000E-03 0.  1.
    9000002   -1    0    0    0    0 -0.00000000000E+00 -0.00000000000E+00  0.00000000000E+00  0.93800000000E+00  0.93800000000E+00 0.  1.
         11    1    1    2    0    0 -0.14846536793E-02  0.73800994882E-01  0.96050091457E+00  0.96333330632E+00  0.51100000000E-03 0.  1.
    9000002    1    1    2    0    0  0.12605394643E-01 -0.30614726365E+00  0.62672115033E-01  0.98876530937E+00  0.93800000000E+00 0.  1.
         22    1    1    2    0    0 -0.11120740964E-01  0.23234626877E+00  0.29768269378E+01  0.29859013843E+01  0.00000000000E+00 0.  1.
</event>
<event>
 5    1  0.1537976E+002  0.1555082E+01  0.7818608E-02  0.3403607E+00
         11   -1    0    0    0    0  0.00000000000E+00  0.00000000000E+00  0.39999999674E+01  0.40000000000E+01  0.51100000000E-03 0. -1.
    9000002   -1    0    0    0    0 -0.00000000000E+00 -0.00000000000E+00  0.00000000000E+00  0.93800000000E+00  0.93800000000E+00 0.  1.
         11    1    1    2    0    0 -0.44283641005E-01 -0.18814535817E-01  0.15140116712E-01  0.50443154875E-01  0.51100000000E-03 0. -1.
    9000002    1    1    2    0    0  0.28645563308E+00 -0.93419475175E-01  0.96358620518E-01  0.98990555702E+00  0.93800000000E+00 0.  1.
         22    1    1    2    0    0 -0.24217199208E+00  0.11223401099E+00  0.38885012301E+01  0.38976512881E+01  0.00000000000E+00 0. -1.
</event>
<event>
 5    1  0.1537976E+002  0.1599586E+01  0.7818608E-02  0.3353813E+00
         11   -1    0    0    0    0  0.00000000000E+00  0.00000000000E+00  0.39999999674E+01  0.40000000000E+01  0.51100000000E-03 0.  1.
    9000002   -1    0    0    0    0 -0.00000000000E+00 -0.00000000000E+00  0.00000000000E+00  0.93800000000E+00  0.93800000000E+00 0. -1.
         11    1    1    2    0    0 -0.65171038730E-01 -0.65824364048E-01  0.81022500415E+00  0.81550286919E+00  0.51100000000E-03 0.  1.
    9000002    1    1    2    0    0  0.30583025547E+00  0.27141358488E+00  0.11298486328E+00  0.10294693092E+01  0.93800000000E+00 0. -1.
         22    1    1    2    0    0 -0.24065921674E+00 -0.20558922083E+00  0.30767900999E+01  0.30930278216E+01  0.00000000000E+00 0.  1.
</event>
<event>
 5    1  0.1537976E+002  0.1549652E+01  0.7818608E-02  0.3409891E+00
         11   -1    0    0    0    0  0.00000000000E+00  0.00000000000E+00  0.39999999674E+01  0.40000000000E+01  0.51100000000E-03 0. -1.
    9000002   -1    0    0    0    0 -0.00000000000E+00 -0.00000000000E+00  0.00000000000E+00  0.93800000000E+00  0.93800000000E+00 0. -1.
         11    1    1    2    0    0 -0.49933474295E-01 -0.28942042695E+00  0.21759657856E+01  0.21956969045E+01  0.51100000000E-03 0. -1.
    9000002    1    1    2    0    0  0.54377664142E-01  0.40722673962E-01  0.40311095438E-01  0.94132048259E+00  0.93800000000E+00 0. -1.
         22    1    1    2    0    0 -0.44441898470E-02  0.24869775299E+00  0.17837230863E+01  0.18009826129E+01  0.00000000000E+00 0. -1.
</event>
<event>
 5    1  0.1537976E+002  0.1599677E+01  0.7818608E-02  0.3353714E+00
         11   -1    0    0    0    0  0.00000000000E+00  0.00000000000E+00  0.39999999674E+01  0.40000000000E+01  0.51100000000E-03 0.  1.
    9000002   -1    0    0    0    0 -0.00000000000E+00 -0.00000000000E+00  0.00000000000E+00  0.93800000000E+00  0.93800000000E+00 0.  1.
         11    1    1    2    0    0 -0.43624476573E+00  0.20699963013E+00  0.18530399762E+01  0.19149192560E+01  0.51100000000E-03 0.  1.
    9000002    1    1    2    0    0  0.80066561644E+00 -0.37938799669E+00  0.59728592494E+00  0.14218281041E+01  0.93800000000E+00 0.  1.
         22    1    1    2    0    0 -0.36442085071E+00  0.17238836656E+00  0.15496740662E+01  0.16012526399E+01  0.00000000000E+00 0.  1.
</event>
<event>
 5    1  0.1537976E+002  0.1543669E+01  0.7818608E-02  0.3416868E+00
         11   -1    0    0    0    0  0.00000000000E+00  0.00000000000E+00  0.39999999674E+01  0.40000000000E+01  0.51100000000E-03 0. -1.
    9000002   -1    0    0    0    0 -0.00000000000E+00 -0.00000000000E+00  0.00000000000E+00  0.93800000000E+00  0.93800000000E+00 0.  1.
         11    1    1    2    0    0 -0.34026881021E-01  0.12277518319E+00  0.20634673854E+00  0.24250940573E+00  0.51100000000E-03 0. -1.
    9000002    1    1    2    0    0  0.34484235236E-01  0.83569743322E-01  0.47377921040E-01  0.94353682063E+00  0.93800000000E+00 0.  1.
         22    1    1    2    0    0 -0.45735421533E-03 -0.20634492651E+00  0.37462753078E+01  0.37519537736E+01  0.00000000000E+00 0. -1.
</event>
<event>
 5    1  0.1537976E+002  0.1599676E+01  0.7818608E-02  0.3353715E+00
         11   -1    0    0    0    0  0.00000000000E+00  0.00000000000E+00  0.39999999674E+01  0.40000000000E+01  0.51100000000E-03 0.  1.
    9000002   -1    0    0    0    0 -0.00000000000E+00 -0.00000000000E+00  0.00000000000E+00  0.93800000000E+00  0.93800000000E+00 0. -1.
         11    1    1    2    0    0  0.64556004338E-01 -0.18077814829E+00  0.11371313434E+01  0.11532199139E+01  0.51100000000E-03 0.  1.
    9000002    1    1    2    0    0 -0.20785951190E+00  0.59158138136E+00  0.27595892393E+00  0.11615383916E+01  0.93800000000E+00 0. -1.
         22    1    1    2    0    0  0.14330350756E+00 -0.41080323307E+00  0.25869097000E+01  0.26232416945E+01  0.00000000000E+00 0.  1.
</event>
<event>
 5    1  0.1537976E+002  0.1554848E+01  0.7818608E-02  0.3403876E+00
         11   -1    0    0    0    0  0.00000000000E+00  0.00000000000E+00  0.39999999674E+01  0.40000000000E+01  0.51100000000E-03 0.  1.
    9000002   -1    0    0    0    0 -0.00000000000E+00 -0.00000000000E+00  0.00000000000E+00  0.93800000000E+00  0.93800000000E+00 0. -1.
         11    1    1    2    0    0  0.17101431177E+00 -0.23009810486E+00  0.26510394517E+01  0.26664961032E+01  0.51100000000E-03 0.  1.
    9000002    1    1    2    0    0 -0.12572908319E+00  0.99599884962E-02  0.44140917001E-01  0.94747001234E+00  0.93800000000E+00 0. -1.
         22    1    1    2    0    0 -0.45285228575E-01  0.22013811636E+00  0.13048195987E+01  0.13240338845E+01  0.00000000000E+00 0.  1.
</event>
<event>
 5    1  0.1537976E+002  0.1502688E+01  0.7818608E-02  0.3466263E+00
         11   -1    0    0    0    0  0.00000000000E+00  0.00000000000E+00  0.39999999674E+01  0.40000000000E+01  0.51100000000E-03 0.  1.
    9000002   -1    0    0    0    0 -0.00000000000E+00 -0.00000000000E+00  0.00000000000E+00  0.93800000000E+00  0.93800000000E+00 0.  1.
         11    1    1    2    0    0  0.36267712547E+00 -0.87129060050E-01  0.12295621519E+01  0.12848928037E+01  0.51100000000E-03 0.  1.
    9000002    1    1    2    0    0 -0.56044172224E-01  0.10439330903E+00  0.84007552511E-01  0.94917868765E+00  0.93800000000E+00 0.  1.
         22    1    1    2    0    0 -0.30663295325E+00 -0.17264248976E-01  0.26864302629E+01  0.27039285087E+01  0.00000000000E+00 0.  1.
</event>
<event>
 5    1  0.1537976E+002  0.1595917E+01  0.7818608E-02  0.3357807E+00
         11   -1    0    0    0    0  0.00000000000E+00  0.00000000000E+00  0.39999999674E+01  0.40000000000E+01  0.51100000000E-03 0.  1.
    9000002   -1    0    0    0    0 -0.00000000000E+00 -0.00000000000E+00  0.00000000000E+00  0.93800000000E+00  0.93800000000E+00 0.  1.
         11    1    1    2    0    0  0.36440357760E-01  0.11097601411E-01  0.17070850731E+00  0.17490772430E+00  0.51100000000E-03 0.  1.
    9000002    1    1    2    0    0 -0.27443785841E+00  0.15346711552E+00  0.69019050407E-01  0.99170354592E+00  0.93800000000E+00 0.  1.
         22    1    1    2    0    0  0.23799750065E+00 -0.16456471693E+00  0.37602724096E+01  0.37713887298E+01  0.00000000000E+00 0.  1.
</event>
<event>
 5    1  0.1537976E+002  0.1586385E+01  0.7818608E-02  0.3368274E+00
         11   -1    0    0    0    0  0.00000000000E+00  0.00000000000E+00  0.39999999674E+01  0.40000000000E+01  0.51100000000E-03 0. -1.
    9000002   -1    0    0    0    0 -0.00000000000E+00 -0.00000000000E+00  0.00000000000E+00  0.93800000000E+00  0.93800000000E+00 0.  1.
         11    1    1    2    0    0 -0.26618978106E-01  0.25179985308E-01  0.22356920055E+01  0.22359923090E+01  0.51100000000E-03 0. -1.
    9000002    1    1    2    0    0 -0.33425767855E-01 -0.27359768060E+00  0.60921374417E-01  0.97955519837E+00  0.93800000000E+00 0.  1.
         22    1    1    2    0    0  0.60044745961E-01  0.24841769529E+00  0.17033865875E+01  0.17224524926E+01  0.00000000000E+00 0. -1.
</event>
<event>
 5    1  0.1537976E+002  0.1599604E+01  0.7818608E-02  0.3353793E+00
         11   -1    0    0    0    0  0.00000000000E+00  0.00000000000E+00  0.39999999674E+01  0.40000000000E+01  0.51100000000E-03 0.  1.
    9000002   -1    0    0    0    0 -0.00000000000E+00 -0.00000000000E+00  0.00000000000E+00  0.93800000000E+00  0.93800000000E+00 0. -1.
         11    1    1    2    0    0 -0.18581376222E+00  0.96657116794E-01  0.76878893189E+00  0.79680991169E+00  0.51100000000E-03 0.  1.
    9000002    1    1    2    0    0  0.78369390435E+00 -0.44400718954E+00  0.62130842894E+00  0.14412448383E+01  0.93800000000E+00 0. -1.
         22    1    1    2    0    0 -0.59788014214E+00  0.34735007275E+00  0.26099026065E+01  0.26999452500E+01  0.00000000000E+00 0.  1.
</event>
<event>
 5    1  0.1537976E+002  0.1599321E+01  0.7818608E-02  0.3354101E+00
         11   -1    0    0    0    0  0.00000000000E+00  0.00000000000E+00  0.39999999674E+01  0.40000000000E+01  0.51100000000E-03 0.  1.
    9000002   -1    0    0    0    0 -0.00000000000E+00 -0.00000000000E+00  0.00000000000E+00  0.93800000000E+00  0.93800000000E+00 0. -1.
         11    1    1    2    0    0 -0.12421129632E-02  0.69403982306E-03  0.60379695595E-02  0.62243660955E-02  0.51100000000E-03 0.  1.
    9000002    1    1    2    0    0 -0.26459006012E+00 -0.15161498827E+00  0.62346653818E-01  0.98829454609E+00  0.93800000000E+00 0. -1.
         22    1    1    2    0    0  0.26583217309E+00  0.15092094845E+00  0.39316153440E+01  0.39434810878E+01  0.00000000000E+00 0.  1.
</event>
<event>
 5    1  0.1537976E+002  0.1599672E+01  0.7818608E-02  0.3353720E+00
         11   -1    0    0    0    0  0.00000000000E+00  0.00000000000E+00  0.39999999674E+01  0.40000000000E+01  0.51100000000E-03 0. -1.
    9000002   -1    0    0    0    0 -0.00000000000E+00 -0.00000000000E+00  0.00000000000E+00  0.93800000000E+00  0.93800000000E+00 0.  1.
         11    1    1    2    0    0 -0.12810161350E+00 -0.98415544341E-01  0.17571115054E+01  0.17645216763E+01  0.51100000000E-03 0. -1.
    9000002    1    1    2    0    0  0.28492983913E+00  0.22533748081E+00  0.88618648210E-01  0.10097817875E+01  0.93800000000E+00 0.  1.
         22    1    1    2    0    0 -0.15682822562E+00 -0.12692193647E+00  0.21542698138E+01  0.21636965362E+01  0.00000000000E+00 0.  1.
</event>
<event>
 5    1  0.1537976E+002  0.1599648E+01  0.7818608E-02  0.3353746E+00
         11   -1    0    0    0    0  0.00000000000E+00  0.00000000000E+00  0.39999999674E+01  0.40000000000E+01  0.51100000000E-03 0. -1.
    9000002   -1    0    0    0    0 -0.00000000000E+00 -0.00000000000E+00  0.00000000000E+00  0.93800000000E+00  0.93800000000E+00 0. -1.
         11    1    1    2    0    0 -0.14548635386E+00 -0.12178426693E+00  0.17237793604E+01  0.17341895027E+01  0.51100000000E-03 0. -1.
    9000002    1    1    2    0    0  0.33785216718E+00  0.28251523253E+00  0.13157510846E+00  0.10445644799E+01  0.93800000000E+00 0. -1.
         22    1    1    2    0    0 -0.19236581333E+00 -0.16073096559E+00  0.21446454985E+01  0.21592460174E+01  0.00000000000E+00 0. -1.
</event>
<event>
 5    1  0.1537976E+002  0.1599611E+01  0.7818608E-02  0.3353786E+00
         11   -1    0    0    0    0  0.00000000000E+00  0.00000000000E+00  0.39999999674E+01  0.40000000000E+01  0.51100000000E-03 0.  1.
    9000002   -1    0    0    0    0 -0.00000000000E+00 -0.00000000000E+00  0.00000000000E+00  0.93800000000E+00  0.93800000000E+00 0.  1.
         11    1    1    2    0    0 -0.48293777670E-01 -0.78863926094E-01  0.12587903706E+01  0.12621827387E+01  0.51100000000E-03 0.  1.
    9000002    1    1    2    0    0  0.14642556872E+00  0.27470382635E+00  0.64766148501E-01  0.99042480450E+00  0.93800000000E+00 0.  1.
         22    1    1    2    0    0 -0.98131791047E-01 -0.19583990025E+00  0.26764434483E+01  0.26853924568E+01  0.00000000000E+00 0. -1.
</event>
<event>
 5    1  0.1537976E+002  0.1581838E+01  0.7818608E-02  0.3373315E+00
         11   -1    0    0    0    0  0.00000000000E+00  0.00000000000E+00  0.39999999674E+01  0.40000000000E+01  0.51100000000E-03 0.  1.
    9000002   -1    0    0    0    0 -0.00000000000E+00 -0.00000000000E+00  0.00000000000E+00  0.93800000000E+00  0.93800000000E+00 0. -1.
         11    1    1    2    0    0 -0.10091728757E+00 -0.13121264260E+00  0.75566271984E+00  0.77358093551E+00  0.51100000000E-03 0.  1.
    9000002    1    1    2    0    0  0.42339492538E+00  0.23250281623E-01  0.13693053561E+00  0.10384593444E+01  0.93800000000E+00 0. -1.
         22    1    1    2    0    0 -0.32247763781E+00  0.10796236098E+00  0.31074067119E+01  0.31259597201E+01  0.00000000000E+00 0.  1.
</event>
<event>
 5    1  0.1537976E+002  0.1599676E+01  0.7818608E-02  0.3353715E+00
         11   -1    0    0    0    0  0.00000000000E+00  0.00000000000E+00  0.39999999674E+01  0.40000000000E+01  0.51100000000E-03 0.  1.
    9000002   -1    0    0    0    0 -0.00000000000E+00 -0.00000000000E+00  0.00000000000E+00  0.93800000000E+00  0.93800000000E+00 0. -1.
         11    1    1    2    0    0  0.39907624888E-01  0.14822439874E-01  0.42772578953E+00  0.42983942979E+00  0.51100000000E-03 0.  1.
    9000002    1    1    2    0    0 -0.36316472874E+00 -0.13015959323E+00  0.10021032542E+00  0.10191742978E+01  0.93800000000E+00 0. -1.
         22    1    1    2    0    0  0.32325710385E+00  0.11533715336E+00  0.34720638524E+01  0.34889862724E+01  0.00000000000E+00 0.  1.
</event>
<event>
 5    1  0.1537976E+002  0.1599676E+01  0.7818608E-02  0.3353715E+00
         11   -1    0    0    0    0  0.00000000000E+00  0.00000000000E+00  0.39999999674E+01  0.40000000000E+01  0.51100000000E-03 0.  1.
    9000002   -1    0    0    0    0 -0.00000000000E+00 -0.00000000000E+00  0.00000000000E+00  0.93800000000E+00  0.93800000000E+00 0.  1.
         11    1    1    2    0    0  0.50504292416E+00  0.27756036258E-01  0.26028400393E+01  0.26515307435E+01  0.51100000000E-03 0.  1.
    9000002    1    1    2    0    0 -0.70548375773E+00 -0.39883974267E-01  0.35747687521E+00  0.12275714970E+01  0.93800000000E+00 0.  1.
         22    1    1    2    0    0  0.20044083357E+00  0.12127938009E-01  0.10396830529E+01  0.10588977595E+01  0.00000000000E+00 0.  1.
</event>
<event>
 5    1  0.1537976E+002  0.1599666E+01  0.7818608E-02  0.3353726E+00
         11   -1    0    0    0    0  0.00000000000E+00  0.00000000000E+00  0.39999999674E+01  0.40000000000E+01  0.51100000000E-03 0.  1.
    9000002   -1    0    0    0    0 -0.00000000000E+00 -0.00000000000E+00  0.00000000000E+00  0.93800000000E+00  0.93800000000E+00 0.  1.
         11    1    1    2    0    0 -0.92844366825E-01  0.13415174226E+00  0.15469463681E+01  0.15555256647E+01  0.51100000000E-03 0.  1.
    9000002    1    1    2    0    0  0.22351205896E+00 -0.33851406287E+00  0.11108245609E+00  0.10279750597E+01  0.93800000000E+00 0.  1.
         22    1    1    2    0    0 -0.13066769213E+00  0.20436232062E+00  0.23419711431E+01  0.23544992757E+01  0.00000000000E+00 0.  1.
</event>
<event>
 5    1  0.1537976E+002  0.1599601E+01  0.7818608E-02  0.3353797E+00
         11   -1    0    0    0    0  0.00000000000E+00  0.00000000000E+00  0.39999999674E+01  0.40000000000E+01  0.51100000000E-03 0.  1.
    9000002   -1    0    0    0    0 -0.00000000000E+00 -0.00000000000E+00  0.00000000000E+00  0.93800000000E+00  0.93800000000E+00 0. -1.
         11    1    1    2    0    0 -0.68904659098E-02  0.76642053449E-01  0.85513118975E+00  0.85858668501E+00  0.51100000000E-03 0.  1.
    9000002    1    1    2    0    0 -0.30078783521E-02 -0.33208783889E+00  0.73870743086E-01  0.99779369950E+00  0.93800000000E+00 0. -1.
         22    1    1    2    0    0  0.98983442619E-02  0.25544578544E+00  0.30709980345E+01  0.30816196155E+01  0.00000000000E+00 0.  1.
</event>
<event>
 5    1  0.1537976E+002  0.1599525E+01  0.7818608E-02  0.3353880E+00
         11   -1    0    0    0    0  0.00000000000E+00  0.00000000000E+00  0.39999999674E+01  0.40000000000E+01  0.51100000000E-03 0.  1.
    9000002   -1    0    0    0    0 -0.00000000000E+00 -0.00000000000E+00  0.00000000000E+00  0.93800000000E+00  0.93800000000E+00 0. -1.
         11    1    1    2    0    0 -0.17777790015E-02  0.85653445029E-01  0.88668915942E+00  0.89081849986E+00  0.51100000000E-03 0.  1.
    9000002    1    1    2    0    0 -0.38546284831E-01 -0.40474396137E+00  0.11172296351E+00  0.10284111585E+01  0.93800000000E+00 0. -1.
         22    1    1    2    0    0  0.40324063833E-01  0.31909051634E+00  0.30015878444E+01  0.30187703416E+01  0.00000000000E+00 0.  1.
</event>
<event>
 5    1  0.1537976E+002  0.1591009E+01  0.7818608E-02  0.3363180E+00
         11   -1    0    0    0    0  0.00000000000E+00  0.00000000000E+00  0.39999999674E+01  0.40000000000E+01  0.51100000000E-03 0. -1.
    9000002   -1    0    0    0    0 -0.00000000000E+00 -0.00000000000E+00  0.00000000000E+00  0.93800000000E+00  0.93800000000E+00 0.  1.
         11    1    1    2    0    0  0.12211539471E-01 -0.83304868857E-01  0.15481205430E+01  0.15504084299E+01  0.51100000000E-03 0. -1.
    9000002    1    1    2    0    0  0.18961856668E+00  0.41202634180E-01  0.31429036350E-01  0.95837604426E+00  0.93800000000E+00 0.  1.
         22    1    1    2    0    0 -0.20183010615E+00  0.42102234677E-01  0.24204503880E+01  0.24292155258E+01  0.00000000000E+00 0. -1.
</event>
<event>
 5    1  0.1537976E+002  0.1599327E+01  0.7818608E-02  0.3354095E+00
         11   -1    0    0    0    0  0.00000000000E+00  0.00000000000E+00  0.39999999674E+01  0.40000000000E+01  0.51100000000E-03 0. -1.
    9000002   -1    0    0    0    0 -0.00000000000E+00 -0.00000000000E+00  0.00000000000E+00  0.93800000000E+00  0.93800000000E+00 0. -1.
         11    1    1    2    0    0  0.50039551182E-03  0.20229415187E-02  0.29097433917E-01  0.29176436890E-01  0.51100000000E-03 0. -1.
    9000002    1    1    2    0    0 -0.25781124703E+00 -0.70826168562E+00  0.41272301266E+00  0.12721185242E+01  0.93800000000E+00 0. -1.
         22    1    1    2    0    0  0.25731085152E+00  0.70623874410E+00  0.35581795208E+01  0.36367050389E+01  0.00000000000E+00 0. -1.
</event>
<event>
 5    1  0.1537976E+002  0.1599675E+01  0.7818608E-02  0.3353716E+00
         11   -1    0    0    0    0  0.00000000000E+00  0.00000000000E+00  0.39999999674E+01  0.40000000000E+01  0.51100000000E-03 0.  1.
    9000002   -1    0    0    0    0 -0.00000000000E+00 -0.00000000000E+00  0.00000000000E+00  0.93800000000E+00  0.93800000000E+00 0.  1.
         11    1    1    2    0    0 -0.12560483349E-01  0.36332562570E-01  0.48207207526E+00  0.48360269614E+00  0.51100000000E-03 0.  1.
    9000002    1    1    2    0    0  0.10420504880E+00 -0.30479285290E+00  0.69367811674E-01  0.99418975486E+00  0.93800000000E+00 0.  1.
         22    1    1    2    0    0 -0.91644565453E-01  0.26846029033E+00  0.34485600804E+01  0.34602075490E+01  0.00000000000E+00 0.  1.
</event>
<event>
 5    1  0.1537976E+002  0.1449677E+01  0.7818608E-02  0.3534638E+00
         11   -1    0    0    0    0  0.00000000000E+00  0.00000000000E+00  0.39999999674E+01  0.40000000000E+01  0.51100000000E-03 0.  1.
    9000002   -1    0    0    0    0 -0.00000000000E+00 -0.00000000000E+00  0.00000000000E+00  0.93800000000E+00  0.93800000000E+00 0.  1.
         11    1    1    2    0    0  0.10969833131E+00  0.37077055821E+00  0.67393765812E+00  0.77697925255E+00  0.51100000000E-03 0.  1.
    9000002    1    1    2    0    0 -0.78132701217E-01 -0.11742873781E+00  0.13306501748E+00  0.95783324558E+00  0.93800000000E+00 0.  1.
         22    1    1    2    0    0 -0.31565630096E-01 -0.25334182040E+00  0.31929972918E+01  0.32031875019E+01  0.00000000000E+00 0.  1.
</event>
<event>
 5    1  0.1537976E+002  0.1599677E+01  0.7818608E-02  0.3353714E+00
         11   -1    0    0    0    0  0.00000000000E+00  0.00000000000E+00  0.39999999674E+01  0.40000000000E+01  0.51100000000E-03 0. -1.
    9000002   -1    0    0    0    0 -0.00000000000E+00 -0.00000000000E+00  0.00000000000E+00  0.93800000000E+00  0.93800000000E+00 0.  1.
         11    1    1    2    0    0 -0.56705526689E-01  0.10213859721E+00  0.73419688725E+00  0.74343334615E+00  0.51100000000E-03 0. -1.
    9000002    1    1    2    0    0  0.28817097951E+00 -0.52232106690E+00  0.24810184227E+00  0.11389733687E+01  0.93800000000E+00 0.  1.
         22    1    1    2    0    0 -0.23146545282E+00  0.42018246969E+00  0.30177012378E+01  0.30555932852E+01  0.00000000000E+00 0. -1.
</event>
<event>
 5    1  0.1537976E+002  0.1585720E+01  0.7818608E-02  0.3369010E+00
         11   -1    0    0    0    0  0.00000000000E+00  0.00000000000E+00  0.39999999674E+01  0.40000000000E+01  0.51100000000E-03 0. -1.
    9000002   -1    0    0    0    0 -0.00000000000E+00 -0.00000000000E+00  0.00000000000E+00  0.93800000000E+00  0.93800000000E+00 0. -1.
         11    1    1    2    0    0 -0.88145796651E-01  0.14944525350E+00  0.27688795000E+01  0.27743102768E+01  0.51100000000E-03 0. -1.
    9000002    1    1    2    0    0  0.28849337466E+00 -0.28466045496E+00  0.12262211606E+00  0.10291453664E+01  0.93800000000E+00 0. -1.
         22    1    1    2    0    0 -0.20034757801E+00  0.13521520146E+00  0.11084983513E+01  0.11345443568E+01  0.00000000000E+00 0. -1.
</event>
<event>
 5    1  0.1537976E+002  0.1595900E+01  0.7818608E-02  0.3357825E+00
         11   -1    0    0    0    0  0.00000000000E+00  0.00000000000E+00  0.39999999674E+01  0.40000000000E+01  0.51100000000E-03 0. -1.
    9000002   -1    0    0    0    0 -0.00000000000E+00 -0.00000000000E+00  0.00000000000E+00  0.93800000000E+00  0.93800000000E+00 0.  1.
         11    1    1    2    0    0  0.29020350772E-01  0.16877245194E-01  0.33857383760E+00  0.34023451734E+00  0.51100000000E-03 0. -1.
    9000002    1    1    2    0    0 -0.45051275665E-01  0.18613568325E+00  0.27095591255E-01  0.95773393021E+00  0.93800000000E+00 0.  1.
         22    1    1    2    0    0  0.16030924892E-01 -0.20301292844E+00  0.36343305385E+01  0.36400315524E+01  0.00000000000E+00 0. -1.
</event>
<event>
 5    1  0.1537976E+002  0.1505091E+01  0.7818608E-02  0.3463288E+00
         11   -1    0    0    0    0  0.00000000000E+00  0.00000000000E+00  0.39999999674E+01  0.40000000000E+01  0.51100000000E-03 0.  1.
    9000002   -1    0    0    0    0 -0.00000000000E+00 -0.00000000000E+00  0.00000000000E+00  0.93800000000E+00  0.93800000000E+00 0. -1.
         11    1    1    2    0    0  0.15375734604E+00 -0.24393774818E+00  0.64903691970E+00  0.71020851213E+00  0.51100000000E-03 0.  1.
    9000002    1    1    2    0    0 -0.36720416141E+00 -0.13349983112E+00  0.18568238567E+00  0.10329487158E+01  0.93800000000E+00 0. -1.
         22    1    1    2    0    0  0.21344681537E+00  0.37743757931E+00  0.31652806620E+01  0.31948427721E+01  0.00000000000E+00 0.  1.
</event>
<event>
 5    1  0.1537976E+002  0.1599676E+01  0.7818608E-02  0.3353715E+00
         11   -1    0    0    0    0  0.00000000000E+00  0.00000000000E+00  0.39999999674E+01  0.40000000000E+01  0.51100000000E-03 0.  1.
    9000002   -1    0    0    0    0 -0.00000000000E+00 -0.00000000000E+00  0.00000000000E+00  0.93800000000E+00  0.93800000000E+00 0. -1.
         11    1    1    2    0    0 -0.22303785257E-02  0.79718166602E-01  0.10279824899E+01  0.10310713949E+01  0.51100000000E-03 0.  1.
    9000002    1    1    2    0    0  0.13074883895E-01 -0.30604842322E+00  0.62637869965E-01  0.98873863720E+00  0.93800000000E+00 0. -1.
         22    1    1    2    0    0 -0.10844505369E-01  0.22633025661E+00  0.29093796075E+01  0.29181899679E+01  0.00000000000E+00 0.  1.
</event>
<event>
 5    1  0.1537976E+002  0.1599114E+01  0.7818608E-02  0.3354325E+00
         11   -1    0    0    0    0  0.00000000000E+00  0.00000000000E+00  0.39999999674E+01  0.40000000000E+01  0.51100000000E-03 0. -1.
    9000002   -1    0    0    0    0 -0.00000000000E+00 -0.00000000000E+00  0.00000000000E+00  0.93800000000E+00  0.93800000000E+00 0.  1.
         11    1    1    2    0    0 -0.27013629837E-01 -0.71325577254E-02  0.52215959488E+00  0.52290679210E+00  0.51100000000E-03 0. -1.
    9000002    1    1    2    0    0  0.20092647969E+00 -0.92343067826E-01  0.32840605200E-01  0.96427236700E+00  0.93800000000E+00 0.  1.
         22    1    1    2    0    0 -0.17391284985E+00  0.99475625551E-01  0.34449997673E+01  0.34508208409E+01  0.00000000000E+00 0. -1.
</event>
<event>
 5    1  0.1537976E+002  0.1599676E+01  0.7818608E-02  0.3353715E+00
         11   -1    0    0    0    0  0.00000000000E+00  0.00000000000E+00  0.39999999674E+01  0.40000000000E+01  0.51100000000E-03 0.  1.
    9000002   -1    0    0    0    0 -0.00000000000E+00 -0.00000000000E+00  0.00000000000E+00  0.93800000000E+00  0.93800000000E+00 0.  1.
         11    1    1    2    0    0  0.72308863743E-01 -0.19735540249E+00  0.13991807269E+01  0.14148797455E+01  0.51100000000E-03 0.  1.
    9000002    1    1    2    0    0 -0.19335184906E+00  0.53128753811E+00  0.22144167961E+00  0.11173771982E+01  0.93800000000E+00 0.  1.
         22    1    1    2    0    0  0.12104298532E+00 -0.33393213561E+00  0.23793775609E+01  0.24057430562E+01  0.00000000000E+00 0.  1.
</event>
<event>
 5    1  0.1537976E+002  0.1599663E+01  0.7818608E-02  0.3353729E+00
         11   -1    0    0    0    0  0.00000000000E+00  0.00000000000E+00  0.39999999674E+01  0.40000000000E+01  0.51100000000E-03 0. -1.
    9000002   -1    0    0    0    0 -0.00000000000E+00 -0.00000000000E+00  0.00000000000E+00  0.93800000000E+00  0.93800000000E+00 0. -1.
         11    1    1    2    0    0  0.59221474297E-01  0.72349155115E-01  0.11197061282E+01  0.11236029805E+01  0.51100000000E-03 0. -1.
    9000002    1    1    2    0    0 -0.21627063438E+00 -0.24237634099E+00  0.70574655301E-01  0.99516031871E+00  0.93800000000E+00 0. -1.
         22    1    1    2    0    0  0.15704916008E+00  0.17002718587E+00  0.28097191839E+01  0.28192367008E+01  0.00000000000E+00 0. -1.
</event>
<event>
 5    1  0.1537976E+002  0.1599642E+01  0.7818608E-02  0.3353752E+00
         11   -1    0    0    0    0  0.00000000000E+00  0.00000000000E+00  0.39999999674E+01  0.40000000000E+01  0.51100000000E-03 0.  1.
    9000002   -1    0    0    0    0 -0.00000000000E+00 -0.00000000000E+00  0.00000000000E+00  0.93800000000E+00  0.93800000000E+00 0. -1.
         11    1    1    2    0    0 -0.14013320819E+00  0.18349846234E-01  0.16293298252E+01  0.16354479427E+01  0.51100000000E-03 0.  1.
    9000002    1    1    2    0    0  0.35031088448E+00 -0.33748119088E-01  0.83093330973E-01  0.10052885919E+01  0.93800000000E+00 0. -1.
         22    1    1    2    0    0 -0.21017767629E+00  0.15398272854E-01  0.22875768112E+01  0.22972634655E+01  0.00000000000E+00 0. -1.
</event>
<event>
 5    1  0.1537976E+002  0.1597933E+01  0.7818608E-02  0.3355610E+00
         11   -1    0    0    0    0  0.00000000000E+00  0.00000000000E+00  0.39999999674E+01  0.40000000000E+01  0.51100000000E-03 0. -1.
    9000002   -1    0    0    0    0 -0.00000000000E+00 -0.00000000000E+00  0.00000000000E+00  0.93800000000E+00  0.93800000000E+00 0.  1.
         11    1    1    2    0    0  0.11133463092E+00  0.23695778248E+00  0.18096345212E+01  0.18284752533E+01  0.51100000000E-03 0. -1.
    9000002    1    1    2    0    0 -0.24620254608E+00 -0.39727576023E+00  0.15028236590E+00  0.10587126678E+01  0.93800000000E+00 0.  1.
         22    1    1    2    0    0  0.13486791516E+00  0.16031797776E+00  0.20400830803E+01  0.20508120789E+01  0.00000000000E+00 0. -1.
</event>
<event>
 5    1  0.1537976E+002  0.1599674E+01  0.7818608E-02  0.3353717E+00
         11   -1    0    0    0    0  0.00000000000E+00  0.00000000000E+00  0.39999999674E+01  0.40000000000E+01  0.51100000000E-03 0.  1.
    9000002   -1    0    0    0    0 -0.00000000000E+00 -0.00000000000E+00  0.00000000000E+00  0.93800000000E+00  0.93800000000E+00 0.  1.
         11    1    1    2    0    0  0.10800692716E+00  0.20107397869E-01  0.13587214825E+01  0.13631559455E+01  0.51100000000E-03 0.  1.
    9000002    1    1    2    0    0 -0.31408460460E+00 -0.63453890086E-01  0.68633509217E-01  0.99359453179E+00  0.93800000000E+00 0.  1.
         22    1    1    2    0    0  0.20607767744E+00  0.43346492217E-01  0.25726449757E+01  0.25812495227E+01  0.00000000000E+00 0.  1.
</event>
<event>
 5    1  0.1537976E+002  0.1599494E+01  0.7818608E-02  0.3353913E+00
         11   -1    0    0    0    0  0.00000000000E+00  0.00000000000E+00  0.39999999674E+01  0.40000000000E+01  0.51100000000E-03 0.  1.
    9000002   -1    0    0    0    0 -0.00000000000E+00 -0.00000000000E+00  0.00000000000E+00  0.93800000000E+00  0.93800000000E+00 0. -1.
         11    1    1    2    0    0  0.17169749878E-01  0.31189492700E-02  0.32732221120E+00  0.32778746044E+00  0.51100000000E-03 0.  1.
    9000002    1    1    2    0    0 -0.19139553014E+00 -0.14482399308E+00  0.38377787360E-01  0.96898043968E+00  0.93800000000E+00 0. -1.
         22    1    1    2    0    0  0.17422578026E+00  0.14170504381E+00  0.36342999688E+01  0.36412320999E+01  0.00000000000E+00 0.  1.
</event>
<event>
 5    1  0.1537976E+002  0.1599659E+01  0.7818608E-02  0.3353733E+00
         11   -1    0    0    0    0  0.00000000000E+00  0.00000000000E+00  0.39999999674E+01  0.40000000000E+01  0.51100000000E-03 0. -1.
    9000002   -1    0    0    0    0 -0.00000000000E+00 -0.00000000000E+00  0.00000000000E+00  0.93800000000E+00  0.93800000000E+00 0.  1.
         11    1    1    2    0    0  0.11755511958E+00  0.21053567115E-03  0.87983152551E+00  0.88765028297E+00  0.51100000000E-03 0. -1.
    9000002    1    1    2    0    0 -0.49632880567E+00 -0.11008687927E-01  0.16863383621E+00  0.10745905477E+01  0.93800000000E+00 0.  1.
         22    1    1    2    0    0  0.37877368610E+00  0.10798152256E-01  0.29515346056E+01  0.29757591693E+01  0.00000000000E+00 0. -1.
</event>
<event>
 5    1  0.1537976E+002  0.1596897E+01  0.7818608E-02  0.3356738E+00
         11   -1    0    0    0    0  0.00000000000E+00  0.00000000000E+00  0.39999999674E+01  0.40000000000E+01  0.51100000000E-03 0. -1.
    9000002   -1    0    0    0    0 -0.00000000000E+00 -0.00000000000E+00  0.00000000000E+00  0.93800000000E+00  0.93800000000E+00 0. -1.
         11    1    1    2    0    0 -0.34577261314E-01 -0.90450182672E-01  0.12526415552E+01  0.12563789036E+01  0.51100000000E-03 0. -1.
    9000002    1    1    2    0    0  0.28137498214E+00  0.21794868643E+00  0.87241571607E-01  0.10070395237E+01  0.93800000000E+00 0. -1.
         22    1    1    2    0    0 -0.24679772082E+00 -0.12749850375E+00  0.26601168405E+01  0.26745815727E+01  0.00000000000E+00 0. -1.
</event>
<event>
 5    1  0.1537976E+002  0.1599677E+01  0.7818608E-02  0.3353714E+00
         11   -1    0    0    0    0  0.00000000000E+00  0.00000000000E+00  0.39999999674E+01  0.40000000000E+01  0.51100000000E-03 0.  1.
    9000002   -1    0    0    0    0 -0.00000000000E+00 -0.00000000000E+00  0.00000000000E+00  0.93800000000E+00  0.93800000000E+00 0.  1.
         11    1    1    2    0    0 -0.90226007108E-01 -0.51826762481E-01  0.10014003624E+01  0.10067917821E+01  0.51100000000E-03 0.  1.
    9000002    1    1    2    0    0  0.35113299387E+00  0.20047701846E+00  0.11033602227E+00  0.10273769766E+01  0.93800000000E+00 0.  1.
         22    1    1    2    0    0 -0.26090698676E+00 -0.14865025598E+00  0.28882635827E+01  0.29038312412E+01  0.00000000000E+00 0.  1.
</event>
<event>
 5    1  0.1537976E+002  0.1599661E+01  0.7818608E-02  0.3353732E+00
         11   -1    0    0    0    0  0.00000000000E+00  0.00000000000E+00  0.39999999674E+01  0.40000000000E+01  0.51100000000E-03 0. -1.
    9000002   -1    0    0    0    0 -0.00000000000E+00 -0.00000000000E+00  0.00000000000E+00  0.93800000000E+00  0.93800000000E+00 0.  1.
         11    1    1    2    0    0  0.16174434845E-02  0.10630740345E-02  0.33189707424E-01  0.33250023304E-01  0.51100000000E-03 0. -1.
    9000002    1    1    2    0    0 -0.16281841100E+00 -0.20858093181E+00  0.46577082403E-01  0.97571986998E+00  0.93800000000E+00 0.  1.
         22    1    1    2    0    0  0.16120096752E+00  0.20751785778E+00  0.39202331775E+01  0.39290301067E+01  0.00000000000E+00 0. -1.
</event>
<event>
 5    1  0.1537976E+002  0.1586322E+01  0.7818608E-02  0.3368344E+00
         11   -1    0    0    0    0  0.00000000000E+00  0.00000000000E+00  0.39999999674E+01  0.40000000000E+01  0.51100000000E-03 0.  1.
    9000002   -1    0    0    0    0 -0.00000000000E+00 -0.00000000000E+00  0.00000000000E+00  0.93800000000E+00  0.93800000000E+00 0. -1.
         11    1    1    2    0    0  0.20161456739E+00 -0.33283322786E+00  0.27312160449E+01  0.27587982413E+01  0.51100000000E-03 0.  1.
    9000002    1    1    2    0    0 -0.41510993634E+00  0.52862469618E+00  0.33511421421E+00  0.12016263418E+01  0.93800000000E+00 0. -1.
         22    1    1    2    0    0  0.21349536895E+00 -0.19579146832E+00  0.93366970829E+00  0.97757541694E+00  0.00000000000E+00 0. -1.
</event>
<event>
 5    1  0.1537976E+002  0.1599677E+01  0.7818608E-02  0.3353714E+00
         11   -1    0    0    0    0  0.00000000000E+00  0.00000000000E+00  0.39999999674E+01  0.40000000000E+01  0.51100000000E-03 0.  1.
    9000002   -1    0    0    0    0 -0.00000000000E+00 -0.00000000000E+00  0.00000000000E+00  0.93800000000E+00  0.93800000000E+00 0.  1.
         11    1    1    2    0    0  0.14594120573E+00  0.54480362440E-05  0.12733028559E+01  0.12816392860E+01  0.51100000000E-03 0. -1.
    9000002    1    1    2    0    0 -0.44309651890E+00  0.52201861787E-03  0.13321309070E+00  0.10459084688E+01  0.93800000000E+00 0.  1.
         22    1    1    2    0    0  0.29715531317E+00 -0.52746665412E-03  0.25934840208E+01  0.26104522452E+01  0.00000000000E+00 0.  1.
</event>
<event>
 5    1  0.1537976E+002  0.1599151E+01  0.7818608E-02  0.3354285E+00
         11   -1    0    0    0    0  0.00000000000E+00  0.00000000000E+00  0.39999999674E+01  0.40000000000E+01  0.51100000000E-03 0.  1.
    9000002   -1    0    0    0    0 -0.00000000000E+00 -0.00000000000E+00  0.00000000000E+00  0.93800000000E+00  0.93800000000E+00 0.  1.
         11    1    1    2    0    0 -0.20730406631E-01  0.13372141353E-02  0.27820368457E+00  0.27897865354E+00  0.51100000000E-03 0.  1.
    9000002    1    1    2    0    0  0.16891386285E+00  0.13686700374E+00  0.31721252545E-01  0.96338710166E+00  0.93800000000E+00 0.  1.
         22    1    1    2    0    0 -0.14818345622E+00 -0.13820421788E+00  0.36900750302E+01  0.36956342448E+01  0.00000000000E+00 0.  1.
</event>
<event>
 5    1  0.1537976E+002  0.1598076E+01  0.7818608E-02  0.3355454E+00
         11   -1    0    0    0    0  0.00000000000E+00  0.00000000000E+00  0.39999999674E+01  0.40000000000E+01  0.51100000000E-03 0.  1.
    9000002   -1    0    0    0    0 -0.00000000000E+00 -0.00000000000E+00  0.00000000000E+00  0.93800000000E+00  0.93800000000E+00 0. -1.
         11    1    1    2    0    0  0.14256547581E+00 -0.22852237444E-01  0.11145984654E+01  0.11239115356E+01  0.51100000000E-03 0.  1.
    9000002    1    1    2    0    0 -0.34778274710E+00  0.68124188326E-01  0.85546503980E-01  0.10063577637E+01  0.93800000000E+00 0. -1.
         22    1    1    2    0    0  0.20521727129E+00 -0.45271950882E-01  0.27998549980E+01  0.28077307007E+01  0.00000000000E+00 0.  1.
</event>
<event>
 5    1  0.1537976E+002  0.1586162E+01  0.7818608E-02  0.3368521E+00
         11   -1    0    0    0    0  0.00000000000E+00  0.00000000000E+00  0.39999999674E+01  0.40000000000E+01  0.51100000000E-03 0.  1.
    9000002   -1    0    0    0    0 -0.00000000000E+00 -0.00000000000E+00  0.00000000000E+00  0.93800000000E+00  0.93800000000E+00 0.  1.
         11    1    1    2    0    0  0.85109297229E-01  0.10778364332E+00  0.61066763322E+00  0.62592022305E+00  0.51100000000E-03 0.  1.
    9000002    1    1    2    0    0 -0.40268915949E+00 -0.48761915357E-01  0.12244115077E+00  0.10292580429E+01  0.93800000000E+00 0.  1.
         22    1    1    2    0    0  0.31757986226E+00 -0.59021727962E-01  0.32668911834E+01  0.32828217340E+01  0.00000000000E+00 0.  1.
</event>
<event>
 5    1  0.1537976E+002  0.1597881E+01  0.7818608E-02  0.3355666E+00
         11   -1    0    0    0    0  0.00000000000E+00  0.00000000000E+00  0.39999999674E+01  0.40000000000E+01  0.51100000000E-03 0. -1.
    9000002   -1    0    0    0    0 -0.00000000000E+00 -0.00000000000E+00  0.00000000000E+00  0.93800000000E+00  0.93800000000E+00 0. -1.
         11    1    1    2    0    0  0.24794969437E-01  0.24960525336E-01  0.82224613555E+00  0.82299865545E+00  0.51100000000E-03 0. -1.
    9000002    1    1    2    0    0  0.40124835722E-01 -0.23959180835E+00  0.40551121538E-01  0.96979514875E+00  0.93800000000E+00 0. -1.
         22    1    1    2    0    0 -0.64919805160E-01  0.21463128302E+00  0.31372027103E+01  0.31452061958E+01  0.00000000000E+00 0. -1.
</event>
<event>
 5    1  0.1537976E+002  0.1553703E+01  0.7818608E-02  0.3405198E+00
         11   -1    0    0    0    0  0.00000000000E+00  0.00000000000E+00  0.39999999674E+01  0.40000000000E+01  0.51100000000E-03 0.  1.
    9000002   -1    0    0    0    0 -0.00000000000E+00 -0.00000000000E+00  0.00000000000E+00  0.93800000000E+00  0.93800000000E+00 0. -1.
         11    1    1    2    0    0  0.11897657066E+00 -0.25822362519E+00  0.27436241167E+01  0.27583162291E+01  0.51100000000E-03 0.  1.
    9000002    1    1    2    0    0 -0.81455010007E-01  0.40940358260E-01  0.39771006720E-01  0.94325858839E+00  0.93800000000E+00 0. -1.
         22    1    1    2    0    0 -0.37521560656E-01  0.21728326693E+00  0.12166048439E+01  0.12364251825E+01  0.00000000000E+00 0.  1.
</event>
<event>
 5    1  0.1537976E+002  0.1588272E+01  0.7818608E-02  0.3366192E+00
         11   -1    0    0    0    0  0.00000000000E+00  0.00000000000E+00  0.39999999674E+01  0.40000000000E+01  0.51100000000E-03 0.  1.
    9000002   -1    0    0    0    0 -0.00000000000E+00 -0.00000000000E+00  0.00000000000E+00  0.93800000000E+00  0.93800000000E+00 0.  1.
         11    1    1    2    0    0 -0.13202543106E+00 -0.50688054767E-01  0.23391970213E+01  0.23434681476E+01  0.51100000000E-03 0.  1.
    9000002    1    1    2    0    0  0.24067195232E+00 -0.12678808553E+00  0.58098639626E-01  0.97837500949E+00  0.93800000000E+00 0.  1.
         22    1    1    2    0    0 -0.10864652125E+00  0.17747614030E+00  0.16027043065E+01  0.16161568429E+01  0.00000000000E+00 0.  1.
</event>
<event>
 5    1  0.1537976E+002  0.1598692E+01  0.7818608E-02  0.3354784E+00
         11   -1    0    0    0    0  0.00000000000E+00  0.00000000000E+00  0.39999999674E+01  0.40000000000E+01  0.51100000000E-03 0. -1.
    9000002   -1    0    0    0    0 -0.00000000000E+00 -0.00000000000E+00  0.00000000000E+00  0.93800000000E+00  0.93800000000E+00 0.  1.
         11    1    1    2    0    0 -0.15580549938E-01 -0.50885944160E-03  0.23515725799E+00  0.23567394761E+00  0.51100000000E-03 0. -1.
    9000002    1    1    2    0    0  0.44047354732E-01 -0.19771297368E+00  0.27906254722E-01  0.96002778526E+00  0.93800000000E+00 0.  1.
         22    1    1    2    0    0 -0.28466804794E-01  0.19822183312E+00  0.37369364546E+01  0.37422982671E+01  0.00000000000E+00 0. -1.
</event>
<event>
 5    1  0.1537976E+002  0.1534577E+01  0.7818608E-02  0.3427583E+00
         11   -1    0    0    0    0  0.00000000000E+00  0.00000000000E+00  0.39999999674E+01  0.40000000000E+01  0.51100000000E-03 0.  1.
    9000002   -1    0    0    0    0 -0.00000000000E+00 -0.00000000000E+00  0.00000000000E+00  0.93800000000E+00  0.93800000000E+00 0.  1.
         11    1    1    2    0    0 -0.26748366515E+00  0.11465759564E+00  0.20242583608E+01  0.20450711595E+01  0.51100000000E-03 0.  1.
    9000002    1    1    2    0    0 -0.76114711462E-01 -0.20790891059E+00  0.83389642385E-01  0.96737655381E+00  0.93800000000E+00 0.  1.
         22    1    1    2    0    0  0.34359837662E+00  0.93251314951E-01  0.18923519642E+01  0.19255522867E+01  0.00000000000E+00 0.  1.
</event>
<event>
 5    1  0.1537976E+002  0.1596552E+01  0.7818608E-02  0.3357114E+00
         11   -1    0    0    0    0  0.00000000000E+00  0.00000000000E+00  0.39999999674E+01  0.40000000000E+01  0.51100000000E-03 0.  1.
    9000002   -1    0    0    0    0 -0.00000000000E+00 -0.00000000000E+00  0.00000000000E+00  0.93800000000E+00  0.93800000000E+00 0.  1.
         11    1    1    2    0    0 -0.44105253103E+00 -0.39591621659E+00  0.13952206373E+01  0.15158884766E+01  0.51100000000E-03 0.  1.
    9000002    1    1    2    0    0  0.76878730783E+00  0.86616875299E+00  0.12290804045E+01  0.19317776461E+01  0.93800000000E+00 0.  1.
         22    1    1    2    0    0 -0.32773477680E+00 -0.47025253640E+00  0.13756989255E+01  0.14903338772E+01  0.00000000000E+00 0. -1.
</event>
<event>
 5    1  0.1537976E+002  0.1598577E+01  0.7818608E-02  0.3354910E+00
         11   -1    0    0    0    0  0.00000000000E+00  0.00000000000E+00  0.39999999674E+01  0.40000000000E+01  0.51100000000E-03 0. -1.
    9000002   -1    0    0    0    0 -0.00000000000E+00 -0.00000000000E+00  0.00000000000E+00  0.93800000000E+00  0.93800000000E+00 0.  1.
         11    1    1    2    0    0 -0.39937019775E-01 -0.10057868380E-01  0.67164854439E+00  0.67291021285E+00  0.51100000000E-03 0. -1.
    9000002    1    1    2    0    0  0.14637356049E+00  0.21175829845E+00  0.44889944486E-01  0.97371756854E+00  0.93800000000E+00 0.  1.
         22    1    1    2    0    0 -0.10643654072E+00 -0.20170043007E+00  0.32834614785E+01  0.32913722186E+01  0.00000000000E+00 0. -1.
</event>
<event>
 5    1  0.1537976E+002  0.1599664E+01  0.7818608E-02  0.3353728E+00
         11   -1    0    0    0    0  0.00000000000E+00  0.00000000000E+00  0.39999999674E+01  0.40000000000E+01  0.51100000000E-03 0.  1.
    9000002   -1    0    0    0    0 -0.00000000000E+00 -0.00000000000E+00  0.00000000000E+00  0.93800000000E+00  0.93800000000E+00 0.  1.
         11    1    1    2    0    0 -0.60762558662E-01  0.28792251756E-01  0.73859039428E+00  0.74164487050E+00  0.51100000000E-03 0.  1.
    9000002    1    1    2    0    0  0.31102181923E+00 -0.13942572645E+00  0.77828659761E-01  0.10010371649E+01  0.93800000000E+00 0.  1.
         22    1    1    2    0    0 -0.25025926057E+00  0.11063347470E+00  0.31835809133E+01  0.31953179646E+01  0.00000000000E+00 0.  1.
</event>
<event>
 5    1  0.1537976E+002  0.1599593E+01  0.7818608E-02  0.3353805E+00
         11   -1    0    0    0    0  0.00000000000E+00  0.00000000000E+00  0.39999999674E+01  0.40000000000E+01  0.51100000000E-03 0. -1.
    9000002   -1    0    0    0    0 -0.00000000000E+00 -0.00000000000E+00  0.00000000000E+00  0.93800000000E+00  0.93800000000E+00 0. -1.
         11    1    1    2    0    0 -0.12516282998E+00 -0.75915043422E-01  0.10642514143E+01  0.10742719217E+01  0.51100000000E-03 0. -1.
    9000002    1    1    2    0    0  0.44261620244E+00  0.30621108380E+00  0.19971566280E+00  0.10997293651E+01  0.93800000000E+00 0. -1.
         22    1    1    2    0    0 -0.31745337246E+00 -0.23029604038E+00  0.27360328903E+01  0.27639987132E+01  0.00000000000E+00 0. -1.
</event>
<event>
 5    1  0.1537976E+002  0.1599677E+01  0.7818608E-02  0.3353714E+00
         11   -1    0    0    0    0  0.00000000000E+00  0.00000000000E+00  0.39999999674E+01  0.40000000000E+01  0.51100000000E-03 0.  1.
    9000002   -1    0    0    0    0 -0.00000000000E+00 -0.00000000000E+00  0.00000000000E+00  0.93800000000E+00  0.93800000000E+00 0. -1.
         11    1    1    2    0    0  0.11017914087E+00 -0.50274113877E-01  0.10753816476E+01  0.10821796888E+01  0.51100000000E-03 0. -1.
    9000002    1    1    2    0    0 -0.39587509825E+00  0.18133596654E+00  0.12850223650E+00  0.10420924388E+01  0.93800000000E+00 0. -1.
         22    1    1    2    0    0  0.28569595738E+00 -0.13106185266E+00  0.27961160833E+01  0.28137278725E+01  0.00000000000E+00 0.  1.
</event>
<event>
 5    1  0.1537976E+002  0.1574622E+01  0.7818608E-02  0.3381377E+00
         11   -1    0    0    0    0  0.00000000000E+00  0.00000000000E+00  0.39999999674E+01  0.40000000000E+01  0.51100000000E-03 0. -1.
    9000002   -1    0    0    0    0 -0.00000000000E+00 -0.00000000000E+00  0.00000000000E+00  0.93800000000E+00  0.93800000000E+00 0. -1.
         11    1    1    2    0    0  0.22785595423E+00  0.57751698325E-01  0.82017306396E+00  0.85319265732E+00  0.51100000000E-03 0. -1.
    9000002    1    1    2    0    0 -0.33190734961E+00 -0.38210841323E+00  0.19860171160E+00  0.10841844714E+01  0.93800000000E+00 0. -1.
         22    1    1    2    0    0  0.10405139538E+00  0.32435671490E+00  0.29812251918E+01  0.30006228713E+01  0.00000000000E+00 0. -1.
</event>
<event>
 5    1  0.1537976E+002  0.1560497E+01  0.7818608E-02  0.3397388E+00
         11   -1    0    0    0    0  0.00000000000E+00  0.00000000000E+00  0.39999999674E+01  0.40000000000E+01  0.51100000000E-03 0. -1.
    9000002   -1    0    0    0    0 -0.00000000000E+00 -0.00000000000E+00  0.00000000000E+00  0.93800000000E+00  0.93800000000E+00 0.  1.
         11    1    1    2    0    0 -0.11299712097E+00  0.24397804072E-01  0.25218274308E+00  0.27741665274E+00  0.51100000000E-03 0. -1.
    9000002    1    1    2    0    0 -0.69615959496E-01 -0.11786182519E+00  0.41762174881E-01  0.94885503155E+00  0.93800000000E+00 0.  1.
         22    1    1    2    0    0  0.18261308047E+00  0.93464021123E-01  0.37060550494E+01  0.37117283157E+01  0.00000000000E+00 0. -1.
</event>
<event>
 5    1  0.1537976E+002  0.1599234E+01  0.7818608E-02  0.3354196E+00
         11   -1    0    0    0    0  0.00000000000E+00  0.00000000000E+00  0.39999999674E+01  0.40000000000E+01  0.51100000000E-03 0.  1.
    9000002   -1    0    0    0    0 -0.00000000000E+00 -0.00000000000E+00  0.00000000000E+00  0.93800000000E+00  0.93800000000E+00 0. -1.
         11    1    1    2    0    0 -0.61899446213E-01 -0.12361230505E+00  0.16254155551E+01  0.16312840131E+01  0.51100000000E-03 0.  1.
    9000002    1    1    2    0    0  0.11836783543E+00  0.34910217815E+00  0.91665391840E-01  0.10119929937E+01  0.93800000000E+00 0.  1.
         22    1    1    2    0    0 -0.56468389214E-01 -0.22548987310E+00  0.22829190204E+01  0.22947229932E+01  0.00000000000E+00 0. -1.
</event>
<event>
 5    1  0.1537976E+002  0.1599673E+01  0.7818608E-02  0.3353718E+00
         11   -1    0    0    0    0  0.00000000000E+00  0.00000000000E+00  0.39999999674E+01  0.40000000000E+01  0.51100000000E-03 0. -1.
    9000002   -1    0    0    0    0 -0.00000000000E+00 -0.00000000000E+00  0.00000000000E+00  0.93800000000E+00  0.93800000000E+00 0.  1.
         11    1    1    2    0    0 -0.15777258960E+00 -0.43065359007E-01  0.12773663935E+01  0.12877934537E+01  0.51100000000E-03 0. -1.
    9000002    1    1    2    0    0  0.46950616761E+00  0.12476960916E+00  0.16118309920E+00  0.10685632823E+01  0.93800000000E+00 0.  1.
         22    1    1    2    0    0 -0.31173357801E+00 -0.81704250154E-01  0.25614504747E+01  0.25816432640E+01  0.00000000000E+00 0. -1.
</event>
<event>
 5    1  0.1537976E+002  0.1568196E+01  0.7818608E-02  0.3388622E+00
         11   -1    0    0    0    0  0.00000000000E+00  0.00000000000E+00  0.39999999674E+01  0.40000000000E+01  0.51100000000E-03 0.  1.
    9000002   -1    0    0    0    0 -0.00000000000E+00 -0.00000000000E+00  0.00000000000E+00  0.93800000000E+00  0.93800000000E+00 0. -1.
         11    1    1    2    0    0  0.16129231909E+00 -0.18288959342E+00  0.21573101807E+01  0.21710484317E+01  0.51100000000E-03 0.  1.
    9000002    1    1    2    0    0  0.52043005034E-01  0.15922533119E+00  0.42265334651E-01  0.95377751021E+00  0.93800000000E+00 0. -1.
         22    1    1    2    0    0 -0.21333532412E+00  0.23664262231E-01  0.18004244520E+01  0.18131740581E+01  0.00000000000E+00 0.  1.
</event>
<event>
 5    1  0.1537976E+002  0.1599657E+01  0.7818608E-02  0.3353735E+00
         11   -1    0    0    0    0  0.00000000000E+00  0.00000000000E+00  0.39999999674E+01  0.40000000000E+01  0.51100000000E-03 0. -1.
    9000002   -1    0    0    0    0 -0.00000000000E+00 -0.00000000000E+00  0.00000000000E+00  0.93800000000E+00  0.93800000000E+00 0.  1.
         11    1    1    2    0    0 -0.17180374370E+00 -0.17642715034E+00  0.19996687427E+01  0.20147750265E+01  0.51100000000E-03 0. -1.
    9000002    1    1    2    0    0  0.32762057007E+00  0.34905732573E+00  0.15635680006E+00  0.10646444024E+01  0.93800000000E+00 0.  1.
         22    1    1    2    0    0 -0.15581682636E+00 -0.17263017539E+00  0.18439744246E+01  0.18585805711E+01  0.00000000000E+00 0. -1.
</event>
<event>
 5    1  0.1537976E+002  0.1599676E+01  0.7818608E-02  0.3353715E+00
         11   -1    0    0    0    0  0.00000000000E+00  0.00000000000E+00  0.39999999674E+01  0.40000000000E+01  0.51100000000E-03 0. -1.
    9000002   -1    0    0    0    0 -0.00000000000E+00 -0.00000000000E+00  0.00000000000E+00  0.93800000000E+00  0.93800000000E+00 0. -1.
         11    1    1    2    0    0  0.27315858773E+00  0.36888096386E+00  0.21390315517E+01  0.21877259928E+01  0.51100000000E-03 0. -1.
    9000002    1    1    2    0    0 -0.45698319863E+00 -0.61731573360E+00  0.43003342797E+00  0.12863456409E+01  0.93800000000E+00 0. -1.
         22    1    1    2    0    0  0.18382461089E+00  0.24843476975E+00  0.14309349877E+01  0.14639283662E+01  0.00000000000E+00 0. -1.
</event>
<event>
 5    1  0.1537976E+002  0.1557243E+01  0.7818608E-02  0.3401119E+00
         11   -1    0    0    0    0  0.00000000000E+00  0.00000000000E+00  0.39999999674E+01  0.40000000000E+01  0.51100000000E-03 0. -1.
    9000002   -1    0    0    0    0 -0.00000000000E+00 -0.00000000000E+00  0.00000000000E+00  0.93800000000E+00  0.93800000000E+00 0.  1.
         11    1    1    2    0    0 -0.20916057875E+00 -0.14003237090E+00  0.17732464754E+01  0.17910222043E+01  0.51100000000E-03 0. -1.
    9000002    1    1    2    0    0  0.50845837892E-01 -0.47494393171E-01  0.34687417831E-01  0.94121635853E+00  0.93800000000E+00 0.  1.
         22    1    1    2    0    0  0.15831474085E+00  0.18752676407E+00  0.21920660742E+01  0.22057614372E+01  0.00000000000E+00 0. -1.
</event>
<event>
 5    1  0.1537976E+002  0.1599675E+01  0.7818608E-02  0.3353716E+00
         11   -1    0    0    0    0  0.00000000000E+00  0.00000000000E+00  0.39999999674E+01  0.40000000000E+01  0.51100000000E-03 0.  1.
    9000002   -1    0    0    0    0 -0.00000000000E+00 -0.00000000000E+00  0.00000000000E+00  0.93800000000E+00  0.93800000000E+00 0.  1.
         11    1    1    2    0    0 -0.92535910584E-01  0.27171058244E-01  0.12278392695E+01  0.12316211649E+01  0.51100000000E-03 0.  1.
    9000002    1    1    2    0    0  0.29215844574E+00 -0.87494341607E-01  0.62079651552E-01  0.98828624415E+00  0.93800000000E+00 0.  1.
         22    1    1    2    0    0 -0.19962253516E+00  0.60323283363E-01  0.27100810463E+01  0.27180925909E+01  0.00000000000E+00 0.  1.
</event>
<event>
 5    1  0.1537976E+002  0.1599666E+01  0.7818608E-02  0.3353726E+00
         11   -1    0    0    0    0  0.00000000000E+00  0.00000000000E+00  0.39999999674E+01  0.40000000000E+01  0.51100000000E-03 0.  1.
    9000002   -1    0    0    0    0 -0.00000000000E+00 -0.00000000000E+00  0.00000000000E+00  0.93800000000E+00  0.93800000000E+00 0. -1.
         11    1    1    2    0    0  0.11725140889E+00 -0.19990730869E+00  0.19508540466E+01  0.19645718611E+01  0.51100000000E-03 0.  1.
    9000002    1    1    2    0    0 -0.23799622012E+00  0.39958279657E+00  0.14725717367E+00  0.10572782450E+01  0.93800000000E+00 0. -1.
         22    1    1    2    0    0  0.12074481123E+00 -0.19967548787E+00  0.19018887471E+01  0.19161498940E+01  0.00000000000E+00 0. -1.
</event>
<event>
 5    1  0.1537976E+002  0.1571964E+01  0.7818608E-02  0.3384366E+00
         11   -1    0    0    0    0  0.00000000000E+00  0.00000000000E+00  0.39999999674E+01  0.40000000000E+01  0.51100000000E-03 0.  1.
    9000002   -1    0    0    0    0 -0.00000000000E+00 -0.00000000000E+00  0.00000000000E+00  0.93800000000E+00  0.93800000000E+00 0. -1.
         11    1    1    2    0    0  0.84473004813E-01 -0.97449685044E-01  0.15470701780E+01  0.15524363196E+01  0.51100000000E-03 0.  1.
    9000002    1    1    2    0    0  0.10252749937E+00 -0.13630951825E+00  0.40089049087E-01  0.95422392799E+00  0.93800000000E+00 0. -1.
         22    1    1    2    0    0 -0.18700050418E+00  0.23375920330E+00  0.24128407403E+01  0.24313397524E+01  0.00000000000E+00 0.  1.
</event>
<event>
 5    1  0.1537976E+002  0.1599671E+01  0.7818608E-02  0.3353721E+00
         11   -1    0    0    0    0  0.00000000000E+00  0.00000000000E+00  0.39999999674E+01  0.40000000000E+01  0.51100000000E-03 0.  1.
    9000002   -1    0    0    0    0 -0.00000000000E+00 -0.00000000000E+00  0.00000000000E+00  0.93800000000E+00  0.93800000000E+00 0.  1.
         11    1    1    2    0    0  0.16506995479E-01 -0.23792443841E-01  0.49414337466E+00  0.49499141117E+00  0.51100000000E-03 0.  1.
    9000002    1    1    2    0    0 -0.11965124209E+00  0.19943856948E+00  0.35891333543E-01  0.96706998224E+00  0.93800000000E+00 0.  1.
         22    1    1    2    0    0  0.10314424662E+00 -0.17564612564E+00  0.34699652592E+01  0.34759386066E+01  0.00000000000E+00 0.  1.
</event>
<event>
 5    1  0.1537976E+002  0.1599677E+01  0.7818608E-02  0.3353714E+00
         11   -1    0    0    0    0  0.00000000000E+00  0.00000000000E+00  0.39999999674E+01  0.40000000000E+01  0.51100000000E-03 0. -1.
    9000002   -1    0    0    0    0 -0.00000000000E+00 -0.00000000000E+00  0.00000000000E+00  0.93800000000E+00  0.93800000000E+00 0.  1.
         11    1    1    2    0    0  0.23277648463E+00  0.15684477478E+00  0.22223415073E+01  0.22399971454E+01  0.51100000000E-03 0. -1.
    9000002    1    1    2    0    0 -0.40192269064E+00 -0.27166912382E+00  0.16071321563E+00  0.10681847686E+01  0.93800000000E+00 0.  1.
         22    1    1    2    0    0  0.16914620601E+00  0.11482434904E+00  0.16169452444E+01  0.16298180860E+01  0.00000000000E+00 0.  1.
</event>
<event>
 5    1  0.1537976E+002  0.1599674E+01  0.7818608E-02  0.3353717E+00
         11   -1    0    0    0    0  0.00000000000E+00  0.00000000000E+00  0.39999999674E+01  0.40000000000E+01  0.51100000000E-03 0. -1.
    9000002   -1    0    0    0    0 -0.00000000000E+00 -0.00000000000E+00  0.00000000000E+00  0.93800000000E+00  0.93800000000E+00 0.  1.
         11    1    1    2    0    0  0.70455070376E-02  0.35219084032E-01  0.38632991957E+00  0.38799625117E+00  0.51100000000E-03 0. -1.
    9000002    1    1    2    0    0 -0.65934648474E-01 -0.34695448355E+00  0.83660859241E-01  0.10057673344E+01  0.93800000000E+00 0.  1.
         22    1    1    2    0    0  0.58889141437E-01  0.31173539952E+00  0.35300091886E+01  0.35442364145E+01  0.00000000000E+00 0. -1.
</event>
<event>
 5    1  0.1537976E+002  0.1530207E+01  0.7818608E-02  0.3432782E+00
         11   -1    0    0    0    0  0.00000000000E+00  0.00000000000E+00  0.39999999674E+01  0.40000000000E+01  0.51100000000E-03 0.  1.
    9000002   -1    0    0    0    0 -0.00000000000E+00 -0.00000000000E+00  0.00000000000E+00  0.93800000000E+00  0.93800000000E+00 0. -1.
         11    1    1    2    0    0 -0.57617225947E-02  0.19218094132E-01  0.33127835476E+01  0.33128443409E+01  0.51100000000E-03 0.  1.
    9000002    1    1    2    0    0  0.23726878307E+00  0.12377226038E+00  0.10321527781E+00  0.98087381524E+00  0.93800000000E+00 0. -1.
         22    1    1    2    0    0 -0.23150706048E+00 -0.14299035451E+00  0.58400114191E+00  0.64428184383E+00  0.00000000000E+00 0.  1.
</event>
<event>
 5    1  0.1537976E+002  0.1595778E+01  0.7818608E-02  0.3357958E+00
         11   -1    0    0    0    0  0.00000000000E+00  0.00000000000E+00  0.39999999674E+01  0.40000000000E+01  0.51100000000E-03 0. -1.
    9000002   -1    0    0    0    0 -0.00000000000E+00 -0.00000000000E+00  0.00000000000E+00  0.93800000000E+00  0.93800000000E+00 0.  1.
         11    1    1    2    0    0 -0.11931880919E+00  0.12732130792E-01  0.11284056992E+01  0.11347681563E+01  0.51100000000E-03 0. -1.
    9000002    1    1    2    0    0  0.30755476477E+00  0.16664097347E+00  0.85186605129E-01  0.10047188189E+01  0.93800000000E+00 0.  1.
         22    1    1    2    0    0 -0.18823595558E+00 -0.17937310426E+00  0.27864076630E+01  0.27985130248E+01  0.00000000000E+00 0. -1.
</event>
<event>
 5    1  0.1537976E+002  0.1581994E+01  0.7818608E-02  0.3373141E+00
         11   -1    0    0    0    0  0.00000000000E+00  0.00000000000E+00  0.39999999674E+01  0.40000000000E+01  0.51100000000E-03 0. -1.
    9000002   -1    0    0    0    0 -0.00000000000E+00 -0.00000000000E+00  0.00000000000E+00  0.93800000000E+00  0.93800000000E+00 0. -1.
         11    1    1    2    0    0  0.61090951394E-01 -0.74746199659E-01  0.51599846003E+00  0.52495120781E+00  0.51100000000E-03 0. -1.
    9000002    1    1    2    0    0 -0.18708637008E+00 -0.20644865814E+00  0.65503783557E-01  0.98069215556E+00  0.93800000000E+00 0. -1.
         22    1    1    2    0    0  0.12599541869E+00  0.28119485780E+00  0.34184977238E+01  0.34323566366E+01  0.00000000000E+00 0. -1.
</event>
<event>
 5    1  0.1542234E+002  0.1599677E+01  0.7818608E-02  0.3353714E+00
         11   -1    0    0    0    0  0.00000000000E+00  0.00000000000E+00  0.39999999674E+01  0.40000000000E+01  0.51100000000E-03 0. -1.
    9000002   -1    0    0    0    0 -0.00000000000E+00 -0.00000000000E+00  0.00000000000E+00  0.93800000000E+00  0.93800000000E+00 0. -1.
         11    1    1    2    0    0 -0.51199711857E+00 -0.21390510860E-01  0.26110847124E+01  0.26608950073E+01  0.51100000000E-03 0. -1.
    9000002    1    1    2    0    0  0.71334350009E+00  0.29100020066E-01  0.36566455754E+00  0.12342043303E+01  0.93800000000E+00 0. -1.
         22    1    1    2    0    0 -0.20134638152E+00 -0.77095092059E-02  0.10232506974E+01  0.10429006624E+01  0.00000000000E+00 0. -1.
</event>
<event>
 5    1  0.1537976E+002  0.1597393E+01  0.7818608E-02  0.3356198E+00
         11   -1    0    0    0    0  0.00000000000E+00  0.00000000000E+00  0.39999999674E+01  0.40000000000E+01  0.51100000000E-03 0.  1.
    9000002   -1    0    0    0    0 -0.00000000000E+00 -0.00000000000E+00  0.00000000000E+00  0.93800000000E+00  0.93800000000E+00 0.  1.
         11    1    1    2    0    0  0.10128965537E+00 -0.23063466842E-01  0.15402784741E+01  0.15437776902E+01  0.51100000000E-03 0.  1.
    9000002    1    1    2    0    0 -0.29929856394E+00 -0.78703197707E-01  0.65748242433E-01  0.98991951950E+00  0.93800000000E+00 0.  1.
         22    1    1    2    0    0  0.19800890857E+00  0.10176666455E+00  0.23939732508E+01  0.24043027903E+01  0.00000000000E+00 0.  1.
</event>
<event>
 5    1  0.1537976E+002  0.1599677E+01  0.7818608E-02  0.3353714E+00
         11   -1    0    0    0    0  0.00000000000E+00  0.00000000000E+00  0.39999999674E+01  0.40000000000E+01  0.51100000000E-03 0. -1.
    9000002   -1    0    0    0    0 -0.00000000000E+00 -0.00000000000E+00  0.00000000000E+00  0.93800000000E+00  0.93800000000E+00 0.  1.
         11    1    1    2    0    0  0.23242107813E+00  0.21750610342E+00  0.22696066160E+01  0.22918208733E+01  0.51100000000E-03 0. -1.
    9000002    1    1    2    0    0 -0.39005517957E+00 -0.36445670853E+00  0.19623846226E+00  0.10969618360E+01  0.93800000000E+00 0.  1.
         22    1    1    2    0    0  0.15763410143E+00  0.14695060511E+00  0.15341548891E+01  0.15492172908E+01  0.00000000000E+00 0. -1.
</event>
<event>
 5    1  0.1537976E+002  0.1599670E+01  0.7818608E-02  0.3353722E+00
         11   -1    0    0    0    0  0.00000000000E+00  0.00000000000E+00  0.39999999674E+01  0.40000000000E+01  0.51100000000E-03 0.  1.
    9000002   -1    0    0    0    0 -0.00000000000E+00 -0.00000000000E+00  0.00000000000E+00  0.93800000000E+00  0.93800000000E+00 0. -1.
         11    1    1    2    0    0 -0.39919230504E-03  0.14902444347E-02  0.27546064182E-01  0.27593965933E-01  0.51100000000E-03 0. -1.
    9000002    1    1    2    0    0  0.49529590166E-01 -0.24201789679E+00  0.40535339580E-01  0.97083106482E+00  0.93800000000E+00 0. -1.
         22    1    1    2    0    0 -0.49130397861E-01  0.24052765236E+00  0.39319185636E+01  0.39395749692E+01  0.00000000000E+00 0.  1.
</event>
<event>
 5    1  0.1537976E+002  0.1599676E+01  0.7818608E-02  0.3353715E+00
         11   -1    0    0    0    0  0.00000000000E+00  0.00000000000E+00  0.39999999674E+01  0.40000000000E+01  0.51100000000E-03 0. -1.
    9000002   -1    0    0    0    0 -0.00000000000E+00 -0.00000000000E+00  0.00000000000E+00  0.93800000000E+00  0.93800000000E+00 0.  1.
         11    1    1    2    0    0 -0.85665726349E-01  0.39239819205E+00  0.19417032160E+01  0.19828077562E+01  0.51100000000E-03 0. -1.
    9000002    1    1    2    0    0  0.15807164795E+00 -0.72612484186E+00  0.39951783968E+00  0.12616269005E+01  0.93800000000E+00 0.  1.
         22    1    1    2    0    0 -0.72405921605E-01  0.33372664981E+00  0.16587789117E+01  0.16935653433E+01  0.00000000000E+00 0. -1.
</event>
<event>
 5    1  0.1537976E+002  0.1543774E+01  0.7818608E-02  0.3416745E+00
         11   -1    0    0    0    0  0.00000000000E+00  0.00000000000E+00  0.39999999674E+01  0.40000000000E+01  0.51100000000E-03 0. -1.
    9000002   -1    0    0    0    0 -0.00000000000E+00 -0.00000000000E+00  0.00000000000E+00  0.93800000000E+00  0.93800000000E+00 0. -1.
         11    1    1    2    0    0 -0.12079557369E+00  0.11806517219E+00  0.43130986906E+00  0.46320559126E+00  0.51100000000E-03 0. -1.
    9000002    1    1    2    0    0 -0.34239198762E-04  0.13585957824E+00  0.54481294284E-01  0.94935243066E+00  0.93800000000E+00 0. -1.
         22    1    1    2    0    0  0.12082981288E+00 -0.25392475044E+00  0.35142088040E+01  0.35254419781E+01  0.00000000000E+00 0. -1.
</event>
<event>
 5    1  0.1537976E+002  0.1599447E+01  0.7818608E-02  0.3353964E+00
         11   -1    0    0    0    0  0.00000000000E+00  0.00000000000E+00  0.39999999674E+01  0.40000000000E+01  0.51100000000E-03 0. -1.
    9000002   -1    0    0    0    0 -0.00000000000E+00 -0.00000000000E+00  0.00000000000E+00  0.93800000000E+00  0.93800000000E+00 0. -1.
         11    1    1    2    0    0  0.28207166398E+00 -0.76112287412E-01  0.19548383622E+01  0.19765502238E+01  0.51100000000E-03 0. -1.
    9000002    1    1    2    0    0 -0.56664623094E+00  0.12008281895E+00  0.23329498130E+00  0.11268444359E+01  0.93800000000E+00 0. -1.
         22    1    1    2    0    0  0.28457456697E+00 -0.43970531541E-01  0.18118666239E+01  0.18346053403E+01  0.00000000000E+00 0. -1.
</event>
<event>
 5    1  0.1537976E+002  0.1581982E+01  0.7818608E-02  0.3373155E+00
         11   -1    0    0    0    0  0.00000000000E+00  0.00000000000E+00  0.39999999674E+01  0.40000000000E+01  0.51100000000E-03 0. -1.
    9000002   -1    0    0    0    0 -0.00000000000E+00 -0.00000000000E+00  0.00000000000E+00  0.93800000000E+00  0.93800000000E+00 0. -1.
         11    1    1    2    0    0  0.12842265268E+00 -0.13206634463E-01  0.18546880560E+01  0.18591758495E+01  0.51100000000E-03 0. -1.
    9000002    1    1    2    0    0  0.59968418574E-01  0.97893666651E-01  0.21758941926E-01  0.94524961399E+00  0.93800000000E+00 0. -1.
         22    1    1    2    0    0 -0.18839107125E+00 -0.84687032187E-01  0.21235529694E+01  0.21335745366E+01  0.00000000000E+00 0. -1.
</event>
<event>
 5    1  0.1537976E+002  0.1599676E+01  0.7818608E-02  0.3353715E+00
         11   -1    0    0    0    0  0.00000000000E+00  0.00000000000E+00  0.39999999674E+01  0.40000000000E+01  0.51100000000E-03 0. -1.
    9000002   -1    0    0    0    0 -0.00000000000E+00 -0.00000000000E+00  0.00000000000E+00  0.93800000000E+00  0.93800000000E+00 0. -1.
         11    1    1    2    0    0 -0.63877326198E-01 -0.34967202287E-01  0.99818799633E+00  0.10008409240E+01  0.51100000000E-03 0. -1.
    9000002    1    1    2    0    0  0.25313572550E+00  0.13484486392E+00  0.54812036174E-01  0.98239971099E+00  0.93800000000E+00 0. -1.
         22    1    1    2    0    0 -0.18925839930E+00 -0.99877661631E-01  0.29469999349E+01  0.29547593650E+01  0.00000000000E+00 0. -1.
</event>
<event>
 5    1  0.1537976E+002  0.1522431E+01  0.7818608E-02  0.3442111E+00
         11   -1    0    0    0    0  0.00000000000E+00  0.00000000000E+00  0.39999999674E+01  0.40000000000E+01  0.51100000000E-03 0. -1.
    9000002   -1    0    0    0    0 -0.00000000000E+00 -0.00000000000E+00  0.00000000000E+00  0.93800000000E+00  0.93800000000E+00 0. -1.
         11    1    1    2    0    0 -0.60421728492E-01  0.30526979993E+00  0.13550855511E+01  0.13903587839E+01  0.51100000000E-03 0. -1.
    9000002    1    1    2    0    0 -0.32862929837E+00 -0.10982557233E+00  0.14537180857E+00  0.10104631784E+01  0.93800000000E+00 0. -1.
         22    1    1    2    0    0  0.38905102687E+00 -0.19544422760E+00  0.24995426077E+01  0.25371780378E+01  0.00000000000E+00 0. -1.
</event>
<event>
 5    1  0.1537976E+002  0.1599351E+01  0.7818608E-02  0.3354068E+00
         11   -1    0    0    0    0  0.00000000000E+00  0.00000000000E+00  0.39999999674E+01  0.40000000000E+01  0.51100000000E-03 0. -1.
    9000002   -1    0    0    0    0 -0.00000000000E+00 -0.00000000000E+00  0.00000000000E+00  0.93800000000E+00  0.93800000000E+00 0. -1.
         11    1    1    2    0    0  0.23691760774E+00  0.30116944437E-02  0.19257364820E+01  0.19402577876E+01  0.51100000000E-03 0. -1.
    9000002    1    1    2    0    0 -0.43603660100E+00 -0.23851257532E-01  0.12954764250E+00  0.10427480000E+01  0.93800000000E+00 0. -1.
         22    1    1    2    0    0  0.19911899326E+00  0.20839563088E-01  0.19447158428E+01  0.19549942123E+01  0.00000000000E+00 0. -1.
</event>
<event>
 5    1  0.1537976E+002  0.1599306E+01  0.7818608E-02  0.3354117E+00
         11   -1    0    0    0    0  0.00000000000E+00  0.00000000000E+00  0.39999999674E+01  0.40000000000E+01  0.51100000000E-03 0.  1.
    9000002   -1    0    0    0    0 -0.00000000000E+00 -0.00000000000E+00  0.00000000000E+00  0.93800000000E+00  0.93800000000E+00 0.  1.
         11    1    1    2    0    0 -0.41991435483E-01 -0.10753122794E-01  0.36295447075E+00  0.36553401929E+00  0.51100000000E-03 0.  1.
    9000002    1    1    2    0    0  0.30903495112E+00  0.13021537443E+00  0.75581648085E-01  0.99900712224E+00  0.93800000000E+00 0.  1.
         22    1    1    2    0    0 -0.26704351564E+00 -0.11946225163E+00  0.35614638485E+01  0.35734588585E+01  0.00000000000E+00 0.  1.
</event>
<event>
 5    1  0.1537976E+002  0.1531886E+01  0.7818608E-02  0.3430781E+00
         11   -1    0    0    0    0  0.00000000000E+00  0.00000000000E+00  0.39999999674E+01  0.40000000000E+01  0.51100000000E-03 0. -1.
    9000002   -1    0    0    0    0 -0.00000000000E+00 -0.00000000000E+00  0.00000000000E+00  0.93800000000E+00  0.93800000000E+00 0.  1.
         11    1    1    2    0    0  0.19201998704E+00 -0.25008783846E+00  0.98080265839E+00  0.10302376999E+01  0.51100000000E-03 0. -1.
    9000002    1    1    2    0    0 -0.22029156036E+00  0.51357674063E-01  0.87110835551E-01  0.96881281986E+00  0.93800000000E+00 0.  1.
         22    1    1    2    0    0  0.28271573317E-01  0.19873016440E+00  0.29320864734E+01  0.29389494803E+01  0.00000000000E+00 0. -1.
</event>
<event>
 5    1  0.1537976E+002  0.1590698E+01  0.7818608E-02  0.3363521E+00
         11   -1    0    0    0    0  0.00000000000E+00  0.00000000000E+00  0.39999999674E+01  0.40000000000E+01  0.51100000000E-03 0.  1.
    9000002   -1    0    0    0    0 -0.00000000000E+00 -0.00000000000E+00  0.00000000000E+00  0.93800000000E+00  0.93800000000E+00 0.  1.
         11    1    1    2    0    0 -0.91328661925E-01 -0.68184340828E-02  0.44416901650E+00  0.45351272515E+00  0.51100000000E-03 0.  1.
    9000002    1    1    2    0    0  0.18493511577E+00  0.21103113643E+00  0.59425254970E-01  0.98087231509E+00  0.93800000000E+00 0.  1.
         22    1    1    2    0    0 -0.93606453843E-01 -0.20421270234E+00  0.34964056959E+01  0.35036149598E+01  0.00000000000E+00 0.  1.
</event>
<event>
 5    1  0.1537976E+002  0.1592293E+01  0.7818608E-02  0.3361771E+00
         11   -1    0    0    0    0  0.00000000000E+00  0.00000000000E+00  0.39999999674E+01  0.40000000000E+01  0.51100000000E-03 0.  1.
    9000002   -1    0    0    0    0 -0.00000000000E+00 -0.00000000000E+00  0.00000000000E+00  0.93800000000E+00  0.93800000000E+00 0. -1.
         11    1    1    2    0    0 -0.37111979739E-01  0.43074098629E-01  0.10687777928E+01  0.10702891705E+01  0.51100000000E-03 0.  1.
    9000002    1    1    2    0    0  0.36235908090E-01  0.16525498983E+00  0.24414931845E-01  0.95344760821E+00  0.93800000000E+00 0. -1.
         22    1    1    2    0    0  0.87607164938E-03 -0.20832908846E+00  0.29068072427E+01  0.29142632213E+01  0.00000000000E+00 0.  1.
</event>
<event>
 5    1  0.1537976E+002  0.1599676E+01  0.7818608E-02  0.3353715E+00
         11   -1    0    0    0    0  0.00000000000E+00  0.00000000000E+00  0.39999999674E+01  0.40000000000E+01  0.51100000000E-03 0. -1.
    9000002   -1    0    0    0    0 -0.00000000000E+00 -0.00000000000E+00  0.00000000000E+00  0.93800000000E+00  0.93800000000E+00 0. -1.
         11    1    1    2    0    0  0.15970020565E-01  0.32815851343E+00  0.20964873750E+01  0.21220750755E+01  0.51100000000E-03 0. -1.
    9000002    1    1    2    0    0 -0.26475268224E-01 -0.58769509867E+00  0.24086984391E+00  0.11331146237E+01  0.93800000000E+00 0. -1.
         22    1    1    2    0    0  0.10505247659E-01  0.25953658523E+00  0.16626427484E+01  0.16828103007E+01  0.00000000000E+00 0.  1.
</event>
<event>
 5    1  0.1537976E+002  0.1599391E+01  0.7818608E-02  0.3354025E+00
         11   -1    0    0    0    0  0.00000000000E+00  0.00000000000E+00  0.39999999674E+01  0.40000000000E+01  0.51100000000E-03 0.  1.
    9000002   -1    0    0    0    0 -0.00000000000E+00 -0.00000000000E+00  0.00000000000E+00  0.93800000000E+00  0.93800000000E+00 0.  1.
         11    1    1    2    0    0 -0.43673518711E-01 -0.87731548701E-01  0.83008143522E+00  0.83584666721E+00  0.51100000000E-03 0.  1.
    9000002    1    1    2    0    0  0.19366389798E+00  0.33431420382E+00  0.10074987868E+00  0.10194440791E+01  0.93800000000E+00 0.  1.
         22    1    1    2    0    0 -0.14999037927E+00 -0.24658265512E+00  0.30691686535E+01  0.30827092537E+01  0.00000000000E+00 0.  1.
</event>
<event>
 5    1  0.1537976E+002  0.1599423E+01  0.7818608E-02  0.3353990E+00
         11   -1    0    0    0    0  0.00000000000E+00  0.00000000000E+00  0.39999999674E+01  0.40000000000E+01  0.51100000000E-03 0. -1.
    9000002   -1    0    0    0    0 -0.00000000000E+00 -0.00000000000E+00  0.00000000000E+00  0.93800000000E+00  0.93800000000E+00 0. -1.
         11    1    1    2    0    0 -0.23438432974E+00 -0.87315384020E-01  0.16475578489E+01  0.16664354523E+01  0.51100000000E-03 0. -1.
    9000002    1    1    2    0    0  0.55218377520E+00  0.23779966246E+00  0.25250503343E+00  0.11423915235E+01  0.93800000000E+00 0. -1.
         22    1    1    2    0    0 -0.31779944547E+00 -0.15048427845E+00  0.20999370851E+01  0.21291730242E+01  0.00000000000E+00 0. -1.
</event>
<event>
 5    1  0.1537976E+002  0.1571148E+01  0.7818608E-02  0.3385286E+00
         11   -1    0    0    0    0  0.00000000000E+00  0.00000000000E+00  0.39999999674E+01  0.40000000000E+01  0.51100000000E-03 0.  1.
    9000002   -1    0    0    0    0 -0.00000000000E+00 -0.00000000000E+00  0.00000000000E+00  0.93800000000E+00  0.93800000000E+00 0.  1.
         11    1    1    2    0    0  0.16562357047E+00  0.16635401747E+00  0.20871200585E+01  0.21002797971E+01  0.51100000000E-03 0.  1.
    9000002    1    1    2    0    0 -0.16068820848E+00  0.37455990996E-01  0.39436844264E-01  0.95321714016E+00  0.93800000000E+00 0.  1.
         22    1    1    2    0    0 -0.49353619890E-02 -0.20381000847E+00  0.18734430646E+01  0.18845030628E+01  0.00000000000E+00 0. -1.
</event>
<event>
 5    1  0.1537976E+002  0.1574289E+01  0.7818608E-02  0.3381751E+00
         11   -1    0    0    0    0  0.00000000000E+00  0.00000000000E+00  0.39999999674E+01  0.40000000000E+01  0.51100000000E-03 0.  1.
    9000002   -1    0    0    0    0 -0.00000000000E+00 -0.00000000000E+00  0.00000000000E+00  0.93800000000E+00  0.93800000000E+00 0. -1.
         11    1    1    2    0    0  0.40783504470E-02 -0.52266079946E-01  0.70583160637E-01  0.87923942938E-01  0.51100000000E-03 0.  1.
    9000002    1    1    2    0    0  0.20797757378E+00 -0.38675494249E-01  0.49000606994E-01  0.96280606798E+00  0.93800000000E+00 0. -1.
         22    1    1    2    0    0 -0.21205592422E+00  0.90941574194E-01  0.38804161997E+01  0.38872699891E+01  0.00000000000E+00 0.  1.
</event>
<event>
 5    1  0.1537976E+002  0.1599662E+01  0.7818608E-02  0.3353730E+00
         11   -1    0    0    0    0  0.00000000000E+00  0.00000000000E+00  0.39999999674E+01  0.40000000000E+01  0.51100000000E-03 0.  1.
    9000002   -1    0    0    0    0 -0.00000000000E+00 -0.00000000000E+00  0.00000000000E+00  0.93800000000E+00  0.93800000000E+00 0.  1.
         11    1    1    2    0    0 -0.12503168616E+00  0.81343171677E-01  0.16216345746E+01  0.16284804539E+01  0.51100000000E-03 0.  1.
    9000002    1    1    2    0    0  0.30569362732E+00 -0.20621971658E+00  0.91379238584E-01  0.10120125150E+01  0.93800000000E+00 0.  1.
         22    1    1    2    0    0 -0.18066194116E+00  0.12487654491E+00  0.22869861541E+01  0.22975070310E+01  0.00000000000E+00 0.  1.
</event>
<event>
 5    1  0.1537976E+002  0.1599677E+01  0.7818608E-02  0.3353714E+00
         11   -1    0    0    0    0  0.00000000000E+00  0.00000000000E+00  0.39999999674E+01  0.40000000000E+01  0.51100000000E-03 0.  1.
    9000002   -1    0    0    0    0 -0.00000000000E+00 -0.00000000000E+00  0.00000000000E+00  0.93800000000E+00  0.93800000000E+00 0. -1.
         11    1    1    2    0    0  0.11957465059E-01 -0.29357698058E+00  0.22436816590E+01  0.22628384990E+01  0.51100000000E-03 0.  1.
    9000002    1    1    2    0    0 -0.20271130875E-01  0.50046459251E+00  0.17176377413E+00  0.10771362594E+01  0.93800000000E+00 0. -1.
         22    1    1    2    0    0  0.83136658156E-02 -0.20688761193E+00  0.15845545342E+01  0.15980252416E+01  0.00000000000E+00 0.  1.
</event>
<event>
 5    1  0.1537976E+002  0.1599675E+01  0.7818608E-02  0.3353716E+00
         11   -1    0    0    0    0  0.00000000000E+00  0.00000000000E+00  0.39999999674E+01  0.40000000000E+01  0.51100000000E-03 0.  1.
    9000002   -1    0    0    0    0 -0.00000000000E+00 -0.00000000000E+00  0.00000000000E+00  0.93800000000E+00  0.93800000000E+00 0. -1.
         11    1    1    2    0    0 -0.39264820409E+00  0.38627930851E+00  0.22610150692E+01  0.23271385263E+01  0.51100000000E-03 0.  1.
    9000002    1    1    2    0    0  0.60335015937E+00 -0.59046822347E+00  0.53334209675E+00  0.13700299011E+01  0.93800000000E+00 0. -1.
         22    1    1    2    0    0 -0.21070195528E+00  0.20418891497E+00  0.12056428014E+01  0.12408315726E+01  0.00000000000E+00 0.  1.
</event>
<event>
 5    1  0.1537976E+002  0.1599675E+01  0.7818608E-02  0.3353717E+00
         11   -1    0    0    0    0  0.00000000000E+00  0.00000000000E+00  0.39999999674E+01  0.40000000000E+01  0.51100000000E-03 0.  1.
    9000002   -1    0    0    0    0 -0.00000000000E+00 -0.00000000000E+00  0.00000000000E+00  0.93800000000E+00  0.93800000000E+00 0.  1.
         11    1    1    2    0    0  0.14243648182E+00 -0.15944648294E+00  0.17951434483E+01  0.18078306318E+01  0.51100000000E-03 0.  1.
    9000002    1    1    2    0    0 -0.30647354439E+00  0.34641600852E+00  0.14557329792E+00  0.10559193480E+01  0.93800000000E+00 0.  1.
         22    1    1    2    0    0  0.16403706257E+00 -0.18696952559E+00  0.20592832212E+01  0.20742500202E+01  0.00000000000E+00 0.  1.
</event>
<event>
 5    1  0.1537976E+002  0.1599676E+01  0.7818608E-02  0.3353715E+00
         11   -1    0    0    0    0  0.00000000000E+00  0.00000000000E+00  0.39999999674E+01  0.40000000000E+01  0.51100000000E-03 0.  1.
    9000002   -1    0    0    0    0 -0.00000000000E+00 -0.00000000000E+00  0.00000000000E+00  0.93800000000E+00  0.93800000000E+00 0. -1.
         11    1    1    2    0    0  0.98445786288E-02  0.17384698249E-01  0.35084704493E+00  0.35141578439E+00  0.51100000000E-03 0.  1.
    9000002    1    1    2    0    0 -0.11333948109E+00 -0.20142117786E+00  0.35435375397E-01  0.96670367471E+00  0.93800000000E+00 0. -1.
         22    1    1    2    0    0  0.10349490246E+00  0.18403647961E+00  0.36137175470E+01  0.36198805409E+01  0.00000000000E+00 0.  1.
</event>
<event>
 5    1  0.1537976E+002  0.1599626E+01  0.7818608E-02  0.3353769E+00
         11   -1    0    0    0    0  0.00000000000E+00  0.00000000000E+00  0.39999999674E+01  0.40000000000E+01  0.51100000000E-03 0.  1.
    9000002   -1    0    0    0    0 -0.00000000000E+00 -0.00000000000E+00  0.00000000000E+00  0.93800000000E+00  0.93800000000E+00 0.  1.
         11    1    1    2    0    0 -0.14165931535E+00 -0.83244882915E-01  0.17617141842E+01  0.17693598278E+01  0.51100000000E-03 0.  1.
    9000002    1    1    2    0    0  0.31713965089E+00  0.20313709667E+00  0.95439692027E-01  0.10152807361E+01  0.93800000000E+00 0.  1.
         22    1    1    2    0    0 -0.17548033554E+00 -0.11989221376E+00  0.21428460911E+01  0.21533594362E+01  0.00000000000E+00 0.  1.
</event>
<event>
 5    1  0.1537976E+002  0.1599676E+01  0.7818608E-02  0.3353715E+00
         11   -1    0    0    0    0  0.00000000000E+00  0.00000000000E+00  0.39999999674E+01  0.40000000000E+01  0.51100000000E-03 0.  1.
    9000002   -1    0    0    0    0 -0.00000000000E+00 -0.00000000000E+00  0.00000000000E+00  0.93800000000E+00  0.93800000000E+00 0. -1.
         11    1    1    2    0    0  0.31774584591E+00 -0.50749521617E-01  0.22716720735E+01  0.22943478827E+01  0.51100000000E-03 0.  1.
    9000002    1    1    2    0    0 -0.53154157320E+00  0.83083336551E-01  0.19946814637E+00  0.10995775672E+01  0.93800000000E+00 0. -1.
         22    1    1    2    0    0  0.21379572729E+00 -0.32333814933E-01  0.15288597475E+01  0.15440745501E+01  0.00000000000E+00 0. -1.
</event>
<event>
 5    1  0.1537976E+002  0.1578009E+01  0.7818608E-02  0.3377584E+00
         11   -1    0    0    0    0  0.00000000000E+00  0.00000000000E+00  0.39999999674E+01  0.40000000000E+01  0.51100000000E-03 0.  1.
    9000002   -1    0    0    0    0 -0.00000000000E+00 -0.00000000000E+00  0.00000000000E+00  0.93800000000E+00  0.93800000000E+00 0.  1.
         11    1    1    2    0    0 -0.22531943206E-01 -0.85430450969E-01  0.70261678465E+00  0.70815016601E+00  0.51100000000E-03 0.  1.
    9000002    1    1    2    0    0 -0.27975711705E+00 -0.16385387794E+00  0.87674779383E-01  0.99631471172E+00  0.93800000000E+00 0.  1.
         22    1    1    2    0    0  0.30228906026E+00  0.24928432891E+00  0.32097084033E+01  0.32335351223E+01  0.00000000000E+00 0.  1.
</event>
<event>
 5    1  0.1537976E+002  0.1598734E+01  0.7818608E-02  0.3354739E+00
         11   -1    0    0    0    0  0.00000000000E+00  0.00000000000E+00  0.39999999674E+01  0.40000000000E+01  0.51100000000E-03 0.  1.
    9000002   -1    0    0    0    0 -0.00000000000E+00 -0.00000000000E+00  0.00000000000E+00  0.93800000000E+00  0.93800000000E+00 0.  1.
         11    1    1    2    0    0  0.39274814629E-02 -0.40164671643E-01  0.52403976590E+00  0.52559163171E+00  0.51100000000E-03 0.  1.
    9000002    1    1    2    0    0  0.14866850904E+00  0.24005941371E+00  0.53836992583E-01  0.98105722028E+00  0.93800000000E+00 0.  1.
         22    1    1    2    0    0 -0.15259599050E+00 -0.19989474207E+00  0.34221232089E+01  0.34313511480E+01  0.00000000000E+00 0. -1.
</event>
<event>
 5    1  0.1537976E+002  0.1473442E+01  0.7818608E-02  0.3503326E+00
         11   -1    0    0    0    0  0.00000000000E+00  0.00000000000E+00  0.39999999674E+01  0.40000000000E+01  0.51100000000E-03 0. -1.
    9000002   -1    0    0    0    0 -0.00000000000E+00 -0.00000000000E+00  0.00000000000E+00  0.93800000000E+00  0.93800000000E+00 0. -1.
         11    1    1    2    0    0 -0.30267888947E+00  0.16820625436E+00  0.36369770300E+01  0.36534244254E+01  0.51100000000E-03 0. -1.
    9000002    1    1    2    0    0  0.10944579393E+00 -0.24884442929E+00  0.15390826698E+00  0.98865245989E+00  0.93800000000E+00 0. -1.
         22    1    1    2    0    0  0.19323309554E+00  0.80638174928E-01  0.20911467040E+00  0.29592311475E+00  0.00000000000E+00 0. -1.
</event>
<event>
 5    1  0.1537976E+002  0.1582268E+01  0.7818608E-02  0.3372836E+00
         11   -1    0    0    0    0  0.00000000000E+00  0.00000000000E+00  0.39999999674E+01  0.40000000000E+01  0.51100000000E-03 0. -1.
    9000002   -1    0    0    0    0 -0.00000000000E+00 -0.00000000000E+00  0.00000000000E+00  0.93800000000E+00  0.93800000000E+00 0.  1.
         11    1    1    2    0    0 -0.43988866448E-01 -0.10416817536E+00  0.18021660919E+01  0.18057100855E+01  0.51100000000E-03 0. -1.
    9000002    1    1    2    0    0 -0.48373314641E-01 -0.87274744679E-01  0.19381052685E-01  0.94349164481E+00  0.93800000000E+00 0.  1.
         22    1    1    2    0    0  0.92362181088E-01  0.19144292004E+00  0.21784528228E+01  0.21887982697E+01  0.00000000000E+00 0. -1.
</event>
<event>
 5    1  0.1537976E+002  0.1599542E+01  0.7818608E-02  0.3353861E+00
         11   -1    0    0    0    0  0.00000000000E+00  0.00000000000E+00  0.39999999674E+01  0.40000000000E+01  0.51100000000E-03 0.  1.
    9000002   -1    0    0    0    0 -0.00000000000E+00 -0.00000000000E+00  0.00000000000E+00  0.93800000000E+00  0.93800000000E+00 0.  1.
         11    1    1    2    0    0 -0.61075739245E-02 -0.58295784413E-02  0.12315286400E+00  0.12344300497E+00  0.51100000000E-03 0.  1.
    9000002    1    1    2    0    0  0.21963465942E+00  0.33889172179E-01  0.32844415383E-01  0.96452610915E+00  0.93800000000E+00 0.  1.
         22    1    1    2    0    0 -0.21352708550E+00 -0.28059593738E-01  0.38440026880E+01  0.38500308859E+01  0.00000000000E+00 0.  1.
</event>
<event>
 5    1  0.1537976E+002  0.1597722E+01  0.7818608E-02  0.3355839E+00
         11   -1    0    0    0    0  0.00000000000E+00  0.00000000000E+00  0.39999999674E+01  0.40000000000E+01  0.51100000000E-03 0.  1.
    9000002   -1    0    0    0    0 -0.00000000000E+00 -0.00000000000E+00  0.00000000000E+00  0.93800000000E+00  0.93800000000E+00 0. -1.
         11    1    1    2    0    0 -0.32339292242E-01  0.15606175825E-01  0.22586721975E+00  0.22870427330E+00  0.51100000000E-03 0.  1.
    9000002    1    1    2    0    0  0.24217944067E+00  0.15009937091E-01  0.40579782841E-01  0.96972516646E+00  0.93800000000E+00 0. -1.
         22    1    1    2    0    0 -0.20984014843E+00 -0.30616112915E-01  0.37335529648E+01  0.37395705602E+01  0.00000000000E+00 0.  1.
</event>
<event>
 5    1  0.1537976E+002  0.1599673E+01  0.7818608E-02  0.3353718E+00
         11   -1    0    0    0    0  0.00000000000E+00  0.00000000000E+00  0.39999999674E+01  0.40000000000E+01  0.51100000000E-03 0. -1.
    9000002   -1    0    0    0    0 -0.00000000000E+00 -0.00000000000E+00  0.00000000000E+00  0.93800000000E+00  0.93800000000E+00 0.  1.
         11    1    1    2    0    0  0.94667932066E-01  0.57560766063E-01  0.58970639423E+00  0.60002429257E+00  0.51100000000E-03 0. -1.
    9000002    1    1    2    0    0 -0.58401826120E+00 -0.34896649548E+00  0.32908818802E+00  0.12045737752E+01  0.93800000000E+00 0.  1.
         22    1    1    2    0    0  0.48935032913E+00  0.29140572942E+00  0.30812053851E+01  0.31334019322E+01  0.00000000000E+00 0. -1.
</event>
<event>
 5    1  0.1537976E+002  0.1599661E+01  0.7818608E-02  0.3353732E+00
         11   -1    0    0    0    0  0.00000000000E+00  0.00000000000E+00  0.39999999674E+01  0.40000000000E+01  0.51100000000E-03 0. -1.
    9000002   -1    0    0    0    0 -0.00000000000E+00 -0.00000000000E+00  0.00000000000E+00  0.93800000000E+00  0.93800000000E+00 0. -1.
         11    1    1    2    0    0  0.20775902890E-02  0.18706577013E+00  0.17251343740E+01  0.17352483362E+01  0.51100000000E-03 0. -1.
    9000002    1    1    2    0    0  0.32394591230E-02 -0.42783416554E+00  0.12394668769E+00  0.10383926756E+01  0.93800000000E+00 0. -1.
         22    1    1    2    0    0 -0.53170494119E-02  0.24076839541E+00  0.21509189057E+01  0.21643589882E+01  0.00000000000E+00 0. -1.
</event>
<event>
 5    1  0.1537976E+002  0.1599482E+01  0.7818608E-02  0.3353926E+00
         11   -1    0    0    0    0  0.00000000000E+00  0.00000000000E+00  0.39999999674E+01  0.40000000000E+01  0.51100000000E-03 0.  1.
    9000002   -1    0    0    0    0 -0.00000000000E+00 -0.00000000000E+00  0.00000000000E+00  0.93800000000E+00  0.93800000000E+00 0. -1.
         11    1    1    2    0    0 -0.10314984952E+00 -0.66031708835E-01  0.12369021081E+01  0.12429509902E+01  0.51100000000E-03 0.  1.
    9000002    1    1    2    0    0  0.36414515736E+00  0.23400410392E+00  0.12710396455E+00  0.10408453459E+01  0.93800000000E+00 0. -1.
         22    1    1    2    0    0 -0.26099530785E+00 -0.16797239509E+00  0.26359938947E+01  0.26542036639E+01  0.00000000000E+00 0.  1.
</event>
<event>
 5    1  0.1537976E+002  0.1599616E+01  0.7818608E-02  0.3353781E+00
         11   -1    0    0    0    0  0.00000000000E+00  0.00000000000E+00  0.39999999674E+01  0.40000000000E+01  0.51100000000E-03 0. -1.
    9000002   -1    0    0    0    0 -0.00000000000E+00 -0.00000000000E+00  0.00000000000E+00  0.93800000000E+00  0.93800000000E+00 0. -1.
         11    1    1    2    0    0  0.15069331225E-01  0.12052844024E+00  0.12054353437E+01  0.12115398543E+01  0.51100000000E-03 0. -1.
    9000002    1    1    2    0    0 -0.67390734184E-01 -0.40929266671E+00  0.11633632602E+00  0.10322015980E+01  0.93800000000E+00 0. -1.
         22    1    1    2    0    0  0.52321402959E-01  0.28876422647E+00  0.26782282977E+01  0.26942585478E+01  0.00000000000E+00 0. -1.
</event>
<event>
 5    1  0.1537976E+002  0.1599444E+01  0.7818608E-02  0.3353967E+00
         11   -1    0    0    0    0  0.00000000000E+00  0.00000000000E+00  0.39999999674E+01  0.40000000000E+01  0.51100000000E-03 0.  1.
    9000002   -1    0    0    0    0 -0.00000000000E+00 -0.00000000000E+00  0.00000000000E+00  0.93800000000E+00  0.93800000000E+00 0.  1.
         11    1    1    2    0    0  0.26400710505E+00  0.72742172335E-01  0.21061515532E+01  0.21238798933E+01  0.51100000000E-03 0.  1.
    9000002    1    1    2    0    0 -0.47068554088E+00 -0.10106740871E+00  0.15837624953E+00  0.10661550243E+01  0.93800000000E+00 0.  1.
         22    1    1    2    0    0  0.20667843583E+00  0.28325236371E-01  0.17354721646E+01  0.17479650823E+01  0.00000000000E+00 0.  1.
</event>
<event>
 5    1  0.1537976E+002  0.1599674E+01  0.7818608E-02  0.3353717E+00
         11   -1    0    0    0    0  0.00000000000E+00  0.00000000000E+00  0.39999999674E+01  0.40000000000E+01  0.51100000000E-03 0.  1.
    9000002   -1    0    0    0    0 -0.00000000000E+00 -0.00000000000E+00  0.00000000000E+00  0.93800000000E+00  0.93800000000E+00 0.  1.
         11    1    1    2    0    0 -0.81772724740E-01 -0.37167071802E-01  0.93073675551E+00  0.93506114181E+00  0.51100000000E-03 0.  1.
    9000002    1    1    2    0    0  0.34618637924E+00  0.16165809490E+00  0.98246874921E-01  0.10175828208E+01  0.93800000000E+00 0.  1.
         22    1    1    2    0    0 -0.26441365450E+00 -0.12449102310E+00  0.29710163369E+01  0.29853560374E+01  0.00000000000E+00 0.  1.
</event>
<event>
 5    1  0.1537976E+002  0.1558688E+01  0.7818608E-02  0.3399460E+00
         11   -1    0    0    0    0  0.00000000000E+00  0.00000000000E+00  0.39999999674E+01  0.40000000000E+01  0.51100000000E-03 0.  1.
    9000002   -1    0    0    0    0 -0.00000000000E+00 -0.00000000000E+00  0.00000000000E+00  0.93800000000E+00  0.93800000000E+00 0. -1.
         11    1    1    2    0    0  0.12965448507E+00 -0.35368606381E-01  0.36037617715E+00  0.38461990847E+00  0.51100000000E-03 0.  1.
    9000002    1    1    2    0    0  0.68912731992E-01 -0.51043496800E-01  0.35317374778E-01  0.94257398657E+00  0.93800000000E+00 0. -1.
         22    1    1    2    0    0 -0.19856721706E+00  0.86412103181E-01  0.36043064154E+01  0.36108061050E+01  0.00000000000E+00 0.  1.
</event>
<event>
 5    1  0.1537976E+002  0.1599537E+01  0.7818608E-02  0.3353866E+00
         11   -1    0    0    0    0  0.00000000000E+00  0.00000000000E+00  0.39999999674E+01  0.40000000000E+01  0.51100000000E-03 0.  1.
    9000002   -1    0    0    0    0 -0.00000000000E+00 -0.00000000000E+00  0.00000000000E+00  0.93800000000E+00  0.93800000000E+00 0. -1.
         11    1    1    2    0    0 -0.15432956078E-01  0.37477486677E-01  0.47245116112E+00  0.47418677639E+00  0.51100000000E-03 0.  1.
    9000002    1    1    2    0    0  0.16744155666E+00 -0.24590854822E+00  0.59140257827E-01  0.98582415221E+00  0.93800000000E+00 0. -1.
         22    1    1    2    0    0 -0.15200860058E+00  0.20843106154E+00  0.34684085484E+01  0.34779890714E+01  0.00000000000E+00 0.  1.
</event>
<event>
 5    1  0.1537976E+002  0.1599630E+01  0.7818608E-02  0.3353765E+00
         11   -1    0    0    0    0  0.00000000000E+00  0.00000000000E+00  0.39999999674E+01  0.40000000000E+01  0.51100000000E-03 0.  1.
    9000002   -1    0    0    0    0 -0.00000000000E+00 -0.00000000000E+00  0.00000000000E+00  0.93800000000E+00  0.93800000000E+00 0.  1.
         11    1    1    2    0    0 -0.15275909072E+00  0.13484148232E+00  0.12290837471E+01  0.12458590143E+01  0.51100000000E-03 0.  1.
    9000002    1    1    2    0    0  0.47126808051E+00 -0.38750523137E+00  0.26033788648E+00  0.11488575731E+01  0.93800000000E+00 0.  1.
         22    1    1    2    0    0 -0.31850898980E+00  0.25266374905E+00  0.25105783338E+01  0.25432834126E+01  0.00000000000E+00 0. -1.
</event>
<event>
 5    1  0.1537976E+002  0.1599623E+01  0.7818608E-02  0.3353772E+00
         11   -1    0    0    0    0  0.00000000000E+00  0.00000000000E+00  0.39999999674E+01  0.40000000000E+01  0.51100000000E-03 0.  1.
    9000002   -1    0    0    0    0 -0.00000000000E+00 -0.00000000000E+00  0.00000000000E+00  0.93800000000E+00  0.93800000000E+00 0.  1.
         11    1    1    2    0    0 -0.12794677699E+00  0.31405338782E+00  0.24192680556E+01  0.24429199934E+01  0.51100000000E-03 0.  1.
    9000002    1    1    2    0    0  0.19280152643E+00 -0.50380771274E+00  0.20064290556E+00  0.11004981670E+01  0.93800000000E+00 0.  1.
         22    1    1    2    0    0 -0.64854749438E-01  0.18975432492E+00  0.13800890062E+01  0.13945818396E+01  0.00000000000E+00 0. -1.
</event>
<event>
 5    1  0.1537976E+002  0.1599675E+01  0.7818608E-02  0.3353716E+00
         11   -1    0    0    0    0  0.00000000000E+00  0.00000000000E+00  0.39999999674E+01  0.40000000000E+01  0.51100000000E-03 0. -1.
    9000002   -1    0    0    0    0 -0.00000000000E+00 -0.00000000000E+00  0.00000000000E+00  0.93800000000E+00  0.93800000000E+00 0.  1.
         11    1    1    2    0    0 -0.43731876513E-02 -0.72354720333E-02  0.11567841080E+00  0.11598807125E+00  0.51100000000E-03 0. -1.
    9000002    1    1    2    0    0  0.13987515299E+00  0.24444129746E+00  0.52827127446E-01  0.98079116621E+00  0.93800000000E+00 0.  1.
         22    1    1    2    0    0 -0.13550196534E+00 -0.23720582542E+00  0.38314944291E+01  0.38412207625E+01  0.00000000000E+00 0. -1.
</event>
<event>
 5    1  0.1537976E+002  0.1563848E+01  0.7818608E-02  0.3393561E+00
         11   -1    0    0    0    0  0.00000000000E+00  0.00000000000E+00  0.39999999674E+01  0.40000000000E+01  0.51100000000E-03 0. -1.
    9000002   -1    0    0    0    0 -0.00000000000E+00 -0.00000000000E+00  0.00000000000E+00  0.93800000000E+00  0.93800000000E+00 0.  1.
         11    1    1    2    0    0  0.17447084059E+00  0.50084336028E-01  0.25792500645E+01  0.25856294536E+01  0.51100000000E-03 0. -1.
    9000002    1    1    2    0    0  0.19147217330E-01  0.94133657621E-01  0.32691280368E-01  0.94347256518E+00  0.93800000000E+00 0.  1.
         22    1    1    2    0    0 -0.19361805792E+00 -0.14421799365E+00  0.13880586225E+01  0.14088979812E+01  0.00000000000E+00 0. -1.
</event>
<event>
 5    1  0.1537976E+002  0.1599662E+01  0.7818608E-02  0.3353730E+00
         11   -1    0    0    0    0  0.00000000000E+00  0.00000000000E+00  0.39999999674E+01  0.40000000000E+01  0.51100000000E-03 0. -1.
    9000002   -1    0    0    0    0 -0.00000000000E+00 -0.00000000000E+00  0.00000000000E+00  0.93800000000E+00  0.93800000000E+00 0. -1.
         11    1    1    2    0    0  0.40416022831E+00 -0.21613504766E+00  0.23715833800E+01  0.24154643111E+01  0.51100000000E-03 0. -1.
    9000002    1    1    2    0    0 -0.61767889564E+00  0.32742102475E+00  0.34921579897E+00  0.12208715820E+01  0.93800000000E+00 0. -1.
         22    1    1    2    0    0  0.21351866733E+00 -0.11128597708E+00  0.12792007884E+01  0.13016641068E+01  0.00000000000E+00 0. -1.
</event>
<event>
 5    1  0.1537976E+002  0.1598933E+01  0.7818608E-02  0.3354522E+00
         11   -1    0    0    0    0  0.00000000000E+00  0.00000000000E+00  0.39999999674E+01  0.40000000000E+01  0.51100000000E-03 0.  1.
    9000002   -1    0    0    0    0 -0.00000000000E+00 -0.00000000000E+00  0.00000000000E+00  0.93800000000E+00  0.93800000000E+00 0.  1.
         11    1    1    2    0    0 -0.16031037742E+00 -0.33383955294E+00  0.21680449959E+01  0.21994471191E+01  0.51100000000E-03 0.  1.
    9000002    1    1    2    0    0  0.23019675629E+00  0.60433231717E+00  0.29565487364E+00  0.11770573055E+01  0.93800000000E+00 0.  1.
         22    1    1    2    0    0 -0.69886378866E-01 -0.27049276422E+00  0.15363000978E+01  0.15614955754E+01  0.00000000000E+00 0. -1.
</event>
<event>
 5    1  0.1537976E+002  0.1586461E+01  0.7818608E-02  0.3368190E+00
         11   -1    0    0    0    0  0.00000000000E+00  0.00000000000E+00  0.39999999674E+01  0.40000000000E+01  0.51100000000E-03 0.  1.
    9000002   -1    0    0    0    0 -0.00000000000E+00 -0.00000000000E+00  0.00000000000E+00  0.93800000000E+00  0.93800000000E+00 0.  1.
         11    1    1    2    0    0  0.39516253840E-01 -0.27371240717E-01  0.19293194055E+00  0.19883086768E+00  0.51100000000E-03 0.  1.
    9000002    1    1    2    0    0  0.18561363404E+00 -0.15478104260E+00  0.48908712415E-01  0.96986888518E+00  0.93800000000E+00 0.  1.
         22    1    1    2    0    0 -0.22512988788E+00  0.18215228332E+00  0.37581593144E+01  0.37693002471E+01  0.00000000000E+00 0.  1.
</event>
<event>
 5    1  0.1537976E+002  0.1599574E+01  0.7818608E-02  0.3353826E+00
         11   -1    0    0    0    0  0.00000000000E+00  0.00000000000E+00  0.39999999674E+01  0.40000000000E+01  0.51100000000E-03 0.  1.
    9000002   -1    0    0    0    0 -0.00000000000E+00 -0.00000000000E+00  0.00000000000E+00  0.93800000000E+00  0.93800000000E+00 0. -1.
         11    1    1    2    0    0 -0.11058688416E+00  0.15074519561E+00  0.12307847987E+01  0.12449036327E+01  0.51100000000E-03 0.  1.
    9000002    1    1    2    0    0  0.36186451787E+00 -0.43563238476E+00  0.22232264358E+00  0.11180307964E+01  0.93800000000E+00 0. -1.
         22    1    1    2    0    0 -0.25127763371E+00  0.28488718914E+00  0.25468925251E+01  0.25750655708E+01  0.00000000000E+00 0.  1.
</event>
<event>
 5    1  0.1537976E+002  0.1533811E+01  0.7818608E-02  0.3428492E+00
         11   -1    0    0    0    0  0.00000000000E+00  0.00000000000E+00  0.39999999674E+01  0.40000000000E+01  0.51100000000E-03 0.  1.
    9000002   -1    0    0    0    0 -0.00000000000E+00 -0.00000000000E+00  0.00000000000E+00  0.93800000000E+00  0.93800000000E+00 0. -1.
         11    1    1    2    0    0  0.22149905080E+00 -0.13373606073E+00  0.99069002963E+00  0.10239209732E+01  0.51100000000E-03 0.  1.
    9000002    1    1    2    0    0 -0.15233946625E+00 -0.25389621353E+00  0.11182201245E+00  0.98995897021E+00  0.93800000000E+00 0. -1.
         22    1    1    2    0    0 -0.69159584552E-01  0.38763227426E+00  0.28974879253E+01  0.29241200566E+01  0.00000000000E+00 0.  1.
</event>
<event>
 5    1  0.1537976E+002  0.1599154E+01  0.7818608E-02  0.3354282E+00
         11   -1    0    0    0    0  0.00000000000E+00  0.00000000000E+00  0.39999999674E+01  0.40000000000E+01  0.51100000000E-03 0. -1.
    9000002   -1    0    0    0    0 -0.00000000000E+00 -0.00000000000E+00  0.00000000000E+00  0.93800000000E+00  0.93800000000E+00 0. -1.
         11    1    1    2    0    0  0.53772280755E-01 -0.20808666883E-01  0.73309917798E+00  0.73536326035E+00  0.51100000000E-03 0. -1.
    9000002    1    1    2    0    0 -0.26100306133E+00  0.54820990493E-03  0.45694246850E-01  0.97470757807E+00  0.93800000000E+00 0. -1.
         22    1    1    2    0    0  0.20723078057E+00  0.20260456979E-01  0.32212065425E+01  0.32279291616E+01  0.00000000000E+00 0. -1.
</event>
<event>
 5    1  0.1537976E+002  0.1547546E+01  0.7818608E-02  0.3412339E+00
         11   -1    0    0    0    0  0.00000000000E+00  0.00000000000E+00  0.39999999674E+01  0.40000000000E+01  0.51100000000E-03 0.  1.
    9000002   -1    0    0    0    0 -0.00000000000E+00 -0.00000000000E+00  0.00000000000E+00  0.93800000000E+00  0.93800000000E+00 0. -1.
         11    1    1    2    0    0 -0.29646373160E+00  0.17883556683E+00  0.31281418456E+01  0.31472439644E+01  0.51100000000E-03 0.  1.
    9000002    1    1    2    0    0  0.38076487818E+00  0.46444808920E-01  0.14325757588E+00  0.10234772815E+01  0.93800000000E+00 0. -1.
         22    1    1    2    0    0 -0.84301146580E-01 -0.22528037575E+00  0.72860054585E+00  0.76727875406E+00  0.00000000000E+00 0.  1.
</event>
<event>
 5    1  0.1537976E+002  0.1599676E+01  0.7818608E-02  0.3353715E+00
         11   -1    0    0    0    0  0.00000000000E+00  0.00000000000E+00  0.39999999674E+01  0.40000000000E+01  0.51100000000E-03 0. -1.
    9000002   -1    0    0    0    0 -0.00000000000E+00 -0.00000000000E+00  0.00000000000E+00  0.93800000000E+00  0.93800000000E+00 0.  1.
         11    1    1    2    0    0 -0.34301417654E-01 -0.65846810314E-01  0.96038446937E+00  0.96325021662E+00  0.51100000000E-03 0. -1.
    9000002    1    1    2    0    0  0.14192694730E+00  0.26673237188E+00  0.60913056483E-01  0.98734179342E+00  0.93800000000E+00 0.  1.
         22    1    1    2    0    0 -0.10762552965E+00 -0.20088556156E+00  0.29787024415E+01  0.29874079900E+01  0.00000000000E+00 0. -1.
</event>
<event>
 5    1  0.1537976E+002  0.1599659E+01  0.7818608E-02  0.3353734E+00
         11   -1    0    0    0    0  0.00000000000E+00  0.00000000000E+00  0.39999999674E+01  0.40000000000E+01  0.51100000000E-03 0. -1.
    9000002   -1    0    0    0    0 -0.00000000000E+00 -0.00000000000E+00  0.00000000000E+00  0.93800000000E+00  0.93800000000E+00 0. -1.
         11    1    1    2    0    0  0.98418002752E-02  0.13458613441E-01  0.24323280306E+00  0.24380412817E+00  0.51100000000E-03 0. -1.
    9000002    1    1    2    0    0 -0.15326476855E+00 -0.18019962665E+00  0.37151803821E-01  0.96808380384E+00  0.93800000000E+00 0. -1.
         22    1    1    2    0    0  0.14342296827E+00  0.16674101321E+00  0.37196153605E+01  0.37261120680E+01  0.00000000000E+00 0. -1.
</event>
<event>
 5    1  0.1537976E+002  0.1560586E+01  0.7818608E-02  0.3397286E+00
         11   -1    0    0    0    0  0.00000000000E+00  0.00000000000E+00  0.39999999674E+01  0.40000000000E+01  0.51100000000E-03 0. -1.
    9000002   -1    0    0    0    0 -0.00000000000E+00 -0.00000000000E+00  0.00000000000E+00  0.93800000000E+00  0.93800000000E+00 0. -1.
         11    1    1    2    0    0 -0.14155922917E+00  0.20930785053E-02  0.44026440780E+00  0.46246773534E+00  0.51100000000E-03 0. -1.
    9000002    1    1    2    0    0 -0.81475316493E-01  0.17218376793E-01  0.33590880456E-01  0.94228819739E+00  0.93800000000E+00 0. -1.
         22    1    1    2    0    0  0.22303454566E+00 -0.19311455299E-01  0.35261446791E+01  0.35332440673E+01  0.00000000000E+00 0. -1.
</event>
<event>
 5    1  0.1537976E+002  0.1599676E+01  0.7818608E-02  0.3353715E+00
         11   -1    0    0    0    0  0.00000000000E+00  0.00000000000E+00  0.39999999674E+01  0.40000000000E+01  0.51100000000E-03 0. -1.
    9000002   -1    0    0    0    0 -0.00000000000E+00 -0.00000000000E+00  0.00000000000E+00  0.93800000000E+00  0.93800000000E+00 0. -1.
         11    1    1    2    0    0  0.51888040595E+00  0.19793183431E+00  0.24823860081E+01  0.25437481088E+01  0.51100000000E-03 0. -1.
    9000002    1    1    2    0    0 -0.73973034309E+00 -0.28355873558E+00  0.46110203620E+00  0.13115127238E+01  0.93800000000E+00 0. -1.
         22    1    1    2    0    0  0.22084993714E+00  0.85626901271E-01  0.10565119231E+01  0.10827391674E+01  0.00000000000E+00 0. -1.
</event>
<event>
 5    1  0.1537976E+002  0.1589090E+01  0.7818608E-02  0.3365291E+00
         11   -1    0    0    0    0  0.00000000000E+00  0.00000000000E+00  0.39999999674E+01  0.40000000000E+01  0.51100000000E-03 0. -1.
    9000002   -1    0    0    0    0 -0.00000000000E+00 -0.00000000000E+00  0.00000000000E+00  0.93800000000E+00  0.93800000000E+00 0. -1.
         11    1    1    2    0    0 -0.48906077818E-01  0.26687023678E-01  0.24459328281E+00  0.25085879852E+00  0.51100000000E-03 0. -1.
    9000002    1    1    2    0    0  0.13359136314E+00  0.28213117241E+00  0.73469429246E-01  0.99130540591E+00  0.93800000000E+00 0. -1.
         22    1    1    2    0    0 -0.84685285319E-01 -0.30881819609E+00  0.36819372553E+01  0.36958357956E+01  0.00000000000E+00 0. -1.
</event>
<event>
 5    1  0.1537976E+002  0.1599554E+01  0.7818608E-02  0.3353848E+00
         11   -1    0    0    0    0  0.00000000000E+00  0.00000000000E+00  0.39999999674E+01  0.40000000000E+01  0.51100000000E-03 0. -1.
    9000002   -1    0    0    0    0 -0.00000000000E+00 -0.00000000000E+00  0.00000000000E+00  0.93800000000E+00  0.93800000000E+00 0. -1.
         11    1    1    2    0    0 -0.13677725019E+00  0.17258658083E+00  0.13753333938E+01  0.13928518763E+01  0.51100000000E-03 0. -1.
    9000002    1    1    2    0    0  0.34560338881E+00 -0.45393749779E+00  0.22584242451E+00  0.11208700884E+01  0.93800000000E+00 0. -1.
         22    1    1    2    0    0 -0.20882613862E+00  0.28135091696E+00  0.23988241491E+01  0.24242780354E+01  0.00000000000E+00 0.  1.
</event>
<event>
 5    1  0.1537976E+002  0.1597037E+01  0.7818608E-02  0.3356585E+00
         11   -1    0    0    0    0  0.00000000000E+00  0.00000000000E+00  0.39999999674E+01  0.40000000000E+01  0.51100000000E-03 0.  1.
    9000002   -1    0    0    0    0 -0.00000000000E+00 -0.00000000000E+00  0.00000000000E+00  0.93800000000E+00  0.93800000000E+00 0. -1.
         11    1    1    2    0    0 -0.29399090706E-01 -0.45867105557E-01  0.95481862288E+00  0.95637176957E+00  0.51100000000E-03 0.  1.
    9000002    1    1    2    0    0  0.24179398480E+00  0.65202709043E-02  0.40854797039E-01  0.96954626473E+00  0.93800000000E+00 0. -1.
         22    1    1    2    0    0 -0.21239489409E+00  0.39346834653E-01  0.30043265474E+01  0.30120819657E+01  0.00000000000E+00 0.  1.
</event>
<event>
 5    1  0.2104272E+002  0.1595570E+01  0.7818608E-02  0.3358186E+00
         11   -1    0    0    0    0  0.00000000000E+00  0.00000000000E+00  0.39999999674E+01  0.40000000000E+01  0.51100000000E-03 0.  1.
    9000002   -1    0    0    0    0 -0.00000000000E+00 -0.00000000000E+00  0.00000000000E+00  0.93800000000E+00  0.93800000000E+00 0. -1.
         11    1    1    2    0    0  0.43013320664E-02 -0.22381892628E-01  0.10743493877E+00  0.10982703568E+00  0.51100000000E-03 0.  1.
    9000002    1    1    2    0    0  0.19033002760E+00 -0.32588009915E-01  0.27752023105E-01  0.95807185147E+00  0.93800000000E+00 0. -1.
         22    1    1    2    0    0 -0.19463135967E+00  0.54969902543E-01  0.38648130055E+01  0.38701011129E+01  0.00000000000E+00 0.  1.
</event>
<event>
 5    1  0.1537976E+002  0.1599676E+01  0.7818608E-02  0.3353715E+00
         11   -1    0    0    0    0  0.00000000000E+00  0.00000000000E+00  0.39999999674E+01  0.40000000000E+01  0.51100000000E-03 0.  1.
    9000002   -1    0    0    0    0 -0.00000000000E+00 -0.00000000000E+00  0.00000000000E+00  0.93800000000E+00  0.93800000000E+00 0. -1.
         11    1    1    2    0    0 -0.29452962030E-01  0.40560341538E-01  0.77539066225E+00  0.77700936835E+00  0.51100000000E-03 0.  1.
    9000002    1    1    2    0    0  0.15441140407E+00 -0.20808159914E+00  0.44633426231E-01  0.97415449306E+00  0.93800000000E+00 0. -1.
         22    1    1    2    0    0 -0.12495844204E+00  0.16752125760E+00  0.31799758789E+01  0.31868361386E+01  0.00000000000E+00 0.  1.
</event>
<event>
 5    1  0.1537976E+002  0.1599399E+01  0.7818608E-02  0.3354016E+00
         11   -1    0    0    0    0  0.00000000000E+00  0.00000000000E+00  0.39999999674E+01  0.40000000000E+01  0.51100000000E-03 0.  1.
    9000002   -1    0    0    0    0 -0.00000000000E+00 -0.00000000000E+00  0.00000000000E+00  0.93800000000E+00  0.93800000000E+00 0. -1.
         11    1    1    2    0    0  0.17752709707E-02  0.55211699002E+00  0.25614277838E+01  0.26202574063E+01  0.51100000000E-03 0.  1.
    9000002    1    1    2    0    0 -0.26238056805E-01 -0.76219835626E+00  0.42362179490E+00  0.12809895374E+01  0.93800000000E+00 0. -1.
         22    1    1    2    0    0  0.24462785834E-01  0.21008136624E+00  0.10149503886E+01  0.10367530563E+01  0.00000000000E+00 0.  1.
</event>
<event>
 5    1  0.1537976E+002  0.1599657E+01  0.7818608E-02  0.3353735E+00
         11   -1    0    0    0    0  0.00000000000E+00  0.00000000000E+00  0.39999999674E+01  0.40000000000E+01  0.51100000000E-03 0.  1.
    9000002   -1    0    0    0    0 -0.00000000000E+00 -0.00000000000E+00  0.00000000000E+00  0.93800000000E+00  0.93800000000E+00 0.  1.
         11    1    1    2    0    0 -0.44107560424E-01 -0.24091633709E-01  0.59536465233E+00  0.59748239645E+00  0.51100000000E-03 0.  1.
    9000002    1    1    2    0    0  0.26796414634E+00  0.15060372015E+00  0.63092308591E-01  0.98909600325E+00  0.93800000000E+00 0.  1.
         22    1    1    2    0    0 -0.22385658591E+00 -0.12651208644E+00  0.33415430064E+01  0.33514216003E+01  0.00000000000E+00 0. -1.
</event>
<event>
 5    1  0.1537976E+002  0.1596557E+01  0.7818608E-02  0.3357109E+00
         11   -1    0    0    0    0  0.00000000000E+00  0.00000000000E+00  0.39999999674E+01  0.40000000000E+01  0.51100000000E-03 0. -1.
    9000002   -1    0    0    0    0 -0.00000000000E+00 -0.00000000000E+00  0.00000000000E+00  0.93800000000E+00  0.93800000000E+00 0. -1.
         11    1    1    2    0    0  0.46264098087E-01  0.98788941574E-01  0.20278991107E+01  0.20308310333E+01  0.51100000000E-03 0. -1.
    9000002    1    1    2    0    0 -0.21552888142E+00 -0.22644393975E+00  0.67737252222E-01  0.99104081244E+00  0.93800000000E+00 0. -1.
         22    1    1    2    0    0  0.16926478333E+00  0.12765499818E+00  0.19043636045E+01  0.19161281542E+01  0.00000000000E+00 0. -1.
</event>
<event>
 5    1  0.1537976E+002  0.1594249E+01  0.7818608E-02  0.3359629E+00
         11   -1    0    0    0    0  0.00000000000E+00  0.00000000000E+00  0.39999999674E+01  0.40000000000E+01  0.51100000000E-03 0. -1.
    9000002   -1    0    0    0    0 -0.00000000000E+00 -0.00000000000E+00  0.00000000000E+00  0.93800000000E+00  0.93800000000E+00 0. -1.
         11    1    1    2    0    0  0.28724703192E-01  0.72900346544E-01  0.21696277288E+00  0.23067872688E+00  0.51100000000E-03 0. -1.
    9000002    1    1    2    0    0 -0.26714694322E+00 -0.55308047329E+00  0.26953383194E+00  0.11531513282E+01  0.93800000000E+00 0. -1.
         22    1    1    2    0    0  0.23842224003E+00  0.48018012674E+00  0.35135033625E+01  0.35541699449E+01  0.00000000000E+00 0. -1.
</event>
<event>
 5    1  0.1537976E+002  0.1599670E+01  0.7818608E-02  0.3353722E+00
         11   -1    0    0    0    0  0.00000000000E+00  0.00000000000E+00  0.39999999674E+01  0.40000000000E+01  0.51100000000E-03 0.  1.
    9000002   -1    0    0    0    0 -0.00000000000E+00 -0.00000000000E+00  0.00000000000E+00  0.93800000000E+00  0.93800000000E+00 0. -1.
         11    1    1    2    0    0 -0.17321269961E+00 -0.15668832630E+00  0.15068144152E+01  0.15248094352E+01  0.51100000000E-03 0.  1.
    9000002    1    1    2    0    0  0.43110518991E+00  0.38426192588E+00  0.23160827614E+00  0.11256088601E+01  0.93800000000E+00 0. -1.
         22    1    1    2    0    0 -0.25789249030E+00 -0.22757359958E+00  0.22615772761E+01  0.22875817046E+01  0.00000000000E+00 0.  1.
</event>
<event>
 5    1  0.1537976E+002  0.1599259E+01  0.7818608E-02  0.3354168E+00
         11   -1    0    0    0    0  0.00000000000E+00  0.00000000000E+00  0.39999999674E+01  0.40000000000E+01  0.51100000000E-03 0. -1.
    9000002   -1    0    0    0    0 -0.00000000000E+00 -0.00000000000E+00  0.00000000000E+00  0.93800000000E+00  0.93800000000E+00 0. -1.
         11    1    1    2    0    0  0.10335286866E-02  0.54924913355E-04  0.22044233360E-02  0.24883330839E-02  0.51100000000E-03 0. -1.
    9000002    1    1    2    0    0  0.54587733951E-01  0.21194304961E+00  0.32063809490E-01  0.96372805545E+00  0.93800000000E+00 0. -1.
         22    1    1    2    0    0 -0.55621262637E-01 -0.21199797452E+00  0.39657317345E+01  0.39717836115E+01  0.00000000000E+00 0. -1.
</event>
<event>
 5    1  0.1537976E+002  0.1599677E+01  0.7818608E-02  0.3353714E+00
         11   -1    0    0    0    0  0.00000000000E+00  0.00000000000E+00  0.39999999674E+01  0.40000000000E+01  0.51100000000E-03 0. -1.
    9000002   -1    0    0    0    0 -0.00000000000E+00 -0.00000000000E+00  0.00000000000E+00  0.93800000000E+00  0.93800000000E+00 0.  1.
         11    1    1    2    0    0 -0.27405898371E-01  0.12680657186E+00  0.14185879778E+01  0.14245080210E+01  0.51100000000E-03 0.  1.
    9000002    1    1    2    0    0  0.76037489642E-01 -0.35065084314E+00  0.86405041939E-01  0.10079918377E+01  0.93800000000E+00 0.  1.
         22    1    1    2    0    0 -0.48631591271E-01  0.22384427128E+00  0.24950069476E+01  0.25055001413E+01  0.00000000000E+00 0. -1.
</event>
<event>
 5    1  0.1537976E+002  0.1599202E+01  0.7818608E-02  0.3354230E+00
         11   -1    0    0    0    0  0.00000000000E+00  0.00000000000E+00  0.39999999674E+01  0.40000000000E+01  0.51100000000E-03 0. -1.
    9000002   -1    0    0    0    0 -0.00000000000E+00 -0.00000000000E+00  0.00000000000E+00  0.93800000000E+00  0.93800000000E+00 0.  1.
         11    1    1    2    0    0 -0.56986996042E-01  0.41341425026E-01  0.64745049566E+00  0.65126725435E+00  0.51100000000E-03 0. -1.
    9000002    1    1    2    0    0  0.23980747895E+00 -0.30501473829E+00  0.10178177622E+00  0.10201691759E+01  0.93800000000E+00 0.  1.
         22    1    1    2    0    0 -0.18282048291E+00  0.26367331326E+00  0.32507676955E+01  0.32665635697E+01  0.00000000000E+00 0. -1.
</event>
<event>
 5    1  0.1537976E+002  0.1580281E+01  0.7818608E-02  0.3375048E+00
         11   -1    0    0    0    0  0.00000000000E+00  0.00000000000E+00  0.39999999674E+01  0.40000000000E+01  0.51100000000E-03 0. -1.
    9000002   -1    0    0    0    0 -0.00000000000E+00 -0.00000000000E+00  0.00000000000E+00  0.93800000000E+00  0.93800000000E+00 0.  1.
         11    1    1    2    0    0  0.49304986273E-01  0.16217580930E-01  0.20943604257E+00  0.21577235377E+00  0.51100000000E-03 0. -1.
    9000002    1    1    2    0    0  0.43423960038E+00  0.10353289537E+00  0.15217810256E+00  0.10498977407E+01  0.93800000000E+00 0.  1.
         22    1    1    2    0    0 -0.48354458666E+00 -0.11975047630E+00  0.36383858222E+01  0.36723299056E+01  0.00000000000E+00 0. -1.
</event>
<event>
 5    1  0.1537976E+002  0.1556815E+01  0.7818608E-02  0.3401611E+00
         11   -1    0    0    0    0  0.00000000000E+00  0.00000000000E+00  0.39999999674E+01  0.40000000000E+01  0.51100000000E-03 0.  1.
    9000002   -1    0    0    0    0 -0.00000000000E+00 -0.00000000000E+00  0.00000000000E+00  0.93800000000E+00  0.93800000000E+00 0.  1.
         11    1    1    2    0    0  0.28834643248E+00 -0.77652815921E-01  0.18810957267E+01  0.19046508917E+01  0.51100000000E-03 0.  1.
    9000002    1    1    2    0    0 -0.13515203388E+00 -0.64832463865E-01  0.47163959631E-01  0.95107190039E+00  0.93800000000E+00 0.  1.
         22    1    1    2    0    0 -0.15319439861E+00  0.14248527979E+00  0.20717402810E+01  0.20822772079E+01  0.00000000000E+00 0. -1.
</event>
<event>
 5    1  0.1537976E+002  0.1599677E+01  0.7818608E-02  0.3353714E+00
         11   -1    0    0    0    0  0.00000000000E+00  0.00000000000E+00  0.39999999674E+01  0.40000000000E+01  0.51100000000E-03 0. -1.
    9000002   -1    0    0    0    0 -0.00000000000E+00 -0.00000000000E+00  0.00000000000E+00  0.93800000000E+00  0.93800000000E+00 0. -1.
         11    1    1    2    0    0  0.10553914666E-02 -0.32989356853E-01  0.54274902850E+00  0.54375194765E+00  0.51100000000E-03 0.  1.
    9000002    1    1    2    0    0 -0.74004813179E-02  0.24104555891E+00  0.38608106944E-01  0.96927411732E+00  0.93800000000E+00 0. -1.
         22    1    1    2    0    0  0.63450898513E-02 -0.20805620205E+00  0.34186428319E+01  0.34249739350E+01  0.00000000000E+00 0. -1.
</event>
<event>
 5    1  0.1537976E+002  0.1599640E+01  0.7818608E-02  0.3353754E+00
         11   -1    0    0    0    0  0.00000000000E+00  0.00000000000E+00  0.39999999674E+01  0.40000000000E+01  0.51100000000E-03 0.  1.
    9000002   -1    0    0    0    0 -0.00000000000E+00 -0.00000000000E+00  0.00000000000E+00  0.93800000000E+00  0.93800000000E+00 0. -1.
         11    1    1    2    0    0 -0.39393895639E-01 -0.53046153480E-01  0.72351417919E+00  0.72652515581E+00  0.51100000000E-03 0.  1.
    9000002    1    1    2    0    0  0.23743489607E+00  0.26815725949E+00  0.86124097361E-01  0.10077425295E+01  0.93800000000E+00 0. -1.
         22    1    1    2    0    0 -0.19804100043E+00 -0.21511110601E+00  0.31903616908E+01  0.32037323147E+01  0.00000000000E+00 0. -1.
</event>
<event>
 5    1  0.1537976E+002  0.1577695E+01  0.7818608E-02  0.3377934E+00
         11   -1    0    0    0    0  0.00000000000E+00  0.00000000000E+00  0.39999999674E+01  0.40000000000E+01  0.51100000000E-03 0.  1.
    9000002   -1    0    0    0    0 -0.00000000000E+00 -0.00000000000E+00  0.00000000000E+00  0.93800000000E+00  0.93800000000E+00 0. -1.
         11    1    1    2    0    0 -0.44866522260E-01  0.13507909079E+00  0.12616808696E+01  0.12696843085E+01  0.51100000000E-03 0.  1.
    9000002    1    1    2    0    0  0.13741982686E+00  0.97771846873E-01  0.35286731794E-01  0.95369423627E+00  0.93800000000E+00 0. -1.
         22    1    1    2    0    0 -0.92553304603E-01 -0.23285093766E+00  0.27030323660E+01  0.27146214552E+01  0.00000000000E+00 0.  1.
</event>
<event>
 5    1  0.1537976E+002  0.1598276E+01  0.7818608E-02  0.3355237E+00
         11   -1    0    0    0    0  0.00000000000E+00  0.00000000000E+00  0.39999999674E+01  0.40000000000E+01  0.51100000000E-03 0. -1.
    9000002   -1    0    0    0    0 -0.00000000000E+00 -0.00000000000E+00  0.00000000000E+00  0.93800000000E+00  0.93800000000E+00 0. -1.
         11    1    1    2    0    0  0.20003503484E-01  0.44289433843E-01  0.48515990156E+00  0.48758802826E+00  0.51100000000E-03 0. -1.
    9000002    1    1    2    0    0 -0.26768261671E+00 -0.14339771352E+00  0.62639626561E-01  0.98791933393E+00  0.93800000000E+00 0. -1.
         22    1    1    2    0    0  0.24767911322E+00  0.99108279675E-01  0.34522004392E+01  0.34624926378E+01  0.00000000000E+00 0. -1.
</event>
<event>
 5    1  0.1537976E+002  0.1599672E+01  0.7818608E-02  0.3353719E+00
         11   -1    0    0    0    0  0.00000000000E+00  0.00000000000E+00  0.39999999674E+01  0.40000000000E+01  0.51100000000E-03 0.  1.
    9000002   -1    0    0    0    0 -0.00000000000E+00 -0.00000000000E+00  0.00000000000E+00  0.93800000000E+00  0.93800000000E+00 0. -1.
         11    1    1    2    0    0 -0.10912953047E+00  0.32364345003E-01  0.94072379178E+00  0.94758546780E+00  0.51100000000E-03 0.  1.
    9000002    1    1    2    0    0  0.45139966005E+00 -0.13985487088E+00  0.15220125509E+00  0.10612870771E+01  0.93800000000E+00 0. -1.
         22    1    1    2    0    0 -0.34227012958E+00  0.10749052588E+00  0.29070749205E+01  0.29291274551E+01  0.00000000000E+00 0.  1.
</event>
<event>
 5    1  0.1537976E+002  0.1579079E+01  0.7818608E-02  0.3376388E+00
         11   -1    0    0    0    0  0.00000000000E+00  0.00000000000E+00  0.39999999674E+01  0.40000000000E+01  0.51100000000E-03 0. -1.
    9000002   -1    0    0    0    0 -0.00000000000E+00 -0.00000000000E+00  0.00000000000E+00  0.93800000000E+00  0.93800000000E+00 0. -1.
         11    1    1    2    0    0  0.21466889225E-01 -0.10717896661E+00  0.24048657762E+01  0.24073487119E+01  0.51100000000E-03 0. -1.
    9000002    1    1    2    0    0  0.60329994108E-01 -0.85357119493E-01  0.22406125378E-01  0.94407180897E+00  0.93800000000E+00 0. -1.
         22    1    1    2    0    0 -0.81796883333E-01  0.19253608610E+00  0.15727280658E+01  0.15865794791E+01  0.00000000000E+00 0. -1.
</event>
<event>
 5    1  0.1537976E+002  0.1583511E+01  0.7818608E-02  0.3371457E+00
         11   -1    0    0    0    0  0.00000000000E+00  0.00000000000E+00  0.39999999674E+01  0.40000000000E+01  0.51100000000E-03 0.  1.
    9000002   -1    0    0    0    0 -0.00000000000E+00 -0.00000000000E+00  0.00000000000E+00  0.93800000000E+00  0.93800000000E+00 0.  1.
         11    1    1    2    0    0  0.16652945059E+00  0.15067304772E-01  0.15984800011E+01  0.16072018095E+01  0.51100000000E-03 0.  1.
    9000002    1    1    2    0    0 -0.14431920772E+00  0.22034170044E+00  0.58669105706E-01  0.97604536915E+00  0.93800000000E+00 0.  1.
         22    1    1    2    0    0 -0.22210242866E-01 -0.23540900522E+00  0.23428508606E+01  0.23547528213E+01  0.00000000000E+00 0.  1.
</event>
<event>
 5    1  0.1537976E+002  0.1596054E+01  0.7818608E-02  0.3357657E+00
         11   -1    0    0    0    0  0.00000000000E+00  0.00000000000E+00  0.39999999674E+01  0.40000000000E+01  0.51100000000E-03 0.  1.
    9000002   -1    0    0    0    0 -0.00000000000E+00 -0.00000000000E+00  0.00000000000E+00  0.93800000000E+00  0.93800000000E+00 0. -1.
         11    1    1    2    0    0  0.28652300959E-01 -0.19684774994E-01  0.55566712447E+00  0.55675367898E+00  0.51100000000E-03 0.  1.
    9000002    1    1    2    0    0  0.15224503565E+00  0.17883998592E+00  0.39358715620E-01  0.96775792425E+00  0.93800000000E+00 0. -1.
         22    1    1    2    0    0 -0.18089733661E+00 -0.15915521093E+00  0.34049741273E+01  0.34134883968E+01  0.00000000000E+00 0.  1.
</event>
<event>
 5    1  0.1537976E+002  0.1599669E+01  0.7818608E-02  0.3353723E+00
         11   -1    0    0    0    0  0.00000000000E+00  0.00000000000E+00  0.39999999674E+01  0.40000000000E+01  0.51100000000E-03 0. -1.
    9000002   -1    0    0    0    0 -0.00000000000E+00 -0.00000000000E+00  0.00000000000E+00  0.93800000000E+00  0.93800000000E+00 0. -1.
         11    1    1    2    0    0  0.35048220550E-01  0.33864368397E-02  0.55898192709E+00  0.56009008352E+00  0.51100000000E-03 0. -1.
    9000002    1    1    2    0    0 -0.25192275822E+00 -0.40426752478E-01  0.43268477361E-01  0.97304447974E+00  0.93800000000E+00 0. -1.
         22    1    1    2    0    0  0.21687453767E+00  0.37040315638E-01  0.33977495629E+01  0.34048654367E+01  0.00000000000E+00 0. -1.
</event>
<event>
 5    1  0.1537976E+002  0.1595924E+01  0.7818608E-02  0.3357799E+00
         11   -1    0    0    0    0  0.00000000000E+00  0.00000000000E+00  0.39999999674E+01  0.40000000000E+01  0.51100000000E-03 0. -1.
    9000002   -1    0    0    0    0 -0.00000000000E+00 -0.00000000000E+00  0.00000000000E+00  0.93800000000E+00  0.93800000000E+00 0.  1.
         11    1    1    2    0    0 -0.45020156398E-02 -0.30905483921E-01  0.48560654064E+00  0.48661010112E+00  0.51100000000E-03 0. -1.
    9000002    1    1    2    0    0 -0.19770346581E+00 -0.65058791439E-01  0.31518614407E-01  0.96133070782E+00  0.93800000000E+00 0.  1.
         22    1    1    2    0    0  0.20220548145E+00  0.95964275360E-01  0.34828748123E+01  0.34900591911E+01  0.00000000000E+00 0. -1.
</event>
<event>
 5    1  0.1537976E+002  0.1588504E+01  0.7818608E-02  0.3365936E+00
         11   -1    0    0    0    0  0.00000000000E+00  0.00000000000E+00  0.39999999674E+01  0.40000000000E+01  0.51100000000E-03 0. -1.
    9000002   -1    0    0    0    0 -0.00000000000E+00 -0.00000000000E+00  0.00000000000E+00  0.93800000000E+00  0.93800000000E+00 0.  1.
         11    1    1    2    0    0 -0.43102785065E-01  0.66004970003E-01  0.76820957942E+00  0.77224395445E+00  0.51100000000E-03 0. -1.
    9000002    1    1    2    0    0  0.14110126263E+00  0.17191572455E+00  0.41283725234E-01  0.96489011221E+00  0.93800000000E+00 0.  1.
         22    1    1    2    0    0 -0.97998477562E-01 -0.23792069455E+00  0.31905066627E+01  0.32008659333E+01  0.00000000000E+00 0. -1.
</event>
<event>
 5    1  0.1537976E+002  0.1592659E+01  0.7818608E-02  0.3361370E+00
         11   -1    0    0    0    0  0.00000000000E+00  0.00000000000E+00  0.39999999674E+01  0.40000000000E+01  0.51100000000E-03 0. -1.
    9000002   -1    0    0    0    0 -0.00000000000E+00 -0.00000000000E+00  0.00000000000E+00  0.93800000000E+00  0.93800000000E+00 0. -1.
         11    1    1    2    0    0 -0.46445788686E-01  0.40584747868E-01  0.19106133593E+01  0.19116087473E+01  0.51100000000E-03 0. -1.
    9000002    1    1    2    0    0  0.17397301293E+00 -0.27547357607E+00  0.76585749484E-01  0.99592252578E+00  0.93800000000E+00 0. -1.
         22    1    1    2    0    0 -0.12752722424E+00  0.23488882821E+00  0.20128008586E+01  0.20304687269E+01  0.00000000000E+00 0. -1.
</event>
<event>
 5    1  0.1537976E+002  0.1599511E+01  0.7818608E-02  0.3353894E+00
         11   -1    0    0    0    0  0.00000000000E+00  0.00000000000E+00  0.39999999674E+01  0.40000000000E+01  0.51100000000E-03 0.  1.
    9000002   -1    0    0    0    0 -0.00000000000E+00 -0.00000000000E+00  0.00000000000E+00  0.93800000000E+00  0.93800000000E+00 0.  1.
         11    1    1    2    0    0  0.72898852916E-01 -0.19149432126E-01  0.42155464163E+00  0.42824002674E+00  0.51100000000E-03 0.  1.
    9000002    1    1    2    0    0 -0.56189957255E+00  0.17244812501E+00  0.24057588548E+00  0.11327798736E+01  0.93800000000E+00 0.  1.
         22    1    1    2    0    0  0.48900071963E+00 -0.15329869288E+00  0.33378694403E+01  0.33769800996E+01  0.00000000000E+00 0.  1.
</event>
<event>
 5    1  0.1537976E+002  0.1583276E+01  0.7818608E-02  0.3371718E+00
         11   -1    0    0    0    0  0.00000000000E+00  0.00000000000E+00  0.39999999674E+01  0.40000000000E+01  0.51100000000E-03 0.  1.
    9000002   -1    0    0    0    0 -0.00000000000E+00 -0.00000000000E+00  0.00000000000E+00  0.93800000000E+00  0.93800000000E+00 0. -1.
         11    1    1    2    0    0 -0.12010597895E+00 -0.11852306905E-01  0.39749987209E+00  0.41541826247E+00  0.51100000000E-03 0.  1.
    9000002    1    1    2    0    0  0.30488916155E+00 -0.19310653331E+00  0.10085637035E+00  0.10100809579E+01  0.93800000000E+00 0. -1.
         22    1    1    2    0    0 -0.18478318260E+00  0.20495884022E+00  0.35016437249E+01  0.35125007796E+01  0.00000000000E+00 0.  1.
</event>
<event>
 5    1  0.1537976E+002  0.1576777E+01  0.7818608E-02  0.3378961E+00
         11   -1    0    0    0    0  0.00000000000E+00  0.00000000000E+00  0.39999999674E+01  0.40000000000E+01  0.51100000000E-03 0. -1.
    9000002   -1    0    0    0    0 -0.00000000000E+00 -0.00000000000E+00  0.00000000000E+00  0.93800000000E+00  0.93800000000E+00 0. -1.
         11    1    1    2    0    0  0.86954524245E-01  0.28532726209E+00  0.93913337269E+00  0.98536515496E+00  0.51100000000E-03 0. -1.
    9000002    1    1    2    0    0 -0.14919592683E+00 -0.53153433560E+00  0.23259348479E+00  0.11129833349E+01  0.93800000000E+00 0. -1.
         22    1    1    2    0    0  0.62241402583E-01  0.24620707351E+00  0.28282731099E+01  0.28396515102E+01  0.00000000000E+00 0. -1.
</event>
<event>
 5    1  0.1537976E+002  0.1599675E+01  0.7818608E-02  0.3353716E+00
         11   -1    0    0    0    0  0.00000000000E+00  0.00000000000E+00  0.39999999674E+01  0.40000000000E+01  0.51100000000E-03 0. -1.
    9000002   -1    0    0    0    0 -0.00000000000E+00 -0.00000000000E+00  0.00000000000E+00  0.93800000000E+00  0.93800000000E+00 0. -1.
         11    1    1    2    0    0  0.76193828594E-01  0.21521868246E-01  0.83400535926E+00  0.83775526900E+00  0.51100000000E-03 0. -1.
    9000002    1    1    2    0    0 -0.35219889572E+00 -0.98507102070E-01  0.89839965623E-01  0.10107734319E+01  0.93800000000E+00 0. -1.
         22    1    1    2    0    0  0.27600506712E+00  0.76985233824E-01  0.30761546425E+01  0.30894712991E+01  0.00000000000E+00 0.  1.
</event>
<event>
 5    1  0.1537976E+002  0.1599676E+01  0.7818608E-02  0.3353715E+00
         11   -1    0    0    0    0  0.00000000000E+00  0.00000000000E+00  0.39999999674E+01  0.40000000000E+01  0.51100000000E-03 0. -1.
    9000002   -1    0    0    0    0 -0.00000000000E+00 -0.00000000000E+00  0.00000000000E+00  0.93800000000E+00  0.93800000000E+00 0.  1.
         11    1    1    2    0    0 -0.40398792478E-01 -0.18684229231E-01  0.73131261089E+00  0.73266606229E+00  0.51100000000E-03 0. -1.
    9000002    1    1    2    0    0  0.22314514237E+00  0.10082589883E+00  0.39815762788E-01  0.97025198346E+00  0.93800000000E+00 0.  1.
         22    1    1    2    0    0 -0.18274634989E+00 -0.82141669596E-01  0.32288715937E+01  0.32350819543E+01  0.00000000000E+00 0. -1.
</event>
<event>
 5    1  0.1537976E+002  0.1573444E+01  0.7818608E-02  0.3382701E+00
         11   -1    0    0    0    0  0.00000000000E+00  0.00000000000E+00  0.39999999674E+01  0.40000000000E+01  0.51100000000E-03 0.  1.
    9000002   -1    0    0    0    0 -0.00000000000E+00 -0.00000000000E+00  0.00000000000E+00  0.93800000000E+00  0.93800000000E+00 0.  1.
         11    1    1    2    0    0  0.26975007749E-01 -0.14401846122E-01  0.17931766071E-01  0.35452412756E-01  0.51100000000E-03 0.  1.
    9000002    1    1    2    0    0  0.29165142934E+00  0.11162966400E+00  0.86097131139E-01  0.99236004258E+00  0.93800000000E+00 0.  1.
         22    1    1    2    0    0 -0.31862643709E+00 -0.97227817879E-01  0.38959710701E+01  0.39101875447E+01  0.00000000000E+00 0.  1.
</event>
<event>
 5    1  0.1817459E+002  0.1595225E+01  0.7818608E-02  0.3358563E+00
         11   -1    0    0    0    0  0.00000000000E+00  0.00000000000E+00  0.39999999674E+01  0.40000000000E+01  0.51100000000E-03 0. -1.
    9000002   -1    0    0    0    0 -0.00000000000E+00 -0.00000000000E+00  0.00000000000E+00  0.93800000000E+00  0.93800000000E+00 0. -1.
         11    1    1    2    0    0 -0.26797181482E-01  0.24057197689E-01  0.92800308547E+00  0.92870168809E+00  0.51100000000E-03 0. -1.
    9000002    1    1    2    0    0  0.46301193101E-01  0.17975086121E+00  0.26117974288E-01  0.95654603714E+00  0.93800000000E+00 0. -1.
         22    1    1    2    0    0 -0.19504011619E-01 -0.20380805890E+00  0.30458789076E+01  0.30527522748E+01  0.00000000000E+00 0. -1.
</event>
<event>
 5    1  0.1537976E+002  0.1596734E+01  0.7818608E-02  0.3356916E+00
         11   -1    0    0    0    0  0.00000000000E+00  0.00000000000E+00  0.39999999674E+01  0.40000000000E+01  0.51100000000E-03 0. -1.
    9000002   -1    0    0    0    0 -0.00000000000E+00 -0.00000000000E+00  0.00000000000E+00  0.93800000000E+00  0.93800000000E+00 0. -1.
         11    1    1    2    0    0  0.24568859435E-01  0.31724957965E-01  0.12538483237E+01  0.12544903275E+01  0.51100000000E-03 0. -1.
    9000002    1    1    2    0    0 -0.24819922329E+00 -0.12529107879E-01  0.43272577188E-01  0.97132710707E+00  0.93800000000E+00 0. -1.
         22    1    1    2    0    0  0.22363036385E+00 -0.19195850086E-01  0.27028790665E+01  0.27121825654E+01  0.00000000000E+00 0. -1.
</event>
<event>
 5    1  0.1537976E+002  0.1553040E+01  0.7818608E-02  0.3405964E+00
         11   -1    0    0    0    0  0.00000000000E+00  0.00000000000E+00  0.39999999674E+01  0.40000000000E+01  0.51100000000E-03 0. -1.
    9000002   -1    0    0    0    0 -0.00000000000E+00 -0.00000000000E+00  0.00000000000E+00  0.93800000000E+00  0.93800000000E+00 0.  1.
         11    1    1    2    0    0 -0.22070905926E+00 -0.15044864266E+00  0.22268725309E+01  0.22428349946E+01  0.51100000000E-03 0. -1.
    9000002    1    1    2    0    0  0.11491609984E+00 -0.97216651283E-01  0.50210459255E-01  0.95132637802E+00  0.93800000000E+00 0.  1.
         22    1    1    2    0    0  0.10579295941E+00  0.24766529394E+00  0.17229169772E+01  0.17438386274E+01  0.00000000000E+00 0. -1.
</event>
<event>
 5    1  0.1537976E+002  0.1588413E+01  0.7818608E-02  0.3366037E+00
         11   -1    0    0    0    0  0.00000000000E+00  0.00000000000E+00  0.39999999674E+01  0.40000000000E+01  0.51100000000E-03 0. -1.
    9000002   -1    0    0    0    0 -0.00000000000E+00 -0.00000000000E+00  0.00000000000E+00  0.93800000000E+00  0.93800000000E+00 0. -1.
         11    1    1    2    0    0 -0.86521905942E-02 -0.65622789920E-01  0.12997045927E+01  0.13013890657E+01  0.51100000000E-03 0. -1.
    9000002    1    1    2    0    0 -0.26267614604E+00 -0.23133486095E-01  0.54952303984E-01  0.97590863896E+00  0.93800000000E+00 0. -1.
         22    1    1    2    0    0  0.27132833663E+00  0.88756276016E-01  0.26453430707E+01  0.26607022954E+01  0.00000000000E+00 0. -1.
</event>
<event>
 5    1  0.1537976E+002  0.1599672E+01  0.7818608E-02  0.3353720E+00
         11   -1    0    0    0    0  0.00000000000E+00  0.00000000000E+00  0.39999999674E+01  0.40000000000E+01  0.51100000000E-03 0.  1.
    9000002   -1    0    0    0    0 -0.00000000000E+00 -0.00000000000E+00  0.00000000000E+00  0.93800000000E+00  0.93800000000E+00 0.  1.
         11    1    1    2    0    0  0.10339894860E+00 -0.22542697283E+00  0.13473082189E+01  0.13699446560E+01  0.51100000000E-03 0.  1.
    9000002    1    1    2    0    0 -0.28215880895E+00  0.60845656651E+00  0.31904812996E+00  0.11964400094E+01  0.93800000000E+00 0.  1.
         22    1    1    2    0    0  0.17875986035E+00 -0.38302959367E+00  0.23336436185E+01  0.23716153346E+01  0.00000000000E+00 0. -1.
</event>
<event>
 5    1  0.1537976E+002  0.1599675E+01  0.7818608E-02  0.3353716E+00
         11   -1    0    0    0    0  0.00000000000E+00  0.00000000000E+00  0.39999999674E+01  0.40000000000E+01  0.51100000000E-03 0.  1.
    9000002   -1    0    0    0    0 -0.00000000000E+00 -0.00000000000E+00  0.00000000000E+00  0.93800000000E+00  0.93800000000E+00 0. -1.
         11    1    1    2    0    0  0.56186686586E+00  0.81533301154E-01  0.25551996016E+01  0.26175154860E+01  0.51100000000E-03 0.  1.
    9000002    1    1    2    0    0 -0.78016033736E+00 -0.11505348387E+00  0.45635444560E+00  0.13076661792E+01  0.93800000000E+00 0. -1.
         22    1    1    2    0    0  0.21829347149E+00  0.33520182711E-01  0.98844592015E+00  0.10128183348E+01  0.00000000000E+00 0.  1.
</event>
<event>
 5    1  0.1537976E+002  0.1563398E+01  0.7818608E-02  0.3394074E+00
         11   -1    0    0    0    0  0.00000000000E+00  0.00000000000E+00  0.39999999674E+01  0.40000000000E+01  0.51100000000E-03 0.  1.
    9000002   -1    0    0    0    0 -0.00000000000E+00 -0.00000000000E+00  0.00000000000E+00  0.93800000000E+00  0.93800000000E+00 0.  1.
         11    1    1    2    0    0  0.72406690806E-01 -0.46684304239E-01  0.11675895176E+00  0.14510364252E+00  0.51100000000E-03 0.  1.
    9000002    1    1    2    0    0  0.94660969549E-01  0.38908936091E+00  0.13900729097E+00  0.10293290324E+01  0.93800000000E+00 0.  1.
         22    1    1    2    0    0 -0.16706766036E+00 -0.34240505667E+00  0.37442337246E+01  0.37635673251E+01  0.00000000000E+00 0.  1.
</event>
<event>
 5    1  0.1537976E+002  0.1599222E+01  0.7818608E-02  0.3354208E+00
         11   -1    0    0    0    0  0.00000000000E+00  0.00000000000E+00  0.39999999674E+01  0.40000000000E+01  0.51100000000E-03 0. -1.
    9000002   -1    0    0    0    0 -0.00000000000E+00 -0.00000000000E+00  0.00000000000E+00  0.93800000000E+00  0.93800000000E+00 0.  1.
         11    1    1    2    0    0  0.34379682381E-02 -0.26424382815E-02  0.24938158292E-01  0.25317483399E-01  0.51100000000E-03 0. -1.
    9000002    1    1    2    0    0  0.97685306066E-01  0.47168344359E+00  0.15876272026E+00  0.10663382631E+01  0.93800000000E+00 0.  1.
         22    1    1    2    0    0 -0.10112327430E+00 -0.46904100531E+00  0.38162990888E+01  0.38463442535E+01  0.00000000000E+00 0. -1.
</event>
<event>
 5    1  0.1537976E+002  0.1599674E+01  0.7818608E-02  0.3353717E+00
         11   -1    0    0    0    0  0.00000000000E+00  0.00000000000E+00  0.39999999674E+01  0.40000000000E+01  0.51100000000E-03 0. -1.
    9000002   -1    0    0    0    0 -0.00000000000E+00 -0.00000000000E+00  0.00000000000E+00  0.93800000000E+00  0.93800000000E+00 0.  1.
         11    1    1    2    0    0  0.80991659728E-01  0.48243345184E-01  0.93369096213E+00  0.93843814031E+00  0.51100000000E-03 0. -1.
    9000002    1    1    2    0    0 -0.34129394444E+00 -0.20721279936E+00  0.10752339612E+00  0.10250970595E+01  0.93800000000E+00 0.  1.
         22    1    1    2    0    0  0.26030228471E+00  0.15896945417E+00  0.29587856091E+01  0.29744648002E+01  0.00000000000E+00 0. -1.
</event>
<event>
 5    1  0.1537976E+002  0.1599674E+01  0.7818608E-02  0.3353718E+00
         11   -1    0    0    0    0  0.00000000000E+00  0.00000000000E+00  0.39999999674E+01  0.40000000000E+01  0.51100000000E-03 0. -1.
    9000002   -1    0    0    0    0 -0.00000000000E+00 -0.00000000000E+00  0.00000000000E+00  0.93800000000E+00  0.93800000000E+00 0.  1.
         11    1    1    2    0    0  0.53206267494E-02  0.29204911982E-02  0.11278137134E+00  0.11294572670E+00  0.51100000000E-03 0.  1.
    9000002    1    1    2    0    0 -0.17584236668E+00 -0.11843595086E+00  0.29780953286E-01  0.96212188290E+00  0.93800000000E+00 0.  1.
         22    1    1    2    0    0  0.17052173993E+00  0.11551545967E+00  0.38574376427E+01  0.38629323904E+01  0.00000000000E+00 0. -1.
</event>
<event>
 5    1  0.1537976E+002  0.1599675E+01  0.7818608E-02  0.3353716E+00
         11   -1    0    0    0    0  0.00000000000E+00  0.00000000000E+00  0.39999999674E+01  0.40000000000E+01  0.51100000000E-03 0. -1.
    9000002   -1    0    0    0    0 -0.00000000000E+00 -0.00000000000E+00  0.00000000000E+00  0.93800000000E+00  0.93800000000E+00 0.  1.
         11    1    1    2    0    0  0.23125261383E+00 -0.15514213427E+00  0.17076129023E+01  0.17301702051E+01  0.51100000000E-03 0. -1.
    9000002    1    1    2    0    0 -0.50467938323E+00  0.33725859510E+00  0.25745289993E+00  0.11465472670E+01  0.93800000000E+00 0.  1.
         22    1    1    2    0    0  0.27342676941E+00 -0.18211646083E+00  0.20349341651E+01  0.20612825279E+01  0.00000000000E+00 0.  1.
</event>
<event>
 5    1  0.1537976E+002  0.1599675E+01  0.7818608E-02  0.3353717E+00
         11   -1    0    0    0    0  0.00000000000E+00  0.00000000000E+00  0.39999999674E+01  0.40000000000E+01  0.51100000000E-03 0. -1.
    9000002   -1    0    0    0    0 -0.00000000000E+00 -0.00000000000E+00  0.00000000000E+00  0.93800000000E+00  0.93800000000E+00 0. -1.
         11    1    1    2    0    0  0.82057030731E-01 -0.14607267977E+00  0.16296767555E+01  0.16382665145E+01  0.51100000000E-03 0. -1.
    9000002    1    1    2    0    0 -0.20026260275E+00  0.34840560715E+00  0.10895733356E+00  0.10262588746E+01  0.93800000000E+00 0. -1.
         22    1    1    2    0    0  0.11820557202E+00 -0.20233292738E+00  0.22613658783E+01  0.22734746109E+01  0.00000000000E+00 0. -1.
</event>
<event>
 5    1  0.1537976E+002  0.1553983E+01  0.7818608E-02  0.3404875E+00
         11   -1    0    0    0    0  0.00000000000E+00  0.00000000000E+00  0.39999999674E+01  0.40000000000E+01  0.51100000000E-03 0.  1.
    9000002   -1    0    0    0    0 -0.00000000000E+00 -0.00000000000E+00  0.00000000000E+00  0.93800000000E+00  0.93800000000E+00 0.  1.
         11    1    1    2    0    0 -0.65730812870E-03  0.15206715042E+00  0.39397213029E+00  0.42230220323E+00  0.51100000000E-03 0.  1.
    9000002    1    1    2    0    0  0.39236494983E+00  0.34940051329E-02  0.14259281352E+00  0.10267127994E+01  0.93800000000E+00 0.  1.
         22    1    1    2    0    0 -0.39170764170E+00 -0.15556115555E+00  0.34634350236E+01  0.34889849974E+01  0.00000000000E+00 0.  1.
</event>
<event>
 5    1  0.1537976E+002  0.1558196E+01  0.7818608E-02  0.3400025E+00
         11   -1    0    0    0    0  0.00000000000E+00  0.00000000000E+00  0.39999999674E+01  0.40000000000E+01  0.51100000000E-03 0.  1.
    9000002   -1    0    0    0    0 -0.00000000000E+00 -0.00000000000E+00  0.00000000000E+00  0.93800000000E+00  0.93800000000E+00 0.  1.
         11    1    1    2    0    0  0.19887286644E-01  0.93002334943E-02 -0.92481145660E-02  0.23828286911E-01  0.51100000000E-03 0.  1.
    9000002    1    1    2    0    0 -0.36903887053E+00 -0.14856618559E+00  0.14202890084E+00  0.10287263038E+01  0.93800000000E+00 0.  1.
         22    1    1    2    0    0  0.34915158389E+00  0.13926595209E+00  0.38672191811E+01  0.38854454093E+01  0.00000000000E+00 0.  1.
</event>
<event>
 5    1  0.1537976E+002  0.1597427E+01  0.7818608E-02  0.3356161E+00
         11   -1    0    0    0    0  0.00000000000E+00  0.00000000000E+00  0.39999999674E+01  0.40000000000E+01  0.51100000000E-03 0.  1.
    9000002   -1    0    0    0    0 -0.00000000000E+00 -0.00000000000E+00  0.00000000000E+00  0.93800000000E+00  0.93800000000E+00 0.  1.
         11    1    1    2    0    0  0.68476244740E-01  0.61053964955E-01  0.14102870794E+01  0.14132680179E+01  0.51100000000E-03 0.  1.
    9000002    1    1    2    0    0 -0.25342552016E+00 -0.30615690490E+00  0.10838092528E+00  0.10244739966E+01  0.93800000000E+00 0.  1.
         22    1    1    2    0    0  0.18494927542E+00  0.24510293994E+00  0.24813319626E+01  0.25002579856E+01  0.00000000000E+00 0.  1.
</event>
<event>
 5    1  0.1537976E+002  0.1598433E+01  0.7818608E-02  0.3355066E+00
         11   -1    0    0    0    0  0.00000000000E+00  0.00000000000E+00  0.39999999674E+01  0.40000000000E+01  0.51100000000E-03 0.  1.
    9000002   -1    0    0    0    0 -0.00000000000E+00 -0.00000000000E+00  0.00000000000E+00  0.93800000000E+00  0.93800000000E+00 0. -1.
         11    1    1    2    0    0  0.72698922809E-01  0.76509800341E-02  0.12461677322E+01  0.12483100371E+01  0.51100000000E-03 0.  1.
    9000002    1    1    2    0    0 -0.35178257403E+00 -0.62045344509E-02  0.84022158749E-01  0.10053323823E+01  0.93800000000E+00 0. -1.
         22    1    1    2    0    0  0.27908365122E+00 -0.14464455831E-02  0.26698100764E+01  0.26843575806E+01  0.00000000000E+00 0.  1.
</event>
<event>
 5    1  0.1537976E+002  0.1591115E+01  0.7818608E-02  0.3363064E+00
         11   -1    0    0    0    0  0.00000000000E+00  0.00000000000E+00  0.39999999674E+01  0.40000000000E+01  0.51100000000E-03 0. -1.
    9000002   -1    0    0    0    0 -0.00000000000E+00 -0.00000000000E+00  0.00000000000E+00  0.93800000000E+00  0.93800000000E+00 0.  1.
         11    1    1    2    0    0  0.56815105395E-02 -0.66179648582E-01  0.56344411884E+00  0.56734606866E+00  0.51100000000E-03 0. -1.
    9000002    1    1    2    0    0 -0.16602840693E+00 -0.66720906053E-01  0.27569758743E-01  0.95531209707E+00  0.93800000000E+00 0.  1.
         22    1    1    2    0    0  0.16034689640E+00  0.13290055464E+00  0.34089860898E+01  0.34153418343E+01  0.00000000000E+00 0.  1.
</event>
<event>
 5    1  0.1537976E+002  0.1599666E+01  0.7818608E-02  0.3353726E+00
         11   -1    0    0    0    0  0.00000000000E+00  0.00000000000E+00  0.39999999674E+01  0.40000000000E+01  0.51100000000E-03 0.  1.
    9000002   -1    0    0    0    0 -0.00000000000E+00 -0.00000000000E+00  0.00000000000E+00  0.93800000000E+00  0.93800000000E+00 0. -1.
         11    1    1    2    0    0 -0.16780543722E+00 -0.52770236091E-01  0.16733295769E+01  0.16825502954E+01  0.51100000000E-03 0.  1.
    9000002    1    1    2    0    0  0.39839729364E+00  0.12170377604E+00  0.11731515509E+00  0.10330242293E+01  0.93800000000E+00 0. -1.
         22    1    1    2    0    0 -0.23059185642E+00 -0.68933539948E-01  0.22093552354E+01  0.22224254753E+01  0.00000000000E+00 0.  1.
</event>
<event>
 5    1  0.1537976E+002  0.1596403E+01  0.7818608E-02  0.3357276E+00
         11   -1    0    0    0    0  0.00000000000E+00  0.00000000000E+00  0.39999999674E+01  0.40000000000E+01  0.51100000000E-03 0. -1.
    9000002   -1    0    0    0    0 -0.00000000000E+00 -0.00000000000E+00  0.00000000000E+00  0.93800000000E+00  0.93800000000E+00 0. -1.
         11    1    1    2    0    0  0.31865903584E-02  0.40365186666E-02  0.52862677695E-02  0.73928065705E-02  0.51100000000E-03 0. -1.
    9000002    1    1    2    0    0  0.90806061184E-01  0.19138585697E+00  0.32197345430E-01  0.96216160599E+00  0.93800000000E+00 0. -1.
         22    1    1    2    0    0 -0.93992651543E-01 -0.19542237564E+00  0.39625163542E+01  0.39684455874E+01  0.00000000000E+00 0. -1.
</event>
<event>
 5    1  0.1537976E+002  0.1599677E+01  0.7818608E-02  0.3353714E+00
         11   -1    0    0    0    0  0.00000000000E+00  0.00000000000E+00  0.39999999674E+01  0.40000000000E+01  0.51100000000E-03 0.  1.
    9000002   -1    0    0    0    0 -0.00000000000E+00 -0.00000000000E+00  0.00000000000E+00  0.93800000000E+00  0.93800000000E+00 0. -1.
         11    1    1    2    0    0  0.77262524929E-01  0.55448448769E-01  0.11238628802E+01  0.11278794541E+01  0.51100000000E-03 0. -1.
    9000002    1    1    2    0    0 -0.27049065022E+00 -0.19293742707E+00  0.73877060380E-01  0.99784360632E+00  0.93800000000E+00 0. -1.
         22    1    1    2    0    0  0.19322812529E+00  0.13748897830E+00  0.28022600268E+01  0.28122769396E+01  0.00000000000E+00 0.  1.
</event>
<event>
 5    1  0.1537976E+002  0.1599677E+01  0.7818608E-02  0.3353714E+00
         11   -1    0    0    0    0  0.00000000000E+00  0.00000000000E+00  0.39999999674E+01  0.40000000000E+01  0.51100000000E-03 0. -1.
    9000002   -1    0    0    0    0 -0.00000000000E+00 -0.00000000000E+00  0.00000000000E+00  0.93800000000E+00  0.93800000000E+00 0.  1.
         11    1    1    2    0    0 -0.21731288485E+00 -0.34428621535E+00  0.19462468820E+01  0.19883749835E+01  0.51100000000E-03 0.  1.
    9000002    1    1    2    0    0  0.39967154954E+00  0.63586473538E+00  0.40903523553E+00  0.12693364933E+01  0.93800000000E+00 0.  1.
         22    1    1    2    0    0 -0.18235866469E+00 -0.29157852003E+00  0.16447178498E+01  0.16802885233E+01  0.00000000000E+00 0. -1.
</event>
<event>
 5    1  0.1537976E+002  0.1599672E+01  0.7818608E-02  0.3353719E+00
         11   -1    0    0    0    0  0.00000000000E+00  0.00000000000E+00  0.39999999674E+01  0.40000000000E+01  0.51100000000E-03 0. -1.
    9000002   -1    0    0    0    0 -0.00000000000E+00 -0.00000000000E+00  0.00000000000E+00  0.93800000000E+00  0.93800000000E+00 0.  1.
         11    1    1    2    0    0 -0.14440363241E-01  0.87791561223E-02  0.26017917359E+00  0.26072794474E+00  0.51100000000E-03 0.  1.
    9000002    1    1    2    0    0  0.20797673820E+00 -0.11859629645E+00  0.38050383389E-01  0.96881950684E+00  0.93800000000E+00 0.  1.
         22    1    1    2    0    0 -0.19353637496E+00  0.10981714033E+00  0.37017704104E+01  0.37084525484E+01  0.00000000000E+00 0. -1.
</event>
<event>
 5    1  0.1537976E+002  0.1599580E+01  0.7818608E-02  0.3353819E+00
         11   -1    0    0    0    0  0.00000000000E+00  0.00000000000E+00  0.39999999674E+01  0.40000000000E+01  0.51100000000E-03 0. -1.
    9000002   -1    0    0    0    0 -0.00000000000E+00 -0.00000000000E+00  0.00000000000E+00  0.93800000000E+00  0.93800000000E+00 0. -1.
         11    1    1    2    0    0  0.14491301277E+00  0.14097094516E+00  0.17212290460E+01  0.17330615334E+01  0.51100000000E-03 0. -1.
    9000002    1    1    2    0    0 -0.30758214247E+00 -0.29840112865E+00  0.12443165446E+00  0.10387382946E+01  0.93800000000E+00 0. -1.
         22    1    1    2    0    0  0.16266912971E+00  0.15743018349E+00  0.21543392669E+01  0.21662001720E+01  0.00000000000E+00 0.  1.
</event>
<event>
 5    1  0.1537976E+002  0.1597186E+01  0.7818608E-02  0.3356424E+00
         11   -1    0    0    0    0  0.00000000000E+00  0.00000000000E+00  0.39999999674E+01  0.40000000000E+01  0.51100000000E-03 0.  1.
    9000002   -1    0    0    0    0 -0.00000000000E+00 -0.00000000000E+00  0.00000000000E+00  0.93800000000E+00  0.93800000000E+00 0.  1.
         11    1    1    2    0    0  0.66597787609E-02 -0.13195646798E-01  0.54807723092E+00  0.54827674574E+00  0.51100000000E-03 0.  1.
    9000002    1    1    2    0    0 -0.21172089302E+00 -0.15561815256E+00  0.47827621311E-01  0.97528161436E+00  0.93800000000E+00 0.  1.
         22    1    1    2    0    0  0.20506111426E+00  0.16881379936E+00  0.34040951151E+01  0.34144416399E+01  0.00000000000E+00 0.  1.
</event>
<event>
 5    1  0.1537976E+002  0.1599038E+01  0.7818608E-02  0.3354409E+00
         11   -1    0    0    0    0  0.00000000000E+00  0.00000000000E+00  0.39999999674E+01  0.40000000000E+01  0.51100000000E-03 0. -1.
    9000002   -1    0    0    0    0 -0.00000000000E+00 -0.00000000000E+00  0.00000000000E+00  0.93800000000E+00  0.93800000000E+00 0.  1.
         11    1    1    2    0    0 -0.25220337264E-01  0.70567086217E-02  0.42403802229E+00  0.42484628752E+00  0.51100000000E-03 0. -1.
    9000002    1    1    2    0    0  0.17035960861E+00 -0.22878637155E+00  0.54704326380E-01  0.98193796310E+00  0.93800000000E+00 0.  1.
         22    1    1    2    0    0 -0.14513927134E+00  0.22172966293E+00  0.35212576187E+01  0.35312157494E+01  0.00000000000E+00 0. -1.
</event>
<event>
 5    1  0.1537976E+002  0.1599404E+01  0.7818608E-02  0.3354011E+00
         11   -1    0    0    0    0  0.00000000000E+00  0.00000000000E+00  0.39999999674E+01  0.40000000000E+01  0.51100000000E-03 0.  1.
    9000002   -1    0    0    0    0 -0.00000000000E+00 -0.00000000000E+00  0.00000000000E+00  0.93800000000E+00  0.93800000000E+00 0. -1.
         11    1    1    2    0    0  0.51800504578E-01 -0.29287997254E-01  0.71267474812E+00  0.71515497396E+00  0.51100000000E-03 0.  1.
    9000002    1    1    2    0    0 -0.32584807771E+00  0.87294714888E-01  0.76416173950E-01  0.99974035061E+00  0.93800000000E+00 0. -1.
         22    1    1    2    0    0  0.27404757313E+00 -0.58006717634E-01  0.32109090453E+01  0.32231046754E+01  0.00000000000E+00 0.  1.
</event>
<event>
 5    1  0.1537976E+002  0.1585108E+01  0.7818608E-02  0.3369687E+00
         11   -1    0    0    0    0  0.00000000000E+00  0.00000000000E+00  0.39999999674E+01  0.40000000000E+01  0.51100000000E-03 0.  1.
    9000002   -1    0    0    0    0 -0.00000000000E+00 -0.00000000000E+00  0.00000000000E+00  0.93800000000E+00  0.93800000000E+00 0.  1.
         11    1    1    2    0    0 -0.42308174251E-01 -0.25549581233E+00  0.24994990864E+01  0.25128796301E+01  0.51100000000E-03 0.  1.
    9000002    1    1    2    0    0 -0.14585820142E+00  0.42905207628E+00  0.15226785925E+00  0.10528009309E+01  0.93800000000E+00 0.  1.
         22    1    1    2    0    0  0.18816637567E+00 -0.17355626395E+00  0.13482330218E+01  0.13723194390E+01  0.00000000000E+00 0. -1.
</event>
<event>
 5    1  0.1537976E+002  0.1599070E+01  0.7818608E-02  0.3354373E+00
         11   -1    0    0    0    0  0.00000000000E+00  0.00000000000E+00  0.39999999674E+01  0.40000000000E+01  0.51100000000E-03 0. -1.
    9000002   -1    0    0    0    0 -0.00000000000E+00 -0.00000000000E+00  0.00000000000E+00  0.93800000000E+00  0.93800000000E+00 0.  1.
         11    1    1    2    0    0  0.63319307937E-01 -0.63308506957E-01  0.14948373283E+01  0.14975166780E+01  0.51100000000E-03 0. -1.
    9000002    1    1    2    0    0 -0.24019106480E+00  0.18634214882E+00  0.62150440332E-01  0.98798877588E+00  0.93800000000E+00 0.  1.
         22    1    1    2    0    0  0.17687175686E+00 -0.12303364186E+00  0.24430121988E+01  0.24524945461E+01  0.00000000000E+00 0.  1.
</event>
<event>
 5    1  0.1537976E+002  0.1599055E+01  0.7818608E-02  0.3354390E+00
         11   -1    0    0    0    0  0.00000000000E+00  0.00000000000E+00  0.39999999674E+01  0.40000000000E+01  0.51100000000E-03 0.  1.
    9000002   -1    0    0    0    0 -0.00000000000E+00 -0.00000000000E+00  0.00000000000E+00  0.93800000000E+00  0.93800000000E+00 0. -1.
         11    1    1    2    0    0 -0.15701721091E+00 -0.90031822519E-01  0.16794658954E+01  0.16891909568E+01  0.51100000000E-03 0.  1.
    9000002    1    1    2    0    0  0.41282424078E+00  0.16182779798E+00  0.13394196588E+00  0.10461340928E+01  0.93800000000E+00 0. -1.
         22    1    1    2    0    0 -0.25580702987E+00 -0.71795975464E-01  0.21865921061E+01  0.22026749504E+01  0.00000000000E+00 0. -1.
</event>
<event>
 5    1  0.1537976E+002  0.1599448E+01  0.7818608E-02  0.3353963E+00
         11   -1    0    0    0    0  0.00000000000E+00  0.00000000000E+00  0.39999999674E+01  0.40000000000E+01  0.51100000000E-03 0. -1.
    9000002   -1    0    0    0    0 -0.00000000000E+00 -0.00000000000E+00  0.00000000000E+00  0.93800000000E+00  0.93800000000E+00 0. -1.
         11    1    1    2    0    0  0.14708859534E+00 -0.13794280976E+00  0.11777698750E+01  0.11949081192E+01  0.51100000000E-03 0. -1.
    9000002    1    1    2    0    0 -0.41405561509E+00  0.43454906586E+00  0.25160381888E+00  0.11416757091E+01  0.93800000000E+00 0. -1.
         22    1    1    2    0    0  0.26696701975E+00 -0.29660625610E+00  0.25706262734E+01  0.26014161717E+01  0.00000000000E+00 0. -1.
</event>
<event>
 5    1  0.1537976E+002  0.1599533E+01  0.7818608E-02  0.3353870E+00
         11   -1    0    0    0    0  0.00000000000E+00  0.00000000000E+00  0.39999999674E+01  0.40000000000E+01  0.51100000000E-03 0. -1.
    9000002   -1    0    0    0    0 -0.00000000000E+00 -0.00000000000E+00  0.00000000000E+00  0.93800000000E+00  0.93800000000E+00 0.  1.
         11    1    1    2    0    0 -0.44988413235E-01  0.57309365419E-01  0.11997110194E+01  0.12019214250E+01  0.51100000000E-03 0. -1.
    9000002    1    1    2    0    0  0.19107758637E+00 -0.19689058876E+00  0.50214786374E-01  0.97859188262E+00  0.93800000000E+00 0.  1.
         22    1    1    2    0    0 -0.14608917314E+00  0.13958122334E+00  0.27500741616E+01  0.27574866924E+01  0.00000000000E+00 0. -1.
</event>
<event>
 5    1  0.1537976E+002  0.1599676E+01  0.7818608E-02  0.3353715E+00
         11   -1    0    0    0    0  0.00000000000E+00  0.00000000000E+00  0.39999999674E+01  0.40000000000E+01  0.51100000000E-03 0.  1.
    9000002   -1    0    0    0    0 -0.00000000000E+00 -0.00000000000E+00  0.00000000000E+00  0.93800000000E+00  0.93800000000E+00 0. -1.
         11    1    1    2    0    0  0.18194793208E-02 -0.27408203514E-01  0.48129607911E+00  0.48207955465E+00  0.51100000000E-03 0.  1.
    9000002    1    1    2    0    0 -0.18359033520E-01  0.22684707349E+00  0.34352196754E-01  0.96582644522E+00  0.93800000000E+00 0. -1.
         22    1    1    2    0    0  0.16539554199E-01 -0.19943886998E+00  0.34843516915E+01  0.34900940001E+01  0.00000000000E+00 0.  1.
</event>
<event>
 5    1  0.1537976E+002  0.1599645E+01  0.7818608E-02  0.3353749E+00
         11   -1    0    0    0    0  0.00000000000E+00  0.00000000000E+00  0.39999999674E+01  0.40000000000E+01  0.51100000000E-03 0. -1.
    9000002   -1    0    0    0    0 -0.00000000000E+00 -0.00000000000E+00  0.00000000000E+00  0.93800000000E+00  0.93800000000E+00 0.  1.
         11    1    1    2    0    0 -0.21308876628E-04 -0.41403724968E-01  0.41939706352E+00  0.42143614808E+00  0.51100000000E-03 0. -1.
    9000002    1    1    2    0    0  0.16972202522E-01  0.41849319936E+00  0.11864870874E+00  0.10340919348E+01  0.93800000000E+00 0.  1.
         22    1    1    2    0    0 -0.16950893646E-01 -0.37708947439E+00  0.34619541951E+01  0.34824719171E+01  0.00000000000E+00 0. -1.
</event>
<event>
 5    1  0.1537976E+002  0.1599639E+01  0.7818608E-02  0.3353755E+00
         11   -1    0    0    0    0  0.00000000000E+00  0.00000000000E+00  0.39999999674E+01  0.40000000000E+01  0.51100000000E-03 0. -1.
    9000002   -1    0    0    0    0 -0.00000000000E+00 -0.00000000000E+00  0.00000000000E+00  0.93800000000E+00  0.93800000000E+00 0. -1.
         11    1    1    2    0    0 -0.53673109377E-01 -0.10992196663E-01  0.67781201405E+00  0.68002280739E+00  0.51100000000E-03 0. -1.
    9000002    1    1    2    0    0  0.28063081249E+00  0.57126109203E-01  0.54676336376E-01  0.98226806271E+00  0.93800000000E+00 0. -1.
         22    1    1    2    0    0 -0.22695770311E+00 -0.46133912541E-01  0.32675116169E+01  0.32757091299E+01  0.00000000000E+00 0. -1.
</event>
<event>
 5    1  0.1537976E+002  0.1599557E+01  0.7818608E-02  0.3353845E+00
         11   -1    0    0    0    0  0.00000000000E+00  0.00000000000E+00  0.39999999674E+01  0.40000000000E+01  0.51100000000E-03 0. -1.
    9000002   -1    0    0    0    0 -0.00000000000E+00 -0.00000000000E+00  0.00000000000E+00  0.93800000000E+00  0.93800000000E+00 0.  1.
         11    1    1    2    0    0 -0.19565174046E-01 -0.50906073564E-02  0.16670010868E+00  0.16792229653E+00  0.51100000000E-03 0. -1.
    9000002    1    1    2    0    0  0.33549550441E+00  0.13890663351E+00  0.88636533915E-01  0.10097290337E+01  0.93800000000E+00 0.  1.
         22    1    1    2    0    0 -0.31593033037E+00 -0.13381602615E+00  0.37446633248E+01  0.37603486698E+01  0.00000000000E+00 0. -1.
</event>
<event>
 5    1  0.1537976E+002  0.1599674E+01  0.7818608E-02  0.3353717E+00
         11   -1    0    0    0    0  0.00000000000E+00  0.00000000000E+00  0.39999999674E+01  0.40000000000E+01  0.51100000000E-03 0.  1.
    9000002   -1    0    0    0    0 -0.00000000000E+00 -0.00000000000E+00  0.00000000000E+00  0.93800000000E+00  0.93800000000E+00 0. -1.
         11    1    1    2    0    0  0.28527021273E-01 -0.61756035976E-02  0.37509044612E+00  0.37622471067E+00  0.51100000000E-03 0.  1.
    9000002    1    1    2    0    0 -0.28948871320E+00  0.61052694972E-01  0.58372706317E-01  0.98528296416E+00  0.93800000000E+00 0. -1.
         22    1    1    2    0    0  0.26096169192E+00 -0.54877091375E-01  0.35665368149E+01  0.35764923252E+01  0.00000000000E+00 0.  1.
</event>
<event>
 5    1  0.1537976E+002  0.1599645E+01  0.7818608E-02  0.3353749E+00
         11   -1    0    0    0    0  0.00000000000E+00  0.00000000000E+00  0.39999999674E+01  0.40000000000E+01  0.51100000000E-03 0. -1.
    9000002   -1    0    0    0    0 -0.00000000000E+00 -0.00000000000E+00  0.00000000000E+00  0.93800000000E+00  0.93800000000E+00 0. -1.
         11    1    1    2    0    0  0.32338182506E+00  0.23214502660E+00  0.23242729847E+01  0.23581162581E+01  0.51100000000E-03 0. -1.
    9000002    1    1    2    0    0 -0.51197909604E+00 -0.38038996290E+00  0.28627905646E+00  0.11698798301E+01  0.93800000000E+00 0. -1.
         22    1    1    2    0    0  0.18859727098E+00  0.14824493630E+00  0.13894479262E+01  0.14100039119E+01  0.00000000000E+00 0. -1.
</event>
<event>
 5    1  0.1537976E+002  0.1496215E+01  0.7818608E-02  0.3474332E+00
         11   -1    0    0    0    0  0.00000000000E+00  0.00000000000E+00  0.39999999674E+01  0.40000000000E+01  0.51100000000E-03 0. -1.
    9000002   -1    0    0    0    0 -0.00000000000E+00 -0.00000000000E+00  0.00000000000E+00  0.93800000000E+00  0.93800000000E+00 0. -1.
         11    1    1    2    0    0  0.10157540426E+00 -0.32916930249E+00  0.79227272918E+00  0.86392495679E+00  0.51100000000E-03 0. -1.
    9000002    1    1    2    0    0  0.41731437647E-01  0.16058969035E+00  0.99233821935E-01  0.95771703177E+00  0.93800000000E+00 0. -1.
         22    1    1    2    0    0 -0.14330684191E+00  0.16857961213E+00  0.31084934162E+01  0.31163580114E+01  0.00000000000E+00 0. -1.
</event>
<event>
 5    1  0.1537976E+002  0.1599659E+01  0.7818608E-02  0.3353733E+00
         11   -1    0    0    0    0  0.00000000000E+00  0.00000000000E+00  0.39999999674E+01  0.40000000000E+01  0.51100000000E-03 0.  1.
    9000002   -1    0    0    0    0 -0.00000000000E+00 -0.00000000000E+00  0.00000000000E+00  0.93800000000E+00  0.93800000000E+00 0. -1.
         11    1    1    2    0    0  0.35296637843E+00  0.83231909553E-01  0.23174457569E+01  0.23456487189E+01  0.51100000000E-03 0.  1.
    9000002    1    1    2    0    0 -0.56877918140E+00 -0.14198352566E+00  0.23910154003E+00  0.11316724903E+01  0.93800000000E+00 0. -1.
         22    1    1    2    0    0  0.21581280298E+00  0.58751616111E-01  0.14434526704E+01  0.14606787909E+01  0.00000000000E+00 0. -1.
</event>
<event>
 5    1  0.1537976E+002  0.1599131E+01  0.7818608E-02  0.3354307E+00
         11   -1    0    0    0    0  0.00000000000E+00  0.00000000000E+00  0.39999999674E+01  0.40000000000E+01  0.51100000000E-03 0.  1.
    9000002   -1    0    0    0    0 -0.00000000000E+00 -0.00000000000E+00  0.00000000000E+00  0.93800000000E+00  0.93800000000E+00 0.  1.
         11    1    1    2    0    0 -0.91521370331E-02 -0.29671786434E-02  0.11481141748E+00  0.11521496633E+00  0.51100000000E-03 0.  1.
    9000002    1    1    2    0    0  0.13593071754E+00 -0.16826301601E+00  0.31419107233E-01  0.96313070911E+00  0.93800000000E+00 0.  1.
         22    1    1    2    0    0 -0.12677858051E+00  0.17123019465E+00  0.38537694426E+01  0.38596543246E+01  0.00000000000E+00 0.  1.
</event>
<event>
 5    1  0.1537976E+002  0.1598700E+01  0.7818608E-02  0.3354776E+00
         11   -1    0    0    0    0  0.00000000000E+00  0.00000000000E+00  0.39999999674E+01  0.40000000000E+01  0.51100000000E-03 0. -1.
    9000002   -1    0    0    0    0 -0.00000000000E+00 -0.00000000000E+00  0.00000000000E+00  0.93800000000E+00  0.93800000000E+00 0.  1.
         11    1    1    2    0    0 -0.27507707945E-01 -0.26931512108E-01  0.64269861034E+00  0.64385071655E+00  0.51100000000E-03 0. -1.
    9000002    1    1    2    0    0  0.10344055090E-01  0.22827935310E+00  0.35374442608E-01  0.96608168067E+00  0.93800000000E+00 0.  1.
         22    1    1    2    0    0  0.17163652855E-01 -0.20134784099E+00  0.33219269144E+01  0.33280676028E+01  0.00000000000E+00 0. -1.
</event>
<event>
 5    1  0.1537976E+002  0.1586023E+01  0.7818608E-02  0.3368675E+00
         11   -1    0    0    0    0  0.00000000000E+00  0.00000000000E+00  0.39999999674E+01  0.40000000000E+01  0.51100000000E-03 0.  1.
    9000002   -1    0    0    0    0 -0.00000000000E+00 -0.00000000000E+00  0.00000000000E+00  0.93800000000E+00  0.93800000000E+00 0. -1.
         11    1    1    2    0    0 -0.85128135799E-01  0.39200675404E-01  0.52992691144E+00  0.53815080140E+00  0.51100000000E-03 0.  1.
    9000002    1    1    2    0    0  0.51364086024E+00  0.40906787711E+00  0.31937223589E+00  0.11886993255E+01  0.93800000000E+00 0. -1.
         22    1    1    2    0    0 -0.42851272444E+00 -0.44826855251E+00  0.31507008200E+01  0.32111498731E+01  0.00000000000E+00 0.  1.
</event>
<event>
 5    1  0.1537976E+002  0.1599651E+01  0.7818608E-02  0.3353742E+00
         11   -1    0    0    0    0  0.00000000000E+00  0.00000000000E+00  0.39999999674E+01  0.40000000000E+01  0.51100000000E-03 0. -1.
    9000002   -1    0    0    0    0 -0.00000000000E+00 -0.00000000000E+00  0.00000000000E+00  0.93800000000E+00  0.93800000000E+00 0. -1.
         11    1    1    2    0    0 -0.38925049582E-01  0.12655010448E+00  0.90064480310E+00  0.91032489305E+00  0.51100000000E-03 0. -1.
    9000002    1    1    2    0    0  0.15549623637E+00 -0.55083280223E+00  0.22728475166E+00  0.11220954567E+01  0.93800000000E+00 0. -1.
         22    1    1    2    0    0 -0.11657118679E+00  0.42428269775E+00  0.28720704126E+01  0.29055796503E+01  0.00000000000E+00 0. -1.
</event>
<event>
 5    1  0.1537976E+002  0.1590819E+01  0.7818608E-02  0.3363388E+00
         11   -1    0    0    0    0  0.00000000000E+00  0.00000000000E+00  0.39999999674E+01  0.40000000000E+01  0.51100000000E-03 0.  1.
    9000002   -1    0    0    0    0 -0.00000000000E+00 -0.00000000000E+00  0.00000000000E+00  0.93800000000E+00  0.93800000000E+00 0. -1.
         11    1    1    2    0    0  0.12563555584E+00 -0.40097933978E-01  0.45692367657E+00  0.47557506719E+00  0.51100000000E-03 0.  1.
    9000002    1    1    2    0    0 -0.48966840347E+00  0.60118869439E-01  0.17440395204E+00  0.10740810781E+01  0.93800000000E+00 0. -1.
         22    1    1    2    0    0  0.36403284763E+00 -0.20020935462E-01  0.33686723387E+01  0.33883438547E+01  0.00000000000E+00 0.  1.
</event>
<event>
 5    1  0.1537976E+002  0.1593242E+01  0.7818608E-02  0.3360731E+00
         11   -1    0    0    0    0  0.00000000000E+00  0.00000000000E+00  0.39999999674E+01  0.40000000000E+01  0.51100000000E-03 0.  1.
    9000002   -1    0    0    0    0 -0.00000000000E+00 -0.00000000000E+00  0.00000000000E+00  0.93800000000E+00  0.93800000000E+00 0. -1.
         11    1    1    2    0    0  0.86118869516E-05  0.58129422665E-02  0.28129190994E+00  0.28135243040E+00  0.51100000000E-03 0.  1.
    9000002    1    1    2    0    0 -0.18704213287E+00  0.57522824203E+00  0.26199488771E+00  0.11464543650E+01  0.93800000000E+00 0. -1.
         22    1    1    2    0    0  0.18703352099E+00 -0.58104118430E+00  0.34567131697E+01  0.35101932046E+01  0.00000000000E+00 0.  1.
</event>
<event>
 5    1  0.1537976E+002  0.1460031E+01  0.7818608E-02  0.3520860E+00
         11   -1    0    0    0    0  0.00000000000E+00  0.00000000000E+00  0.39999999674E+01  0.40000000000E+01  0.51100000000E-03 0.  1.
    9000002   -1    0    0    0    0 -0.00000000000E+00 -0.00000000000E+00  0.00000000000E+00  0.93800000000E+00  0.93800000000E+00 0.  1.
         11    1    1    2    0    0 -0.38374170955E+00  0.29149441640E+00  0.10773616982E+01  0.11802267512E+01  0.51100000000E-03 0.  1.
    9000002    1    1    2    0    0  0.20104960340E+00  0.26849176871E-01  0.16250382547E+00  0.97334131455E+00  0.93800000000E+00 0.  1.
         22    1    1    2    0    0  0.18269210615E+00 -0.31834359328E+00  0.27601344437E+01  0.27844319342E+01  0.00000000000E+00 0.  1.
</event>
<event>
 5    1  0.1537976E+002  0.1598091E+01  0.7818608E-02  0.3355438E+00
         11   -1    0    0    0    0  0.00000000000E+00  0.00000000000E+00  0.39999999674E+01  0.40000000000E+01  0.51100000000E-03 0. -1.
    9000002   -1    0    0    0    0 -0.00000000000E+00 -0.00000000000E+00  0.00000000000E+00  0.93800000000E+00  0.93800000000E+00 0. -1.
         11    1    1    2    0    0 -0.88819328523E-01 -0.29136574071E+00  0.20825071306E+01  0.21046660253E+01  0.51100000000E-03 0. -1.
    9000002    1    1    2    0    0  0.82322577559E-01  0.56388333337E+00  0.22669566300E+00  0.11207035041E+01  0.93800000000E+00 0. -1.
         22    1    1    2    0    0  0.64967509635E-02 -0.27251759266E+00  0.16907971738E+01  0.17126304706E+01  0.00000000000E+00 0. -1.
</event>
<event>
 5    1  0.1537976E+002  0.1599639E+01  0.7818608E-02  0.3353755E+00
         11   -1    0    0    0    0  0.00000000000E+00  0.00000000000E+00  0.39999999674E+01  0.40000000000E+01  0.51100000000E-03 0.  1.
    9000002   -1    0    0    0    0 -0.00000000000E+00 -0.00000000000E+00  0.00000000000E+00  0.93800000000E+00  0.93800000000E+00 0. -1.
         11    1    1    2    0    0 -0.24581427124E-01 -0.28591196645E+00  0.21735355999E+01  0.21923975836E+01  0.51100000000E-03 0.  1.
    9000002    1    1    2    0    0  0.55845846840E-01  0.50054471920E+00  0.17378799432E+00  0.10787539300E+01  0.93800000000E+00 0. -1.
         22    1    1    2    0    0 -0.31264419716E-01 -0.21463275275E+00  0.16526763731E+01  0.16668484864E+01  0.00000000000E+00 0. -1.
</event>
<event>
 5    1  0.1537976E+002  0.1538381E+01  0.7818608E-02  0.3423084E+00
         11   -1    0    0    0    0  0.00000000000E+00  0.00000000000E+00  0.39999999674E+01  0.40000000000E+01  0.51100000000E-03 0.  1.
    9000002   -1    0    0    0    0 -0.00000000000E+00 -0.00000000000E+00  0.00000000000E+00  0.93800000000E+00  0.93800000000E+00 0.  1.
         11    1    1    2    0    0 -0.13076554564E+00  0.25326051949E-03  0.20825405022E+00  0.24590588164E+00  0.51100000000E-03 0.  1.
    9000002    1    1    2    0    0 -0.13343243468E+00  0.79899327728E-01  0.62731578582E-01  0.95287321725E+00  0.93800000000E+00 0.  1.
         22    1    1    2    0    0  0.26419798032E+00 -0.80152588248E-01  0.37290143386E+01  0.37392209011E+01  0.00000000000E+00 0.  1.
</event>
<event>
 5    1  0.1537976E+002  0.1597759E+01  0.7818608E-02  0.3355799E+00
         11   -1    0    0    0    0  0.00000000000E+00  0.00000000000E+00  0.39999999674E+01  0.40000000000E+01  0.51100000000E-03 0.  1.
    9000002   -1    0    0    0    0 -0.00000000000E+00 -0.00000000000E+00  0.00000000000E+00  0.93800000000E+00  0.93800000000E+00 0. -1.
         11    1    1    2    0    0  0.78521654187E-01  0.26147552267E+00  0.14348837762E+01  0.14606254864E+01  0.51100000000E-03 0.  1.
    9000002    1    1    2    0    0 -0.30141264463E+00 -0.58534203515E+00  0.30854483128E+00  0.11868103443E+01  0.93800000000E+00 0. -1.
         22    1    1    2    0    0  0.22289099044E+00  0.32386651248E+00  0.22565713599E+01  0.22905641693E+01  0.00000000000E+00 0.  1.
</event>
<event>
 5    1  0.1537976E+002  0.1599677E+01  0.7818608E-02  0.3353714E+00
         11   -1    0    0    0    0  0.00000000000E+00  0.00000000000E+00  0.39999999674E+01  0.40000000000E+01  0.51100000000E-03 0. -1.
    9000002   -1    0    0    0    0 -0.00000000000E+00 -0.00000000000E+00  0.00000000000E+00  0.93800000000E+00  0.93800000000E+00 0. -1.
         11    1    1    2    0    0  0.13699085775E-01 -0.41755364000E-01  0.57984077586E+00  0.58150387948E+00  0.51100000000E-03 0.  1.
    9000002    1    1    2    0    0 -0.94325172398E-01  0.28236724085E+00  0.59112785843E-01  0.98588377525E+00  0.93800000000E+00 0. -1.
         22    1    1    2    0    0  0.80626086623E-01 -0.24061187685E+00  0.33610464057E+01  0.33706123453E+01  0.00000000000E+00 0. -1.
</event>
<event>
 5    1  0.1724347E+002  0.1591353E+01  0.7818608E-02  0.3362802E+00
         11   -1    0    0    0    0  0.00000000000E+00  0.00000000000E+00  0.39999999674E+01  0.40000000000E+01  0.51100000000E-03 0. -1.
    9000002   -1    0    0    0    0 -0.00000000000E+00 -0.00000000000E+00  0.00000000000E+00  0.93800000000E+00  0.93800000000E+00 0. -1.
         11    1    1    2    0    0  0.35627002663E-01  0.39276541547E-01  0.43489065086E+00  0.43811193703E+00  0.51100000000E-03 0. -1.
    9000002    1    1    2    0    0  0.16950601971E+00  0.25193178486E-01  0.25616250164E-01  0.95386958188E+00  0.93800000000E+00 0. -1.
         22    1    1    2    0    0 -0.20513302237E+00 -0.64469720032E-01  0.35394930663E+01  0.35460184811E+01  0.00000000000E+00 0. -1.
</event>
<event>
 5    1  0.1537976E+002  0.1599184E+01  0.7818608E-02  0.3354250E+00
         11   -1    0    0    0    0  0.00000000000E+00  0.00000000000E+00  0.39999999674E+01  0.40000000000E+01  0.51100000000E-03 0. -1.
    9000002   -1    0    0    0    0 -0.00000000000E+00 -0.00000000000E+00  0.00000000000E+00  0.93800000000E+00  0.93800000000E+00 0.  1.
         11    1    1    2    0    0  0.15355053021E-01  0.38422008489E-01  0.53511668986E+00  0.53671422682E+00  0.51100000000E-03 0. -1.
    9000002    1    1    2    0    0  0.15446670366E-01 -0.24402167419E+00  0.40074267729E-01  0.97017272897E+00  0.93800000000E+00 0.  1.
         22    1    1    2    0    0 -0.30801723387E-01  0.20559966570E+00  0.34248090098E+01  0.34311130442E+01  0.00000000000E+00 0. -1.
</event>
<event>
 5    1  0.1537976E+002  0.1599581E+01  0.7818608E-02  0.3353818E+00
         11   -1    0    0    0    0  0.00000000000E+00  0.00000000000E+00  0.39999999674E+01  0.40000000000E+01  0.51100000000E-03 0.  1.
    9000002   -1    0    0    0    0 -0.00000000000E+00 -0.00000000000E+00  0.00000000000E+00  0.93800000000E+00  0.93800000000E+00 0.  1.
         11    1    1    2    0    0  0.76921592916E-01 -0.87197442358E-01  0.11282514258E+01  0.11342274315E+01  0.51100000000E-03 0.  1.
    9000002    1    1    2    0    0 -0.29053315943E+00  0.27380992510E+00  0.10757517385E+00  0.10250842940E+01  0.93800000000E+00 0.  1.
         22    1    1    2    0    0  0.21361156651E+00 -0.18661248274E+00  0.27641733677E+01  0.27786882745E+01  0.00000000000E+00 0.  1.
</event>
<event>
 5    1  0.1537976E+002  0.1561633E+01  0.7818608E-02  0.3396089E+00
         11   -1    0    0    0    0  0.00000000000E+00  0.00000000000E+00  0.39999999674E+01  0.40000000000E+01  0.51100000000E-03 0. -1.
    9000002   -1    0    0    0    0 -0.00000000000E+00 -0.00000000000E+00  0.00000000000E+00  0.93800000000E+00  0.93800000000E+00 0.  1.
         11    1    1    2    0    0  0.93894723029E-01 -0.14511089526E+00  0.88822743582E+00  0.90488763380E+00  0.51100000000E-03 0. -1.
    9000002    1    1    2    0    0  0.10417035534E+00 -0.53332260655E-01  0.37431629973E-01  0.94601317109E+00  0.93800000000E+00 0.  1.
         22    1    1    2    0    0 -0.19806507837E+00  0.19844315591E+00  0.30743409016E+01  0.30870991951E+01  0.00000000000E+00 0. -1.
</event>
<event>
 5    1  0.1537976E+002  0.1572603E+01  0.7818608E-02  0.3383646E+00
         11   -1    0    0    0    0  0.00000000000E+00  0.00000000000E+00  0.39999999674E+01  0.40000000000E+01  0.51100000000E-03 0.  1.
    9000002   -1    0    0    0    0 -0.00000000000E+00 -0.00000000000E+00  0.00000000000E+00  0.93800000000E+00  0.93800000000E+00 0. -1.
         11    1    1    2    0    0 -0.57213524969E-01 -0.17994099139E+00  0.13052182636E+01  0.13188051882E+01  0.51100000000E-03 0.  1.
    9000002    1    1    2    0    0 -0.15178652512E+00  0.84036895508E-01  0.40289502154E-01  0.95476101355E+00  0.93800000000E+00 0. -1.
         22    1    1    2    0    0  0.20900005009E+00  0.95904095881E-01  0.26544922016E+01  0.26644337982E+01  0.00000000000E+00 0.  1.
</event>
<event>
 5    1  0.1537976E+002  0.1598091E+01  0.7818608E-02  0.3355438E+00
         11   -1    0    0    0    0  0.00000000000E+00  0.00000000000E+00  0.39999999674E+01  0.40000000000E+01  0.51100000000E-03 0.  1.
    9000002   -1    0    0    0    0 -0.00000000000E+00 -0.00000000000E+00  0.00000000000E+00  0.93800000000E+00  0.93800000000E+00 0.  1.
         11    1    1    2    0    0 -0.12844985613E-01 -0.65201712910E-02  0.35266645438E+00  0.35296089791E+00  0.51100000000E-03 0.  1.
    9000002    1    1    2    0    0  0.25573681986E-01 -0.20949509225E+00  0.30702282132E-01  0.96194014212E+00  0.93800000000E+00 0.  1.
         22    1    1    2    0    0 -0.12728696374E-01  0.21601526354E+00  0.36166312308E+01  0.36230989600E+01  0.00000000000E+00 0.  1.
</event>
<event>
 5    1  0.1537976E+002  0.1599675E+01  0.7818608E-02  0.3353716E+00
         11   -1    0    0    0    0  0.00000000000E+00  0.00000000000E+00  0.39999999674E+01  0.40000000000E+01  0.51100000000E-03 0.  1.
    9000002   -1    0    0    0    0 -0.00000000000E+00 -0.00000000000E+00  0.00000000000E+00  0.93800000000E+00  0.93800000000E+00 0. -1.
         11    1    1    2    0    0 -0.67582618198E-02 -0.94622411369E-03  0.93851624036E-01  0.94100785853E-01  0.51100000000E-03 0. -1.
    9000002    1    1    2    0    0  0.28934471294E+00  0.43023411235E-01  0.57048038889E-01  0.98421026999E+00  0.93800000000E+00 0. -1.
         22    1    1    2    0    0 -0.28258645112E+00 -0.42077187122E-01  0.38491003044E+01  0.38596889442E+01  0.00000000000E+00 0.  1.
</event>
<event>
 5    1  0.1537976E+002  0.1585666E+01  0.7818608E-02  0.3369070E+00
         11   -1    0    0    0    0  0.00000000000E+00  0.00000000000E+00  0.39999999674E+01  0.40000000000E+01  0.51100000000E-03 0. -1.
    9000002   -1    0    0    0    0 -0.00000000000E+00 -0.00000000000E+00  0.00000000000E+00  0.93800000000E+00  0.93800000000E+00 0. -1.
         11    1    1    2    0    0 -0.78640334270E-01 -0.75645868678E-01  0.13390134450E+01  0.13434522197E+01  0.51100000000E-03 0. -1.
    9000002    1    1    2    0    0 -0.12181201086E+00  0.41502921623E-01  0.21284600415E-01  0.94702570858E+00  0.93800000000E+00 0. -1.
         22    1    1    2    0    0  0.20045234513E+00  0.34142947056E-01  0.26397019219E+01  0.26475220717E+01  0.00000000000E+00 0. -1.
</event>
<event>
 5    1  0.1537976E+002  0.1598962E+01  0.7818608E-02  0.3354491E+00
         11   -1    0    0    0    0  0.00000000000E+00  0.00000000000E+00  0.39999999674E+01  0.40000000000E+01  0.51100000000E-03 0.  1.
    9000002   -1    0    0    0    0 -0.00000000000E+00 -0.00000000000E+00  0.00000000000E+00  0.93800000000E+00  0.93800000000E+00 0.  1.
         11    1    1    2    0    0  0.86850081021E-01 -0.29819626734E-01  0.98382603603E+00  0.98810226040E+00  0.51100000000E-03 0.  1.
    9000002    1    1    2    0    0 -0.41445890449E+00  0.19886206218E+00  0.14435768556E+00  0.10545166877E+01  0.93800000000E+00 0.  1.
         22    1    1    2    0    0  0.32760882347E+00 -0.16904243544E+00  0.28718162458E+01  0.28953810519E+01  0.00000000000E+00 0.  1.
</event>
<event>
 5    1  0.1537976E+002  0.1599676E+01  0.7818608E-02  0.3353715E+00
         11   -1    0    0    0    0  0.00000000000E+00  0.00000000000E+00  0.39999999674E+01  0.40000000000E+01  0.51100000000E-03 0. -1.
    9000002   -1    0    0    0    0 -0.00000000000E+00 -0.00000000000E+00  0.00000000000E+00  0.93800000000E+00  0.93800000000E+00 0.  1.
         11    1    1    2    0    0  0.60078945618E-01 -0.13721213137E+00  0.13063595892E+01  0.13149191177E+01  0.51100000000E-03 0. -1.
    9000002    1    1    2    0    0 -0.18034277276E+00  0.40658683519E+00  0.13426534250E+00  0.10467605039E+01  0.93800000000E+00 0.  1.
         22    1    1    2    0    0  0.12026382714E+00 -0.26937470382E+00  0.25593750356E+01  0.25763203784E+01  0.00000000000E+00 0. -1.
</event>
<event>
 5    1  0.1537976E+002  0.1599672E+01  0.7818608E-02  0.3353720E+00
         11   -1    0    0    0    0  0.00000000000E+00  0.00000000000E+00  0.39999999674E+01  0.40000000000E+01  0.51100000000E-03 0. -1.
    9000002   -1    0    0    0    0 -0.00000000000E+00 -0.00000000000E+00  0.00000000000E+00  0.93800000000E+00  0.93800000000E+00 0. -1.
         11    1    1    2    0    0 -0.72395521023E-01  0.14770664862E+00  0.12638403610E+01  0.12745003274E+01  0.51100000000E-03 0. -1.
    9000002    1    1    2    0    0  0.21480101907E+00 -0.44185195884E+00  0.16499928956E+00  0.10716535806E+01  0.93800000000E+00 0. -1.
         22    1    1    2    0    0 -0.14240549805E+00  0.29414531023E+00  0.25711603168E+01  0.25918460919E+01  0.00000000000E+00 0. -1.
</event>
<event>
 5    1  0.1537976E+002  0.1599633E+01  0.7818608E-02  0.3353762E+00
         11   -1    0    0    0    0  0.00000000000E+00  0.00000000000E+00  0.39999999674E+01  0.40000000000E+01  0.51100000000E-03 0. -1.
    9000002   -1    0    0    0    0 -0.00000000000E+00 -0.00000000000E+00  0.00000000000E+00  0.93800000000E+00  0.93800000000E+00 0.  1.
         11    1    1    2    0    0 -0.11107714506E+00  0.30062100017E+00  0.21839367302E+01  0.22073266683E+01  0.51100000000E-03 0. -1.
    9000002    1    1    2    0    0  0.20603924975E+00 -0.51887688779E+00  0.21566588343E+00  0.11126729845E+01  0.93800000000E+00 0.  1.
         22    1    1    2    0    0 -0.94962104684E-01  0.21825588762E+00  0.16003973537E+01  0.16180003472E+01  0.00000000000E+00 0. -1.
</event>
<event>
 5    1  0.1537976E+002  0.1599194E+01  0.7818608E-02  0.3354239E+00
         11   -1    0    0    0    0  0.00000000000E+00  0.00000000000E+00  0.39999999674E+01  0.40000000000E+01  0.51100000000E-03 0. -1.
    9000002   -1    0    0    0    0 -0.00000000000E+00 -0.00000000000E+00  0.00000000000E+00  0.93800000000E+00  0.93800000000E+00 0. -1.
         11    1    1    2    0    0  0.56502214841E-01  0.16890316117E-01  0.95606289671E+00  0.95788011079E+00  0.51100000000E-03 0. -1.
    9000002    1    1    2    0    0 -0.31179015160E+00 -0.11796907732E+00  0.74765809295E-01  0.99828038550E+00  0.93800000000E+00 0. -1.
         22    1    1    2    0    0  0.25528793676E+00  0.10107876120E+00  0.29691712614E+01  0.29818395037E+01  0.00000000000E+00 0. -1.
</event>
<event>
 5    1  0.1537976E+002  0.1599641E+01  0.7818608E-02  0.3353753E+00
         11   -1    0    0    0    0  0.00000000000E+00  0.00000000000E+00  0.39999999674E+01  0.40000000000E+01  0.51100000000E-03 0. -1.
    9000002   -1    0    0    0    0 -0.00000000000E+00 -0.00000000000E+00  0.00000000000E+00  0.93800000000E+00  0.93800000000E+00 0. -1.
         11    1    1    2    0    0  0.38332353838E-02 -0.12319109777E-02  0.58061203752E-01  0.58202884811E-01  0.51100000000E-03 0. -1.
    9000002    1    1    2    0    0 -0.29524672577E+00 -0.23101384194E-01  0.58515508792E-01  0.98537930149E+00  0.93800000000E+00 0. -1.
         22    1    1    2    0    0  0.29141349039E+00  0.24333295172E-01  0.38834232548E+01  0.38944178137E+01  0.00000000000E+00 0. -1.
</event>
<event>
 5    1  0.1537976E+002  0.1578610E+01  0.7818608E-02  0.3376912E+00
         11   -1    0    0    0    0  0.00000000000E+00  0.00000000000E+00  0.39999999674E+01  0.40000000000E+01  0.51100000000E-03 0. -1.
    9000002   -1    0    0    0    0 -0.00000000000E+00 -0.00000000000E+00  0.00000000000E+00  0.93800000000E+00  0.93800000000E+00 0. -1.
         11    1    1    2    0    0  0.33949197460E+00  0.42855106413E+00  0.16221447638E+01  0.17118015981E+01  0.51100000000E-03 0. -1.
    9000002    1    1    2    0    0 -0.61934196833E+00 -0.54946187941E+00  0.53909167242E+00  0.13623350036E+01  0.93800000000E+00 0. -1.
         22    1    1    2    0    0  0.27984999373E+00  0.12091081527E+00  0.18387635311E+01  0.18638633983E+01  0.00000000000E+00 0.  1.
</event>
<event>
 5    1  0.1537976E+002  0.1599675E+01  0.7818608E-02  0.3353716E+00
         11   -1    0    0    0    0  0.00000000000E+00  0.00000000000E+00  0.39999999674E+01  0.40000000000E+01  0.51100000000E-03 0. -1.
    9000002   -1    0    0    0    0 -0.00000000000E+00 -0.00000000000E+00  0.00000000000E+00  0.93800000000E+00  0.93800000000E+00 0. -1.
         11    1    1    2    0    0  0.13943089317E+00 -0.19611184938E+00  0.18124469645E+01  0.18283503744E+01  0.51100000000E-03 0. -1.
    9000002    1    1    2    0    0 -0.29120788710E+00  0.41561947953E+00  0.17652716433E+00  0.10809937211E+01  0.93800000000E+00 0. -1.
         22    1    1    2    0    0  0.15177699392E+00 -0.21950763015E+00  0.20110258385E+01  0.20286559045E+01  0.00000000000E+00 0. -1.
</event>
<event>
 5    1  0.1537976E+002  0.1599484E+01  0.7818608E-02  0.3353924E+00
         11   -1    0    0    0    0  0.00000000000E+00  0.00000000000E+00  0.39999999674E+01  0.40000000000E+01  0.51100000000E-03 0.  1.
    9000002   -1    0    0    0    0 -0.00000000000E+00 -0.00000000000E+00  0.00000000000E+00  0.93800000000E+00  0.93800000000E+00 0.  1.
         11    1    1    2    0    0 -0.40851834227E-02 -0.23601787050E-01  0.56945391054E+00  0.56995767424E+00  0.51100000000E-03 0.  1.
    9000002    1    1    2    0    0  0.21219165505E-01  0.24543632378E+00  0.40451365597E-01  0.97065418919E+00  0.93800000000E+00 0.  1.
         22    1    1    2    0    0 -0.17133982083E-01 -0.22183453673E+00  0.33900946912E+01  0.33973881366E+01  0.00000000000E+00 0.  1.
</event>
<event>
 5    1  0.1537976E+002  0.1599677E+01  0.7818608E-02  0.3353715E+00
         11   -1    0    0    0    0  0.00000000000E+00  0.00000000000E+00  0.39999999674E+01  0.40000000000E+01  0.51100000000E-03 0. -1.
    9000002   -1    0    0    0    0 -0.00000000000E+00 -0.00000000000E+00  0.00000000000E+00  0.93800000000E+00  0.93800000000E+00 0.  1.
         11    1    1    2    0    0  0.16298720075E-01 -0.80847877121E-01  0.98948992307E+00  0.99292124385E+00  0.51100000000E-03 0. -1.
    9000002    1    1    2    0    0 -0.65039593499E-01  0.31837978769E+00  0.70615913285E-01  0.99520171078E+00  0.93800000000E+00 0.  1.
         22    1    1    2    0    0  0.48740873425E-01 -0.23753191057E+00  0.29398941310E+01  0.29498770454E+01  0.00000000000E+00 0. -1.
</event>
<event>
 5    1  0.1537976E+002  0.1599675E+01  0.7818608E-02  0.3353716E+00
         11   -1    0    0    0    0  0.00000000000E+00  0.00000000000E+00  0.39999999674E+01  0.40000000000E+01  0.51100000000E-03 0.  1.
    9000002   -1    0    0    0    0 -0.00000000000E+00 -0.00000000000E+00  0.00000000000E+00  0.93800000000E+00  0.93800000000E+00 0. -1.
         11    1    1    2    0    0 -0.52718607978E-01 -0.95912414787E-01  0.12884574591E+01  0.12930975709E+01  0.51100000000E-03 0.  1.
    9000002    1    1    2    0    0  0.15621369854E+00  0.29286939318E+00  0.73732076004E-01  0.99772522275E+00  0.93800000000E+00 0. -1.
         22    1    1    2    0    0 -0.10349509056E+00 -0.19695697839E+00  0.26378104323E+01  0.26471772063E+01  0.00000000000E+00 0.  1.
</event>
<event>
 5    1  0.1537976E+002  0.1599664E+01  0.7818608E-02  0.3353728E+00
         11   -1    0    0    0    0  0.00000000000E+00  0.00000000000E+00  0.39999999674E+01  0.40000000000E+01  0.51100000000E-03 0.  1.
    9000002   -1    0    0    0    0 -0.00000000000E+00 -0.00000000000E+00  0.00000000000E+00  0.93800000000E+00  0.93800000000E+00 0.  1.
         11    1    1    2    0    0 -0.16566367492E+00  0.93947670972E-01  0.17253793331E+01  0.17358584972E+01  0.51100000000E-03 0.  1.
    9000002    1    1    2    0    0  0.36502646474E+00 -0.20514297399E+00  0.11856568235E+00  0.10340356767E+01  0.93800000000E+00 0.  1.
         22    1    1    2    0    0 -0.19936278982E+00  0.11119530302E+00  0.21560549519E+01  0.21681058261E+01  0.00000000000E+00 0.  1.
</event>
<event>
 5    1  0.1537976E+002  0.1599658E+01  0.7818608E-02  0.3353735E+00
         11   -1    0    0    0    0  0.00000000000E+00  0.00000000000E+00  0.39999999674E+01  0.40000000000E+01  0.51100000000E-03 0. -1.
    9000002   -1    0    0    0    0 -0.00000000000E+00 -0.00000000000E+00  0.00000000000E+00  0.93800000000E+00  0.93800000000E+00 0.  1.
         11    1    1    2    0    0  0.93426883109E-01  0.36247722429E-01  0.53967590243E+00  0.54890146716E+00  0.51100000000E-03 0. -1.
    9000002    1    1    2    0    0 -0.65491310958E+00 -0.23266051084E+00  0.34477942559E+00  0.12172752140E+01  0.93800000000E+00 0.  1.
         22    1    1    2    0    0  0.56148622647E+00  0.19641278841E+00  0.31155446393E+01  0.31718233188E+01  0.00000000000E+00 0. -1.
</event>
<event>
 5    1  0.1537976E+002  0.1599578E+01  0.7818608E-02  0.3353821E+00
         11   -1    0    0    0    0  0.00000000000E+00  0.00000000000E+00  0.39999999674E+01  0.40000000000E+01  0.51100000000E-03 0.  1.
    9000002   -1    0    0    0    0 -0.00000000000E+00 -0.00000000000E+00  0.00000000000E+00  0.93800000000E+00  0.93800000000E+00 0. -1.
         11    1    1    2    0    0 -0.22868252854E-02 -0.48363976599E-01  0.64536238324E+00  0.64717630568E+00  0.51100000000E-03 0.  1.
    9000002    1    1    2    0    0 -0.39970811540E-01  0.29821603048E+00  0.60476333798E-01  0.98693052114E+00  0.93800000000E+00 0. -1.
         22    1    1    2    0    0  0.42257636825E-01 -0.24985205388E+00  0.32941612503E+01  0.33038931732E+01  0.00000000000E+00 0.  1.
</event>
<event>
 5    1  0.1537976E+002  0.1599645E+01  0.7818608E-02  0.3353749E+00
         11   -1    0    0    0    0  0.00000000000E+00  0.00000000000E+00  0.39999999674E+01  0.40000000000E+01  0.51100000000E-03 0.  1.
    9000002   -1    0    0    0    0 -0.00000000000E+00 -0.00000000000E+00  0.00000000000E+00  0.93800000000E+00  0.93800000000E+00 0. -1.
         11    1    1    2    0    0  0.30067539527E-01  0.69427368004E-02  0.43487407574E+00  0.43596786739E+00  0.51100000000E-03 0.  1.
    9000002    1    1    2    0    0 -0.23548554618E+00 -0.69885598919E-01  0.40092995597E-01  0.97045808137E+00  0.93800000000E+00 0. -1.
         22    1    1    2    0    0  0.20541800665E+00  0.62942862118E-01  0.35250328960E+01  0.35315740512E+01  0.00000000000E+00 0.  1.
</event>
<event>
 5    1  0.1537976E+002  0.1592796E+01  0.7818608E-02  0.3361220E+00
         11   -1    0    0    0    0  0.00000000000E+00  0.00000000000E+00  0.39999999674E+01  0.40000000000E+01  0.51100000000E-03 0. -1.
    9000002   -1    0    0    0    0 -0.00000000000E+00 -0.00000000000E+00  0.00000000000E+00  0.93800000000E+00  0.93800000000E+00 0.  1.
         11    1    1    2    0    0  0.16431789838E-02  0.30271020408E-01  0.12736583121E+01  0.12740191489E+01  0.51100000000E-03 0. -1.
    9000002    1    1    2    0    0  0.11920861380E-01  0.19570800159E+00  0.30612105586E-01  0.95876213413E+00  0.93800000000E+00 0.  1.
         22    1    1    2    0    0 -0.13564040364E-01 -0.22597902200E+00  0.26957295497E+01  0.27052187170E+01  0.00000000000E+00 0.  1.
</event>
<event>
 5    1  0.1537976E+002  0.1599677E+01  0.7818608E-02  0.3353714E+00
         11   -1    0    0    0    0  0.00000000000E+00  0.00000000000E+00  0.39999999674E+01  0.40000000000E+01  0.51100000000E-03 0.  1.
    9000002   -1    0    0    0    0 -0.00000000000E+00 -0.00000000000E+00  0.00000000000E+00  0.93800000000E+00  0.93800000000E+00 0.  1.
         11    1    1    2    0    0 -0.33880414421E+00 -0.50569254055E-01  0.66645655031E+00  0.74933977084E+00  0.51100000000E-03 0. -1.
    9000002    1    1    2    0    0  0.12291485428E+01  0.18352744964E+00  0.15841319705E+01  0.22212173610E+01  0.93800000000E+00 0.  1.
         22    1    1    2    0    0 -0.89034439861E+00 -0.13295819558E+00  0.17494114466E+01  0.19674428681E+01  0.00000000000E+00 0.  1.
</event>
<event>
 5    1  0.1537976E+002  0.1598807E+01  0.7818608E-02  0.3354659E+00
         11   -1    0    0    0    0  0.00000000000E+00  0.00000000000E+00  0.39999999674E+01  0.40000000000E+01  0.51100000000E-03 0. -1.
    9000002   -1    0    0    0    0 -0.00000000000E+00 -0.00000000000E+00  0.00000000000E+00  0.93800000000E+00  0.93800000000E+00 0.  1.
         11    1    1    2    0    0 -0.90928897536E-01  0.26149925586E-01  0.95107643379E+00  0.95577116877E+00  0.51100000000E-03 0. -1.
    9000002    1    1    2    0    0  0.31447482741E+00  0.15665381486E-02  0.66752804047E-01  0.99156281090E+00  0.93800000000E+00 0.  1.
         22    1    1    2    0    0 -0.22354592988E+00 -0.27716463734E-01  0.29821707295E+01  0.29906660203E+01  0.00000000000E+00 0. -1.
</event>
<event>
 5    1  0.1537976E+002  0.1458126E+01  0.7818608E-02  0.3523379E+00
         11   -1    0    0    0    0  0.00000000000E+00  0.00000000000E+00  0.39999999674E+01  0.40000000000E+01  0.51100000000E-03 0.  1.
    9000002   -1    0    0    0    0 -0.00000000000E+00 -0.00000000000E+00  0.00000000000E+00  0.93800000000E+00  0.93800000000E+00 0.  1.
         11    1    1    2    0    0 -0.14630894334E+00  0.24075293701E+00  0.18774672460E+00  0.33855188272E+00  0.51100000000E-03 0.  1.
    9000002    1    1    2    0    0  0.28030884901E-01 -0.70780899159E+00  0.54283010718E+00  0.12947153449E+01  0.93800000000E+00 0.  1.
         22    1    1    2    0    0  0.11827805844E+00  0.46705605459E+00  0.32694231356E+01  0.33047327724E+01  0.00000000000E+00 0.  1.
</event>
<event>
 5    1  0.1537976E+002  0.1599131E+01  0.7818608E-02  0.3354307E+00
         11   -1    0    0    0    0  0.00000000000E+00  0.00000000000E+00  0.39999999674E+01  0.40000000000E+01  0.51100000000E-03 0. -1.
    9000002   -1    0    0    0    0 -0.00000000000E+00 -0.00000000000E+00  0.00000000000E+00  0.93800000000E+00  0.93800000000E+00 0. -1.
         11    1    1    2    0    0 -0.33670533036E-01  0.15898520996E-01  0.45748577051E+00  0.45899886613E+00  0.51100000000E-03 0. -1.
    9000002    1    1    2    0    0  0.14983041194E+00 -0.20228222085E+00  0.42517454869E-01  0.97212086861E+00  0.93800000000E+00 0. -1.
         22    1    1    2    0    0 -0.11615987890E+00  0.18638369986E+00  0.34999967420E+01  0.35068802653E+01  0.00000000000E+00 0. -1.
</event>
<event>
 5    1  0.1537976E+002  0.1479290E+01  0.7818608E-02  0.3495788E+00
         11   -1    0    0    0    0  0.00000000000E+00  0.00000000000E+00  0.39999999674E+01  0.40000000000E+01  0.51100000000E-03 0. -1.
    9000002   -1    0    0    0    0 -0.00000000000E+00 -0.00000000000E+00  0.00000000000E+00  0.93800000000E+00  0.93800000000E+00 0. -1.
         11    1    1    2    0    0 -0.88380071400E-01  0.93684978549E-01  0.37414043634E-01  0.13411929022E+00  0.51100000000E-03 0. -1.
    9000002    1    1    2    0    0  0.34442957116E-01 -0.33890316915E+00  0.18130949043E+00  0.10142774801E+01  0.93800000000E+00 0. -1.
         22    1    1    2    0    0  0.53937114283E-01  0.24521819060E+00  0.37812764333E+01  0.37896032297E+01  0.00000000000E+00 0. -1.
</event>
<event>
 5    1  0.1537976E+002  0.1588339E+01  0.7818608E-02  0.3366118E+00
         11   -1    0    0    0    0  0.00000000000E+00  0.00000000000E+00  0.39999999674E+01  0.40000000000E+01  0.51100000000E-03 0. -1.
    9000002   -1    0    0    0    0 -0.00000000000E+00 -0.00000000000E+00  0.00000000000E+00  0.93800000000E+00  0.93800000000E+00 0. -1.
         11    1    1    2    0    0  0.13616184493E-01  0.13940745570E-01  0.24006839712E-01  0.30924655878E-01  0.51100000000E-03 0. -1.
    9000002    1    1    2    0    0  0.69971820524E-01  0.29216936460E+00  0.69145159455E-01  0.98736216575E+00  0.93800000000E+00 0. -1.
         22    1    1    2    0    0 -0.83588005017E-01 -0.30611011017E+00  0.39068479682E+01  0.39197131784E+01  0.00000000000E+00 0. -1.
</event>
<event>
 5    1  0.1537976E+002  0.1599637E+01  0.7818608E-02  0.3353757E+00
         11   -1    0    0    0    0  0.00000000000E+00  0.00000000000E+00  0.39999999674E+01  0.40000000000E+01  0.51100000000E-03 0.  1.
    9000002   -1    0    0    0    0 -0.00000000000E+00 -0.00000000000E+00  0.00000000000E+00  0.93800000000E+00  0.93800000000E+00 0.  1.
         11    1    1    2    0    0 -0.22840909132E-02 -0.57231616850E-02  0.13566449818E+00  0.13580533436E+00  0.51100000000E-03 0.  1.
    9000002    1    1    2    0    0  0.10933196565E+00  0.23400034954E+00  0.44373776233E-01  0.97392128754E+00  0.93800000000E+00 0.  1.
         22    1    1    2    0    0 -0.10704787474E+00 -0.22827718785E+00  0.38199616929E+01  0.38282733781E+01  0.00000000000E+00 0.  1.
</event>
<event>
 5    1  0.1537976E+002  0.1598691E+01  0.7818608E-02  0.3354785E+00
         11   -1    0    0    0    0  0.00000000000E+00  0.00000000000E+00  0.39999999674E+01  0.40000000000E+01  0.51100000000E-03 0.  1.
    9000002   -1    0    0    0    0 -0.00000000000E+00 -0.00000000000E+00  0.00000000000E+00  0.93800000000E+00  0.93800000000E+00 0.  1.
         11    1    1    2    0    0 -0.24002210546E-01  0.31802167106E-02  0.15166215602E+00  0.15358349709E+00  0.51100000000E-03 0.  1.
    9000002    1    1    2    0    0  0.24751205528E+00 -0.46079799274E-01  0.42866448446E-01  0.97214561554E+00  0.93800000000E+00 0.  1.
         22    1    1    2    0    0 -0.22350984473E+00  0.42899582563E-01  0.38054713629E+01  0.38122708874E+01  0.00000000000E+00 0.  1.
</event>
<event>
 5    1  0.1537976E+002  0.1574261E+01  0.7818608E-02  0.3381782E+00
         11   -1    0    0    0    0  0.00000000000E+00  0.00000000000E+00  0.39999999674E+01  0.40000000000E+01  0.51100000000E-03 0. -1.
    9000002   -1    0    0    0    0 -0.00000000000E+00 -0.00000000000E+00  0.00000000000E+00  0.93800000000E+00  0.93800000000E+00 0. -1.
         11    1    1    2    0    0 -0.29324212191E+00  0.14805846355E-01  0.14976482813E+01  0.15261588353E+01  0.51100000000E-03 0. -1.
    9000002    1    1    2    0    0  0.32654102855E+00 -0.25926003224E+00  0.13924955368E+00  0.10358953836E+01  0.93800000000E+00 0. -1.
         22    1    1    2    0    0 -0.33298906634E-01  0.24445418588E+00  0.23631021324E+01  0.23759457810E+01  0.00000000000E+00 0. -1.
</event>
<event>
 5    1  0.1537976E+002  0.1599651E+01  0.7818608E-02  0.3353742E+00
         11   -1    0    0    0    0  0.00000000000E+00  0.00000000000E+00  0.39999999674E+01  0.40000000000E+01  0.51100000000E-03 0.  1.
    9000002   -1    0    0    0    0 -0.00000000000E+00 -0.00000000000E+00  0.00000000000E+00  0.93800000000E+00  0.93800000000E+00 0. -1.
         11    1    1    2    0    0  0.22438639504E-01 -0.76633440723E-01  0.83920636131E+00  0.84299688894E+00  0.51100000000E-03 0.  1.
    9000002    1    1    2    0    0 -0.12001771120E+00  0.37285946797E+00  0.10340277367E+00  0.10217458429E+01  0.93800000000E+00 0. -1.
         22    1    1    2    0    0  0.97579071700E-01 -0.29622602725E+00  0.30573908324E+01  0.30732572682E+01  0.00000000000E+00 0.  1.
</event>
<event>
 5    1  0.1537976E+002  0.1599677E+01  0.7818608E-02  0.3353714E+00
         11   -1    0    0    0    0  0.00000000000E+00  0.00000000000E+00  0.39999999674E+01  0.40000000000E+01  0.51100000000E-03 0.  1.
    9000002   -1    0    0    0    0 -0.00000000000E+00 -0.00000000000E+00  0.00000000000E+00  0.93800000000E+00  0.93800000000E+00 0. -1.
         11    1    1    2    0    0 -0.50706964880E+00 -0.26002162138E+00  0.24400176422E+01  0.25056769998E+01  0.51100000000E-03 0.  1.
    9000002    1    1    2    0    0  0.72860073342E+00  0.37367106830E+00  0.49713175506E+00  0.13406987275E+01  0.93800000000E+00 0. -1.
         22    1    1    2    0    0 -0.22153108462E+00 -0.11364944692E+00  0.10628505701E+01  0.10916242727E+01  0.00000000000E+00 0.  1.
</event>
<event>
 5    1  0.1537976E+002  0.1576519E+01  0.7818608E-02  0.3379250E+00
         11   -1    0    0    0    0  0.00000000000E+00  0.00000000000E+00  0.39999999674E+01  0.40000000000E+01  0.51100000000E-03 0. -1.
    9000002   -1    0    0    0    0 -0.00000000000E+00 -0.00000000000E+00  0.00000000000E+00  0.93800000000E+00  0.93800000000E+00 0. -1.
         11    1    1    2    0    0  0.27800363264E-01  0.25228858573E+00  0.28568532377E+01  0.28681061824E+01  0.51100000000E-03 0. -1.
    9000002    1    1    2    0    0  0.55649885274E-01 -0.52567478082E+00  0.21397837553E+00  0.10977529914E+01  0.93800000000E+00 0. -1.
         22    1    1    2    0    0 -0.83450248538E-01  0.27338619509E+00  0.92916835409E+00  0.97214082616E+00  0.00000000000E+00 0. -1.
</event>
<event>
 5    1  0.1537976E+002  0.1596238E+01  0.7818608E-02  0.3357456E+00
         11   -1    0    0    0    0  0.00000000000E+00  0.00000000000E+00  0.39999999674E+01  0.40000000000E+01  0.51100000000E-03 0. -1.
    9000002   -1    0    0    0    0 -0.00000000000E+00 -0.00000000000E+00  0.00000000000E+00  0.93800000000E+00  0.93800000000E+00 0. -1.
         11    1    1    2    0    0  0.48408147177E-01 -0.64239397201E-01  0.86302545057E+00  0.86676596514E+00  0.51100000000E-03 0. -1.
    9000002    1    1    2    0    0 -0.34487158281E+00  0.57480787971E-01  0.84733249013E-01  0.10046214078E+01  0.93800000000E+00 0. -1.
         22    1    1    2    0    0  0.29646343563E+00  0.67586092305E-02  0.30522412678E+01  0.30666126270E+01  0.00000000000E+00 0. -1.
</event>
<event>
 5    1  0.1537976E+002  0.1599665E+01  0.7818608E-02  0.3353727E+00
         11   -1    0    0    0    0  0.00000000000E+00  0.00000000000E+00  0.39999999674E+01  0.40000000000E+01  0.51100000000E-03 0. -1.
    9000002   -1    0    0    0    0 -0.00000000000E+00 -0.00000000000E+00  0.00000000000E+00  0.93800000000E+00  0.93800000000E+00 0.  1.
         11    1    1    2    0    0  0.40329494847E-01 -0.17788152224E-01  0.59231188491E+00  0.59394992773E+00  0.51100000000E-03 0. -1.
    9000002    1    1    2    0    0 -0.27592382216E+00  0.13604215145E+00  0.63191184483E-01  0.98918074607E+00  0.93800000000E+00 0.  1.
         22    1    1    2    0    0  0.23559432732E+00 -0.11825399922E+00  0.33444968980E+01  0.33548693262E+01  0.00000000000E+00 0. -1.
</event>
<event>
 5    1  0.1537976E+002  0.1599675E+01  0.7818608E-02  0.3353716E+00
         11   -1    0    0    0    0  0.00000000000E+00  0.00000000000E+00  0.39999999674E+01  0.40000000000E+01  0.51100000000E-03 0.  1.
    9000002   -1    0    0    0    0 -0.00000000000E+00 -0.00000000000E+00  0.00000000000E+00  0.93800000000E+00  0.93800000000E+00 0. -1.
         11    1    1    2    0    0 -0.15361579889E+00  0.14635661454E+00  0.19929451763E+01  0.20042077760E+01  0.51100000000E-03 0.  1.
    9000002    1    1    2    0    0  0.30243142452E+00 -0.28571678589E+00  0.11700658385E+00  0.10327794484E+01  0.93800000000E+00 0. -1.
         22    1    1    2    0    0 -0.14881562563E+00  0.13936017135E+00  0.18900482072E+01  0.19010127757E+01  0.00000000000E+00 0.  1.
</event>
<event>
 5    1  0.1537976E+002  0.1599654E+01  0.7818608E-02  0.3353739E+00
         11   -1    0    0    0    0  0.00000000000E+00  0.00000000000E+00  0.39999999674E+01  0.40000000000E+01  0.51100000000E-03 0.  1.
    9000002   -1    0    0    0    0 -0.00000000000E+00 -0.00000000000E+00  0.00000000000E+00  0.93800000000E+00  0.93800000000E+00 0. -1.
         11    1    1    2    0    0 -0.63089719245E-01 -0.87206850466E-01  0.12543553672E+01  0.12589650495E+01  0.51100000000E-03 0.  1.
    9000002    1    1    2    0    0  0.21163194052E+00  0.26386683632E+00  0.76636558493E-01  0.10000654717E+01  0.93800000000E+00 0. -1.
         22    1    1    2    0    0 -0.14854222128E+00 -0.17665998585E+00  0.26690080416E+01  0.26789694788E+01  0.00000000000E+00 0.  1.
</event>
<event>
 5    1  0.1537976E+002  0.1599583E+01  0.7818608E-02  0.3353816E+00
         11   -1    0    0    0    0  0.00000000000E+00  0.00000000000E+00  0.39999999674E+01  0.40000000000E+01  0.51100000000E-03 0.  1.
    9000002   -1    0    0    0    0 -0.00000000000E+00 -0.00000000000E+00  0.00000000000E+00  0.93800000000E+00  0.93800000000E+00 0.  1.
         11    1    1    2    0    0 -0.88032317582E-01 -0.20747926787E-02  0.11400041772E+01  0.11434000957E+01  0.51100000000E-03 0.  1.
    9000002    1    1    2    0    0  0.30345156477E+00  0.43764445713E-01  0.62820343656E-01  0.98883192427E+00  0.93800000000E+00 0.  1.
         22    1    1    2    0    0 -0.21541924719E+00 -0.41689653034E-01  0.27971754465E+01  0.28057679800E+01  0.00000000000E+00 0.  1.
</event>
<event>
 5    1  0.1537976E+002  0.1599676E+01  0.7818608E-02  0.3353715E+00
         11   -1    0    0    0    0  0.00000000000E+00  0.00000000000E+00  0.39999999674E+01  0.40000000000E+01  0.51100000000E-03 0. -1.
    9000002   -1    0    0    0    0 -0.00000000000E+00 -0.00000000000E+00  0.00000000000E+00  0.93800000000E+00  0.93800000000E+00 0.  1.
         11    1    1    2    0    0 -0.37551794694E-02  0.25157754194E-01  0.32877906437E+00  0.32976195696E+00  0.51100000000E-03 0.  1.
    9000002    1    1    2    0    0  0.47659086693E-01 -0.29859099555E+00  0.61006729241E-01  0.98741773945E+00  0.93800000000E+00 0.  1.
         22    1    1    2    0    0 -0.43903907224E-01  0.27343324136E+00  0.36102141737E+01  0.36208203036E+01  0.00000000000E+00 0. -1.
</event>
<event>
 5    1  0.1537976E+002  0.1594638E+01  0.7818608E-02  0.3359204E+00
         11   -1    0    0    0    0  0.00000000000E+00  0.00000000000E+00  0.39999999674E+01  0.40000000000E+01  0.51100000000E-03 0. -1.
    9000002   -1    0    0    0    0 -0.00000000000E+00 -0.00000000000E+00  0.00000000000E+00  0.93800000000E+00  0.93800000000E+00 0. -1.
         11    1    1    2    0    0 -0.43811757311E-01 -0.33160052247E-01  0.83549320156E-01  0.99999045812E-01  0.51100000000E-03 0. -1.
    9000002    1    1    2    0    0  0.69840728966E+00  0.69005634099E+00  0.77702106559E+00  0.15644667566E+01  0.93800000000E+00 0. -1.
         22    1    1    2    0    0 -0.65459553235E+00 -0.65689628875E+00  0.31394295816E+01  0.32735341976E+01  0.00000000000E+00 0. -1.
</event>
<event>
 5    1  0.1537976E+002  0.1544588E+01  0.7818608E-02  0.3415792E+00
         11   -1    0    0    0    0  0.00000000000E+00  0.00000000000E+00  0.39999999674E+01  0.40000000000E+01  0.51100000000E-03 0. -1.
    9000002   -1    0    0    0    0 -0.00000000000E+00 -0.00000000000E+00  0.00000000000E+00  0.93800000000E+00  0.93800000000E+00 0. -1.
         11    1    1    2    0    0 -0.12721277729E+00  0.88980385645E-01  0.92483252716E+00  0.93777186146E+00  0.51100000000E-03 0. -1.
    9000002    1    1    2    0    0 -0.38030113780E+00  0.55292788011E-01  0.14625125280E+00  0.10241677972E+01  0.93800000000E+00 0. -1.
         22    1    1    2    0    0  0.50751391509E+00 -0.14427317366E+00  0.29289161874E+01  0.29760603414E+01  0.00000000000E+00 0. -1.
</event>
<event>
 5    1  0.1537976E+002  0.1599675E+01  0.7818608E-02  0.3353716E+00
         11   -1    0    0    0    0  0.00000000000E+00  0.00000000000E+00  0.39999999674E+01  0.40000000000E+01  0.51100000000E-03 0.  1.
    9000002   -1    0    0    0    0 -0.00000000000E+00 -0.00000000000E+00  0.00000000000E+00  0.93800000000E+00  0.93800000000E+00 0.  1.
         11    1    1    2    0    0 -0.10558562545E+00 -0.84795135613E-02  0.12178054834E+01  0.12224036497E+01  0.51100000000E-03 0.  1.
    9000002    1    1    2    0    0  0.34231320696E+00  0.22711365226E-01  0.78857147905E-01  0.10018765331E+01  0.93800000000E+00 0.  1.
         22    1    1    2    0    0 -0.23672758151E+00 -0.14231851665E-01  0.27033373361E+01  0.27137198172E+01  0.00000000000E+00 0.  1.
</event>
<event>
 5    1  0.1537976E+002  0.1599640E+01  0.7818608E-02  0.3353754E+00
         11   -1    0    0    0    0  0.00000000000E+00  0.00000000000E+00  0.39999999674E+01  0.40000000000E+01  0.51100000000E-03 0.  1.
    9000002   -1    0    0    0    0 -0.00000000000E+00 -0.00000000000E+00  0.00000000000E+00  0.93800000000E+00  0.93800000000E+00 0. -1.
         11    1    1    2    0    0  0.36023548801E-02  0.42923976000E-02  0.67751523203E-01  0.67984789881E-01  0.51100000000E-03 0.  1.
    9000002    1    1    2    0    0 -0.11569688959E+00 -0.20069014739E+00  0.35627410776E-01  0.96683794812E+00  0.93800000000E+00 0. -1.
         22    1    1    2    0    0  0.11209453471E+00  0.19639774979E+00  0.38966210334E+01  0.39031772620E+01  0.00000000000E+00 0.  1.
</event>
<event>
 5    1  0.1537976E+002  0.1599677E+01  0.7818608E-02  0.3353714E+00
         11   -1    0    0    0    0  0.00000000000E+00  0.00000000000E+00  0.39999999674E+01  0.40000000000E+01  0.51100000000E-03 0.  1.
    9000002   -1    0    0    0    0 -0.00000000000E+00 -0.00000000000E+00  0.00000000000E+00  0.93800000000E+00  0.93800000000E+00 0. -1.
         11    1    1    2    0    0  0.23528619459E+00  0.64080452262E+00  0.25935172534E+01  0.26818504870E+01  0.51100000000E-03 0.  1.
    9000002    1    1    2    0    0 -0.30693341953E+00 -0.83806173878E+00  0.60774014513E+00  0.14302963630E+01  0.93800000000E+00 0. -1.
         22    1    1    2    0    0  0.71647224941E-01  0.19725721616E+00  0.79874256883E+00  0.82585315004E+00  0.00000000000E+00 0. -1.
</event>
<event>
 5    1  0.1537976E+002  0.1597717E+01  0.7818608E-02  0.3355844E+00
         11   -1    0    0    0    0  0.00000000000E+00  0.00000000000E+00  0.39999999674E+01  0.40000000000E+01  0.51100000000E-03 0.  1.
    9000002   -1    0    0    0    0 -0.00000000000E+00 -0.00000000000E+00  0.00000000000E+00  0.93800000000E+00  0.93800000000E+00 0.  1.
         11    1    1    2    0    0 -0.25919598554E-01 -0.23508646414E-01  0.81510155713E+00  0.81585249378E+00  0.51100000000E-03 0.  1.
    9000002    1    1    2    0    0  0.20016141252E+00 -0.81588293645E-01  0.32440342703E-01  0.96312907575E+00  0.93800000000E+00 0.  1.
         22    1    1    2    0    0 -0.17424181397E+00  0.10509694006E+00  0.31524580675E+01  0.31590184305E+01  0.00000000000E+00 0.  1.
</event>
<event>
 5    1  0.1537976E+002  0.1598585E+01  0.7818608E-02  0.3354900E+00
         11   -1    0    0    0    0  0.00000000000E+00  0.00000000000E+00  0.39999999674E+01  0.40000000000E+01  0.51100000000E-03 0. -1.
    9000002   -1    0    0    0    0 -0.00000000000E+00 -0.00000000000E+00  0.00000000000E+00  0.93800000000E+00  0.93800000000E+00 0.  1.
         11    1    1    2    0    0  0.22552694639E+00 -0.11732819658E+00  0.21330470342E+01  0.21481429702E+01  0.51100000000E-03 0. -1.
    9000002    1    1    2    0    0 -0.44241952484E+00  0.26928424063E+00  0.18519746106E+00  0.10873781025E+01  0.93800000000E+00 0.  1.
         22    1    1    2    0    0  0.21689257845E+00 -0.15195604405E+00  0.16817554721E+01  0.17024789273E+01  0.00000000000E+00 0. -1.
</event>
<event>
 5    1  0.1537976E+002  0.1285153E+01  0.7818608E-02  0.3810740E+00
         11   -1    0    0    0    0  0.00000000000E+00  0.00000000000E+00  0.39999999674E+01  0.40000000000E+01  0.51100000000E-03 0. -1.
    9000002   -1    0    0    0    0 -0.00000000000E+00 -0.00000000000E+00  0.00000000000E+00  0.93800000000E+00  0.93800000000E+00 0. -1.
         11    1    1    2    0    0 -0.76267930157E+00  0.38833185032E+00  0.27570940527E+01  0.28868753384E+01  0.51100000000E-03 0. -1.
    9000002    1    1    2    0    0  0.49197309795E+00  0.26866752961E-01  0.53498223178E+00  0.11869327444E+01  0.93800000000E+00 0. -1.
         22    1    1    2    0    0  0.27070620362E+00 -0.41519860329E+00  0.70792368285E+00  0.86419191711E+00  0.00000000000E+00 0. -1.
</event>
<event>
 5    1  0.1537976E+002  0.1484420E+01  0.7818608E-02  0.3489229E+00
         11   -1    0    0    0    0  0.00000000000E+00  0.00000000000E+00  0.39999999674E+01  0.40000000000E+01  0.51100000000E-03 0. -1.
    9000002   -1    0    0    0    0 -0.00000000000E+00 -0.00000000000E+00  0.00000000000E+00  0.93800000000E+00  0.93800000000E+00 0.  1.
         11    1    1    2    0    0 -0.21925740741E+00  0.80392408671E-01  0.38199688813E+00  0.44772606998E+00  0.51100000000E-03 0. -1.
    9000002    1    1    2    0    0 -0.12168604354E+00  0.14482675150E+00  0.11528586860E+00  0.96380346162E+00  0.93800000000E+00 0.  1.
         22    1    1    2    0    0  0.34094345094E+00 -0.22521916017E+00  0.35027172106E+01  0.35264704684E+01  0.00000000000E+00 0. -1.
</event>
<event>
 5    1  0.1537976E+002  0.1599652E+01  0.7818608E-02  0.3353741E+00
         11   -1    0    0    0    0  0.00000000000E+00  0.00000000000E+00  0.39999999674E+01  0.40000000000E+01  0.51100000000E-03 0.  1.
    9000002   -1    0    0    0    0 -0.00000000000E+00 -0.00000000000E+00  0.00000000000E+00  0.93800000000E+00  0.93800000000E+00 0.  1.
         11    1    1    2    0    0 -0.94984701205E-01  0.13969277753E+00  0.13258829512E+01  0.13366009229E+01  0.51100000000E-03 0.  1.
    9000002    1    1    2    0    0  0.28041386976E+00 -0.38900564206E+00  0.15691491964E+00  0.10650932447E+01  0.93800000000E+00 0.  1.
         22    1    1    2    0    0 -0.18542916855E+00  0.24931286453E+00  0.25172020965E+01  0.25363058324E+01  0.00000000000E+00 0.  1.
</event>
<event>
 5    1  0.1537976E+002  0.1596942E+01  0.7818608E-02  0.3356689E+00
         11   -1    0    0    0    0  0.00000000000E+00  0.00000000000E+00  0.39999999674E+01  0.40000000000E+01  0.51100000000E-03 0. -1.
    9000002   -1    0    0    0    0 -0.00000000000E+00 -0.00000000000E+00  0.00000000000E+00  0.93800000000E+00  0.93800000000E+00 0.  1.
         11    1    1    2    0    0  0.17635702101E-01  0.20907626245E-01  0.33416615701E+00  0.33528410108E+00  0.51100000000E-03 0. -1.
    9000002    1    1    2    0    0  0.15146344799E+00 -0.44356756623E+00  0.15203713569E+00  0.10595530437E+01  0.93800000000E+00 0.  1.
         22    1    1    2    0    0 -0.16909915009E+00  0.42265993998E+00  0.35137966747E+01  0.35431628552E+01  0.00000000000E+00 0. -1.
</event>
<event>
 5    1  0.1537976E+002  0.1599664E+01  0.7818608E-02  0.3353728E+00
         11   -1    0    0    0    0  0.00000000000E+00  0.00000000000E+00  0.39999999674E+01  0.40000000000E+01  0.51100000000E-03 0. -1.
    9000002   -1    0    0    0    0 -0.00000000000E+00 -0.00000000000E+00  0.00000000000E+00  0.93800000000E+00  0.93800000000E+00 0.  1.
         11    1    1    2    0    0  0.77166663433E-02  0.20337664440E-01  0.22614255138E+00  0.22718688826E+00  0.51100000000E-03 0. -1.
    9000002    1    1    2    0    0 -0.11630511597E+00 -0.32335347640E+00  0.79132071536E-01  0.10020929276E+01  0.93800000000E+00 0.  1.
         22    1    1    2    0    0  0.10858844963E+00  0.30301581196E+00  0.36947253444E+01  0.37087201842E+01  0.00000000000E+00 0. -1.
</event>
<event>
 5    1  0.1537976E+002  0.1598555E+01  0.7818608E-02  0.3354933E+00
         11   -1    0    0    0    0  0.00000000000E+00  0.00000000000E+00  0.39999999674E+01  0.40000000000E+01  0.51100000000E-03 0. -1.
    9000002   -1    0    0    0    0 -0.00000000000E+00 -0.00000000000E+00  0.00000000000E+00  0.93800000000E+00  0.93800000000E+00 0. -1.
         11    1    1    2    0    0 -0.60644239606E-02  0.65461564536E-01  0.13852131388E+01  0.13867724019E+01  0.51100000000E-03 0. -1.
    9000002    1    1    2    0    0  0.10798742759E+00 -0.24862712668E+00  0.49758296499E-01  0.97764851594E+00  0.93800000000E+00 0. -1.
         22    1    1    2    0    0 -0.10192300363E+00  0.18316556215E+00  0.25650285320E+01  0.25735790821E+01  0.00000000000E+00 0. -1.
</event>
<event>
 5    1  0.1537976E+002  0.1585195E+01  0.7818608E-02  0.3369590E+00
         11   -1    0    0    0    0  0.00000000000E+00  0.00000000000E+00  0.39999999674E+01  0.40000000000E+01  0.51100000000E-03 0. -1.
    9000002   -1    0    0    0    0 -0.00000000000E+00 -0.00000000000E+00  0.00000000000E+00  0.93800000000E+00  0.93800000000E+00 0.  1.
         11    1    1    2    0    0 -0.29719235374E-02  0.70742041170E-01  0.84590219491E+00  0.84886044388E+00  0.51100000000E-03 0. -1.
    9000002    1    1    2    0    0 -0.37291280928E+00  0.65366681953E-01  0.10839785088E+00  0.10173155167E+01  0.93800000000E+00 0.  1.
         22    1    1    2    0    0  0.37588473282E+00 -0.13610872312E+00  0.30456999216E+01  0.30718240394E+01  0.00000000000E+00 0. -1.
</event>
<event>
 5    1  0.1537976E+002  0.1590227E+01  0.7818608E-02  0.3364039E+00
         11   -1    0    0    0    0  0.00000000000E+00  0.00000000000E+00  0.39999999674E+01  0.40000000000E+01  0.51100000000E-03 0.  1.
    9000002   -1    0    0    0    0 -0.00000000000E+00 -0.00000000000E+00  0.00000000000E+00  0.93800000000E+00  0.93800000000E+00 0. -1.
         11    1    1    2    0    0 -0.10327911407E-01 -0.52838576315E-01  0.19643983591E+00  0.20368468561E+00  0.51100000000E-03 0.  1.
    9000002    1    1    2    0    0  0.21296263268E+00  0.32919046061E-01  0.37927360678E-01  0.96318182666E+00  0.93800000000E+00 0. -1.
         22    1    1    2    0    0 -0.20263472128E+00  0.19919530253E-01  0.37656327708E+01  0.37711334877E+01  0.00000000000E+00 0.  1.
</event>
<event>
 5    1  0.1537976E+002  0.1599674E+01  0.7818608E-02  0.3353717E+00
         11   -1    0    0    0    0  0.00000000000E+00  0.00000000000E+00  0.39999999674E+01  0.40000000000E+01  0.51100000000E-03 0.  1.
    9000002   -1    0    0    0    0 -0.00000000000E+00 -0.00000000000E+00  0.00000000000E+00  0.93800000000E+00  0.93800000000E+00 0. -1.
         11    1    1    2    0    0 -0.16287875914E-01 -0.16244322698E-01  0.39509851557E+00  0.39576795102E+00  0.51100000000E-03 0. -1.
    9000002    1    1    2    0    0  0.17361914105E+00  0.15775563393E+00  0.36516618455E-01  0.96757837388E+00  0.93800000000E+00 0. -1.
         22    1    1    2    0    0 -0.15733126514E+00 -0.14151131123E+00  0.35683848333E+01  0.35746536751E+01  0.00000000000E+00 0.  1.
</event>
<event>
 5    1  0.1537976E+002  0.1398094E+01  0.7818608E-02  0.3609933E+00
         11   -1    0    0    0    0  0.00000000000E+00  0.00000000000E+00  0.39999999674E+01  0.40000000000E+01  0.51100000000E-03 0.  1.
    9000002   -1    0    0    0    0 -0.00000000000E+00 -0.00000000000E+00  0.00000000000E+00  0.93800000000E+00  0.93800000000E+00 0. -1.
         11    1    1    2    0    0  0.11847408462E+00  0.46322005296E+00  0.14936238082E+01  0.15682860925E+01  0.51100000000E-03 0.  1.
    9000002    1    1    2    0    0  0.29456313842E+00  0.25690066303E-01  0.23678063389E+00  0.10116009542E+01  0.93800000000E+00 0. -1.
         22    1    1    2    0    0 -0.41303722304E+00 -0.48891011926E+00  0.22695955252E+01  0.23581129533E+01  0.00000000000E+00 0.  1.
</event>
<event>
 5    1  0.1537976E+002  0.1578785E+01  0.7818608E-02  0.3376716E+00
         11   -1    0    0    0    0  0.00000000000E+00  0.00000000000E+00  0.39999999674E+01  0.40000000000E+01  0.51100000000E-03 0.  1.
    9000002   -1    0    0    0    0 -0.00000000000E+00 -0.00000000000E+00  0.00000000000E+00  0.93800000000E+00  0.93800000000E+00 0. -1.
         11    1    1    2    0    0  0.60053305760E-01 -0.10571873575E-01  0.14348302101E+00  0.15590318305E+00  0.51100000000E-03 0.  1.
    9000002    1    1    2    0    0  0.12486158237E+00 -0.83264597817E-01  0.30453439016E-01  0.95041823423E+00  0.93800000000E+00 0. -1.
         22    1    1    2    0    0 -0.18491488813E+00  0.93836471392E-01  0.38260635073E+01  0.38316785827E+01  0.00000000000E+00 0.  1.
</event>
<event>
 5    1  0.1537976E+002  0.1584810E+01  0.7818608E-02  0.3370017E+00
         11   -1    0    0    0    0  0.00000000000E+00  0.00000000000E+00  0.39999999674E+01  0.40000000000E+01  0.51100000000E-03 0.  1.
    9000002   -1    0    0    0    0 -0.00000000000E+00 -0.00000000000E+00  0.00000000000E+00  0.93800000000E+00  0.93800000000E+00 0.  1.
         11    1    1    2    0    0  0.43036409413E-01 -0.61601508805E-01  0.17549530801E+00  0.19090768103E+00  0.51100000000E-03 0.  1.
    9000002    1    1    2    0    0 -0.23438689716E+00  0.18975884555E+00  0.72418003712E-01  0.98794433258E+00  0.93800000000E+00 0.  1.
         22    1    1    2    0    0  0.19135048775E+00 -0.12815733675E+00  0.37520866556E+01  0.37591479864E+01  0.00000000000E+00 0.  1.
</event>
<event>
 5    1  0.1537976E+002  0.1599592E+01  0.7818608E-02  0.3353806E+00
         11   -1    0    0    0    0  0.00000000000E+00  0.00000000000E+00  0.39999999674E+01  0.40000000000E+01  0.51100000000E-03 0. -1.
    9000002   -1    0    0    0    0 -0.00000000000E+00 -0.00000000000E+00  0.00000000000E+00  0.93800000000E+00  0.93800000000E+00 0.  1.
         11    1    1    2    0    0 -0.15567200157E-02 -0.88050465103E-02  0.17872585447E+00  0.17895011707E+00  0.51100000000E-03 0. -1.
    9000002    1    1    2    0    0  0.13344187251E+00  0.17193584841E+00  0.31458077787E-01  0.96343255081E+00  0.93800000000E+00 0.  1.
         22    1    1    2    0    0 -0.13188515249E+00 -0.16313080190E+00  0.37898160351E+01  0.37956173321E+01  0.00000000000E+00 0. -1.
</event>
<event>
 5    1  0.1537976E+002  0.1576407E+01  0.7818608E-02  0.3379375E+00
         11   -1    0    0    0    0  0.00000000000E+00  0.00000000000E+00  0.39999999674E+01  0.40000000000E+01  0.51100000000E-03 0.  1.
    9000002   -1    0    0    0    0 -0.00000000000E+00 -0.00000000000E+00  0.00000000000E+00  0.93800000000E+00  0.93800000000E+00 0.  1.
         11    1    1    2    0    0  0.14215354497E+00  0.53185305634E-01  0.12774348144E+01  0.12864199444E+01  0.51100000000E-03 0.  1.
    9000002    1    1    2    0    0  0.26854594014E-01  0.88427657169E-01  0.22791305586E-01  0.94281708904E+00  0.93800000000E+00 0.  1.
         22    1    1    2    0    0 -0.16900813898E+00 -0.14161296280E+00  0.26997738474E+01  0.27087629666E+01  0.00000000000E+00 0.  1.
</event>
<event>
 5    1  0.1537976E+002  0.1599674E+01  0.7818608E-02  0.3353718E+00
         11   -1    0    0    0    0  0.00000000000E+00  0.00000000000E+00  0.39999999674E+01  0.40000000000E+01  0.51100000000E-03 0.  1.
    9000002   -1    0    0    0    0 -0.00000000000E+00 -0.00000000000E+00  0.00000000000E+00  0.93800000000E+00  0.93800000000E+00 0. -1.
         11    1    1    2    0    0  0.63115758138E-01  0.16950296834E+00  0.13783530145E+01  0.13901698273E+01  0.51100000000E-03 0.  1.
    9000002    1    1    2    0    0 -0.17389338636E+00 -0.46532694595E+00  0.16883813652E+00  0.10747643429E+01  0.93800000000E+00 0. -1.
         22    1    1    2    0    0  0.11077762822E+00  0.29582397761E+00  0.24528088164E+01  0.24730658298E+01  0.00000000000E+00 0.  1.
</event>
<event>
 5    1  0.1537976E+002  0.1595155E+01  0.7818608E-02  0.3358639E+00
         11   -1    0    0    0    0  0.00000000000E+00  0.00000000000E+00  0.39999999674E+01  0.40000000000E+01  0.51100000000E-03 0. -1.
    9000002   -1    0    0    0    0 -0.00000000000E+00 -0.00000000000E+00  0.00000000000E+00  0.93800000000E+00  0.93800000000E+00 0. -1.
         11    1    1    2    0    0 -0.38604778303E-01  0.10853101130E-01  0.24878460206E+00  0.25199634532E+00  0.51100000000E-03 0. -1.
    9000002    1    1    2    0    0  0.13138061497E+00  0.22654210965E+00  0.49083039370E-01  0.97510785977E+00  0.93800000000E+00 0. -1.
         22    1    1    2    0    0 -0.92775836667E-01 -0.23739521078E+00  0.37021323259E+01  0.37108957949E+01  0.00000000000E+00 0. -1.
</event>
<event>
 5    1  0.1537976E+002  0.1599647E+01  0.7818608E-02  0.3353746E+00
         11   -1    0    0    0    0  0.00000000000E+00  0.00000000000E+00  0.39999999674E+01  0.40000000000E+01  0.51100000000E-03 0.  1.
    9000002   -1    0    0    0    0 -0.00000000000E+00 -0.00000000000E+00  0.00000000000E+00  0.93800000000E+00  0.93800000000E+00 0. -1.
         11    1    1    2    0    0  0.23103298603E+00  0.21970160438E+00  0.22848466384E+01  0.23069827606E+01  0.51100000000E-03 0.  1.
    9000002    1    1    2    0    0 -0.39316607170E+00 -0.35926634713E+00  0.19531306222E+00  0.10961948095E+01  0.93800000000E+00 0. -1.
         22    1    1    2    0    0  0.16213308567E+00  0.13956474275E+00  0.15198402667E+01  0.15348224299E+01  0.00000000000E+00 0.  1.
</event>
<event>
 5    1  0.1537976E+002  0.1599676E+01  0.7818608E-02  0.3353715E+00
         11   -1    0    0    0    0  0.00000000000E+00  0.00000000000E+00  0.39999999674E+01  0.40000000000E+01  0.51100000000E-03 0. -1.
    9000002   -1    0    0    0    0 -0.00000000000E+00 -0.00000000000E+00  0.00000000000E+00  0.93800000000E+00  0.93800000000E+00 0. -1.
         11    1    1    2    0    0  0.69165506118E-02  0.45242117360E-01  0.69664482765E+00  0.69814680753E+00  0.51100000000E-03 0. -1.
    9000002    1    1    2    0    0 -0.36834220276E-01 -0.25261296348E+00  0.43310354516E-01  0.97308265626E+00  0.93800000000E+00 0. -1.
         22    1    1    2    0    0  0.29917669664E-01  0.20737084612E+00  0.32600447852E+01  0.32667705362E+01  0.00000000000E+00 0. -1.
</event>
<event>
 5    1  0.1537976E+002  0.1580714E+01  0.7818608E-02  0.3374566E+00
         11   -1    0    0    0    0  0.00000000000E+00  0.00000000000E+00  0.39999999674E+01  0.40000000000E+01  0.51100000000E-03 0. -1.
    9000002   -1    0    0    0    0 -0.00000000000E+00 -0.00000000000E+00  0.00000000000E+00  0.93800000000E+00  0.93800000000E+00 0.  1.
         11    1    1    2    0    0  0.12719694404E+00 -0.11109680661E+00  0.16511416763E+01  0.16597562048E+01  0.51100000000E-03 0. -1.
    9000002    1    1    2    0    0 -0.25825756050E+00 -0.12236037073E+00  0.69295981298E-01  0.98301320485E+00  0.93800000000E+00 0.  1.
         22    1    1    2    0    0  0.13106061646E+00  0.23345717735E+00  0.22795623097E+01  0.22952305903E+01  0.00000000000E+00 0. -1.
</event>
<event>
 5    1  0.1537976E+002  0.1599656E+01  0.7818608E-02  0.3353736E+00
         11   -1    0    0    0    0  0.00000000000E+00  0.00000000000E+00  0.39999999674E+01  0.40000000000E+01  0.51100000000E-03 0.  1.
    9000002   -1    0    0    0    0 -0.00000000000E+00 -0.00000000000E+00  0.00000000000E+00  0.93800000000E+00  0.93800000000E+00 0.  1.
         11    1    1    2    0    0  0.13351585152E-01  0.51457311034E-01  0.58700841899E+00  0.58941094728E+00  0.51100000000E-03 0.  1.
    9000002    1    1    2    0    0 -0.10308275229E+00 -0.32202669545E+00  0.76575541676E-01  0.10000175298E+01  0.93800000000E+00 0.  1.
         22    1    1    2    0    0  0.89731167141E-01  0.27056938442E+00  0.33364160067E+01  0.33485715229E+01  0.00000000000E+00 0.  1.
</event>
<event>
 5    1  0.1537976E+002  0.1599624E+01  0.7818608E-02  0.3353772E+00
         11   -1    0    0    0    0  0.00000000000E+00  0.00000000000E+00  0.39999999674E+01  0.40000000000E+01  0.51100000000E-03 0.  1.
    9000002   -1    0    0    0    0 -0.00000000000E+00 -0.00000000000E+00  0.00000000000E+00  0.93800000000E+00  0.93800000000E+00 0.  1.
         11    1    1    2    0    0 -0.20200231743E-01  0.19722799821E-01  0.35822210379E+00  0.35933323665E+00  0.51100000000E-03 0.  1.
    9000002    1    1    2    0    0  0.27422732758E+00 -0.20092040603E+00  0.77448623325E-01  0.10007057140E+01  0.93800000000E+00 0.  1.
         22    1    1    2    0    0 -0.25402709584E+00  0.18119760621E+00  0.35643292402E+01  0.35779610494E+01  0.00000000000E+00 0.  1.
</event>
<event>
 5    1  0.1537976E+002  0.1598864E+01  0.7818608E-02  0.3354597E+00
         11   -1    0    0    0    0  0.00000000000E+00  0.00000000000E+00  0.39999999674E+01  0.40000000000E+01  0.51100000000E-03 0. -1.
    9000002   -1    0    0    0    0 -0.00000000000E+00 -0.00000000000E+00  0.00000000000E+00  0.93800000000E+00  0.93800000000E+00 0.  1.
         11    1    1    2    0    0  0.13805301938E-01  0.20317063640E-01  0.13487239478E+00  0.13709191600E+00  0.51100000000E-03 0. -1.
    9000002    1    1    2    0    0 -0.26559627156E+00 -0.24891936359E+00  0.89645338036E-01  0.10101398496E+01  0.93800000000E+00 0.  1.
         22    1    1    2    0    0  0.25179096962E+00  0.22860229995E+00  0.37754822345E+01  0.37907682344E+01  0.00000000000E+00 0. -1.
</event>
<event>
 5    1  0.1537976E+002  0.1599652E+01  0.7818608E-02  0.3353741E+00
         11   -1    0    0    0    0  0.00000000000E+00  0.00000000000E+00  0.39999999674E+01  0.40000000000E+01  0.51100000000E-03 0.  1.
    9000002   -1    0    0    0    0 -0.00000000000E+00 -0.00000000000E+00  0.00000000000E+00  0.93800000000E+00  0.93800000000E+00 0.  1.
         11    1    1    2    0    0 -0.90474322009E-01 -0.10946145358E+00  0.15386943316E+01  0.15452339369E+01  0.51100000000E-03 0.  1.
    9000002    1    1    2    0    0  0.21659087755E+00  0.28489578468E+00  0.85973074165E-01  0.10076272058E+01  0.93800000000E+00 0.  1.
         22    1    1    2    0    0 -0.12611655555E+00 -0.17543433110E+00  0.23753325616E+01  0.23851388573E+01  0.00000000000E+00 0.  1.
</event>
<event>
 5    1  0.1537976E+002  0.1594382E+01  0.7818608E-02  0.3359483E+00
         11   -1    0    0    0    0  0.00000000000E+00  0.00000000000E+00  0.39999999674E+01  0.40000000000E+01  0.51100000000E-03 0.  1.
    9000002   -1    0    0    0    0 -0.00000000000E+00 -0.00000000000E+00  0.00000000000E+00  0.93800000000E+00  0.93800000000E+00 0.  1.
         11    1    1    2    0    0 -0.64583091102E-02 -0.56269797258E-01  0.13358855451E+01  0.13370858052E+01  0.51100000000E-03 0.  1.
    9000002    1    1    2    0    0 -0.20933570262E+00  0.76764805589E-01  0.36972349968E-01  0.96484466441E+00  0.93800000000E+00 0.  1.
         22    1    1    2    0    0  0.21579401173E+00 -0.20495008331E-01  0.26271420723E+01  0.26360695303E+01  0.00000000000E+00 0.  1.
</event>
<event>
 5    1  0.1537976E+002  0.1581646E+01  0.7818608E-02  0.3373528E+00
         11   -1    0    0    0    0  0.00000000000E+00  0.00000000000E+00  0.39999999674E+01  0.40000000000E+01  0.51100000000E-03 0.  1.
    9000002   -1    0    0    0    0 -0.00000000000E+00 -0.00000000000E+00  0.00000000000E+00  0.93800000000E+00  0.93800000000E+00 0.  1.
         11    1    1    2    0    0  0.21593705106E+00 -0.15877277319E-02  0.76484849246E+00  0.79474826734E+00  0.51100000000E-03 0.  1.
    9000002    1    1    2    0    0 -0.43043799629E+00  0.41966043346E-01  0.14223945954E+00  0.10426476305E+01  0.93800000000E+00 0.  1.
         22    1    1    2    0    0  0.21450094523E+00 -0.40378315614E-01  0.30929120154E+01  0.31006041022E+01  0.00000000000E+00 0. -1.
</event>
<event>
 5    1  0.1537976E+002  0.1591482E+01  0.7818608E-02  0.3362661E+00
         11   -1    0    0    0    0  0.00000000000E+00  0.00000000000E+00  0.39999999674E+01  0.40000000000E+01  0.51100000000E-03 0.  1.
    9000002   -1    0    0    0    0 -0.00000000000E+00 -0.00000000000E+00  0.00000000000E+00  0.93800000000E+00  0.93800000000E+00 0.  1.
         11    1    1    2    0    0  0.28274865662E+00  0.13334186563E+00  0.19025095959E+01  0.19280222715E+01  0.51100000000E-03 0.  1.
    9000002    1    1    2    0    0 -0.62140598927E+00 -0.43692157736E+00  0.42959921845E+00  0.12811890402E+01  0.93800000000E+00 0.  1.
         22    1    1    2    0    0  0.33865733265E+00  0.30357971173E+00  0.16678911530E+01  0.17287886883E+01  0.00000000000E+00 0.  1.
</event>
<event>
 5    1  0.1537976E+002  0.1533217E+01  0.7818608E-02  0.3429198E+00
         11   -1    0    0    0    0  0.00000000000E+00  0.00000000000E+00  0.39999999674E+01  0.40000000000E+01  0.51100000000E-03 0.  1.
    9000002   -1    0    0    0    0 -0.00000000000E+00 -0.00000000000E+00  0.00000000000E+00  0.93800000000E+00  0.93800000000E+00 0. -1.
         11    1    1    2    0    0 -0.18208513635E+00  0.14154819974E+00  0.28801636261E+01  0.28893829210E+01  0.51100000000E-03 0.  1.
    9000002    1    1    2    0    0 -0.11219581251E+00 -0.82694594704E-01  0.63438818968E-01  0.95041821326E+00  0.93800000000E+00 0. -1.
         22    1    1    2    0    0  0.29428094887E+00 -0.58853605039E-01  0.10563975223E+01  0.10981988658E+01  0.00000000000E+00 0.  1.
</event>
<event>
 5    1  0.1537976E+002  0.1596772E+01  0.7818608E-02  0.3356874E+00
         11   -1    0    0    0    0  0.00000000000E+00  0.00000000000E+00  0.39999999674E+01  0.40000000000E+01  0.51100000000E-03 0.  1.
    9000002   -1    0    0    0    0 -0.00000000000E+00 -0.00000000000E+00  0.00000000000E+00  0.93800000000E+00  0.93800000000E+00 0. -1.
         11    1    1    2    0    0 -0.16081340491E+00  0.77576306559E-01  0.15708928624E+01  0.15810071729E+01  0.51100000000E-03 0.  1.
    9000002    1    1    2    0    0  0.45407803861E+00 -0.32646427440E+00  0.21918365807E+00  0.11138452602E+01  0.93800000000E+00 0. -1.
         22    1    1    2    0    0 -0.29326463370E+00  0.24888796784E+00  0.22099234469E+01  0.22431475669E+01  0.00000000000E+00 0.  1.
</event>
<event>
 5    1  0.1537976E+002  0.1599676E+01  0.7818608E-02  0.3353715E+00
         11   -1    0    0    0    0  0.00000000000E+00  0.00000000000E+00  0.39999999674E+01  0.40000000000E+01  0.51100000000E-03 0.  1.
    9000002   -1    0    0    0    0 -0.00000000000E+00 -0.00000000000E+00  0.00000000000E+00  0.93800000000E+00  0.93800000000E+00 0. -1.
         11    1    1    2    0    0 -0.31652512434E+00 -0.18676562403E+00  0.18810687214E+01  0.19166349022E+01  0.51100000000E-03 0.  1.
    9000002    1    1    2    0    0  0.61063654683E+00  0.36184794025E+00  0.36102239358E+00  0.12304438601E+01  0.93800000000E+00 0. -1.
         22    1    1    2    0    0 -0.29411142249E+00 -0.17508231622E+00  0.17579088524E+01  0.17909212377E+01  0.00000000000E+00 0. -1.
</event>
<event>
 5    1  0.1537976E+002  0.1598549E+01  0.7818608E-02  0.3354939E+00
         11   -1    0    0    0    0  0.00000000000E+00  0.00000000000E+00  0.39999999674E+01  0.40000000000E+01  0.51100000000E-03 0. -1.
    9000002   -1    0    0    0    0 -0.00000000000E+00 -0.00000000000E+00  0.00000000000E+00  0.93800000000E+00  0.93800000000E+00 0.  1.
         11    1    1    2    0    0  0.80534785807E-03 -0.10270124856E-01  0.29208968393E+00  0.29227173765E+00  0.51100000000E-03 0. -1.
    9000002    1    1    2    0    0  0.19993426784E+00 -0.54700007883E-01  0.29304695498E-01  0.96107677503E+00  0.93800000000E+00 0.  1.
         22    1    1    2    0    0 -0.20073961570E+00  0.64970132739E-01  0.36786055879E+01  0.36846514873E+01  0.00000000000E+00 0. -1.
</event>
<event>
 5    1  0.1537976E+002  0.1593087E+01  0.7818608E-02  0.3360901E+00
         11   -1    0    0    0    0  0.00000000000E+00  0.00000000000E+00  0.39999999674E+01  0.40000000000E+01  0.51100000000E-03 0.  1.
    9000002   -1    0    0    0    0 -0.00000000000E+00 -0.00000000000E+00  0.00000000000E+00  0.93800000000E+00  0.93800000000E+00 0.  1.
         11    1    1    2    0    0  0.91376212127E-01 -0.17380344257E-03  0.70702350619E+00  0.71290402003E+00  0.51100000000E-03 0.  1.
    9000002    1    1    2    0    0 -0.25203968511E+00 -0.32933958851E+00  0.12179526304E+00  0.10327955526E+01  0.93800000000E+00 0.  1.
         22    1    1    2    0    0  0.16066347298E+00  0.32951339195E+00  0.31711811981E+01  0.31923004273E+01  0.00000000000E+00 0.  1.
</event>
<event>
 5    1  0.1537976E+002  0.1503423E+01  0.7818608E-02  0.3465353E+00
         11   -1    0    0    0    0  0.00000000000E+00  0.00000000000E+00  0.39999999674E+01  0.40000000000E+01  0.51100000000E-03 0. -1.
    9000002   -1    0    0    0    0 -0.00000000000E+00 -0.00000000000E+00  0.00000000000E+00  0.93800000000E+00  0.93800000000E+00 0. -1.
         11    1    1    2    0    0 -0.33097130560E-01 -0.30158014096E+00  0.88646414408E+00  0.93694447078E+00  0.51100000000E-03 0. -1.
    9000002    1    1    2    0    0 -0.33458976210E-01 -0.43705235496E-01  0.75396166742E-01  0.94263366832E+00  0.93800000000E+00 0. -1.
         22    1    1    2    0    0  0.66556106770E-01  0.34528537646E+00  0.30381396565E+01  0.30584218609E+01  0.00000000000E+00 0. -1.
</event>
<event>
 5    1  0.1537976E+002  0.1599677E+01  0.7818608E-02  0.3353714E+00
         11   -1    0    0    0    0  0.00000000000E+00  0.00000000000E+00  0.39999999674E+01  0.40000000000E+01  0.51100000000E-03 0.  1.
    9000002   -1    0    0    0    0 -0.00000000000E+00 -0.00000000000E+00  0.00000000000E+00  0.93800000000E+00  0.93800000000E+00 0. -1.
         11    1    1    2    0    0  0.16387008328E-01 -0.38395966848E-01  0.64969723749E+00  0.65103728452E+00  0.51100000000E-03 0.  1.
    9000002    1    1    2    0    0 -0.99649541903E-01  0.23128475855E+00  0.42137303373E-01  0.97213282173E+00  0.93800000000E+00 0. -1.
         22    1    1    2    0    0  0.83262533575E-01 -0.19288879170E+00  0.33081654265E+01  0.33148298938E+01  0.00000000000E+00 0.  1.
</event>
<event>
 5    1  0.1537976E+002  0.1599529E+01  0.7818608E-02  0.3353875E+00
         11   -1    0    0    0    0  0.00000000000E+00  0.00000000000E+00  0.39999999674E+01  0.40000000000E+01  0.51100000000E-03 0. -1.
    9000002   -1    0    0    0    0 -0.00000000000E+00 -0.00000000000E+00  0.00000000000E+00  0.93800000000E+00  0.93800000000E+00 0. -1.
         11    1    1    2    0    0 -0.19543215906E-01 -0.42132525063E-02  0.29534114756E+00  0.29601747135E+00  0.51100000000E-03 0. -1.
    9000002    1    1    2    0    0  0.21030247242E+00  0.14545833470E+00  0.43567235197E-01  0.97320468609E+00  0.93800000000E+00 0. -1.
         22    1    1    2    0    0 -0.19075925652E+00 -0.14124508219E+00  0.36610915846E+01  0.36687778426E+01  0.00000000000E+00 0. -1.
</event>
<event>
 5    1  0.1537976E+002  0.1599538E+01  0.7818608E-02  0.3353865E+00
         11   -1    0    0    0    0  0.00000000000E+00  0.00000000000E+00  0.39999999674E+01  0.40000000000E+01  0.51100000000E-03 0.  1.
    9000002   -1    0    0    0    0 -0.00000000000E+00 -0.00000000000E+00  0.00000000000E+00  0.93800000000E+00  0.93800000000E+00 0. -1.
         11    1    1    2    0    0 -0.16802452035E-01  0.54773958615E-01  0.83548723145E+00  0.83744951130E+00  0.51100000000E-03 0.  1.
    9000002    1    1    2    0    0  0.12073450298E+00 -0.29342372159E+00  0.67382693459E-01  0.99250124835E+00  0.93800000000E+00 0. -1.
         22    1    1    2    0    0 -0.10393205095E+00  0.23864976298E+00  0.30971300424E+01  0.31080492403E+01  0.00000000000E+00 0.  1.
</event>
<event>
 5    1  0.1537976E+002  0.1599608E+01  0.7818608E-02  0.3353789E+00
         11   -1    0    0    0    0  0.00000000000E+00  0.00000000000E+00  0.39999999674E+01  0.40000000000E+01  0.51100000000E-03 0.  1.
    9000002   -1    0    0    0    0 -0.00000000000E+00 -0.00000000000E+00  0.00000000000E+00  0.93800000000E+00  0.93800000000E+00 0. -1.
         11    1    1    2    0    0 -0.61189304944E-01 -0.42451444090E-01  0.90037366398E+00  0.90344853315E+00  0.51100000000E-03 0.  1.
    9000002    1    1    2    0    0  0.23108704748E+00  0.18364668324E+00  0.58151885415E-01  0.98506495702E+00  0.93800000000E+00 0. -1.
         22    1    1    2    0    0 -0.16989774254E+00 -0.14119523914E+00  0.30414744180E+01  0.30494865098E+01  0.00000000000E+00 0.  1.
</event>
<event>
 5    1  0.1537976E+002  0.1536099E+01  0.7818608E-02  0.3425780E+00
         11   -1    0    0    0    0  0.00000000000E+00  0.00000000000E+00  0.39999999674E+01  0.40000000000E+01  0.51100000000E-03 0.  1.
    9000002   -1    0    0    0    0 -0.00000000000E+00 -0.00000000000E+00  0.00000000000E+00  0.93800000000E+00  0.93800000000E+00 0. -1.
         11    1    1    2    0    0  0.87709983957E-01  0.17492436877E+00  0.44274129055E+00  0.48405752505E+00  0.51100000000E-03 0.  1.
    9000002    1    1    2    0    0  0.12256333982E+00 -0.74954774081E-01  0.62025574291E-01  0.95096328125E+00  0.93800000000E+00 0. -1.
         22    1    1    2    0    0 -0.21027332377E+00 -0.99969594692E-01  0.34952331025E+01  0.35029791937E+01  0.00000000000E+00 0.  1.
</event>
<event>
 5    1  0.1537976E+002  0.1599677E+01  0.7818608E-02  0.3353714E+00
         11   -1    0    0    0    0  0.00000000000E+00  0.00000000000E+00  0.39999999674E+01  0.40000000000E+01  0.51100000000E-03 0.  1.
    9000002   -1    0    0    0    0 -0.00000000000E+00 -0.00000000000E+00  0.00000000000E+00  0.93800000000E+00  0.93800000000E+00 0. -1.
         11    1    1    2    0    0 -0.32444748891E-01  0.99527969194E-01  0.13339067209E+01  0.13380081762E+01  0.51100000000E-03 0.  1.
    9000002    1    1    2    0    0  0.95915114987E-01 -0.29259838585E+00  0.63298647356E-01  0.98927460467E+00  0.93800000000E+00 0. -1.
         22    1    1    2    0    0 -0.63470366096E-01  0.19307041666E+00  0.26027945991E+01  0.26107172192E+01  0.00000000000E+00 0.  1.
</event>
<event>
 5    1  0.1537976E+002  0.1599019E+01  0.7818608E-02  0.3354429E+00
         11   -1    0    0    0    0  0.00000000000E+00  0.00000000000E+00  0.39999999674E+01  0.40000000000E+01  0.51100000000E-03 0.  1.
    9000002   -1    0    0    0    0 -0.00000000000E+00 -0.00000000000E+00  0.00000000000E+00  0.93800000000E+00  0.93800000000E+00 0.  1.
         11    1    1    2    0    0 -0.65714025429E-01  0.15707793939E-01  0.98439142807E+00  0.98670756190E+00  0.51100000000E-03 0.  1.
    9000002    1    1    2    0    0  0.33295264551E+00  0.17285121944E-01  0.74923749692E-01  0.99830546821E+00  0.93800000000E+00 0.  1.
         22    1    1    2    0    0 -0.26723862008E+00 -0.32992915883E-01  0.29406847896E+01  0.29529869699E+01  0.00000000000E+00 0.  1.
</event>
<event>
 5    1  0.1537976E+002  0.1579940E+01  0.7818608E-02  0.3375428E+00
         11   -1    0    0    0    0  0.00000000000E+00  0.00000000000E+00  0.39999999674E+01  0.40000000000E+01  0.51100000000E-03 0.  1.
    9000002   -1    0    0    0    0 -0.00000000000E+00 -0.00000000000E+00  0.00000000000E+00  0.93800000000E+00  0.93800000000E+00 0. -1.
         11    1    1    2    0    0 -0.10495230237E+00  0.69781031530E-01  0.12723539950E+01  0.12785809822E+01  0.51100000000E-03 0.  1.
    9000002    1    1    2    0    0 -0.66597713259E-01  0.77205203255E-01  0.21407686835E-01  0.94376807950E+00  0.93800000000E+00 0. -1.
         22    1    1    2    0    0  0.17155001563E+00 -0.14698623478E+00  0.27062382855E+01  0.27156509383E+01  0.00000000000E+00 0.  1.
</event>
<event>
 5    1  0.1537976E+002  0.1587368E+01  0.7818608E-02  0.3367188E+00
         11   -1    0    0    0    0  0.00000000000E+00  0.00000000000E+00  0.39999999674E+01  0.40000000000E+01  0.51100000000E-03 0.  1.
    9000002   -1    0    0    0    0 -0.00000000000E+00 -0.00000000000E+00  0.00000000000E+00  0.93800000000E+00  0.93800000000E+00 0.  1.
         11    1    1    2    0    0 -0.65266152135E-01  0.28561964928E-01  0.13394107266E+01  0.13413041461E+01  0.51100000000E-03 0.  1.
    9000002    1    1    2    0    0  0.44986718186E+00 -0.32715019515E+00  0.22574867735E+00  0.11136490456E+01  0.93800000000E+00 0.  1.
         22    1    1    2    0    0 -0.38460102973E+00  0.29858823022E+00  0.24348405634E+01  0.24830468083E+01  0.00000000000E+00 0.  1.
</event>
<event>
 5    1  0.1537976E+002  0.1599676E+01  0.7818608E-02  0.3353715E+00
         11   -1    0    0    0    0  0.00000000000E+00  0.00000000000E+00  0.39999999674E+01  0.40000000000E+01  0.51100000000E-03 0.  1.
    9000002   -1    0    0    0    0 -0.00000000000E+00 -0.00000000000E+00  0.00000000000E+00  0.93800000000E+00  0.93800000000E+00 0. -1.
         11    1    1    2    0    0  0.11212265147E-01  0.18112971250E-01  0.36426743506E+00  0.36489014783E+00  0.51100000000E-03 0.  1.
    9000002    1    1    2    0    0 -0.11896244849E+00 -0.19237301175E+00  0.33926605478E-01  0.96548146246E+00  0.93800000000E+00 0. -1.
         22    1    1    2    0    0  0.10775018334E+00  0.17426004050E+00  0.36018059268E+01  0.36076283897E+01  0.00000000000E+00 0.  1.
</event>
<event>
 5    1  0.1537976E+002  0.1599674E+01  0.7818608E-02  0.3353718E+00
         11   -1    0    0    0    0  0.00000000000E+00  0.00000000000E+00  0.39999999674E+01  0.40000000000E+01  0.51100000000E-03 0.  1.
    9000002   -1    0    0    0    0 -0.00000000000E+00 -0.00000000000E+00  0.00000000000E+00  0.93800000000E+00  0.93800000000E+00 0. -1.
         11    1    1    2    0    0  0.13917719914E-01 -0.49103098362E-03  0.17356468166E+00  0.17412324337E+00  0.51100000000E-03 0. -1.
    9000002    1    1    2    0    0 -0.31433789529E+00 -0.66882864910E-02  0.66039595698E-01  0.99149295196E+00  0.93800000000E+00 0. -1.
         22    1    1    2    0    0  0.30042017538E+00  0.71793174746E-02  0.37603956900E+01  0.37723838047E+01  0.00000000000E+00 0.  1.
</event>
<event>
 5    1  0.1537976E+002  0.1599668E+01  0.7818608E-02  0.3353723E+00
         11   -1    0    0    0    0  0.00000000000E+00  0.00000000000E+00  0.39999999674E+01  0.40000000000E+01  0.51100000000E-03 0.  1.
    9000002   -1    0    0    0    0 -0.00000000000E+00 -0.00000000000E+00  0.00000000000E+00  0.93800000000E+00  0.93800000000E+00 0.  1.
         11    1    1    2    0    0  0.49639782298E-01  0.40074628204E-01  0.83335816193E+00  0.83579672827E+00  0.51100000000E-03 0.  1.
    9000002    1    1    2    0    0 -0.22705896051E+00 -0.20057786348E+00  0.61256044065E-01  0.98761508383E+00  0.93800000000E+00 0.  1.
         22    1    1    2    0    0  0.17741917821E+00  0.16050323528E+00  0.31053857614E+01  0.31145881879E+01  0.00000000000E+00 0.  1.
</event>
<event>
 5    1  0.1537976E+002  0.1599673E+01  0.7818608E-02  0.3353718E+00
         11   -1    0    0    0    0  0.00000000000E+00  0.00000000000E+00  0.39999999674E+01  0.40000000000E+01  0.51100000000E-03 0.  1.
    9000002   -1    0    0    0    0 -0.00000000000E+00 -0.00000000000E+00  0.00000000000E+00  0.93800000000E+00  0.93800000000E+00 0. -1.
         11    1    1    2    0    0 -0.60981655325E-01  0.10105665600E+00  0.94020186221E+00  0.94758166552E+00  0.51100000000E-03 0.  1.
    9000002    1    1    2    0    0  0.25642336439E+00 -0.41521067290E+00  0.16270927910E+00  0.10697995860E+01  0.93800000000E+00 0. -1.
         22    1    1    2    0    0 -0.19544170906E+00  0.31415401691E+00  0.28970888260E+01  0.29206187485E+01  0.00000000000E+00 0. -1.
</event>
<event>
 5    1  0.1537976E+002  0.1596085E+01  0.7818608E-02  0.3357623E+00
         11   -1    0    0    0    0  0.00000000000E+00  0.00000000000E+00  0.39999999674E+01  0.40000000000E+01  0.51100000000E-03 0. -1.
    9000002   -1    0    0    0    0 -0.00000000000E+00 -0.00000000000E+00  0.00000000000E+00  0.93800000000E+00  0.93800000000E+00 0. -1.
         11    1    1    2    0    0 -0.45406912706E-01 -0.30801805846E-01  0.55013110040E+00  0.55286076702E+00  0.51100000000E-03 0. -1.
    9000002    1    1    2    0    0 -0.27341951898E-01  0.28284089407E+00  0.56583798966E-01  0.98172922947E+00  0.93800000000E+00 0. -1.
         22    1    1    2    0    0  0.72748864604E-01 -0.25203908822E+00  0.33932850680E+01  0.34034100035E+01  0.00000000000E+00 0. -1.
</event>
<event>
 5    1  0.1537976E+002  0.1599669E+01  0.7818608E-02  0.3353723E+00
         11   -1    0    0    0    0  0.00000000000E+00  0.00000000000E+00  0.39999999674E+01  0.40000000000E+01  0.51100000000E-03 0. -1.
    9000002   -1    0    0    0    0 -0.00000000000E+00 -0.00000000000E+00  0.00000000000E+00  0.93800000000E+00  0.93800000000E+00 0.  1.
         11    1    1    2    0    0 -0.14657333162E+00  0.39189940911E-01  0.17144836570E+01  0.17211839135E+01  0.51100000000E-03 0. -1.
    9000002    1    1    2    0    0  0.34265274109E+00 -0.90230400062E-01  0.84231471803E-01  0.10062263001E+01  0.93800000000E+00 0.  1.
         22    1    1    2    0    0 -0.19607940946E+00  0.51040459151E-01  0.22012848386E+01  0.22105897864E+01  0.00000000000E+00 0. -1.
</event>
<event>
 5    1  0.1537976E+002  0.1599169E+01  0.7818608E-02  0.3354266E+00
         11   -1    0    0    0    0  0.00000000000E+00  0.00000000000E+00  0.39999999674E+01  0.40000000000E+01  0.51100000000E-03 0. -1.
    9000002   -1    0    0    0    0 -0.00000000000E+00 -0.00000000000E+00  0.00000000000E+00  0.93800000000E+00  0.93800000000E+00 0.  1.
         11    1    1    2    0    0 -0.32679382679E-02 -0.85847625687E-01  0.77757602999E+00  0.78230763629E+00  0.51100000000E-03 0. -1.
    9000002    1    1    2    0    0 -0.33290255722E-01  0.33563799433E+00  0.76579560025E-01  0.99973473151E+00  0.93800000000E+00 0.  1.
         22    1    1    2    0    0  0.36558193990E-01 -0.24979036864E+00  0.31458443773E+01  0.31559576322E+01  0.00000000000E+00 0. -1.
</event>
<event>
 5    1  0.1537976E+002  0.1593770E+01  0.7818608E-02  0.3360154E+00
         11   -1    0    0    0    0  0.00000000000E+00  0.00000000000E+00  0.39999999674E+01  0.40000000000E+01  0.51100000000E-03 0.  1.
    9000002   -1    0    0    0    0 -0.00000000000E+00 -0.00000000000E+00  0.00000000000E+00  0.93800000000E+00  0.93800000000E+00 0.  1.
         11    1    1    2    0    0 -0.21952140353E+00  0.48869638632E-01  0.18812830688E+01  0.18946778445E+01  0.51100000000E-03 0.  1.
    9000002    1    1    2    0    0  0.42607859881E+00  0.87901676404E-01  0.13333171303E+00  0.10425406576E+01  0.93800000000E+00 0.  1.
         22    1    1    2    0    0 -0.20655719529E+00 -0.13677131504E+00  0.19853851855E+01  0.20007814979E+01  0.00000000000E+00 0.  1.
</event>
<event>
 5    1  0.1537976E+002  0.1599506E+01  0.7818608E-02  0.3353900E+00
         11   -1    0    0    0    0  0.00000000000E+00  0.00000000000E+00  0.39999999674E+01  0.40000000000E+01  0.51100000000E-03 0.  1.
    9000002   -1    0    0    0    0 -0.00000000000E+00 -0.00000000000E+00  0.00000000000E+00  0.93800000000E+00  0.93800000000E+00 0.  1.
         11    1    1    2    0    0  0.93291134209E-01  0.62267095524E-01  0.13759732734E+01  0.13805372640E+01  0.51100000000E-03 0.  1.
    9000002    1    1    2    0    0 -0.29866008960E+00 -0.14970311121E+00  0.74843465222E-01  0.99852612130E+00  0.93800000000E+00 0.  1.
         22    1    1    2    0    0  0.20536895539E+00  0.87436015690E-01  0.25491832287E+01  0.25589366148E+01  0.00000000000E+00 0.  1.
</event>
<event>
 5    1  0.1537976E+002  0.1599676E+01  0.7818608E-02  0.3353715E+00
         11   -1    0    0    0    0  0.00000000000E+00  0.00000000000E+00  0.39999999674E+01  0.40000000000E+01  0.51100000000E-03 0. -1.
    9000002   -1    0    0    0    0 -0.00000000000E+00 -0.00000000000E+00  0.00000000000E+00  0.93800000000E+00  0.93800000000E+00 0. -1.
         11    1    1    2    0    0  0.17133805920E+00  0.27604572525E+00  0.15700527950E+01  0.16033165667E+01  0.51100000000E-03 0. -1.
    9000002    1    1    2    0    0 -0.39070608471E+00 -0.63293563575E+00  0.40033328095E+00  0.12622874076E+01  0.93800000000E+00 0. -1.
         22    1    1    2    0    0  0.21936802551E+00  0.35688991050E+00  0.20296138914E+01  0.20723960257E+01  0.00000000000E+00 0.  1.
</event>
<event>
 5    1  0.1537976E+002  0.1599676E+01  0.7818608E-02  0.3353715E+00
         11   -1    0    0    0    0  0.00000000000E+00  0.00000000000E+00  0.39999999674E+01  0.40000000000E+01  0.51100000000E-03 0. -1.
    9000002   -1    0    0    0    0 -0.00000000000E+00 -0.00000000000E+00  0.00000000000E+00  0.93800000000E+00  0.93800000000E+00 0.  1.
         11    1    1    2    0    0  0.30110597033E-01  0.19806566014E-01  0.43307115009E+00  0.43456855647E+00  0.51100000000E-03 0.  1.
    9000002    1    1    2    0    0 -0.27077797764E+00 -0.18279300193E+00  0.71389849220E-01  0.99582855216E+00  0.93800000000E+00 0.  1.
         22    1    1    2    0    0  0.24066738061E+00  0.16298643592E+00  0.34955389680E+01  0.35076028914E+01  0.00000000000E+00 0. -1.
</event>
<event>
 5    1  0.1537976E+002  0.1590370E+01  0.7818608E-02  0.3363882E+00
         11   -1    0    0    0    0  0.00000000000E+00  0.00000000000E+00  0.39999999674E+01  0.40000000000E+01  0.51100000000E-03 0.  1.
    9000002   -1    0    0    0    0 -0.00000000000E+00 -0.00000000000E+00  0.00000000000E+00  0.93800000000E+00  0.93800000000E+00 0.  1.
         11    1    1    2    0    0 -0.82729437975E-01 -0.41404665159E-01  0.17894449078E+01  0.17918347707E+01  0.51100000000E-03 0.  1.
    9000002    1    1    2    0    0 -0.83598172716E-02  0.26067007330E+00  0.52403113357E-01  0.97499172302E+00  0.93800000000E+00 0.  1.
         22    1    1    2    0    0  0.91089255246E-01 -0.21926540814E+00  0.21581519462E+01  0.21711735063E+01  0.00000000000E+00 0.  1.
</event>
<event>
 5    1  0.1537976E+002  0.1599677E+01  0.7818608E-02  0.3353714E+00
         11   -1    0    0    0    0  0.00000000000E+00  0.00000000000E+00  0.39999999674E+01  0.40000000000E+01  0.51100000000E-03 0.  1.
    9000002   -1    0    0    0    0 -0.00000000000E+00 -0.00000000000E+00  0.00000000000E+00  0.93800000000E+00  0.93800000000E+00 0.  1.
         11    1    1    2    0    0 -0.15111015098E+00 -0.65995973948E+00  0.16854841363E+01  0.18163805137E+01  0.51100000000E-03 0.  1.
    9000002    1    1    2    0    0  0.25445764843E+00  0.11118817114E+01  0.11612445120E+01  0.18786597487E+01  0.93800000000E+00 0.  1.
         22    1    1    2    0    0 -0.10334749746E+00 -0.45192197191E+00  0.11532713190E+01  0.12429597376E+01  0.00000000000E+00 0.  1.
</event>
<event>
 5    1  0.1537976E+002  0.1599594E+01  0.7818608E-02  0.3353804E+00
         11   -1    0    0    0    0  0.00000000000E+00  0.00000000000E+00  0.39999999674E+01  0.40000000000E+01  0.51100000000E-03 0.  1.
    9000002   -1    0    0    0    0 -0.00000000000E+00 -0.00000000000E+00  0.00000000000E+00  0.93800000000E+00  0.93800000000E+00 0.  1.
         11    1    1    2    0    0 -0.16821204927E-02 -0.14509526216E-01  0.16611034813E+00  0.16675210571E+00  0.51100000000E-03 0.  1.
    9000002    1    1    2    0    0  0.58820495497E-01  0.24296592791E+00  0.41576490962E-01  0.97163002085E+00  0.93800000000E+00 0.  1.
         22    1    1    2    0    0 -0.57138375005E-01 -0.22845640169E+00  0.37923131283E+01  0.37996178734E+01  0.00000000000E+00 0.  1.
</event>
<event>
 5    1  0.1537976E+002  0.1580013E+01  0.7818608E-02  0.3375346E+00
         11   -1    0    0    0    0  0.00000000000E+00  0.00000000000E+00  0.39999999674E+01  0.40000000000E+01  0.51100000000E-03 0. -1.
    9000002   -1    0    0    0    0 -0.00000000000E+00 -0.00000000000E+00  0.00000000000E+00  0.93800000000E+00  0.93800000000E+00 0.  1.
         11    1    1    2    0    0 -0.11722618034E+00  0.24854728684E-01  0.12637183566E+01  0.12693872856E+01  0.51100000000E-03 0. -1.
    9000002    1    1    2    0    0  0.58435503458E-01  0.30538435311E+00  0.80204526262E-01  0.99143889233E+00  0.93800000000E+00 0.  1.
         22    1    1    2    0    0  0.58790676880E-01 -0.33023908179E+00  0.26560770845E+01  0.26771738221E+01  0.00000000000E+00 0. -1.
</event>
<event>
 5    1  0.1537976E+002  0.1599675E+01  0.7818608E-02  0.3353716E+00
         11   -1    0    0    0    0  0.00000000000E+00  0.00000000000E+00  0.39999999674E+01  0.40000000000E+01  0.51100000000E-03 0. -1.
    9000002   -1    0    0    0    0 -0.00000000000E+00 -0.00000000000E+00  0.00000000000E+00  0.93800000000E+00  0.93800000000E+00 0.  1.
         11    1    1    2    0    0  0.72490044507E-01  0.55604950327E-01  0.91808134076E+00  0.92261602329E+00  0.51100000000E-03 0. -1.
    9000002    1    1    2    0    0 -0.31355751013E+00 -0.23585926804E+00  0.10374189830E+00  0.10220343869E+01  0.93800000000E+00 0.  1.
         22    1    1    2    0    0  0.24106746562E+00  0.18025431771E+00  0.29781767283E+01  0.29933495898E+01  0.00000000000E+00 0. -1.
</event>
<event>
 5    1  0.1537976E+002  0.1599672E+01  0.7818608E-02  0.3353720E+00
         11   -1    0    0    0    0  0.00000000000E+00  0.00000000000E+00  0.39999999674E+01  0.40000000000E+01  0.51100000000E-03 0.  1.
    9000002   -1    0    0    0    0 -0.00000000000E+00 -0.00000000000E+00  0.00000000000E+00  0.93800000000E+00  0.93800000000E+00 0. -1.
         11    1    1    2    0    0 -0.21392310219E-01  0.54322394077E-01  0.58919013986E+00  0.59207586969E+00  0.51100000000E-03 0.  1.
    9000002    1    1    2    0    0  0.13828497198E+00 -0.34765040924E+00  0.94124729713E-01  0.10142420842E+01  0.93800000000E+00 0. -1.
         22    1    1    2    0    0 -0.11689266176E+00  0.29332801516E+00  0.33166850978E+01  0.33316820462E+01  0.00000000000E+00 0.  1.
</event>
<event>
 5    1  0.1537976E+002  0.1521109E+01  0.7818608E-02  0.3443707E+00
         11   -1    0    0    0    0  0.00000000000E+00  0.00000000000E+00  0.39999999674E+01  0.40000000000E+01  0.51100000000E-03 0.  1.
    9000002   -1    0    0    0    0 -0.00000000000E+00 -0.00000000000E+00  0.00000000000E+00  0.93800000000E+00  0.93800000000E+00 0.  1.
         11    1    1    2    0    0 -0.24987909243E+00  0.55540980488E-01  0.62633622266E+00  0.67662521848E+00  0.51100000000E-03 0.  1.
    9000002    1    1    2    0    0  0.60218011020E-01  0.88917241312E-01  0.67403947798E-01  0.94653038875E+00  0.93800000000E+00 0.  1.
         22    1    1    2    0    0  0.18966108141E+00 -0.14445822180E+00  0.33062597969E+01  0.33148443928E+01  0.00000000000E+00 0.  1.
</event>
<event>
 5    1  0.1537976E+002  0.1599245E+01  0.7818608E-02  0.3354184E+00
         11   -1    0    0    0    0  0.00000000000E+00  0.00000000000E+00  0.39999999674E+01  0.40000000000E+01  0.51100000000E-03 0.  1.
    9000002   -1    0    0    0    0 -0.00000000000E+00 -0.00000000000E+00  0.00000000000E+00  0.93800000000E+00  0.93800000000E+00 0.  1.
         11    1    1    2    0    0 -0.13600004943E+00 -0.33337263521E-01  0.53735798704E+00  0.55530284885E+00  0.51100000000E-03 0.  1.
    9000002    1    1    2    0    0  0.79136750700E+00  0.29557798009E+00  0.53476307634E+00  0.13709283064E+01  0.93800000000E+00 0.  1.
         22    1    1    2    0    0 -0.65536745757E+00 -0.26224071657E+00  0.29278789040E+01  0.30117688448E+01  0.00000000000E+00 0.  1.
</event>
<event>
 5    1  0.1537976E+002  0.1599670E+01  0.7818608E-02  0.3353721E+00
         11   -1    0    0    0    0  0.00000000000E+00  0.00000000000E+00  0.39999999674E+01  0.40000000000E+01  0.51100000000E-03 0.  1.
    9000002   -1    0    0    0    0 -0.00000000000E+00 -0.00000000000E+00  0.00000000000E+00  0.93800000000E+00  0.93800000000E+00 0.  1.
         11    1    1    2    0    0  0.11703991846E-01  0.18718492879E+00  0.12774786416E+01  0.12911727700E+01  0.51100000000E-03 0.  1.
    9000002    1    1    2    0    0 -0.40530992902E-01 -0.56069414552E+00  0.21879413722E+00  0.11152289275E+01  0.93800000000E+00 0.  1.
         22    1    1    2    0    0  0.28827001056E-01  0.37350921673E+00  0.25037271885E+01  0.25315983025E+01  0.00000000000E+00 0.  1.
</event>
<event>
 5    1  0.1537976E+002  0.1599669E+01  0.7818608E-02  0.3353723E+00
         11   -1    0    0    0    0  0.00000000000E+00  0.00000000000E+00  0.39999999674E+01  0.40000000000E+01  0.51100000000E-03 0.  1.
    9000002   -1    0    0    0    0 -0.00000000000E+00 -0.00000000000E+00  0.00000000000E+00  0.93800000000E+00  0.93800000000E+00 0. -1.
         11    1    1    2    0    0 -0.20823164872E-01 -0.23467557265E-01  0.39099892320E+00  0.39225597447E+00  0.51100000000E-03 0.  1.
    9000002    1    1    2    0    0  0.20277546282E+00  0.25500218173E+00  0.70994653760E-01  0.99550401399E+00  0.93800000000E+00 0. -1.
         22    1    1    2    0    0 -0.18195229795E+00 -0.23153462447E+00  0.35380063904E+01  0.35502400115E+01  0.00000000000E+00 0.  1.
</event>
<event>
 5    1  0.1537976E+002  0.1599638E+01  0.7818608E-02  0.3353756E+00
         11   -1    0    0    0    0  0.00000000000E+00  0.00000000000E+00  0.39999999674E+01  0.40000000000E+01  0.51100000000E-03 0.  1.
    9000002   -1    0    0    0    0 -0.00000000000E+00 -0.00000000000E+00  0.00000000000E+00  0.93800000000E+00  0.93800000000E+00 0.  1.
         11    1    1    2    0    0 -0.54428803436E-01 -0.24056696039E-01  0.97465499297E+00  0.97647008951E+00  0.51100000000E-03 0.  1.
    9000002    1    1    2    0    0  0.24669826985E+00  0.10146865136E+00  0.47360941596E-01  0.97634163198E+00  0.93800000000E+00 0.  1.
         22    1    1    2    0    0 -0.19226946642E+00 -0.77411955318E-01  0.29779840328E+01  0.29851882785E+01  0.00000000000E+00 0.  1.
</event>
<event>
 5    1  0.1537976E+002  0.1597854E+01  0.7818608E-02  0.3355696E+00
         11   -1    0    0    0    0  0.00000000000E+00  0.00000000000E+00  0.39999999674E+01  0.40000000000E+01  0.51100000000E-03 0.  1.
    9000002   -1    0    0    0    0 -0.00000000000E+00 -0.00000000000E+00  0.00000000000E+00  0.93800000000E+00  0.93800000000E+00 0. -1.
         11    1    1    2    0    0  0.41431132805E-01  0.30523334303E-01  0.88255968596E+00  0.88405886292E+00  0.51100000000E-03 0.  1.
    9000002    1    1    2    0    0 -0.35919676895E-01 -0.25647489834E+00  0.45984701365E-01  0.97418077862E+00  0.93800000000E+00 0. -1.
         22    1    1    2    0    0 -0.55114559100E-02  0.22595156404E+00  0.30714555800E+01  0.30797603585E+01  0.00000000000E+00 0.  1.
</event>
<event>
 5    1  0.1537976E+002  0.1553507E+01  0.7818608E-02  0.3405425E+00
         11   -1    0    0    0    0  0.00000000000E+00  0.00000000000E+00  0.39999999674E+01  0.40000000000E+01  0.51100000000E-03 0.  1.
    9000002   -1    0    0    0    0 -0.00000000000E+00 -0.00000000000E+00  0.00000000000E+00  0.93800000000E+00  0.93800000000E+00 0.  1.
         11    1    1    2    0    0 -0.94879989375E-02  0.86793917979E-02  0.34377580032E+01  0.34377820907E+01  0.51100000000E-03 0.  1.
    9000002    1    1    2    0    0  0.15297756357E+00 -0.15116129054E+00  0.66282092824E-01  0.96461867416E+00  0.93800000000E+00 0.  1.
         22    1    1    2    0    0 -0.14348956463E+00  0.14248189875E+00  0.49595987137E+00  0.53559923510E+00  0.00000000000E+00 0.  1.
</event>
