<event>
 5    1  0.2173147E+002  0.1569989E+01  0.7818608E-02  0.3386595E+00
         11   -1    0    0    0    0  0.00000000000E+00  0.00000000000E+00  0.39999999674E+01  0.40000000000E+01  0.51100000000E-03 0. -1.
    9000002   -1    0    0    0    0 -0.00000000000E+00 -0.00000000000E+00  0.00000000000E+00  0.93800000000E+00  0.93800000000E+00 0.  1.
         11    1    1    2    0    0 -0.13688321960E+00 -0.56179088374E-02  0.50840867392E+00  0.52654365208E+00  0.51100000000E-03 0. -1.
    9000002    1    1    2    0    0 -0.22280945813E-02 -0.15312243780E+00  0.37746152571E-01  0.95116781768E+00  0.93800000000E+00 0.  1.
         22    1    1    2    0    0  0.13911131418E+00  0.15874034664E+00  0.34538451409E+01  0.34602885302E+01  0.00000000000E+00 0. -1.
</event>
<event>
 5    1  0.2173147E+002  0.1537457E+01  0.7818608E-02  0.3424174E+00
         11   -1    0    0    0    0  0.00000000000E+00  0.00000000000E+00  0.39999999674E+01  0.40000000000E+01  0.51100000000E-03 0. -1.
    9000002   -1    0    0    0    0 -0.00000000000E+00 -0.00000000000E+00  0.00000000000E+00  0.93800000000E+00  0.93800000000E+00 0. -1.
         11    1    1    2    0    0  0.26780543284E+00 -0.25989295770E+00  0.21464344885E+01  0.21786338320E+01  0.51100000000E-03 0. -1.
    9000002    1    1    2    0    0 -0.85275182473E-01  0.10812480495E+00  0.59775126924E-01  0.94993678526E+00  0.93800000000E+00 0. -1.
         22    1    1    2    0    0 -0.18253025037E+00  0.15176815274E+00  0.17937903519E+01  0.18094293827E+01  0.00000000000E+00 0. -1.
</event>
<event>
 5    1  0.2173147E+002  0.1575462E+01  0.7818608E-02  0.3380434E+00
         11   -1    0    0    0    0  0.00000000000E+00  0.00000000000E+00  0.39999999674E+01  0.40000000000E+01  0.51100000000E-03 0.  1.
    9000002   -1    0    0    0    0 -0.00000000000E+00 -0.00000000000E+00  0.00000000000E+00  0.93800000000E+00  0.93800000000E+00 0.  1.
         11    1    1    2    0    0  0.40302306814E-01  0.35431309291E-01  0.64115631274E-01  0.83610578920E-01  0.51100000000E-03 0.  1.
    9000002    1    1    2    0    0 -0.33718841888E+00  0.13918561849E+00  0.10932027992E+00  0.10123554661E+01  0.93800000000E+00 0.  1.
         22    1    1    2    0    0  0.29688611206E+00 -0.17461692779E+00  0.38265640562E+01  0.38420339549E+01  0.00000000000E+00 0.  1.
</event>
<event>
 5    1  0.2173147E+002  0.1565869E+01  0.7818608E-02  0.3391262E+00
         11   -1    0    0    0    0  0.00000000000E+00  0.00000000000E+00  0.39999999674E+01  0.40000000000E+01  0.51100000000E-03 0.  1.
    9000002   -1    0    0    0    0 -0.00000000000E+00 -0.00000000000E+00  0.00000000000E+00  0.93800000000E+00  0.93800000000E+00 0.  1.
         11    1    1    2    0    0 -0.52591170621E-01  0.25321166074E-01  0.73131346972E-01  0.93570549370E-01  0.51100000000E-03 0.  1.
    9000002    1    1    2    0    0 -0.22211823205E+00  0.10965553490E+00  0.67025549059E-01  0.97246967540E+00  0.93800000000E+00 0.  1.
         22    1    1    2    0    0  0.27470940267E+00 -0.13497670097E+00  0.38598430713E+01  0.38719597752E+01  0.00000000000E+00 0.  1.
</event>
<event>
 5    1  0.2173147E+002  0.1599480E+01  0.7818608E-02  0.3353928E+00
         11   -1    0    0    0    0  0.00000000000E+00  0.00000000000E+00  0.39999999674E+01  0.40000000000E+01  0.51100000000E-03 0.  1.
    9000002   -1    0    0    0    0 -0.00000000000E+00 -0.00000000000E+00  0.00000000000E+00  0.93800000000E+00  0.93800000000E+00 0. -1.
         11    1    1    2    0    0  0.12044486429E+00  0.18438031856E+00  0.16872973134E+01  0.17016096944E+01  0.51100000000E-03 0.  1.
    9000002    1    1    2    0    0 -0.30825147514E+00 -0.40371734393E+00  0.17703696679E+00  0.10812921683E+01  0.93800000000E+00 0. -1.
         22    1    1    2    0    0  0.18780661085E+00  0.21933702537E+00  0.21356656872E+01  0.21550981373E+01  0.00000000000E+00 0.  1.
</event>
<event>
 5    1  0.2173147E+002  0.1588545E+01  0.7818608E-02  0.3365891E+00
         11   -1    0    0    0    0  0.00000000000E+00  0.00000000000E+00  0.39999999674E+01  0.40000000000E+01  0.51100000000E-03 0. -1.
    9000002   -1    0    0    0    0 -0.00000000000E+00 -0.00000000000E+00  0.00000000000E+00  0.93800000000E+00  0.93800000000E+00 0. -1.
         11    1    1    2    0    0 -0.12751688696E-02  0.23393851375E+00  0.12946905614E+01  0.13156567809E+01  0.51100000000E-03 0. -1.
    9000002    1    1    2    0    0 -0.20981040306E+00 -0.40844261242E+00  0.15314978003E+00  0.10555304960E+01  0.93800000000E+00 0. -1.
         22    1    1    2    0    0  0.21108557193E+00  0.17450409868E+00  0.25521596259E+01  0.25668127231E+01  0.00000000000E+00 0. -1.
</event>
<event>
 5    1  0.2173147E+002  0.1580345E+01  0.7818608E-02  0.3374977E+00
         11   -1    0    0    0    0  0.00000000000E+00  0.00000000000E+00  0.39999999674E+01  0.40000000000E+01  0.51100000000E-03 0.  1.
    9000002   -1    0    0    0    0 -0.00000000000E+00 -0.00000000000E+00  0.00000000000E+00  0.93800000000E+00  0.93800000000E+00 0. -1.
         11    1    1    2    0    0  0.14144746465E+00 -0.34251313496E-01  0.12636683158E+01  0.12720213879E+01  0.51100000000E-03 0.  1.
    9000002    1    1    2    0    0  0.44289032608E-01  0.13973516576E+00  0.28579679989E-01  0.94981484147E+00  0.93800000000E+00 0. -1.
         22    1    1    2    0    0 -0.18573649726E+00 -0.10548385227E+00  0.27077519715E+01  0.27161637706E+01  0.00000000000E+00 0.  1.
</event>
<event>
 5    1  0.2173147E+002  0.1596925E+01  0.7818608E-02  0.3356707E+00
         11   -1    0    0    0    0  0.00000000000E+00  0.00000000000E+00  0.39999999674E+01  0.40000000000E+01  0.51100000000E-03 0. -1.
    9000002   -1    0    0    0    0 -0.00000000000E+00 -0.00000000000E+00  0.00000000000E+00  0.93800000000E+00  0.93800000000E+00 0.  1.
         11    1    1    2    0    0  0.26280293125E-01 -0.68720323820E-01  0.11844506288E+01  0.11867336221E+01  0.51100000000E-03 0. -1.
    9000002    1    1    2    0    0 -0.27637449593E+00  0.19533447162E+00  0.78906463742E-01  0.10003042776E+01  0.93800000000E+00 0.  1.
         22    1    1    2    0    0  0.25009420281E+00 -0.12661414780E+00  0.27366428748E+01  0.27509621003E+01  0.00000000000E+00 0.  1.
</event>
<event>
 5    1  0.2173147E+002  0.1599403E+01  0.7818608E-02  0.3354011E+00
         11   -1    0    0    0    0  0.00000000000E+00  0.00000000000E+00  0.39999999674E+01  0.40000000000E+01  0.51100000000E-03 0. -1.
    9000002   -1    0    0    0    0 -0.00000000000E+00 -0.00000000000E+00  0.00000000000E+00  0.93800000000E+00  0.93800000000E+00 0. -1.
         11    1    1    2    0    0  0.11006215311E+00 -0.21964047767E+00  0.18939966592E+01  0.19098636661E+01  0.51100000000E-03 0. -1.
    9000002    1    1    2    0    0 -0.21315011458E+00  0.40782888121E+00  0.14427941407E+00  0.10547122437E+01  0.93800000000E+00 0. -1.
         22    1    1    2    0    0  0.10308796147E+00 -0.18818840354E+00  0.19617238941E+01  0.19734240902E+01  0.00000000000E+00 0. -1.
</event>
<event>
 5    1  0.2173147E+002  0.1599674E+01  0.7818608E-02  0.3353717E+00
         11   -1    0    0    0    0  0.00000000000E+00  0.00000000000E+00  0.39999999674E+01  0.40000000000E+01  0.51100000000E-03 0. -1.
    9000002   -1    0    0    0    0 -0.00000000000E+00 -0.00000000000E+00  0.00000000000E+00  0.93800000000E+00  0.93800000000E+00 0. -1.
         11    1    1    2    0    0 -0.45924612227E-02  0.19354661619E+00  0.17985225636E+01  0.18089126724E+01  0.51100000000E-03 0. -1.
    9000002    1    1    2    0    0  0.79495236567E-02 -0.42138868557E+00  0.12015931152E+00  0.10353327385E+01  0.93800000000E+00 0. -1.
         22    1    1    2    0    0 -0.33570624340E-02  0.22784206938E+00  0.20813180922E+01  0.20937545891E+01  0.00000000000E+00 0. -1.
</event>
<event>
 5    1  0.2173147E+002  0.1592714E+01  0.7818608E-02  0.3361309E+00
         11   -1    0    0    0    0  0.00000000000E+00  0.00000000000E+00  0.39999999674E+01  0.40000000000E+01  0.51100000000E-03 0. -1.
    9000002   -1    0    0    0    0 -0.00000000000E+00 -0.00000000000E+00  0.00000000000E+00  0.93800000000E+00  0.93800000000E+00 0. -1.
         11    1    1    2    0    0 -0.62812019912E-02 -0.34899628462E-01  0.14822761753E+01  0.14827003603E+01  0.51100000000E-03 0. -1.
    9000002    1    1    2    0    0  0.25887177686E+00 -0.35239477252E-04  0.49908945993E-01  0.97434567838E+00  0.93800000000E+00 0. -1.
         22    1    1    2    0    0 -0.25259057487E+00  0.34934867939E-01  0.24678148461E+01  0.24809539613E+01  0.00000000000E+00 0. -1.
</event>
<event>
 5    1  0.2173147E+002  0.1591289E+01  0.7818608E-02  0.3362873E+00
         11   -1    0    0    0    0  0.00000000000E+00  0.00000000000E+00  0.39999999674E+01  0.40000000000E+01  0.51100000000E-03 0. -1.
    9000002   -1    0    0    0    0 -0.00000000000E+00 -0.00000000000E+00  0.00000000000E+00  0.93800000000E+00  0.93800000000E+00 0. -1.
         11    1    1    2    0    0  0.15959544807E-01 -0.47164423806E-01  0.18430301705E+01  0.18437027039E+01  0.51100000000E-03 0. -1.
    9000002    1    1    2    0    0  0.16983580705E+00  0.21893105331E+00  0.57631544144E-01  0.97976548334E+00  0.93800000000E+00 0. -1.
         22    1    1    2    0    0 -0.18579535186E+00 -0.17176662951E+00  0.20993382527E+01  0.21145318127E+01  0.00000000000E+00 0. -1.
</event>
<event>
 5    1  0.2173147E+002  0.1554039E+01  0.7818608E-02  0.3404810E+00
         11   -1    0    0    0    0  0.00000000000E+00  0.00000000000E+00  0.39999999674E+01  0.40000000000E+01  0.51100000000E-03 0. -1.
    9000002   -1    0    0    0    0 -0.00000000000E+00 -0.00000000000E+00  0.00000000000E+00  0.93800000000E+00  0.93800000000E+00 0. -1.
         11    1    1    2    0    0 -0.43027353978E+00  0.30148877814E+00  0.30205249158E+01  0.30658770084E+01  0.51100000000E-03 0. -1.
    9000002    1    1    2    0    0  0.52328430186E+00 -0.12087069200E+00  0.24260863544E+00  0.11077631221E+01  0.93800000000E+00 0. -1.
         22    1    1    2    0    0 -0.93010762081E-01 -0.18061808614E+00  0.73686641612E+00  0.76435986950E+00  0.00000000000E+00 0. -1.
</event>
<event>
 5    1  0.2173147E+002  0.1599677E+01  0.7818608E-02  0.3353714E+00
         11   -1    0    0    0    0  0.00000000000E+00  0.00000000000E+00  0.39999999674E+01  0.40000000000E+01  0.51100000000E-03 0.  1.
    9000002   -1    0    0    0    0 -0.00000000000E+00 -0.00000000000E+00  0.00000000000E+00  0.93800000000E+00  0.93800000000E+00 0. -1.
         11    1    1    2    0    0  0.74782253162E+00 -0.31160269934E+00  0.12644594829E+01  0.15017299444E+01  0.51100000000E-03 0.  1.
    9000002    1    1    2    0    0 -0.11898507587E+01  0.49663374115E+00  0.19892943370E+01  0.25494167686E+01  0.93800000000E+00 0. -1.
         22    1    1    2    0    0  0.44202822707E+00 -0.18503104181E+00  0.74624614753E+00  0.88685328700E+00  0.00000000000E+00 0.  1.
</event>
<event>
 5    1  0.2173147E+002  0.1599676E+01  0.7818608E-02  0.3353715E+00
         11   -1    0    0    0    0  0.00000000000E+00  0.00000000000E+00  0.39999999674E+01  0.40000000000E+01  0.51100000000E-03 0. -1.
    9000002   -1    0    0    0    0 -0.00000000000E+00 -0.00000000000E+00  0.00000000000E+00  0.93800000000E+00  0.93800000000E+00 0.  1.
         11    1    1    2    0    0  0.89117963295E-02 -0.19144936496E-01  0.36733029889E+00  0.36793716625E+00  0.51100000000E-03 0. -1.
    9000002    1    1    2    0    0 -0.10091369634E+00  0.21173079142E+00  0.36504054284E-01  0.96756914385E+00  0.93800000000E+00 0.  1.
         22    1    1    2    0    0  0.92001900007E-01 -0.19258585492E+00  0.35961656142E+01  0.36024936899E+01  0.00000000000E+00 0. -1.
</event>
<event>
 5    1  0.2173147E+002  0.1599551E+01  0.7818608E-02  0.3353851E+00
         11   -1    0    0    0    0  0.00000000000E+00  0.00000000000E+00  0.39999999674E+01  0.40000000000E+01  0.51100000000E-03 0. -1.
    9000002   -1    0    0    0    0 -0.00000000000E+00 -0.00000000000E+00  0.00000000000E+00  0.93800000000E+00  0.93800000000E+00 0. -1.
         11    1    1    2    0    0 -0.34151448435E-02 -0.81193618289E-02  0.18092874331E+00  0.18114375100E+00  0.51100000000E-03 0. -1.
    9000002    1    1    2    0    0  0.18631878745E+00  0.12518871559E+00  0.33505227816E-01  0.96506658079E+00  0.93800000000E+00 0. -1.
         22    1    1    2    0    0 -0.18290364261E+00 -0.11706935376E+00  0.37855659962E+01  0.37917896682E+01  0.00000000000E+00 0. -1.
</event>
<event>
 5    1  0.2173147E+002  0.1565552E+01  0.7818608E-02  0.3391622E+00
         11   -1    0    0    0    0  0.00000000000E+00  0.00000000000E+00  0.39999999674E+01  0.40000000000E+01  0.51100000000E-03 0. -1.
    9000002   -1    0    0    0    0 -0.00000000000E+00 -0.00000000000E+00  0.00000000000E+00  0.93800000000E+00  0.93800000000E+00 0.  1.
         11    1    1    2    0    0 -0.16403573136E+00  0.19810703487E+00  0.12451670872E+01  0.12714540710E+01  0.51100000000E-03 0. -1.
    9000002    1    1    2    0    0 -0.73156003708E-01 -0.33889140196E+00  0.10851480459E+00  0.10058919654E+01  0.93800000000E+00 0.  1.
         22    1    1    2    0    0  0.23719173507E+00  0.14078436710E+00  0.26463180755E+01  0.26606539636E+01  0.00000000000E+00 0. -1.
</event>
<event>
 5    1  0.2173147E+002  0.1513741E+01  0.7818608E-02  0.3452659E+00
         11   -1    0    0    0    0  0.00000000000E+00  0.00000000000E+00  0.39999999674E+01  0.40000000000E+01  0.51100000000E-03 0. -1.
    9000002   -1    0    0    0    0 -0.00000000000E+00 -0.00000000000E+00  0.00000000000E+00  0.93800000000E+00  0.93800000000E+00 0.  1.
         11    1    1    2    0    0 -0.10576896968E+00  0.32624632435E+00  0.21141773887E+01  0.21418146584E+01  0.51100000000E-03 0. -1.
    9000002    1    1    2    0    0 -0.25004998659E+00 -0.13100986775E+00  0.12300617245E+00  0.98725027207E+00  0.93800000000E+00 0.  1.
         22    1    1    2    0    0  0.35581895628E+00 -0.19523645660E+00  0.17628164062E+01  0.18089350695E+01  0.00000000000E+00 0.  1.
</event>
<event>
 5    1  0.2173147E+002  0.1554299E+01  0.7818608E-02  0.3404510E+00
         11   -1    0    0    0    0  0.00000000000E+00  0.00000000000E+00  0.39999999674E+01  0.40000000000E+01  0.51100000000E-03 0. -1.
    9000002   -1    0    0    0    0 -0.00000000000E+00 -0.00000000000E+00  0.00000000000E+00  0.93800000000E+00  0.93800000000E+00 0. -1.
         11    1    1    2    0    0  0.12569644117E+00  0.13706315462E+00  0.17697379833E+01  0.17794827041E+01  0.51100000000E-03 0. -1.
    9000002    1    1    2    0    0  0.65690997986E-01  0.14578150030E+00  0.51255201075E-01  0.95291061946E+00  0.93800000000E+00 0. -1.
         22    1    1    2    0    0 -0.19138743916E+00 -0.28284465492E+00  0.21790067830E+01  0.22056066764E+01  0.00000000000E+00 0. -1.
</event>
<event>
 5    1  0.2173147E+002  0.1585924E+01  0.7818608E-02  0.3368784E+00
         11   -1    0    0    0    0  0.00000000000E+00  0.00000000000E+00  0.39999999674E+01  0.40000000000E+01  0.51100000000E-03 0. -1.
    9000002   -1    0    0    0    0 -0.00000000000E+00 -0.00000000000E+00  0.00000000000E+00  0.93800000000E+00  0.93800000000E+00 0. -1.
         11    1    1    2    0    0 -0.32672340254E+00  0.94348204893E-01  0.30389459862E+01  0.30579147689E+01  0.51100000000E-03 0. -1.
    9000002    1    1    2    0    0  0.52000707563E+00 -0.20009068518E+00  0.22791179930E+00  0.11145543635E+01  0.93800000000E+00 0. -1.
         22    1    1    2    0    0 -0.19328367309E+00  0.10574248028E+00  0.73314218181E+00  0.76553086755E+00  0.00000000000E+00 0. -1.
</event>
<event>
 5    1  0.2173147E+002  0.1560504E+01  0.7818608E-02  0.3397380E+00
         11   -1    0    0    0    0  0.00000000000E+00  0.00000000000E+00  0.39999999674E+01  0.40000000000E+01  0.51100000000E-03 0. -1.
    9000002   -1    0    0    0    0 -0.00000000000E+00 -0.00000000000E+00  0.00000000000E+00  0.93800000000E+00  0.93800000000E+00 0. -1.
         11    1    1    2    0    0 -0.11229198910E+00  0.43868791498E-01  0.17264550888E+01  0.17306592375E+01  0.51100000000E-03 0. -1.
    9000002    1    1    2    0    0  0.77625319634E-01  0.40328191762E+00  0.14753485154E+00  0.10345397662E+01  0.93800000000E+00 0. -1.
         22    1    1    2    0    0  0.34666669464E-01 -0.44715070912E+00  0.21260100270E+01  0.21728009963E+01  0.00000000000E+00 0.  1.
</event>
<event>
 5    1  0.2173147E+002  0.1583948E+01  0.7818608E-02  0.3370972E+00
         11   -1    0    0    0    0  0.00000000000E+00  0.00000000000E+00  0.39999999674E+01  0.40000000000E+01  0.51100000000E-03 0. -1.
    9000002   -1    0    0    0    0 -0.00000000000E+00 -0.00000000000E+00  0.00000000000E+00  0.93800000000E+00  0.93800000000E+00 0.  1.
         11    1    1    2    0    0 -0.16663900167E-01  0.89523368718E-01  0.56309216599E+00  0.57040789584E+00  0.51100000000E-03 0. -1.
    9000002    1    1    2    0    0 -0.19227983330E+00  0.44779065480E-01  0.37669638058E-01  0.95929124912E+00  0.93800000000E+00 0.  1.
         22    1    1    2    0    0  0.20894373347E+00 -0.13430243420E+00  0.33992381633E+01  0.34083008550E+01  0.00000000000E+00 0. -1.
</event>
<event>
 5    1  0.2173147E+002  0.1594468E+01  0.7818608E-02  0.3359390E+00
         11   -1    0    0    0    0  0.00000000000E+00  0.00000000000E+00  0.39999999674E+01  0.40000000000E+01  0.51100000000E-03 0.  1.
    9000002   -1    0    0    0    0 -0.00000000000E+00 -0.00000000000E+00  0.00000000000E+00  0.93800000000E+00  0.93800000000E+00 0.  1.
         11    1    1    2    0    0 -0.11541104721E+00  0.14025761610E+00  0.13085070659E+01  0.13210537125E+01  0.51100000000E-03 0.  1.
    9000002    1    1    2    0    0  0.10193806014E+00 -0.37842725030E+00  0.10782162550E+00  0.10222857012E+01  0.93800000000E+00 0.  1.
         22    1    1    2    0    0  0.13472987063E-01  0.23816963420E+00  0.25836712760E+01  0.25946605864E+01  0.00000000000E+00 0.  1.
</event>
<event>
 5    1  0.2173147E+002  0.1599676E+01  0.7818608E-02  0.3353715E+00
         11   -1    0    0    0    0  0.00000000000E+00  0.00000000000E+00  0.39999999674E+01  0.40000000000E+01  0.51100000000E-03 0.  1.
    9000002   -1    0    0    0    0 -0.00000000000E+00 -0.00000000000E+00  0.00000000000E+00  0.93800000000E+00  0.93800000000E+00 0.  1.
         11    1    1    2    0    0  0.16156447457E-02 -0.29074391758E-01  0.34633186508E+00  0.34755424390E+00  0.51100000000E-03 0.  1.
    9000002    1    1    2    0    0 -0.21162112216E-01  0.32895941656E+00  0.72701352930E-01  0.99689097671E+00  0.93800000000E+00 0.  1.
         22    1    1    2    0    0  0.19546467470E-01 -0.29988502480E+00  0.35809667494E+01  0.35935547794E+01  0.00000000000E+00 0.  1.
</event>
<event>
 5    1  0.2173147E+002  0.1588688E+01  0.7818608E-02  0.3365733E+00
         11   -1    0    0    0    0  0.00000000000E+00  0.00000000000E+00  0.39999999674E+01  0.40000000000E+01  0.51100000000E-03 0.  1.
    9000002   -1    0    0    0    0 -0.00000000000E+00 -0.00000000000E+00  0.00000000000E+00  0.93800000000E+00  0.93800000000E+00 0.  1.
         11    1    1    2    0    0  0.56409313178E-01 -0.35490084679E-03  0.31886772277E+00  0.32381942856E+00  0.51100000000E-03 0.  1.
    9000002    1    1    2    0    0  0.15065291458E+00  0.60490479291E-01  0.25594205446E-01  0.95228906436E+00  0.93800000000E+00 0.  1.
         22    1    1    2    0    0 -0.20706222775E+00 -0.60135578445E-01  0.36555380391E+01  0.36618915071E+01  0.00000000000E+00 0.  1.
</event>
<event>
 5    1  0.2173147E+002  0.1597019E+01  0.7818608E-02  0.3356605E+00
         11   -1    0    0    0    0  0.00000000000E+00  0.00000000000E+00  0.39999999674E+01  0.40000000000E+01  0.51100000000E-03 0.  1.
    9000002   -1    0    0    0    0 -0.00000000000E+00 -0.00000000000E+00  0.00000000000E+00  0.93800000000E+00  0.93800000000E+00 0. -1.
         11    1    1    2    0    0  0.51593369470E-01  0.24449381860E-01  0.10757951358E+01  0.10773091865E+01  0.51100000000E-03 0.  1.
    9000002    1    1    2    0    0 -0.20546991995E+00  0.11259084870E+00  0.38443959739E-01  0.96758282605E+00  0.93800000000E+00 0. -1.
         22    1    1    2    0    0  0.15387655048E+00 -0.13704023056E+00  0.28857608718E+01  0.28931079874E+01  0.00000000000E+00 0.  1.
</event>
<event>
 5    1  0.2173147E+002  0.1599533E+01  0.7818608E-02  0.3353870E+00
         11   -1    0    0    0    0  0.00000000000E+00  0.00000000000E+00  0.39999999674E+01  0.40000000000E+01  0.51100000000E-03 0.  1.
    9000002   -1    0    0    0    0 -0.00000000000E+00 -0.00000000000E+00  0.00000000000E+00  0.93800000000E+00  0.93800000000E+00 0.  1.
         11    1    1    2    0    0 -0.15181578353E-01  0.12128243610E-02  0.18911402227E+00  0.18972697701E+00  0.51100000000E-03 0.  1.
    9000002    1    1    2    0    0  0.21929659998E+00 -0.10805169047E+00  0.39795231564E-01  0.97015144541E+00  0.93800000000E+00 0.  1.
         22    1    1    2    0    0 -0.20411502162E+00  0.10683886611E+00  0.37710907135E+01  0.37781215776E+01  0.00000000000E+00 0.  1.
</event>
<event>
 5    1  0.2173147E+002  0.1520019E+01  0.7818608E-02  0.3445025E+00
         11   -1    0    0    0    0  0.00000000000E+00  0.00000000000E+00  0.39999999674E+01  0.40000000000E+01  0.51100000000E-03 0.  1.
    9000002   -1    0    0    0    0 -0.00000000000E+00 -0.00000000000E+00  0.00000000000E+00  0.93800000000E+00  0.93800000000E+00 0. -1.
         11    1    1    2    0    0 -0.18344905728E-01  0.11482615047E+00  0.99341721146E-01  0.15293991984E+00  0.51100000000E-03 0.  1.
    9000002    1    1    2    0    0  0.35053677717E-01  0.99486548459E-01  0.67978663190E-01  0.94635692648E+00  0.93800000000E+00 0. -1.
         22    1    1    2    0    0 -0.16708771988E-01 -0.21431269893E+00  0.38326795830E+01  0.38387031537E+01  0.00000000000E+00 0.  1.
</event>
<event>
 5    1  0.2173147E+002  0.1598119E+01  0.7818608E-02  0.3355407E+00
         11   -1    0    0    0    0  0.00000000000E+00  0.00000000000E+00  0.39999999674E+01  0.40000000000E+01  0.51100000000E-03 0. -1.
    9000002   -1    0    0    0    0 -0.00000000000E+00 -0.00000000000E+00  0.00000000000E+00  0.93800000000E+00  0.93800000000E+00 0. -1.
         11    1    1    2    0    0  0.10556701097E-01 -0.37731270250E+00  0.25363394395E+01  0.25642726714E+01  0.51100000000E-03 0. -1.
    9000002    1    1    2    0    0 -0.68861541376E-01  0.59648961977E+00  0.25312454145E+00  0.11421286319E+01  0.93800000000E+00 0. -1.
         22    1    1    2    0    0  0.58304840279E-01 -0.21917691727E+00  0.12105359864E+01  0.12315986967E+01  0.00000000000E+00 0. -1.
</event>
<event>
 5    1  0.2173147E+002  0.1599662E+01  0.7818608E-02  0.3353730E+00
         11   -1    0    0    0    0  0.00000000000E+00  0.00000000000E+00  0.39999999674E+01  0.40000000000E+01  0.51100000000E-03 0.  1.
    9000002   -1    0    0    0    0 -0.00000000000E+00 -0.00000000000E+00  0.00000000000E+00  0.93800000000E+00  0.93800000000E+00 0. -1.
         11    1    1    2    0    0 -0.54110561906E-01  0.23608151457E-01  0.79345051381E+00  0.79564393840E+00  0.51100000000E-03 0.  1.
    9000002    1    1    2    0    0  0.25306206572E+00 -0.12640751430E+00  0.53310918523E-01  0.98117548013E+00  0.93800000000E+00 0. -1.
         22    1    1    2    0    0 -0.19895150382E+00  0.10279936284E+00  0.31532385350E+01  0.31611805815E+01  0.00000000000E+00 0.  1.
</event>
<event>
 5    1  0.2173147E+002  0.1553371E+01  0.7818608E-02  0.3405582E+00
         11   -1    0    0    0    0  0.00000000000E+00  0.00000000000E+00  0.39999999674E+01  0.40000000000E+01  0.51100000000E-03 0. -1.
    9000002   -1    0    0    0    0 -0.00000000000E+00 -0.00000000000E+00  0.00000000000E+00  0.93800000000E+00  0.93800000000E+00 0. -1.
         11    1    1    2    0    0  0.29751246040E+00  0.13883972138E+00  0.23969575470E+01  0.24193379002E+01  0.51100000000E-03 0. -1.
    9000002    1    1    2    0    0 -0.75524269111E-01 -0.26442067327E+00  0.87031056901E-01  0.98134632650E+00  0.93800000000E+00 0. -1.
         22    1    1    2    0    0 -0.22198819129E+00  0.12558095188E+00  0.15160113635E+01  0.15373157733E+01  0.00000000000E+00 0. -1.
</event>
<event>
 5    1  0.2173147E+002  0.1597349E+01  0.7818608E-02  0.3356246E+00
         11   -1    0    0    0    0  0.00000000000E+00  0.00000000000E+00  0.39999999674E+01  0.40000000000E+01  0.51100000000E-03 0. -1.
    9000002   -1    0    0    0    0 -0.00000000000E+00 -0.00000000000E+00  0.00000000000E+00  0.93800000000E+00  0.93800000000E+00 0. -1.
         11    1    1    2    0    0  0.31069656220E-02  0.49107907076E-02  0.74834190820E-02  0.94885079389E-02  0.51100000000E-03 0. -1.
    9000002    1    1    2    0    0  0.25486003414E-01 -0.27709323604E+00  0.53358643389E-01  0.97985781757E+00  0.93800000000E+00 0. -1.
         22    1    1    2    0    0 -0.28592969035E-01  0.27218244533E+00  0.39391579049E+01  0.39486536745E+01  0.00000000000E+00 0. -1.
</event>
<event>
 5    1  0.2173147E+002  0.1599613E+01  0.7818608E-02  0.3353784E+00
         11   -1    0    0    0    0  0.00000000000E+00  0.00000000000E+00  0.39999999674E+01  0.40000000000E+01  0.51100000000E-03 0.  1.
    9000002   -1    0    0    0    0 -0.00000000000E+00 -0.00000000000E+00  0.00000000000E+00  0.93800000000E+00  0.93800000000E+00 0. -1.
         11    1    1    2    0    0 -0.50454563723E-02  0.36261972249E-02  0.68767249635E-01  0.69049269943E-01  0.51100000000E-03 0.  1.
    9000002    1    1    2    0    0  0.15725156185E+00 -0.15877371808E+00  0.33157894868E-01  0.96482153440E+00  0.93800000000E+00 0. -1.
         22    1    1    2    0    0 -0.15220610547E+00  0.15514752085E+00  0.38980748229E+01  0.39041291957E+01  0.00000000000E+00 0.  1.
</event>
<event>
 5    1  0.2173147E+002  0.1599566E+01  0.7818608E-02  0.3353835E+00
         11   -1    0    0    0    0  0.00000000000E+00  0.00000000000E+00  0.39999999674E+01  0.40000000000E+01  0.51100000000E-03 0.  1.
    9000002   -1    0    0    0    0 -0.00000000000E+00 -0.00000000000E+00  0.00000000000E+00  0.93800000000E+00  0.93800000000E+00 0. -1.
         11    1    1    2    0    0 -0.20555029727E-01  0.20350898303E-01  0.50656195811E+00  0.50738737355E+00  0.51100000000E-03 0.  1.
    9000002    1    1    2    0    0  0.11437506495E+00 -0.20640347367E+00  0.37036272471E-01  0.96793581136E+00  0.93800000000E+00 0. -1.
         22    1    1    2    0    0 -0.93820035228E-01  0.18605257537E+00  0.34564017368E+01  0.34626768151E+01  0.00000000000E+00 0.  1.
</event>
<event>
 5    1  0.2173147E+002  0.1595158E+01  0.7818608E-02  0.3358635E+00
         11   -1    0    0    0    0  0.00000000000E+00  0.00000000000E+00  0.39999999674E+01  0.40000000000E+01  0.51100000000E-03 0.  1.
    9000002   -1    0    0    0    0 -0.00000000000E+00 -0.00000000000E+00  0.00000000000E+00  0.93800000000E+00  0.93800000000E+00 0.  1.
         11    1    1    2    0    0 -0.57998880307E-01  0.50474469917E-01  0.80467799763E+00  0.80834304798E+00  0.51100000000E-03 0.  1.
    9000002    1    1    2    0    0  0.23690098244E+00  0.68403343136E-01  0.43835260930E-01  0.97085870390E+00  0.93800000000E+00 0.  1.
         22    1    1    2    0    0 -0.17890210213E+00 -0.11887781305E+00  0.31514867088E+01  0.31587982481E+01  0.00000000000E+00 0.  1.
</event>
<event>
 5    1  0.2173147E+002  0.1573763E+01  0.7818608E-02  0.3382342E+00
         11   -1    0    0    0    0  0.00000000000E+00  0.00000000000E+00  0.39999999674E+01  0.40000000000E+01  0.51100000000E-03 0.  1.
    9000002   -1    0    0    0    0 -0.00000000000E+00 -0.00000000000E+00  0.00000000000E+00  0.93800000000E+00  0.93800000000E+00 0. -1.
         11    1    1    2    0    0 -0.82273669284E-01 -0.25026061296E-01  0.27738894519E+00  0.29041375387E+00  0.51100000000E-03 0.  1.
    9000002    1    1    2    0    0 -0.18856782130E+00 -0.45236806687E-01  0.44521769524E-01  0.95886932367E+00  0.93800000000E+00 0. -1.
         22    1    1    2    0    0  0.27084149058E+00  0.70262867983E-01  0.36780892526E+01  0.36887169225E+01  0.00000000000E+00 0.  1.
</event>
<event>
 5    1  0.2173147E+002  0.1542916E+01  0.7818608E-02  0.3417751E+00
         11   -1    0    0    0    0  0.00000000000E+00  0.00000000000E+00  0.39999999674E+01  0.40000000000E+01  0.51100000000E-03 0. -1.
    9000002   -1    0    0    0    0 -0.00000000000E+00 -0.00000000000E+00  0.00000000000E+00  0.93800000000E+00  0.93800000000E+00 0.  1.
         11    1    1    2    0    0 -0.69383677918E-01  0.71027372260E+00  0.25020897515E+01  0.26018755239E+01  0.51100000000E-03 0. -1.
    9000002    1    1    2    0    0  0.36177318230E+00 -0.74934473029E+00  0.59817197126E+00  0.13892627784E+01  0.93800000000E+00 0.  1.
         22    1    1    2    0    0 -0.29238950438E+00  0.39071007691E-01  0.89973824456E+00  0.94686169773E+00  0.00000000000E+00 0.  1.
</event>
<event>
 5    1  0.2173147E+002  0.1577539E+01  0.7818608E-02  0.3378109E+00
         11   -1    0    0    0    0  0.00000000000E+00  0.00000000000E+00  0.39999999674E+01  0.40000000000E+01  0.51100000000E-03 0. -1.
    9000002   -1    0    0    0    0 -0.00000000000E+00 -0.00000000000E+00  0.00000000000E+00  0.93800000000E+00  0.93800000000E+00 0. -1.
         11    1    1    2    0    0  0.39420411005E-01 -0.53988524521E-01  0.64250698487E+00  0.64597539915E+00  0.51100000000E-03 0. -1.
    9000002    1    1    2    0    0  0.19329522561E+00 -0.35216747876E+00  0.12756076256E+00  0.10283485428E+01  0.93800000000E+00 0. -1.
         22    1    1    2    0    0 -0.23271563661E+00  0.40615600328E+00  0.32299322199E+01  0.32636760580E+01  0.00000000000E+00 0. -1.
</event>
<event>
 5    1  0.2173147E+002  0.1561973E+01  0.7818608E-02  0.3395699E+00
         11   -1    0    0    0    0  0.00000000000E+00  0.00000000000E+00  0.39999999674E+01  0.40000000000E+01  0.51100000000E-03 0. -1.
    9000002   -1    0    0    0    0 -0.00000000000E+00 -0.00000000000E+00  0.00000000000E+00  0.93800000000E+00  0.93800000000E+00 0.  1.
         11    1    1    2    0    0 -0.90738041194E-01  0.63886409796E-01  0.14803793085E+00  0.18501447394E+00  0.51100000000E-03 0. -1.
    9000002    1    1    2    0    0  0.92083698299E-02 -0.64761049593E+00  0.33657612988E+00  0.11885333987E+01  0.93800000000E+00 0.  1.
         22    1    1    2    0    0  0.81529671364E-01  0.58372408613E+00  0.35153859066E+01  0.35644521274E+01  0.00000000000E+00 0. -1.
</event>
<event>
 5    1  0.2173147E+002  0.1586199E+01  0.7818608E-02  0.3368481E+00
         11   -1    0    0    0    0  0.00000000000E+00  0.00000000000E+00  0.39999999674E+01  0.40000000000E+01  0.51100000000E-03 0.  1.
    9000002   -1    0    0    0    0 -0.00000000000E+00 -0.00000000000E+00  0.00000000000E+00  0.93800000000E+00  0.93800000000E+00 0.  1.
         11    1    1    2    0    0  0.20105222868E-01  0.88452193121E-01  0.33215309752E+00  0.34431664463E+00  0.51100000000E-03 0.  1.
    9000002    1    1    2    0    0  0.27518172220E+00 -0.26886288889E+00  0.11082779093E+00  0.10198720667E+01  0.93800000000E+00 0.  1.
         22    1    1    2    0    0 -0.29528694507E+00  0.18041069577E+00  0.35570190789E+01  0.35738112886E+01  0.00000000000E+00 0.  1.
</event>
<event>
 5    1  0.2173147E+002  0.1599663E+01  0.7818608E-02  0.3353730E+00
         11   -1    0    0    0    0  0.00000000000E+00  0.00000000000E+00  0.39999999674E+01  0.40000000000E+01  0.51100000000E-03 0. -1.
    9000002   -1    0    0    0    0 -0.00000000000E+00 -0.00000000000E+00  0.00000000000E+00  0.93800000000E+00  0.93800000000E+00 0.  1.
         11    1    1    2    0    0  0.60745018691E-01 -0.19892021667E-01  0.80415431882E+00  0.80669082021E+00  0.51100000000E-03 0. -1.
    9000002    1    1    2    0    0 -0.28152006724E+00  0.10546944994E+00  0.60306586946E-01  0.98684255966E+00  0.93800000000E+00 0. -1.
         22    1    1    2    0    0  0.22077504855E+00 -0.85577428270E-01  0.31355390616E+01  0.31444666201E+01  0.00000000000E+00 0. -1.
</event>
<event>
 5    1  0.2173147E+002  0.1599660E+01  0.7818608E-02  0.3353733E+00
         11   -1    0    0    0    0  0.00000000000E+00  0.00000000000E+00  0.39999999674E+01  0.40000000000E+01  0.51100000000E-03 0. -1.
    9000002   -1    0    0    0    0 -0.00000000000E+00 -0.00000000000E+00  0.00000000000E+00  0.93800000000E+00  0.93800000000E+00 0. -1.
         11    1    1    2    0    0 -0.19811682535E+00 -0.49831971724E-01  0.19628005252E+01  0.19734030670E+01  0.51100000000E-03 0. -1.
    9000002    1    1    2    0    0  0.40195977362E+00  0.97643046915E-01  0.11563515975E+00  0.10316594954E+01  0.93800000000E+00 0. -1.
         22    1    1    2    0    0 -0.20384294826E+00 -0.47811075191E-01  0.19215642824E+01  0.19329374376E+01  0.00000000000E+00 0.  1.
</event>
<event>
 5    1  0.2173147E+002  0.1588728E+01  0.7818608E-02  0.3365689E+00
         11   -1    0    0    0    0  0.00000000000E+00  0.00000000000E+00  0.39999999674E+01  0.40000000000E+01  0.51100000000E-03 0. -1.
    9000002   -1    0    0    0    0 -0.00000000000E+00 -0.00000000000E+00  0.00000000000E+00  0.93800000000E+00  0.93800000000E+00 0.  1.
         11    1    1    2    0    0  0.24947769553E-01  0.29725218044E-01  0.12669747094E+00  0.13250845277E+00  0.51100000000E-03 0. -1.
    9000002    1    1    2    0    0  0.37331297391E-01  0.20115118625E+00  0.35980349146E-01  0.96072577306E+00  0.93800000000E+00 0.  1.
         22    1    1    2    0    0 -0.62279066943E-01 -0.23087640429E+00  0.38373221473E+01  0.38447657742E+01  0.00000000000E+00 0. -1.
</event>
<event>
 5    1  0.2173147E+002  0.1599673E+01  0.7818608E-02  0.3353718E+00
         11   -1    0    0    0    0  0.00000000000E+00  0.00000000000E+00  0.39999999674E+01  0.40000000000E+01  0.51100000000E-03 0. -1.
    9000002   -1    0    0    0    0 -0.00000000000E+00 -0.00000000000E+00  0.00000000000E+00  0.93800000000E+00  0.93800000000E+00 0.  1.
         11    1    1    2    0    0 -0.55518850455E-02  0.32496986464E-01  0.56366109775E+00  0.56462462910E+00  0.51100000000E-03 0. -1.
    9000002    1    1    2    0    0  0.48798003254E-01 -0.23408976933E+00  0.37955642974E-01  0.96874346246E+00  0.93800000000E+00 0.  1.
         22    1    1    2    0    0 -0.43246118209E-01  0.20159278286E+00  0.33983832266E+01  0.34046319084E+01  0.00000000000E+00 0. -1.
</event>
<event>
 5    1  0.2173147E+002  0.1599566E+01  0.7818608E-02  0.3353835E+00
         11   -1    0    0    0    0  0.00000000000E+00  0.00000000000E+00  0.39999999674E+01  0.40000000000E+01  0.51100000000E-03 0. -1.
    9000002   -1    0    0    0    0 -0.00000000000E+00 -0.00000000000E+00  0.00000000000E+00  0.93800000000E+00  0.93800000000E+00 0. -1.
         11    1    1    2    0    0  0.13356023359E-02  0.52867803893E-02  0.66868813389E-01  0.67092720958E-01  0.51100000000E-03 0. -1.
    9000002    1    1    2    0    0  0.77937548864E-01 -0.20426531631E+00  0.31764716478E-01  0.96366569835E+00  0.93800000000E+00 0. -1.
         22    1    1    2    0    0 -0.79273151200E-01  0.19897853592E+00  0.39013664375E+01  0.39072415807E+01  0.00000000000E+00 0. -1.
</event>
<event>
 5    1  0.2173147E+002  0.1598744E+01  0.7818608E-02  0.3354728E+00
         11   -1    0    0    0    0  0.00000000000E+00  0.00000000000E+00  0.39999999674E+01  0.40000000000E+01  0.51100000000E-03 0.  1.
    9000002   -1    0    0    0    0 -0.00000000000E+00 -0.00000000000E+00  0.00000000000E+00  0.93800000000E+00  0.93800000000E+00 0. -1.
         11    1    1    2    0    0  0.77367951703E-01  0.15673567951E-01  0.12998706279E+01  0.13022654765E+01  0.51100000000E-03 0.  1.
    9000002    1    1    2    0    0 -0.27246784798E+00 -0.14504151655E+00  0.64345518307E-01  0.98957572496E+00  0.93800000000E+00 0. -1.
         22    1    1    2    0    0  0.19509989627E+00  0.12936794860E+00  0.26357838211E+01  0.26461587986E+01  0.00000000000E+00 0.  1.
</event>
<event>
 5    1  0.2173147E+002  0.1599545E+01  0.7818608E-02  0.3353857E+00
         11   -1    0    0    0    0  0.00000000000E+00  0.00000000000E+00  0.39999999674E+01  0.40000000000E+01  0.51100000000E-03 0.  1.
    9000002   -1    0    0    0    0 -0.00000000000E+00 -0.00000000000E+00  0.00000000000E+00  0.93800000000E+00  0.93800000000E+00 0.  1.
         11    1    1    2    0    0 -0.88226412130E-01 -0.61855902759E-01  0.12105976378E+01  0.12153834597E+01  0.51100000000E-03 0.  1.
    9000002    1    1    2    0    0  0.27392711842E+00  0.23956211348E+00  0.89039224571E-01  0.10100485414E+01  0.93800000000E+00 0.  1.
         22    1    1    2    0    0 -0.18570070630E+00 -0.17770621072E+00  0.27003631050E+01  0.27125679989E+01  0.00000000000E+00 0.  1.
</event>
<event>
 5    1  0.2173147E+002  0.1576661E+01  0.7818608E-02  0.3379090E+00
         11   -1    0    0    0    0  0.00000000000E+00  0.00000000000E+00  0.39999999674E+01  0.40000000000E+01  0.51100000000E-03 0.  1.
    9000002   -1    0    0    0    0 -0.00000000000E+00 -0.00000000000E+00  0.00000000000E+00  0.93800000000E+00  0.93800000000E+00 0.  1.
         11    1    1    2    0    0 -0.14685735289E+00 -0.33879585642E+00  0.12662690239E+01  0.13190099379E+01  0.51100000000E-03 0.  1.
    9000002    1    1    2    0    0  0.47287574963E+00  0.47378542535E+00  0.34294648860E+00  0.12023062829E+01  0.93800000000E+00 0.  1.
         22    1    1    2    0    0 -0.32601839674E+00 -0.13498956894E+00  0.23907844549E+01  0.24166837791E+01  0.00000000000E+00 0.  1.
</event>
<event>
 5    1  0.2173147E+002  0.1599668E+01  0.7818608E-02  0.3353723E+00
         11   -1    0    0    0    0  0.00000000000E+00  0.00000000000E+00  0.39999999674E+01  0.40000000000E+01  0.51100000000E-03 0.  1.
    9000002   -1    0    0    0    0 -0.00000000000E+00 -0.00000000000E+00  0.00000000000E+00  0.93800000000E+00  0.93800000000E+00 0. -1.
         11    1    1    2    0    0 -0.79544812455E-02  0.10682940621E-03  0.54246478909E-01  0.54829068745E-01  0.51100000000E-03 0.  1.
    9000002    1    1    2    0    0  0.51470019340E+00  0.73192498147E-02  0.18185278083E+00  0.10853037798E+01  0.93800000000E+00 0. -1.
         22    1    1    2    0    0 -0.50674571215E+00 -0.74260792209E-02  0.37639007076E+01  0.37978671515E+01  0.00000000000E+00 0.  1.
</event>
<event>
 5    1  0.2173147E+002  0.1599665E+01  0.7818608E-02  0.3353727E+00
         11   -1    0    0    0    0  0.00000000000E+00  0.00000000000E+00  0.39999999674E+01  0.40000000000E+01  0.51100000000E-03 0.  1.
    9000002   -1    0    0    0    0 -0.00000000000E+00 -0.00000000000E+00  0.00000000000E+00  0.93800000000E+00  0.93800000000E+00 0. -1.
         11    1    1    2    0    0  0.36796339808E+00  0.12140164875E-01  0.11299760873E+01  0.11884404339E+01  0.51100000000E-03 0.  1.
    9000002    1    1    2    0    0 -0.10294573178E+01 -0.27630396423E-01  0.86861402610E+00  0.16416090077E+01  0.93800000000E+00 0. -1.
         22    1    1    2    0    0  0.66149391968E+00  0.15490231548E-01  0.20014098540E+01  0.21079505584E+01  0.00000000000E+00 0.  1.
</event>
<event>
 5    1  0.2173147E+002  0.1599675E+01  0.7818608E-02  0.3353716E+00
         11   -1    0    0    0    0  0.00000000000E+00  0.00000000000E+00  0.39999999674E+01  0.40000000000E+01  0.51100000000E-03 0.  1.
    9000002   -1    0    0    0    0 -0.00000000000E+00 -0.00000000000E+00  0.00000000000E+00  0.93800000000E+00  0.93800000000E+00 0. -1.
         11    1    1    2    0    0 -0.16824071139E+00 -0.19244442127E+00  0.21436537101E+01  0.21588402633E+01  0.51100000000E-03 0.  1.
    9000002    1    1    2    0    0  0.30366112565E+00  0.34340844828E+00  0.14290417665E+00  0.10537575837E+01  0.93800000000E+00 0. -1.
         22    1    1    2    0    0 -0.13542041426E+00 -0.15096402701E+00  0.17134420806E+01  0.17254021530E+01  0.00000000000E+00 0.  1.
</event>
<event>
 5    1  0.2173147E+002  0.1599674E+01  0.7818608E-02  0.3353717E+00
         11   -1    0    0    0    0  0.00000000000E+00  0.00000000000E+00  0.39999999674E+01  0.40000000000E+01  0.51100000000E-03 0.  1.
    9000002   -1    0    0    0    0 -0.00000000000E+00 -0.00000000000E+00  0.00000000000E+00  0.93800000000E+00  0.93800000000E+00 0.  1.
         11    1    1    2    0    0  0.54003413919E-01 -0.30822360447E-01  0.67498938866E+00  0.67784756586E+00  0.51100000000E-03 0.  1.
    9000002    1    1    2    0    0 -0.31397336115E+00  0.17052055037E+00  0.85666775654E-01  0.10073923397E+01  0.93800000000E+00 0.  1.
         22    1    1    2    0    0  0.25996994723E+00 -0.13969818992E+00  0.32393438030E+01  0.32527600945E+01  0.00000000000E+00 0.  1.
</event>
<event>
 5    1  0.2173147E+002  0.1597169E+01  0.7818608E-02  0.3356442E+00
         11   -1    0    0    0    0  0.00000000000E+00  0.00000000000E+00  0.39999999674E+01  0.40000000000E+01  0.51100000000E-03 0.  1.
    9000002   -1    0    0    0    0 -0.00000000000E+00 -0.00000000000E+00  0.00000000000E+00  0.93800000000E+00  0.93800000000E+00 0.  1.
         11    1    1    2    0    0  0.15353388583E+00  0.55428119982E-01  0.10945811305E+01  0.11066856116E+01  0.51100000000E-03 0.  1.
    9000002    1    1    2    0    0 -0.35741337522E+00 -0.15368274194E+00  0.10402978861E+00  0.10207981695E+01  0.93800000000E+00 0.  1.
         22    1    1    2    0    0  0.20387948939E+00  0.98254621959E-01  0.28013890483E+01  0.28105162189E+01  0.00000000000E+00 0.  1.
</event>
<event>
 5    1  0.2173147E+002  0.1590108E+01  0.7818608E-02  0.3364170E+00
         11   -1    0    0    0    0  0.00000000000E+00  0.00000000000E+00  0.39999999674E+01  0.40000000000E+01  0.51100000000E-03 0. -1.
    9000002   -1    0    0    0    0 -0.00000000000E+00 -0.00000000000E+00  0.00000000000E+00  0.93800000000E+00  0.93800000000E+00 0.  1.
         11    1    1    2    0    0  0.17904704812E+00  0.21712642360E+00  0.18054961904E+01  0.18272981376E+01  0.51100000000E-03 0. -1.
    9000002    1    1    2    0    0 -0.13230226781E+00 -0.43731345987E+00  0.15028031836E+00  0.10541229180E+01  0.93800000000E+00 0.  1.
         22    1    1    2    0    0 -0.46744780313E-01  0.22018703626E+00  0.20442234586E+01  0.20565789443E+01  0.00000000000E+00 0. -1.
</event>
<event>
 5    1  0.2173147E+002  0.1599486E+01  0.7818608E-02  0.3353921E+00
         11   -1    0    0    0    0  0.00000000000E+00  0.00000000000E+00  0.39999999674E+01  0.40000000000E+01  0.51100000000E-03 0. -1.
    9000002   -1    0    0    0    0 -0.00000000000E+00 -0.00000000000E+00  0.00000000000E+00  0.93800000000E+00  0.93800000000E+00 0. -1.
         11    1    1    2    0    0 -0.91072831445E-01 -0.12646618477E+00  0.15194316861E+01  0.15274033083E+01  0.51100000000E-03 0. -1.
    9000002    1    1    2    0    0  0.21507805993E+00  0.28859099275E+00  0.87111210155E-01  0.10084521287E+01  0.93800000000E+00 0. -1.
         22    1    1    2    0    0 -0.12400522848E+00 -0.16212480797E+00  0.23934570711E+01  0.24021445630E+01  0.00000000000E+00 0. -1.
</event>
<event>
 5    1  0.2173147E+002  0.1599512E+01  0.7818608E-02  0.3353893E+00
         11   -1    0    0    0    0  0.00000000000E+00  0.00000000000E+00  0.39999999674E+01  0.40000000000E+01  0.51100000000E-03 0.  1.
    9000002   -1    0    0    0    0 -0.00000000000E+00 -0.00000000000E+00  0.00000000000E+00  0.93800000000E+00  0.93800000000E+00 0.  1.
         11    1    1    2    0    0  0.26998384701E-01  0.21753883090E-01  0.48995545896E+00  0.49118098201E+00  0.51100000000E-03 0.  1.
    9000002    1    1    2    0    0 -0.17750908038E+00 -0.24661577457E+00  0.61745167961E-01  0.98791967267E+00  0.93800000000E+00 0.  1.
         22    1    1    2    0    0  0.15051069568E+00  0.22486189148E+00  0.34482993404E+01  0.34588993453E+01  0.00000000000E+00 0.  1.
</event>
<event>
 5    1  0.2173147E+002  0.1599649E+01  0.7818608E-02  0.3353744E+00
         11   -1    0    0    0    0  0.00000000000E+00  0.00000000000E+00  0.39999999674E+01  0.40000000000E+01  0.51100000000E-03 0.  1.
    9000002   -1    0    0    0    0 -0.00000000000E+00 -0.00000000000E+00  0.00000000000E+00  0.93800000000E+00  0.93800000000E+00 0. -1.
         11    1    1    2    0    0  0.64744795444E-01  0.44314922934E-02  0.98819191435E+00  0.99032067906E+00  0.51100000000E-03 0.  1.
    9000002    1    1    2    0    0 -0.27058358118E+00  0.93762681667E-03  0.48738557605E-01  0.97746396381E+00  0.93800000000E+00 0. -1.
         22    1    1    2    0    0  0.20583878574E+00 -0.53691191101E-02  0.29630694954E+01  0.29702153571E+01  0.00000000000E+00 0.  1.
</event>
<event>
 5    1  0.2449452E+002  0.1577523E+01  0.7818608E-02  0.3378126E+00
         11   -1    0    0    0    0  0.00000000000E+00  0.00000000000E+00  0.39999999674E+01  0.40000000000E+01  0.51100000000E-03 0.  1.
    9000002   -1    0    0    0    0 -0.00000000000E+00 -0.00000000000E+00  0.00000000000E+00  0.93800000000E+00  0.93800000000E+00 0.  1.
         11    1    1    2    0    0  0.10842401128E-01 -0.11950343444E+00  0.24144848889E+01  0.24174648226E+01  0.51100000000E-03 0.  1.
    9000002    1    1    2    0    0 -0.43977157207E-01 -0.90380791747E-01  0.23011942376E-01  0.94365047945E+00  0.93800000000E+00 0.  1.
         22    1    1    2    0    0  0.33134756079E-01  0.20988422618E+00  0.15625031361E+01  0.15768846980E+01  0.00000000000E+00 0.  1.
</event>
<event>
 5    1  0.2173147E+002  0.1599374E+01  0.7818608E-02  0.3354044E+00
         11   -1    0    0    0    0  0.00000000000E+00  0.00000000000E+00  0.39999999674E+01  0.40000000000E+01  0.51100000000E-03 0. -1.
    9000002   -1    0    0    0    0 -0.00000000000E+00 -0.00000000000E+00  0.00000000000E+00  0.93800000000E+00  0.93800000000E+00 0. -1.
         11    1    1    2    0    0  0.24416971386E+00  0.85418202452E-01  0.19386992082E+01  0.19558808756E+01  0.51100000000E-03 0. -1.
    9000002    1    1    2    0    0 -0.46675788567E+00 -0.13104177262E+00  0.16076215637E+00  0.10680465069E+01  0.93800000000E+00 0. -1.
         22    1    1    2    0    0  0.22258817180E+00  0.45623570167E-01  0.19005386028E+01  0.19140726175E+01  0.00000000000E+00 0. -1.
</event>
<event>
 5    1  0.2173147E+002  0.1599606E+01  0.7818608E-02  0.3353791E+00
         11   -1    0    0    0    0  0.00000000000E+00  0.00000000000E+00  0.39999999674E+01  0.40000000000E+01  0.51100000000E-03 0. -1.
    9000002   -1    0    0    0    0 -0.00000000000E+00 -0.00000000000E+00  0.00000000000E+00  0.93800000000E+00  0.93800000000E+00 0.  1.
         11    1    1    2    0    0  0.75117508397E-01  0.21920751473E+00  0.14679116258E+01  0.14860886168E+01  0.51100000000E-03 0. -1.
    9000002    1    1    2    0    0 -0.21654768024E+00 -0.56410475120E+00  0.25503794567E+00  0.11445503143E+01  0.93800000000E+00 0.  1.
         22    1    1    2    0    0  0.14143017184E+00  0.34489723647E+00  0.22770503959E+01  0.23073610689E+01  0.00000000000E+00 0. -1.
</event>
<event>
 5    1  0.2173147E+002  0.1599238E+01  0.7818608E-02  0.3354191E+00
         11   -1    0    0    0    0  0.00000000000E+00  0.00000000000E+00  0.39999999674E+01  0.40000000000E+01  0.51100000000E-03 0. -1.
    9000002   -1    0    0    0    0 -0.00000000000E+00 -0.00000000000E+00  0.00000000000E+00  0.93800000000E+00  0.93800000000E+00 0.  1.
         11    1    1    2    0    0 -0.73144958978E-02 -0.26859763424E-01  0.81367030089E+00  0.81414652761E+00  0.51100000000E-03 0. -1.
    9000002    1    1    2    0    0  0.23104157870E-01  0.22935990166E+00  0.35582384937E-01  0.96656602088E+00  0.93800000000E+00 0.  1.
         22    1    1    2    0    0 -0.15789661972E-01 -0.20250013823E+00  0.31507472815E+01  0.31572874515E+01  0.00000000000E+00 0. -1.
</event>
<event>
 5    1  0.2173147E+002  0.1575449E+01  0.7818608E-02  0.3380449E+00
         11   -1    0    0    0    0  0.00000000000E+00  0.00000000000E+00  0.39999999674E+01  0.40000000000E+01  0.51100000000E-03 0.  1.
    9000002   -1    0    0    0    0 -0.00000000000E+00 -0.00000000000E+00  0.00000000000E+00  0.93800000000E+00  0.93800000000E+00 0. -1.
         11    1    1    2    0    0 -0.55060656779E-01  0.17909367459E-01  0.11667191092E+00  0.13024982643E+00  0.51100000000E-03 0.  1.
    9000002    1    1    2    0    0 -0.25543356535E+00 -0.43682790821E-01  0.63468937230E-01  0.97520602875E+00  0.93800000000E+00 0. -1.
         22    1    1    2    0    0  0.31049422213E+00  0.25773423362E-01  0.38198591192E+01  0.38325441448E+01  0.00000000000E+00 0.  1.
</event>
<event>
 5    1  0.2173147E+002  0.1538926E+01  0.7818608E-02  0.3422441E+00
         11   -1    0    0    0    0  0.00000000000E+00  0.00000000000E+00  0.39999999674E+01  0.40000000000E+01  0.51100000000E-03 0. -1.
    9000002   -1    0    0    0    0 -0.00000000000E+00 -0.00000000000E+00  0.00000000000E+00  0.93800000000E+00  0.93800000000E+00 0. -1.
         11    1    1    2    0    0 -0.68945013490E-01  0.29638369053E+00  0.93574676670E+00  0.98398118854E+00  0.51100000000E-03 0. -1.
    9000002    1    1    2    0    0  0.67630104813E+00 -0.22259924025E+00  0.43638785210E+00  0.12558709675E+01  0.93800000000E+00 0. -1.
         22    1    1    2    0    0 -0.60735603464E+00 -0.73784450281E-01  0.26278653486E+01  0.26981478440E+01  0.00000000000E+00 0. -1.
</event>
<event>
 5    1  0.2173147E+002  0.1599676E+01  0.7818608E-02  0.3353715E+00
         11   -1    0    0    0    0  0.00000000000E+00  0.00000000000E+00  0.39999999674E+01  0.40000000000E+01  0.51100000000E-03 0.  1.
    9000002   -1    0    0    0    0 -0.00000000000E+00 -0.00000000000E+00  0.00000000000E+00  0.93800000000E+00  0.93800000000E+00 0. -1.
         11    1    1    2    0    0 -0.39378828676E-01 -0.13226837388E-01  0.57998500500E+00  0.58147098683E+00  0.51100000000E-03 0.  1.
    9000002    1    1    2    0    0  0.27006420277E+00  0.94359497682E-01  0.54527115091E-01  0.98216882189E+00  0.93800000000E+00 0. -1.
         22    1    1    2    0    0 -0.23068537409E+00 -0.81132660294E-01  0.33654878473E+01  0.33743601913E+01  0.00000000000E+00 0.  1.
</event>
<event>
 5    1  0.2173147E+002  0.1548371E+01  0.7818608E-02  0.3411380E+00
         11   -1    0    0    0    0  0.00000000000E+00  0.00000000000E+00  0.39999999674E+01  0.40000000000E+01  0.51100000000E-03 0.  1.
    9000002   -1    0    0    0    0 -0.00000000000E+00 -0.00000000000E+00  0.00000000000E+00  0.93800000000E+00  0.93800000000E+00 0. -1.
         11    1    1    2    0    0 -0.10482603236E+00  0.15759382038E+00  0.27586361512E+01  0.27651216944E+01  0.51100000000E-03 0.  1.
    9000002    1    1    2    0    0 -0.98452482259E-01  0.34465699151E-01  0.45638705672E-01  0.94488500207E+00  0.93800000000E+00 0. -1.
         22    1    1    2    0    0  0.20327851462E+00 -0.19205951953E+00  0.11957251105E+01  0.12279933035E+01  0.00000000000E+00 0.  1.
</event>
<event>
 5    1  0.2173147E+002  0.1599614E+01  0.7818608E-02  0.3353782E+00
         11   -1    0    0    0    0  0.00000000000E+00  0.00000000000E+00  0.39999999674E+01  0.40000000000E+01  0.51100000000E-03 0.  1.
    9000002   -1    0    0    0    0 -0.00000000000E+00 -0.00000000000E+00  0.00000000000E+00  0.93800000000E+00  0.93800000000E+00 0. -1.
         11    1    1    2    0    0  0.12478615897E+00  0.38363101865E-01  0.10830768047E+01  0.10909165591E+01  0.51100000000E-03 0.  1.
    9000002    1    1    2    0    0 -0.42584863933E+00 -0.16076025854E+00  0.14088354931E+00  0.10520851196E+01  0.93800000000E+00 0. -1.
         22    1    1    2    0    0  0.30106248036E+00  0.12239715667E+00  0.27760396134E+01  0.27949983213E+01  0.00000000000E+00 0.  1.
</event>
<event>
 5    1  0.2173147E+002  0.1599675E+01  0.7818608E-02  0.3353716E+00
         11   -1    0    0    0    0  0.00000000000E+00  0.00000000000E+00  0.39999999674E+01  0.40000000000E+01  0.51100000000E-03 0.  1.
    9000002   -1    0    0    0    0 -0.00000000000E+00 -0.00000000000E+00  0.00000000000E+00  0.93800000000E+00  0.93800000000E+00 0. -1.
         11    1    1    2    0    0 -0.38967419490E-02  0.10610652040E-01  0.15727606881E+00  0.15768257188E+00  0.51100000000E-03 0.  1.
    9000002    1    1    2    0    0  0.85475306290E-01 -0.26178490930E+00  0.50483095251E-01  0.97889218489E+00  0.93800000000E+00 0. -1.
         22    1    1    2    0    0 -0.81578564341E-01  0.25117425726E+00  0.37922408033E+01  0.38014252432E+01  0.00000000000E+00 0.  1.
</event>
<event>
 5    1  0.2173147E+002  0.1546959E+01  0.7818608E-02  0.3413024E+00
         11   -1    0    0    0    0  0.00000000000E+00  0.00000000000E+00  0.39999999674E+01  0.40000000000E+01  0.51100000000E-03 0. -1.
    9000002   -1    0    0    0    0 -0.00000000000E+00 -0.00000000000E+00  0.00000000000E+00  0.93800000000E+00  0.93800000000E+00 0. -1.
         11    1    1    2    0    0 -0.14770765831E+00 -0.25053854997E+00  0.14042621143E+01  0.14340639679E+01  0.51100000000E-03 0. -1.
    9000002    1    1    2    0    0  0.14669490766E-01  0.76873561128E-01  0.43420278904E-01  0.94226008033E+00  0.93800000000E+00 0. -1.
         22    1    1    2    0    0  0.13303816755E+00  0.17366498884E+00  0.25523175742E+01  0.25616759517E+01  0.00000000000E+00 0. -1.
</event>
<event>
 5    1  0.2173147E+002  0.1599606E+01  0.7818608E-02  0.3353791E+00
         11   -1    0    0    0    0  0.00000000000E+00  0.00000000000E+00  0.39999999674E+01  0.40000000000E+01  0.51100000000E-03 0.  1.
    9000002   -1    0    0    0    0 -0.00000000000E+00 -0.00000000000E+00  0.00000000000E+00  0.93800000000E+00  0.93800000000E+00 0. -1.
         11    1    1    2    0    0  0.14061855159E+00  0.12619015054E-01  0.11689425722E+01  0.11774378178E+01  0.51100000000E-03 0.  1.
    9000002    1    1    2    0    0 -0.44109517260E+00 -0.61367186352E-01  0.13467253935E+00  0.10470489844E+01  0.93800000000E+00 0. -1.
         22    1    1    2    0    0  0.30047662102E+00  0.48748171298E-01  0.26963848558E+01  0.27135131978E+01  0.00000000000E+00 0.  1.
</event>
<event>
 5    1  0.2173147E+002  0.1596887E+01  0.7818608E-02  0.3356749E+00
         11   -1    0    0    0    0  0.00000000000E+00  0.00000000000E+00  0.39999999674E+01  0.40000000000E+01  0.51100000000E-03 0.  1.
    9000002   -1    0    0    0    0 -0.00000000000E+00 -0.00000000000E+00  0.00000000000E+00  0.93800000000E+00  0.93800000000E+00 0.  1.
         11    1    1    2    0    0 -0.24017648840E+00  0.25838582692E+00  0.20754531395E+01  0.21052206479E+01  0.51100000000E-03 0.  1.
    9000002    1    1    2    0    0  0.32971021245E+00 -0.51408013913E+00  0.26364896784E+00  0.11499312988E+01  0.93800000000E+00 0.  1.
         22    1    1    2    0    0 -0.89533724052E-01  0.25569431222E+00  0.16608978601E+01  0.16828480533E+01  0.00000000000E+00 0.  1.
</event>
<event>
 5    1  0.2173147E+002  0.1553991E+01  0.7818608E-02  0.3404866E+00
         11   -1    0    0    0    0  0.00000000000E+00  0.00000000000E+00  0.39999999674E+01  0.40000000000E+01  0.51100000000E-03 0.  1.
    9000002   -1    0    0    0    0 -0.00000000000E+00 -0.00000000000E+00  0.00000000000E+00  0.93800000000E+00  0.93800000000E+00 0.  1.
         11    1    1    2    0    0  0.21093790828E-01 -0.30191910194E+00  0.26107126707E+01  0.26281972914E+01  0.51100000000E-03 0.  1.
    9000002    1    1    2    0    0  0.15081741035E+00  0.13715968721E+00  0.62621967650E-01  0.96193772246E+00  0.93800000000E+00 0.  1.
         22    1    1    2    0    0 -0.17191120118E+00  0.16475941473E+00  0.13266653290E+01  0.13478649862E+01  0.00000000000E+00 0. -1.
</event>
<event>
 5    1  0.2173147E+002  0.1599668E+01  0.7818608E-02  0.3353724E+00
         11   -1    0    0    0    0  0.00000000000E+00  0.00000000000E+00  0.39999999674E+01  0.40000000000E+01  0.51100000000E-03 0.  1.
    9000002   -1    0    0    0    0 -0.00000000000E+00 -0.00000000000E+00  0.00000000000E+00  0.93800000000E+00  0.93800000000E+00 0. -1.
         11    1    1    2    0    0  0.48737371096E+00 -0.15455431857E+00  0.24798362343E+01  0.25319968763E+01  0.51100000000E-03 0.  1.
    9000002    1    1    2    0    0 -0.71157801705E+00  0.22236461127E+00  0.40237792438E+00  0.12639387994E+01  0.93800000000E+00 0. -1.
         22    1    1    2    0    0  0.22420430609E+00 -0.67810292700E-01  0.11177858087E+01  0.11420643243E+01  0.00000000000E+00 0.  1.
</event>
<event>
 5    1  0.2173147E+002  0.1595338E+01  0.7818608E-02  0.3358439E+00
         11   -1    0    0    0    0  0.00000000000E+00  0.00000000000E+00  0.39999999674E+01  0.40000000000E+01  0.51100000000E-03 0.  1.
    9000002   -1    0    0    0    0 -0.00000000000E+00 -0.00000000000E+00  0.00000000000E+00  0.93800000000E+00  0.93800000000E+00 0.  1.
         11    1    1    2    0    0  0.90536209595E-02  0.27928590104E-01  0.39817821348E+00  0.39925947078E+00  0.51100000000E-03 0.  1.
    9000002    1    1    2    0    0  0.21476165862E+00  0.85328790498E-01  0.38722945441E-01  0.96682316843E+00  0.93800000000E+00 0.  1.
         22    1    1    2    0    0 -0.22381527958E+00 -0.11325738060E+00  0.35630988084E+01  0.35719173608E+01  0.00000000000E+00 0.  1.
</event>
<event>
 5    1  0.2173147E+002  0.1559437E+01  0.7818608E-02  0.3398601E+00
         11   -1    0    0    0    0  0.00000000000E+00  0.00000000000E+00  0.39999999674E+01  0.40000000000E+01  0.51100000000E-03 0.  1.
    9000002   -1    0    0    0    0 -0.00000000000E+00 -0.00000000000E+00  0.00000000000E+00  0.93800000000E+00  0.93800000000E+00 0. -1.
         11    1    1    2    0    0  0.11042531528E+00 -0.31417087911E-01  0.25790741474E+00  0.28230706573E+00  0.51100000000E-03 0.  1.
    9000002    1    1    2    0    0  0.12029666045E+00  0.73032659416E-01  0.43308795661E-01  0.94948654948E+00  0.93800000000E+00 0. -1.
         22    1    1    2    0    0 -0.23072197573E+00 -0.41615571505E-01  0.36987837570E+01  0.37062063848E+01  0.00000000000E+00 0.  1.
</event>
<event>
 5    1  0.2173147E+002  0.1599676E+01  0.7818608E-02  0.3353715E+00
         11   -1    0    0    0    0  0.00000000000E+00  0.00000000000E+00  0.39999999674E+01  0.40000000000E+01  0.51100000000E-03 0. -1.
    9000002   -1    0    0    0    0 -0.00000000000E+00 -0.00000000000E+00  0.00000000000E+00  0.93800000000E+00  0.93800000000E+00 0.  1.
         11    1    1    2    0    0 -0.35996780610E-02  0.19282185316E-01  0.25291699570E+00  0.25367701549E+00  0.51100000000E-03 0. -1.
    9000002    1    1    2    0    0  0.58459698923E-01 -0.30727233261E+00  0.65346643402E-01  0.99093289712E+00  0.93800000000E+00 0.  1.
         22    1    1    2    0    0 -0.54860020862E-01  0.28799014730E+00  0.36817363283E+01  0.36933900874E+01  0.00000000000E+00 0. -1.
</event>
<event>
 5    1  0.2173147E+002  0.1599663E+01  0.7818608E-02  0.3353730E+00
         11   -1    0    0    0    0  0.00000000000E+00  0.00000000000E+00  0.39999999674E+01  0.40000000000E+01  0.51100000000E-03 0. -1.
    9000002   -1    0    0    0    0 -0.00000000000E+00 -0.00000000000E+00  0.00000000000E+00  0.93800000000E+00  0.93800000000E+00 0. -1.
         11    1    1    2    0    0  0.42355769271E-03  0.13376540816E-01  0.18387206678E+00  0.18435918558E+00  0.51100000000E-03 0.  1.
    9000002    1    1    2    0    0 -0.43245427098E-01 -0.30711979476E+00  0.64244404583E-01  0.99003236251E+00  0.93800000000E+00 0. -1.
         22    1    1    2    0    0  0.42821869405E-01  0.29374325395E+00  0.37518834960E+01  0.37636084519E+01  0.00000000000E+00 0. -1.
</event>
<event>
 5    1  0.2173147E+002  0.1598502E+01  0.7818608E-02  0.3354991E+00
         11   -1    0    0    0    0  0.00000000000E+00  0.00000000000E+00  0.39999999674E+01  0.40000000000E+01  0.51100000000E-03 0. -1.
    9000002   -1    0    0    0    0 -0.00000000000E+00 -0.00000000000E+00  0.00000000000E+00  0.93800000000E+00  0.93800000000E+00 0. -1.
         11    1    1    2    0    0 -0.17034937129E-01 -0.10092685916E-01  0.20777309377E+00  0.20871504739E+00  0.51100000000E-03 0. -1.
    9000002    1    1    2    0    0  0.21014635619E+00 -0.13902684198E+00  0.43081296476E-01  0.97220880058E+00  0.93800000000E+00 0. -1.
         22    1    1    2    0    0 -0.19311141907E+00  0.14911952789E+00  0.37491455771E+01  0.37570761520E+01  0.00000000000E+00 0. -1.
</event>
<event>
 5    1  0.2173147E+002  0.1541939E+01  0.7818608E-02  0.3418897E+00
         11   -1    0    0    0    0  0.00000000000E+00  0.00000000000E+00  0.39999999674E+01  0.40000000000E+01  0.51100000000E-03 0. -1.
    9000002   -1    0    0    0    0 -0.00000000000E+00 -0.00000000000E+00  0.00000000000E+00  0.93800000000E+00  0.93800000000E+00 0. -1.
         11    1    1    2    0    0  0.36537790249E+00 -0.78561134800E-01  0.27443916972E+01  0.27697218113E+01  0.51100000000E-03 0. -1.
    9000002    1    1    2    0    0 -0.15218408516E+00  0.19334200292E+00  0.85629695230E-01  0.97350786878E+00  0.93800000000E+00 0. -1.
         22    1    1    2    0    0 -0.21319381733E+00 -0.11478086812E+00  0.11699785750E+01  0.11947703199E+01  0.00000000000E+00 0. -1.
</event>
<event>
 5    1  0.2173147E+002  0.1575028E+01  0.7818608E-02  0.3380922E+00
         11   -1    0    0    0    0  0.00000000000E+00  0.00000000000E+00  0.39999999674E+01  0.40000000000E+01  0.51100000000E-03 0.  1.
    9000002   -1    0    0    0    0 -0.00000000000E+00 -0.00000000000E+00  0.00000000000E+00  0.93800000000E+00  0.93800000000E+00 0.  1.
         11    1    1    2    0    0  0.69450886309E-03 -0.11166812467E+00  0.47323284912E+00  0.48623023664E+00  0.51100000000E-03 0.  1.
    9000002    1    1    2    0    0 -0.26953641574E+00 -0.62375241750E-01  0.70273256808E-01  0.98047074450E+00  0.93800000000E+00 0.  1.
         22    1    1    2    0    0  0.26884190687E+00  0.17404336642E+00  0.34564938614E+01  0.34712990189E+01  0.00000000000E+00 0. -1.
</event>
<event>
 5    1  0.2173147E+002  0.1599651E+01  0.7818608E-02  0.3353742E+00
         11   -1    0    0    0    0  0.00000000000E+00  0.00000000000E+00  0.39999999674E+01  0.40000000000E+01  0.51100000000E-03 0. -1.
    9000002   -1    0    0    0    0 -0.00000000000E+00 -0.00000000000E+00  0.00000000000E+00  0.93800000000E+00  0.93800000000E+00 0. -1.
         11    1    1    2    0    0 -0.23454168872E+00  0.18628053321E+00  0.18304086577E+01  0.18547523706E+01  0.51100000000E-03 0. -1.
    9000002    1    1    2    0    0  0.46738137371E+00 -0.38333151663E+00  0.25520227364E+00  0.11447098325E+01  0.93800000000E+00 0. -1.
         22    1    1    2    0    0 -0.23283968499E+00  0.19705098342E+00  0.19143890360E+01  0.19385377969E+01  0.00000000000E+00 0. -1.
</event>
<event>
 5    1  0.2173147E+002  0.1593696E+01  0.7818608E-02  0.3360234E+00
         11   -1    0    0    0    0  0.00000000000E+00  0.00000000000E+00  0.39999999674E+01  0.40000000000E+01  0.51100000000E-03 0.  1.
    9000002   -1    0    0    0    0 -0.00000000000E+00 -0.00000000000E+00  0.00000000000E+00  0.93800000000E+00  0.93800000000E+00 0. -1.
         11    1    1    2    0    0 -0.27226546775E-01  0.20015833491E-01  0.99059981591E-01  0.10466642018E+00  0.51100000000E-03 0.  1.
    9000002    1    1    2    0    0  0.28709929293E+00  0.71971873085E-01  0.63107257433E-01  0.98561274366E+00  0.93800000000E+00 0. -1.
         22    1    1    2    0    0 -0.25987274616E+00 -0.91987706575E-01  0.38378327283E+01  0.38477208362E+01  0.00000000000E+00 0.  1.
</event>
<event>
 5    1  0.2173147E+002  0.1599666E+01  0.7818608E-02  0.3353726E+00
         11   -1    0    0    0    0  0.00000000000E+00  0.00000000000E+00  0.39999999674E+01  0.40000000000E+01  0.51100000000E-03 0. -1.
    9000002   -1    0    0    0    0 -0.00000000000E+00 -0.00000000000E+00  0.00000000000E+00  0.93800000000E+00  0.93800000000E+00 0.  1.
         11    1    1    2    0    0 -0.10623046553E-01 -0.16744478063E-02  0.11704540923E+00  0.11753953308E+00  0.51100000000E-03 0. -1.
    9000002    1    1    2    0    0  0.38909965692E+00  0.33393191168E-01  0.10275908154E+00  0.10212331159E+01  0.93800000000E+00 0.  1.
         22    1    1    2    0    0 -0.37847661037E+00 -0.31718743362E-01  0.37801954766E+01  0.37992273510E+01  0.00000000000E+00 0. -1.
</event>
<event>
 5    1  0.2173147E+002  0.1579692E+01  0.7818608E-02  0.3375704E+00
         11   -1    0    0    0    0  0.00000000000E+00  0.00000000000E+00  0.39999999674E+01  0.40000000000E+01  0.51100000000E-03 0.  1.
    9000002   -1    0    0    0    0 -0.00000000000E+00 -0.00000000000E+00  0.00000000000E+00  0.93800000000E+00  0.93800000000E+00 0. -1.
         11    1    1    2    0    0  0.89162763090E-01 -0.85712668038E-01  0.94660360773E+00  0.95464931314E+00  0.51100000000E-03 0.  1.
    9000002    1    1    2    0    0  0.14182401934E+00  0.37199743393E-01  0.29077200722E-01  0.94983543679E+00  0.93800000000E+00 0. -1.
         22    1    1    2    0    0 -0.23098678243E+00  0.48512924645E-01  0.30243191589E+01  0.30335152501E+01  0.00000000000E+00 0.  1.
</event>
<event>
 5    1  0.2173147E+002  0.1550724E+01  0.7818608E-02  0.3408646E+00
         11   -1    0    0    0    0  0.00000000000E+00  0.00000000000E+00  0.39999999674E+01  0.40000000000E+01  0.51100000000E-03 0.  1.
    9000002   -1    0    0    0    0 -0.00000000000E+00 -0.00000000000E+00  0.00000000000E+00  0.93800000000E+00  0.93800000000E+00 0.  1.
         11    1    1    2    0    0 -0.29676613131E+00  0.20868729781E-01  0.30429283853E+01  0.30574366812E+01  0.51100000000E-03 0.  1.
    9000002    1    1    2    0    0  0.93542927500E-01 -0.24293977373E-01  0.42762338324E-01  0.94393489934E+00  0.93800000000E+00 0.  1.
         22    1    1    2    0    0  0.20322320381E+00  0.34252475918E-02  0.91430924373E+00  0.93662841941E+00  0.00000000000E+00 0. -1.
</event>
<event>
 5    1  0.2173147E+002  0.1599671E+01  0.7818608E-02  0.3353721E+00
         11   -1    0    0    0    0  0.00000000000E+00  0.00000000000E+00  0.39999999674E+01  0.40000000000E+01  0.51100000000E-03 0.  1.
    9000002   -1    0    0    0    0 -0.00000000000E+00 -0.00000000000E+00  0.00000000000E+00  0.93800000000E+00  0.93800000000E+00 0.  1.
         11    1    1    2    0    0  0.44443783071E-02 -0.26665989934E+00  0.11331618882E+01  0.11641234387E+01  0.51100000000E-03 0.  1.
    9000002    1    1    2    0    0 -0.77764132288E-02  0.82769148315E+00  0.50961917902E+00  0.13508106350E+01  0.93800000000E+00 0.  1.
         22    1    1    2    0    0  0.33320349217E-02 -0.56103158382E+00  0.23572189001E+01  0.24230659264E+01  0.00000000000E+00 0.  1.
</event>
<event>
 5    1  0.2173147E+002  0.1580871E+01  0.7818608E-02  0.3374391E+00
         11   -1    0    0    0    0  0.00000000000E+00  0.00000000000E+00  0.39999999674E+01  0.40000000000E+01  0.51100000000E-03 0.  1.
    9000002   -1    0    0    0    0 -0.00000000000E+00 -0.00000000000E+00  0.00000000000E+00  0.93800000000E+00  0.93800000000E+00 0. -1.
         11    1    1    2    0    0  0.21191002599E+00  0.28727064860E-01  0.22135779151E+01  0.22238836639E+01  0.51100000000E-03 0.  1.
    9000002    1    1    2    0    0 -0.21060251345E+00  0.18789216002E+00  0.67787866086E-01  0.98188394286E+00  0.93800000000E+00 0. -1.
         22    1    1    2    0    0 -0.13075125344E-02 -0.21661922488E+00  0.17186341862E+01  0.17322323932E+01  0.00000000000E+00 0.  1.
</event>
<event>
 5    1  0.2173147E+002  0.1574435E+01  0.7818608E-02  0.3381587E+00
         11   -1    0    0    0    0  0.00000000000E+00  0.00000000000E+00  0.39999999674E+01  0.40000000000E+01  0.51100000000E-03 0. -1.
    9000002   -1    0    0    0    0 -0.00000000000E+00 -0.00000000000E+00  0.00000000000E+00  0.93800000000E+00  0.93800000000E+00 0.  1.
         11    1    1    2    0    0 -0.28961715483E-02 -0.41231810002E-01  0.39196190439E-01  0.56965361683E-01  0.51100000000E-03 0. -1.
    9000002    1    1    2    0    0  0.24726190077E+00 -0.56187816436E-01  0.62298419914E-01  0.97366350009E+00  0.93800000000E+00 0.  1.
         22    1    1    2    0    0 -0.24436572922E+00  0.97419626438E-01  0.38985053570E+01  0.39073711382E+01  0.00000000000E+00 0. -1.
</event>
<event>
 5    1  0.2173147E+002  0.1599511E+01  0.7818608E-02  0.3353895E+00
         11   -1    0    0    0    0  0.00000000000E+00  0.00000000000E+00  0.39999999674E+01  0.40000000000E+01  0.51100000000E-03 0.  1.
    9000002   -1    0    0    0    0 -0.00000000000E+00 -0.00000000000E+00  0.00000000000E+00  0.93800000000E+00  0.93800000000E+00 0. -1.
         11    1    1    2    0    0 -0.18801739707E-01  0.15506772375E-01  0.36300163193E+00  0.36381920140E+00  0.51100000000E-03 0.  1.
    9000002    1    1    2    0    0  0.13812694832E+00 -0.24001726019E+00  0.51182554053E-01  0.97936254415E+00  0.93800000000E+00 0. -1.
         22    1    1    2    0    0 -0.11932520861E+00  0.22451048781E+00  0.35858157814E+01  0.35948182544E+01  0.00000000000E+00 0.  1.
</event>
<event>
 5    1  0.2173147E+002  0.1592219E+01  0.7818608E-02  0.3361852E+00
         11   -1    0    0    0    0  0.00000000000E+00  0.00000000000E+00  0.39999999674E+01  0.40000000000E+01  0.51100000000E-03 0.  1.
    9000002   -1    0    0    0    0 -0.00000000000E+00 -0.00000000000E+00  0.00000000000E+00  0.93800000000E+00  0.93800000000E+00 0. -1.
         11    1    1    2    0    0 -0.42321749154E-01  0.60139886357E-01  0.18130354171E+01  0.18145262801E+01  0.51100000000E-03 0.  1.
    9000002    1    1    2    0    0  0.25415465519E+00  0.26478102177E-01  0.49129198924E-01  0.97342352388E+00  0.93800000000E+00 0. -1.
         22    1    1    2    0    0 -0.21183290603E+00 -0.86617988534E-01  0.21378353514E+01  0.21500501961E+01  0.00000000000E+00 0.  1.
</event>
<event>
 5    1  0.2173147E+002  0.1598901E+01  0.7818608E-02  0.3354557E+00
         11   -1    0    0    0    0  0.00000000000E+00  0.00000000000E+00  0.39999999674E+01  0.40000000000E+01  0.51100000000E-03 0. -1.
    9000002   -1    0    0    0    0 -0.00000000000E+00 -0.00000000000E+00  0.00000000000E+00  0.93800000000E+00  0.93800000000E+00 0.  1.
         11    1    1    2    0    0  0.28156882288E-01  0.48866929462E-01  0.48547992282E+00  0.48874513133E+00  0.51100000000E-03 0. -1.
    9000002    1    1    2    0    0 -0.15898515907E+00 -0.23180519568E+00  0.53220414669E-01  0.98065607737E+00  0.93800000000E+00 0.  1.
         22    1    1    2    0    0  0.13082827678E+00  0.18293826622E+00  0.34612996299E+01  0.34685987913E+01  0.00000000000E+00 0. -1.
</event>
<event>
 5    1  0.2173147E+002  0.1599677E+01  0.7818608E-02  0.3353714E+00
         11   -1    0    0    0    0  0.00000000000E+00  0.00000000000E+00  0.39999999674E+01  0.40000000000E+01  0.51100000000E-03 0. -1.
    9000002   -1    0    0    0    0 -0.00000000000E+00 -0.00000000000E+00  0.00000000000E+00  0.93800000000E+00  0.93800000000E+00 0. -1.
         11    1    1    2    0    0  0.13498117428E+00  0.55452257759E-01  0.99920932711E+00  0.10098090962E+01  0.51100000000E-03 0.  1.
    9000002    1    1    2    0    0 -0.51026639395E+00 -0.21158716952E+00  0.21085755417E+00  0.11088037839E+01  0.93800000000E+00 0. -1.
         22    1    1    2    0    0  0.37528521967E+00  0.15613491176E+00  0.27899330861E+01  0.28193871199E+01  0.00000000000E+00 0. -1.
</event>
<event>
 5    1  0.2173147E+002  0.1585831E+01  0.7818608E-02  0.3368887E+00
         11   -1    0    0    0    0  0.00000000000E+00  0.00000000000E+00  0.39999999674E+01  0.40000000000E+01  0.51100000000E-03 0.  1.
    9000002   -1    0    0    0    0 -0.00000000000E+00 -0.00000000000E+00  0.00000000000E+00  0.93800000000E+00  0.93800000000E+00 0.  1.
         11    1    1    2    0    0  0.15301600984E-01 -0.36514794709E-01  0.94946699678E-01  0.10287179461E+00  0.51100000000E-03 0.  1.
    9000002    1    1    2    0    0 -0.24131451050E-01 -0.20477049904E+00  0.38627371195E-01  0.96117082666E+00  0.93800000000E+00 0.  1.
         22    1    1    2    0    0  0.88298500659E-02  0.24128529375E+00  0.38664258965E+01  0.38739573787E+01  0.00000000000E+00 0.  1.
</event>
<event>
 5    1  0.2173147E+002  0.1599677E+01  0.7818608E-02  0.3353714E+00
         11   -1    0    0    0    0  0.00000000000E+00  0.00000000000E+00  0.39999999674E+01  0.40000000000E+01  0.51100000000E-03 0. -1.
    9000002   -1    0    0    0    0 -0.00000000000E+00 -0.00000000000E+00  0.00000000000E+00  0.93800000000E+00  0.93800000000E+00 0. -1.
         11    1    1    2    0    0  0.53063053709E-01 -0.16163553741E+00  0.12246337769E+01  0.12363939029E+01  0.51100000000E-03 0. -1.
    9000002    1    1    2    0    0 -0.16572527641E+00  0.50306898091E+00  0.19304291713E+00  0.10943732611E+01  0.93800000000E+00 0. -1.
         22    1    1    2    0    0  0.11266222270E+00 -0.34143344349E+00  0.25823232734E+01  0.26072328360E+01  0.00000000000E+00 0.  1.
</event>
<event>
 5    1  0.2173147E+002  0.1599675E+01  0.7818608E-02  0.3353716E+00
         11   -1    0    0    0    0  0.00000000000E+00  0.00000000000E+00  0.39999999674E+01  0.40000000000E+01  0.51100000000E-03 0.  1.
    9000002   -1    0    0    0    0 -0.00000000000E+00 -0.00000000000E+00  0.00000000000E+00  0.93800000000E+00  0.93800000000E+00 0. -1.
         11    1    1    2    0    0 -0.44323559747E-02  0.14865188715E+00  0.10592075779E+01  0.10695971127E+01  0.51100000000E-03 0.  1.
    9000002    1    1    2    0    0  0.19955567661E-01 -0.53147809303E+00  0.19472059299E+00  0.10957313984E+01  0.93800000000E+00 0. -1.
         22    1    1    2    0    0 -0.15523211686E-01  0.38282620589E+00  0.27460717965E+01  0.27726714889E+01  0.00000000000E+00 0.  1.
</event>
<event>
 5    1  0.2173147E+002  0.1597613E+01  0.7818608E-02  0.3355958E+00
         11   -1    0    0    0    0  0.00000000000E+00  0.00000000000E+00  0.39999999674E+01  0.40000000000E+01  0.51100000000E-03 0. -1.
    9000002   -1    0    0    0    0 -0.00000000000E+00 -0.00000000000E+00  0.00000000000E+00  0.93800000000E+00  0.93800000000E+00 0. -1.
         11    1    1    2    0    0 -0.32780267849E-01 -0.45551073162E-01  0.10534771678E+01  0.10549710187E+01  0.51100000000E-03 0. -1.
    9000002    1    1    2    0    0 -0.30371760446E-01  0.26773338688E+00  0.49897745022E-01  0.97720898238E+00  0.93800000000E+00 0. -1.
         22    1    1    2    0    0  0.63152028295E-01 -0.22218231372E+00  0.28966250546E+01  0.29058199989E+01  0.00000000000E+00 0. -1.
</event>
<event>
 5    1  0.2173147E+002  0.1591998E+01  0.7818608E-02  0.3362095E+00
         11   -1    0    0    0    0  0.00000000000E+00  0.00000000000E+00  0.39999999674E+01  0.40000000000E+01  0.51100000000E-03 0.  1.
    9000002   -1    0    0    0    0 -0.00000000000E+00 -0.00000000000E+00  0.00000000000E+00  0.93800000000E+00  0.93800000000E+00 0. -1.
         11    1    1    2    0    0  0.27891007187E-01 -0.78055296346E-01  0.55819477242E+00  0.56431569414E+00  0.51100000000E-03 0.  1.
    9000002    1    1    2    0    0 -0.38225074388E+00  0.63999132026E-01  0.10752411993E+00  0.10205963729E+01  0.93800000000E+00 0. -1.
         22    1    1    2    0    0  0.35435973669E+00  0.14056164320E-01  0.33342810750E+01  0.33530879329E+01  0.00000000000E+00 0.  1.
</event>
<event>
 5    1  0.2173147E+002  0.1599676E+01  0.7818608E-02  0.3353715E+00
         11   -1    0    0    0    0  0.00000000000E+00  0.00000000000E+00  0.39999999674E+01  0.40000000000E+01  0.51100000000E-03 0.  1.
    9000002   -1    0    0    0    0 -0.00000000000E+00 -0.00000000000E+00  0.00000000000E+00  0.93800000000E+00  0.93800000000E+00 0. -1.
         11    1    1    2    0    0 -0.34281632191E-01  0.98831527621E-01  0.12777053882E+01  0.12819805854E+01  0.51100000000E-03 0.  1.
    9000002    1    1    2    0    0  0.10328899023E+00 -0.30111701398E+00  0.67725483874E-01  0.99285991599E+00  0.93800000000E+00 0. -1.
         22    1    1    2    0    0 -0.69007358037E-01  0.20228548636E+00  0.26545690953E+01  0.26631594986E+01  0.00000000000E+00 0.  1.
</event>
<event>
 5    1  0.2173147E+002  0.1599675E+01  0.7818608E-02  0.3353716E+00
         11   -1    0    0    0    0  0.00000000000E+00  0.00000000000E+00  0.39999999674E+01  0.40000000000E+01  0.51100000000E-03 0.  1.
    9000002   -1    0    0    0    0 -0.00000000000E+00 -0.00000000000E+00  0.00000000000E+00  0.93800000000E+00  0.93800000000E+00 0.  1.
         11    1    1    2    0    0  0.42295099873E-01  0.22392283914E-02  0.49763294408E+00  0.49943237558E+00  0.51100000000E-03 0.  1.
    9000002    1    1    2    0    0 -0.32917759157E+00 -0.23659223422E-01  0.72876115631E-01  0.99703188207E+00  0.93800000000E+00 0.  1.
         22    1    1    2    0    0  0.28688249170E+00  0.21419995031E-01  0.34294909076E+01  0.34415357423E+01  0.00000000000E+00 0.  1.
</event>
<event>
 5    1  0.2173147E+002  0.1550670E+01  0.7818608E-02  0.3408709E+00
         11   -1    0    0    0    0  0.00000000000E+00  0.00000000000E+00  0.39999999674E+01  0.40000000000E+01  0.51100000000E-03 0. -1.
    9000002   -1    0    0    0    0 -0.00000000000E+00 -0.00000000000E+00  0.00000000000E+00  0.93800000000E+00  0.93800000000E+00 0.  1.
         11    1    1    2    0    0  0.16995118523E+00 -0.70175226156E-01  0.51061490577E+00  0.54271153558E+00  0.51100000000E-03 0. -1.
    9000002    1    1    2    0    0  0.25461281903E-01  0.14286841180E+00  0.50937269433E-01  0.95052525763E+00  0.93800000000E+00 0.  1.
         22    1    1    2    0    0 -0.19541246714E+00 -0.72693185643E-01  0.34384477922E+01  0.34447632068E+01  0.00000000000E+00 0. -1.
</event>
<event>
 5    1  0.2173147E+002  0.1596930E+01  0.7818608E-02  0.3356702E+00
         11   -1    0    0    0    0  0.00000000000E+00  0.00000000000E+00  0.39999999674E+01  0.40000000000E+01  0.51100000000E-03 0.  1.
    9000002   -1    0    0    0    0 -0.00000000000E+00 -0.00000000000E+00  0.00000000000E+00  0.93800000000E+00  0.93800000000E+00 0. -1.
         11    1    1    2    0    0 -0.12047735282E-02  0.16932130918E-01  0.13158318046E+01  0.13159413922E+01  0.51100000000E-03 0.  1.
    9000002    1    1    2    0    0 -0.15573906332E-01 -0.22904991541E+00  0.37044369431E-01  0.96639675890E+00  0.93800000000E+00 0. -1.
         22    1    1    2    0    0  0.16778679860E-01  0.21211778449E+00  0.26471237933E+01  0.26556618489E+01  0.00000000000E+00 0.  1.
</event>
<event>
 5    1  0.2173147E+002  0.1596705E+01  0.7818608E-02  0.3356948E+00
         11   -1    0    0    0    0  0.00000000000E+00  0.00000000000E+00  0.39999999674E+01  0.40000000000E+01  0.51100000000E-03 0. -1.
    9000002   -1    0    0    0    0 -0.00000000000E+00 -0.00000000000E+00  0.00000000000E+00  0.93800000000E+00  0.93800000000E+00 0.  1.
         11    1    1    2    0    0 -0.15672213228E-01  0.17213898802E-01  0.76320637914E-01  0.79793718250E-01  0.51100000000E-03 0. -1.
    9000002    1    1    2    0    0  0.36903593109E+00 -0.43819615653E-01  0.95261404327E-01  0.10134231161E+01  0.93800000000E+00 0.  1.
         22    1    1    2    0    0 -0.35336371786E+00  0.26605716851E-01  0.38284179251E+01  0.38447831656E+01  0.00000000000E+00 0. -1.
</event>
<event>
 5    1  0.2173147E+002  0.1599444E+01  0.7818608E-02  0.3353967E+00
         11   -1    0    0    0    0  0.00000000000E+00  0.00000000000E+00  0.39999999674E+01  0.40000000000E+01  0.51100000000E-03 0. -1.
    9000002   -1    0    0    0    0 -0.00000000000E+00 -0.00000000000E+00  0.00000000000E+00  0.93800000000E+00  0.93800000000E+00 0.  1.
         11    1    1    2    0    0  0.48650202820E-01  0.12153207766E+00  0.11964450331E+01  0.12035854214E+01  0.51100000000E-03 0. -1.
    9000002    1    1    2    0    0 -0.10385845341E+00 -0.38600744363E+00  0.10797061684E+00  0.10253243287E+01  0.93800000000E+00 0.  1.
         22    1    1    2    0    0  0.55208250588E-01  0.26447536597E+00  0.26955843174E+01  0.27090902499E+01  0.00000000000E+00 0. -1.
</event>
<event>
 5    1  0.2173147E+002  0.1599605E+01  0.7818608E-02  0.3353792E+00
         11   -1    0    0    0    0  0.00000000000E+00  0.00000000000E+00  0.39999999674E+01  0.40000000000E+01  0.51100000000E-03 0.  1.
    9000002   -1    0    0    0    0 -0.00000000000E+00 -0.00000000000E+00  0.00000000000E+00  0.93800000000E+00  0.93800000000E+00 0.  1.
         11    1    1    2    0    0 -0.98184832666E-02  0.18171387733E-01  0.26251604604E+00  0.26332781375E+00  0.51100000000E-03 0.  1.
    9000002    1    1    2    0    0  0.79268795010E-01 -0.24064484441E+00  0.42709201577E-01  0.97255414189E+00  0.93800000000E+00 0.  1.
         22    1    1    2    0    0 -0.69450311744E-01  0.22247345668E+00  0.36947747197E+01  0.37021180444E+01  0.00000000000E+00 0.  1.
</event>
<event>
 5    1  0.2173147E+002  0.1598989E+01  0.7818608E-02  0.3354462E+00
         11   -1    0    0    0    0  0.00000000000E+00  0.00000000000E+00  0.39999999674E+01  0.40000000000E+01  0.51100000000E-03 0.  1.
    9000002   -1    0    0    0    0 -0.00000000000E+00 -0.00000000000E+00  0.00000000000E+00  0.93800000000E+00  0.93800000000E+00 0.  1.
         11    1    1    2    0    0  0.68275076543E-01  0.78552192792E-01  0.81534569971E+00  0.82196155885E+00  0.51100000000E-03 0.  1.
    9000002    1    1    2    0    0 -0.27946568694E+00 -0.26176483115E+00  0.99254079436E-01  0.10179966941E+01  0.93800000000E+00 0.  1.
         22    1    1    2    0    0  0.21119061039E+00  0.18321263836E+00  0.30854001882E+01  0.30980417470E+01  0.00000000000E+00 0.  1.
</event>
<event>
 5    1  0.2173147E+002  0.1545945E+01  0.7818608E-02  0.3414207E+00
         11   -1    0    0    0    0  0.00000000000E+00  0.00000000000E+00  0.39999999674E+01  0.40000000000E+01  0.51100000000E-03 0. -1.
    9000002   -1    0    0    0    0 -0.00000000000E+00 -0.00000000000E+00  0.00000000000E+00  0.93800000000E+00  0.93800000000E+00 0.  1.
         11    1    1    2    0    0  0.21820793449E+00 -0.85481359844E-01  0.90052832964E+00  0.93052313198E+00  0.51100000000E-03 0. -1.
    9000002    1    1    2    0    0  0.26233417991E-01  0.68437922606E-01  0.43675658021E-01  0.94187233985E+00  0.93800000000E+00 0.  1.
         22    1    1    2    0    0 -0.24444135248E+00  0.17043437238E-01  0.30557959797E+01  0.30656045282E+01  0.00000000000E+00 0. -1.
</event>
<event>
 5    1  0.2173147E+002  0.1592344E+01  0.7818608E-02  0.3361715E+00
         11   -1    0    0    0    0  0.00000000000E+00  0.00000000000E+00  0.39999999674E+01  0.40000000000E+01  0.51100000000E-03 0. -1.
    9000002   -1    0    0    0    0 -0.00000000000E+00 -0.00000000000E+00  0.00000000000E+00  0.93800000000E+00  0.93800000000E+00 0.  1.
         11    1    1    2    0    0  0.11039747581E+00  0.18223613434E+00  0.14499540919E+01  0.14655254147E+01  0.51100000000E-03 0. -1.
    9000002    1    1    2    0    0 -0.43454926016E-01 -0.39950923360E+00  0.11509271944E+00  0.10269305197E+01  0.93800000000E+00 0.  1.
         22    1    1    2    0    0 -0.66942549797E-01  0.21727309926E+00  0.24349531560E+01  0.24455440656E+01  0.00000000000E+00 0. -1.
</event>
<event>
 5    1  0.2173147E+002  0.1599452E+01  0.7818608E-02  0.3353959E+00
         11   -1    0    0    0    0  0.00000000000E+00  0.00000000000E+00  0.39999999674E+01  0.40000000000E+01  0.51100000000E-03 0. -1.
    9000002   -1    0    0    0    0 -0.00000000000E+00 -0.00000000000E+00  0.00000000000E+00  0.93800000000E+00  0.93800000000E+00 0.  1.
         11    1    1    2    0    0  0.29946740447E-01  0.24589822144E+00  0.17744343405E+01  0.17916417701E+01  0.51100000000E-03 0. -1.
    9000002    1    1    2    0    0 -0.97091099021E-01 -0.50792506392E+00  0.18380486808E+00  0.10867579223E+01  0.93800000000E+00 0.  1.
         22    1    1    2    0    0  0.67144358575E-01  0.26202684248E+00  0.20417607588E+01  0.20596003077E+01  0.00000000000E+00 0. -1.
</event>
<event>
 5    1  0.2173147E+002  0.1550915E+01  0.7818608E-02  0.3408425E+00
         11   -1    0    0    0    0  0.00000000000E+00  0.00000000000E+00  0.39999999674E+01  0.40000000000E+01  0.51100000000E-03 0. -1.
    9000002   -1    0    0    0    0 -0.00000000000E+00 -0.00000000000E+00  0.00000000000E+00  0.93800000000E+00  0.93800000000E+00 0. -1.
         11    1    1    2    0    0 -0.61728475021E-01  0.29445034918E+00  0.19820090048E+01  0.20047122908E+01  0.51100000000E-03 0. -1.
    9000002    1    1    2    0    0 -0.60776975617E-01 -0.90253226879E-01  0.44347396561E-01  0.94533072377E+00  0.93800000000E+00 0. -1.
         22    1    1    2    0    0  0.12250545064E+00 -0.20419712230E+00  0.19736435660E+01  0.19879569854E+01  0.00000000000E+00 0.  1.
</event>
<event>
 5    1  0.2173147E+002  0.1555641E+01  0.7818608E-02  0.3402962E+00
         11   -1    0    0    0    0  0.00000000000E+00  0.00000000000E+00  0.39999999674E+01  0.40000000000E+01  0.51100000000E-03 0. -1.
    9000002   -1    0    0    0    0 -0.00000000000E+00 -0.00000000000E+00  0.00000000000E+00  0.93800000000E+00  0.93800000000E+00 0. -1.
         11    1    1    2    0    0  0.52241366932E-01 -0.16156399272E+00  0.55023928287E+00  0.57584339338E+00  0.51100000000E-03 0. -1.
    9000002    1    1    2    0    0  0.98299886019E-01 -0.11086800203E-01  0.39308727646E-01  0.94402063579E+00  0.93800000000E+00 0. -1.
         22    1    1    2    0    0 -0.15054125295E+00  0.17265079293E+00  0.34104519568E+01  0.34181359708E+01  0.00000000000E+00 0. -1.
</event>
<event>
 5    1  0.2173147E+002  0.1596982E+01  0.7818608E-02  0.3356646E+00
         11   -1    0    0    0    0  0.00000000000E+00  0.00000000000E+00  0.39999999674E+01  0.40000000000E+01  0.51100000000E-03 0.  1.
    9000002   -1    0    0    0    0 -0.00000000000E+00 -0.00000000000E+00  0.00000000000E+00  0.93800000000E+00  0.93800000000E+00 0. -1.
         11    1    1    2    0    0 -0.16573423752E-01  0.19885683935E-01  0.10449767131E+01  0.10452974270E+01  0.51100000000E-03 0.  1.
    9000002    1    1    2    0    0 -0.90808733059E-01 -0.21686327882E+00  0.38728436939E-01  0.96779119624E+00  0.93800000000E+00 0. -1.
         22    1    1    2    0    0  0.10738215681E+00  0.19697759488E+00  0.29162948173E+01  0.29249113768E+01  0.00000000000E+00 0.  1.
</event>
<event>
 5    1  0.2173147E+002  0.1599334E+01  0.7818608E-02  0.3354087E+00
         11   -1    0    0    0    0  0.00000000000E+00  0.00000000000E+00  0.39999999674E+01  0.40000000000E+01  0.51100000000E-03 0. -1.
    9000002   -1    0    0    0    0 -0.00000000000E+00 -0.00000000000E+00  0.00000000000E+00  0.93800000000E+00  0.93800000000E+00 0.  1.
         11    1    1    2    0    0  0.26643521788E-02  0.18291156017E-01  0.15179097449E+00  0.15291313292E+00  0.51100000000E-03 0. -1.
    9000002    1    1    2    0    0  0.38064015438E-01 -0.27961122271E+00  0.53304264497E-01  0.98097739513E+00  0.93800000000E+00 0.  1.
         22    1    1    2    0    0 -0.40728367617E-01  0.26132006670E+00  0.37949047284E+01  0.38041094720E+01  0.00000000000E+00 0. -1.
</event>
<event>
 5    1  0.2173147E+002  0.1543044E+01  0.7818608E-02  0.3417600E+00
         11   -1    0    0    0    0  0.00000000000E+00  0.00000000000E+00  0.39999999674E+01  0.40000000000E+01  0.51100000000E-03 0. -1.
    9000002   -1    0    0    0    0 -0.00000000000E+00 -0.00000000000E+00  0.00000000000E+00  0.93800000000E+00  0.93800000000E+00 0.  1.
         11    1    1    2    0    0 -0.23209797499E+00 -0.39728669933E-01  0.96767637336E+00  0.99591448523E+00  0.51100000000E-03 0. -1.
    9000002    1    1    2    0    0 -0.54657903114E-01  0.55190784466E-01  0.46367704810E-01  0.94235209615E+00  0.93800000000E+00 0.  1.
         22    1    1    2    0    0  0.28675587811E+00 -0.15462114532E-01  0.29859558892E+01  0.29997334186E+01  0.00000000000E+00 0. -1.
</event>
<event>
 5    1  0.2173147E+002  0.1596111E+01  0.7818608E-02  0.3357596E+00
         11   -1    0    0    0    0  0.00000000000E+00  0.00000000000E+00  0.39999999674E+01  0.40000000000E+01  0.51100000000E-03 0.  1.
    9000002   -1    0    0    0    0 -0.00000000000E+00 -0.00000000000E+00  0.00000000000E+00  0.93800000000E+00  0.93800000000E+00 0. -1.
         11    1    1    2    0    0  0.16467775044E+00  0.10166954934E+00  0.12320502751E+01  0.12471582098E+01  0.51100000000E-03 0.  1.
    9000002    1    1    2    0    0 -0.40388952498E+00 -0.14134354989E+00  0.12700328488E+00  0.10387870724E+01  0.93800000000E+00 0. -1.
         22    1    1    2    0    0  0.23921177454E+00  0.39674000556E-01  0.26409464074E+01  0.26520547178E+01  0.00000000000E+00 0. -1.
</event>
<event>
 5    1  0.2173147E+002  0.1597592E+01  0.7818608E-02  0.3355982E+00
         11   -1    0    0    0    0  0.00000000000E+00  0.00000000000E+00  0.39999999674E+01  0.40000000000E+01  0.51100000000E-03 0.  1.
    9000002   -1    0    0    0    0 -0.00000000000E+00 -0.00000000000E+00  0.00000000000E+00  0.93800000000E+00  0.93800000000E+00 0.  1.
         11    1    1    2    0    0 -0.47303975791E-02  0.13828888492E+00  0.10783135711E+01  0.10871552838E+01  0.51100000000E-03 0.  1.
    9000002    1    1    2    0    0 -0.11475949265E+00 -0.37982922963E+00  0.10788600819E+00  0.10241696029E+01  0.93800000000E+00 0.  1.
         22    1    1    2    0    0  0.11948989023E+00  0.24154034471E+00  0.28138003880E+01  0.28266751132E+01  0.00000000000E+00 0.  1.
</event>
<event>
 5    1  0.2173147E+002  0.1599621E+01  0.7818608E-02  0.3353775E+00
         11   -1    0    0    0    0  0.00000000000E+00  0.00000000000E+00  0.39999999674E+01  0.40000000000E+01  0.51100000000E-03 0. -1.
    9000002   -1    0    0    0    0 -0.00000000000E+00 -0.00000000000E+00  0.00000000000E+00  0.93800000000E+00  0.93800000000E+00 0.  1.
         11    1    1    2    0    0  0.17629744492E-01  0.20230852412E-01  0.26736959975E+00  0.26871334033E+00  0.51100000000E-03 0. -1.
    9000002    1    1    2    0    0 -0.19427617334E+00 -0.28075147411E+00  0.78129489046E-01  0.10012556311E+01  0.93800000000E+00 0.  1.
         22    1    1    2    0    0  0.17664642885E+00  0.26052062170E+00  0.36545008786E+01  0.36680310286E+01  0.00000000000E+00 0. -1.
</event>
<event>
 5    1  0.2173147E+002  0.1599677E+01  0.7818608E-02  0.3353714E+00
         11   -1    0    0    0    0  0.00000000000E+00  0.00000000000E+00  0.39999999674E+01  0.40000000000E+01  0.51100000000E-03 0.  1.
    9000002   -1    0    0    0    0 -0.00000000000E+00 -0.00000000000E+00  0.00000000000E+00  0.93800000000E+00  0.93800000000E+00 0. -1.
         11    1    1    2    0    0  0.25184935400E-01 -0.13240136365E-01  0.43792846842E+00  0.43885212402E+00  0.51100000000E-03 0. -1.
    9000002    1    1    2    0    0 -0.22798526777E+00  0.12129573140E+00  0.44330202138E-01  0.97390918652E+00  0.93800000000E+00 0. -1.
         22    1    1    2    0    0  0.20280033237E+00 -0.10805559503E+00  0.35177412968E+01  0.35252386895E+01  0.00000000000E+00 0.  1.
</event>
<event>
 5    1  0.2173147E+002  0.1599677E+01  0.7818608E-02  0.3353714E+00
         11   -1    0    0    0    0  0.00000000000E+00  0.00000000000E+00  0.39999999674E+01  0.40000000000E+01  0.51100000000E-03 0.  1.
    9000002   -1    0    0    0    0 -0.00000000000E+00 -0.00000000000E+00  0.00000000000E+00  0.93800000000E+00  0.93800000000E+00 0.  1.
         11    1    1    2    0    0  0.24424830991E-01 -0.25659667839E-01  0.55361401714E+00  0.55474654755E+00  0.51100000000E-03 0.  1.
    9000002    1    1    2    0    0 -0.17652673265E+00  0.18498572651E+00  0.43451697430E-01  0.97319754231E+00  0.93800000000E+00 0.  1.
         22    1    1    2    0    0  0.15210190166E+00 -0.15932605867E+00  0.34029342528E+01  0.34100559101E+01  0.00000000000E+00 0.  1.
</event>
<event>
 5    1  0.2173147E+002  0.1507939E+01  0.7818608E-02  0.3459773E+00
         11   -1    0    0    0    0  0.00000000000E+00  0.00000000000E+00  0.39999999674E+01  0.40000000000E+01  0.51100000000E-03 0.  1.
    9000002   -1    0    0    0    0 -0.00000000000E+00 -0.00000000000E+00  0.00000000000E+00  0.93800000000E+00  0.93800000000E+00 0.  1.
         11    1    1    2    0    0 -0.44608951932E-01 -0.37355492859E-01 -0.63038702370E-02  0.58526842903E-01  0.51100000000E-03 0.  1.
    9000002    1    1    2    0    0 -0.14388741972E+00 -0.35574533445E-01  0.85517815338E-01  0.95348121834E+00  0.93800000000E+00 0.  1.
         22    1    1    2    0    0  0.18849637165E+00  0.72930026304E-01  0.39207860223E+01  0.39259919388E+01  0.00000000000E+00 0.  1.
</event>
<event>
 5    1  0.2173147E+002  0.1598126E+01  0.7818608E-02  0.3355400E+00
         11   -1    0    0    0    0  0.00000000000E+00  0.00000000000E+00  0.39999999674E+01  0.40000000000E+01  0.51100000000E-03 0.  1.
    9000002   -1    0    0    0    0 -0.00000000000E+00 -0.00000000000E+00  0.00000000000E+00  0.93800000000E+00  0.93800000000E+00 0. -1.
         11    1    1    2    0    0 -0.40794356201E+00 -0.50678307864E+00  0.27364576336E+01  0.28127295782E+01  0.51100000000E-03 0.  1.
    9000002    1    1    2    0    0  0.51175301743E+00  0.68737904468E+00  0.55448126265E+00  0.13862447737E+01  0.93800000000E+00 0. -1.
         22    1    1    2    0    0 -0.10380945542E+00 -0.18059596605E+00  0.70906107115E+00  0.73902564814E+00  0.00000000000E+00 0.  1.
</event>
<event>
 5    1  0.2173147E+002  0.1594720E+01  0.7818608E-02  0.3359114E+00
         11   -1    0    0    0    0  0.00000000000E+00  0.00000000000E+00  0.39999999674E+01  0.40000000000E+01  0.51100000000E-03 0.  1.
    9000002   -1    0    0    0    0 -0.00000000000E+00 -0.00000000000E+00  0.00000000000E+00  0.93800000000E+00  0.93800000000E+00 0.  1.
         11    1    1    2    0    0 -0.25182447865E+00 -0.59181238171E-01  0.21249873167E+01  0.21406749739E+01  0.51100000000E-03 0.  1.
    9000002    1    1    2    0    0  0.38716588012E+00  0.24342863744E+00  0.14652887469E+00  0.10537882289E+01  0.93800000000E+00 0.  1.
         22    1    1    2    0    0 -0.13534140146E+00 -0.18424739927E+00  0.17284837760E+01  0.17435367972E+01  0.00000000000E+00 0.  1.
</event>
<event>
 5    1  0.2173147E+002  0.1594242E+01  0.7818608E-02  0.3359637E+00
         11   -1    0    0    0    0  0.00000000000E+00  0.00000000000E+00  0.39999999674E+01  0.40000000000E+01  0.51100000000E-03 0. -1.
    9000002   -1    0    0    0    0 -0.00000000000E+00 -0.00000000000E+00  0.00000000000E+00  0.93800000000E+00  0.93800000000E+00 0. -1.
         11    1    1    2    0    0  0.63368489920E-01 -0.95599026736E-02  0.40600617239E+00  0.41103312566E+00  0.51100000000E-03 0. -1.
    9000002    1    1    2    0    0 -0.10618105484E+00  0.21604129463E+00  0.42615995826E-01  0.96933398810E+00  0.93800000000E+00 0. -1.
         22    1    1    2    0    0  0.42812564923E-01 -0.20648139196E+00  0.35513777991E+01  0.35576328862E+01  0.00000000000E+00 0. -1.
</event>
<event>
 5    1  0.2173147E+002  0.1555917E+01  0.7818608E-02  0.3402645E+00
         11   -1    0    0    0    0  0.00000000000E+00  0.00000000000E+00  0.39999999674E+01  0.40000000000E+01  0.51100000000E-03 0. -1.
    9000002   -1    0    0    0    0 -0.00000000000E+00 -0.00000000000E+00  0.00000000000E+00  0.93800000000E+00  0.93800000000E+00 0. -1.
         11    1    1    2    0    0  0.99901750370E-01  0.15677897996E+00  0.87978761328E+00  0.89921438705E+00  0.51100000000E-03 0. -1.
    9000002    1    1    2    0    0  0.16315157436E+00  0.12324613485E-01  0.50835085230E-01  0.95351902876E+00  0.93800000000E+00 0. -1.
         22    1    1    2    0    0 -0.26305332473E+00 -0.16910359345E+00  0.30693772688E+01  0.30852665842E+01  0.00000000000E+00 0.  1.
</event>
<event>
 5    1  0.2173147E+002  0.1599674E+01  0.7818608E-02  0.3353717E+00
         11   -1    0    0    0    0  0.00000000000E+00  0.00000000000E+00  0.39999999674E+01  0.40000000000E+01  0.51100000000E-03 0.  1.
    9000002   -1    0    0    0    0 -0.00000000000E+00 -0.00000000000E+00  0.00000000000E+00  0.93800000000E+00  0.93800000000E+00 0.  1.
         11    1    1    2    0    0  0.14959385401E+00  0.47962764647E-01  0.11257109086E+01  0.11366195753E+01  0.51100000000E-03 0.  1.
    9000002    1    1    2    0    0 -0.50452329183E+00 -0.16796984370E+00  0.19464249625E+00  0.10956675234E+01  0.93800000000E+00 0.  1.
         22    1    1    2    0    0  0.35492943783E+00  0.12000707905E+00  0.26796465625E+01  0.27057129014E+01  0.00000000000E+00 0.  1.
</event>
<event>
 5    1  0.2173147E+002  0.1599658E+01  0.7818608E-02  0.3353735E+00
         11   -1    0    0    0    0  0.00000000000E+00  0.00000000000E+00  0.39999999674E+01  0.40000000000E+01  0.51100000000E-03 0. -1.
    9000002   -1    0    0    0    0 -0.00000000000E+00 -0.00000000000E+00  0.00000000000E+00  0.93800000000E+00  0.93800000000E+00 0. -1.
         11    1    1    2    0    0  0.83866629032E-01 -0.71197741876E-01  0.13114340190E+01  0.13160403402E+01  0.51100000000E-03 0. -1.
    9000002    1    1    2    0    0 -0.24782572761E+00  0.19889717459E+00  0.67493954048E-01  0.99266162974E+00  0.93800000000E+00 0. -1.
         22    1    1    2    0    0  0.16395909858E+00 -0.12769943272E+00  0.26210719943E+01  0.26292980300E+01  0.00000000000E+00 0. -1.
</event>
<event>
 5    1  0.2173147E+002  0.1599367E+01  0.7818608E-02  0.3354051E+00
         11   -1    0    0    0    0  0.00000000000E+00  0.00000000000E+00  0.39999999674E+01  0.40000000000E+01  0.51100000000E-03 0.  1.
    9000002   -1    0    0    0    0 -0.00000000000E+00 -0.00000000000E+00  0.00000000000E+00  0.93800000000E+00  0.93800000000E+00 0. -1.
         11    1    1    2    0    0 -0.30129579221E-01 -0.60536955728E-02  0.32694670498E+00  0.32838825769E+00  0.51100000000E-03 0.  1.
    9000002    1    1    2    0    0  0.23000319395E+00  0.31659893477E-01  0.35995868594E-01  0.96697648402E+00  0.93800000000E+00 0. -1.
         22    1    1    2    0    0 -0.19987361473E+00 -0.25606197904E-01  0.36370573938E+01  0.36426352583E+01  0.00000000000E+00 0.  1.
</event>
<event>
 5    1  0.2173147E+002  0.1568974E+01  0.7818608E-02  0.3387742E+00
         11   -1    0    0    0    0  0.00000000000E+00  0.00000000000E+00  0.39999999674E+01  0.40000000000E+01  0.51100000000E-03 0. -1.
    9000002   -1    0    0    0    0 -0.00000000000E+00 -0.00000000000E+00  0.00000000000E+00  0.93800000000E+00  0.93800000000E+00 0.  1.
         11    1    1    2    0    0 -0.20643243326E-01 -0.17240468975E+00  0.18049921417E+01  0.18133246850E+01  0.51100000000E-03 0. -1.
    9000002    1    1    2    0    0  0.11692192507E+00 -0.76997932059E-01  0.35889314581E-01  0.94906873355E+00  0.93800000000E+00 0.  1.
         22    1    1    2    0    0 -0.96278681741E-01  0.24940262181E+00  0.21591185110E+01  0.21756065814E+01  0.00000000000E+00 0. -1.
</event>
<event>
 5    1  0.2173147E+002  0.1556352E+01  0.7818608E-02  0.3402144E+00
         11   -1    0    0    0    0  0.00000000000E+00  0.00000000000E+00  0.39999999674E+01  0.40000000000E+01  0.51100000000E-03 0. -1.
    9000002   -1    0    0    0    0 -0.00000000000E+00 -0.00000000000E+00  0.00000000000E+00  0.93800000000E+00  0.93800000000E+00 0. -1.
         11    1    1    2    0    0  0.22165568220E+00  0.11157327502E+00  0.12547168707E+01  0.12790209240E+01  0.51100000000E-03 0. -1.
    9000002    1    1    2    0    0 -0.69900076202E-01  0.30091760400E-01  0.36017424400E-01  0.94177109191E+00  0.93800000000E+00 0. -1.
         22    1    1    2    0    0 -0.15175560600E+00 -0.14166503542E+00  0.27092656723E+01  0.27172079841E+01  0.00000000000E+00 0. -1.
</event>
<event>
 5    1  0.2173147E+002  0.1599522E+01  0.7818608E-02  0.3353883E+00
         11   -1    0    0    0    0  0.00000000000E+00  0.00000000000E+00  0.39999999674E+01  0.40000000000E+01  0.51100000000E-03 0. -1.
    9000002   -1    0    0    0    0 -0.00000000000E+00 -0.00000000000E+00  0.00000000000E+00  0.93800000000E+00  0.93800000000E+00 0.  1.
         11    1    1    2    0    0  0.44140445328E-02 -0.10692745307E-01  0.15145357653E+00  0.15189557451E+00  0.51100000000E-03 0. -1.
    9000002    1    1    2    0    0  0.30560130984E-01  0.31275556393E+00  0.66089464618E-01  0.99144429077E+00  0.93800000000E+00 0.  1.
         22    1    1    2    0    0 -0.34974175517E-01 -0.30206281862E+00  0.37824569262E+01  0.37946601347E+01  0.00000000000E+00 0. -1.
</event>
<event>
 5    1  0.2173147E+002  0.1571825E+01  0.7818608E-02  0.3384522E+00
         11   -1    0    0    0    0  0.00000000000E+00  0.00000000000E+00  0.39999999674E+01  0.40000000000E+01  0.51100000000E-03 0. -1.
    9000002   -1    0    0    0    0 -0.00000000000E+00 -0.00000000000E+00  0.00000000000E+00  0.93800000000E+00  0.93800000000E+00 0.  1.
         11    1    1    2    0    0  0.74161826331E-01  0.46080848502E-01  0.31282985807E+01  0.31295168465E+01  0.51100000000E-03 0. -1.
    9000002    1    1    2    0    0 -0.27372829027E+00  0.39027694027E-01  0.72758093677E-01  0.98060597489E+00  0.93800000000E+00 0.  1.
         22    1    1    2    0    0  0.19956646394E+00 -0.85108542529E-01  0.79894329297E+00  0.82787717865E+00  0.00000000000E+00 0.  1.
</event>
<event>
 5    1  0.2173147E+002  0.1589057E+01  0.7818608E-02  0.3365327E+00
         11   -1    0    0    0    0  0.00000000000E+00  0.00000000000E+00  0.39999999674E+01  0.40000000000E+01  0.51100000000E-03 0. -1.
    9000002   -1    0    0    0    0 -0.00000000000E+00 -0.00000000000E+00  0.00000000000E+00  0.93800000000E+00  0.93800000000E+00 0. -1.
         11    1    1    2    0    0 -0.39055306331E+00 -0.14444336328E+00  0.21810620975E+01  0.22204566455E+01  0.51100000000E-03 0. -1.
    9000002    1    1    2    0    0  0.64510143939E+00  0.38732524127E-01  0.30566952350E+00  0.11793786216E+01  0.93800000000E+00 0. -1.
         22    1    1    2    0    0 -0.25454837607E+00  0.10571083916E+00  0.15132683464E+01  0.15381647329E+01  0.00000000000E+00 0. -1.
</event>
<event>
 5    1  0.2173147E+002  0.1599659E+01  0.7818608E-02  0.3353733E+00
         11   -1    0    0    0    0  0.00000000000E+00  0.00000000000E+00  0.39999999674E+01  0.40000000000E+01  0.51100000000E-03 0.  1.
    9000002   -1    0    0    0    0 -0.00000000000E+00 -0.00000000000E+00  0.00000000000E+00  0.93800000000E+00  0.93800000000E+00 0. -1.
         11    1    1    2    0    0  0.12128837128E+00 -0.72731828376E-01  0.12471504641E+01  0.12551435492E+01  0.51100000000E-03 0.  1.
    9000002    1    1    2    0    0 -0.36668291691E+00  0.21567890752E+00  0.12249897503E+00  0.10372192399E+01  0.93800000000E+00 0. -1.
         22    1    1    2    0    0  0.24539454563E+00 -0.14294707914E+00  0.26303505283E+01  0.26456372110E+01  0.00000000000E+00 0.  1.
</event>
<event>
 5    1  0.2173147E+002  0.1599675E+01  0.7818608E-02  0.3353716E+00
         11   -1    0    0    0    0  0.00000000000E+00  0.00000000000E+00  0.39999999674E+01  0.40000000000E+01  0.51100000000E-03 0.  1.
    9000002   -1    0    0    0    0 -0.00000000000E+00 -0.00000000000E+00  0.00000000000E+00  0.93800000000E+00  0.93800000000E+00 0. -1.
         11    1    1    2    0    0  0.22424043978E+00  0.93008954297E-02  0.18131758174E+01  0.18270131601E+01  0.51100000000E-03 0.  1.
    9000002    1    1    2    0    0 -0.47256721566E+00 -0.19410314288E-01  0.15246404732E+00  0.10615016813E+01  0.93800000000E+00 0. -1.
         22    1    1    2    0    0  0.24832677588E+00  0.10109418858E-01  0.20343601027E+01  0.20494851586E+01  0.00000000000E+00 0.  1.
</event>
<event>
 5    1  0.2173147E+002  0.1553764E+01  0.7818608E-02  0.3405128E+00
         11   -1    0    0    0    0  0.00000000000E+00  0.00000000000E+00  0.39999999674E+01  0.40000000000E+01  0.51100000000E-03 0.  1.
    9000002   -1    0    0    0    0 -0.00000000000E+00 -0.00000000000E+00  0.00000000000E+00  0.93800000000E+00  0.93800000000E+00 0. -1.
         11    1    1    2    0    0  0.17301496274E+00 -0.21164707611E+00  0.14353838304E+01  0.14611829673E+01  0.51100000000E-03 0.  1.
    9000002    1    1    2    0    0 -0.29683893867E-01  0.65763844511E-01  0.37582611139E-01  0.94152135900E+00  0.93800000000E+00 0. -1.
         22    1    1    2    0    0 -0.14333106888E+00  0.14588323160E+00  0.25270335258E+01  0.25352956737E+01  0.00000000000E+00 0.  1.
</event>
<event>
 5    1  0.2173147E+002  0.1579256E+01  0.7818608E-02  0.3376190E+00
         11   -1    0    0    0    0  0.00000000000E+00  0.00000000000E+00  0.39999999674E+01  0.40000000000E+01  0.51100000000E-03 0.  1.
    9000002   -1    0    0    0    0 -0.00000000000E+00 -0.00000000000E+00  0.00000000000E+00  0.93800000000E+00  0.93800000000E+00 0. -1.
         11    1    1    2    0    0  0.97214970030E-01  0.52822058652E-01  0.19328823027E+01  0.19360462747E+01  0.51100000000E-03 0.  1.
    9000002    1    1    2    0    0  0.13912288117E+00 -0.84388184387E-02  0.28006209123E-01  0.94871214679E+00  0.93800000000E+00 0. -1.
         22    1    1    2    0    0 -0.23633785120E+00 -0.44383240214E-01  0.20391114555E+01  0.20532415786E+01  0.00000000000E+00 0.  1.
</event>
<event>
 5    1  0.2173147E+002  0.1598846E+01  0.7818608E-02  0.3354616E+00
         11   -1    0    0    0    0  0.00000000000E+00  0.00000000000E+00  0.39999999674E+01  0.40000000000E+01  0.51100000000E-03 0. -1.
    9000002   -1    0    0    0    0 -0.00000000000E+00 -0.00000000000E+00  0.00000000000E+00  0.93800000000E+00  0.93800000000E+00 0. -1.
         11    1    1    2    0    0 -0.46215171379E-01  0.60994346379E-01  0.13008186009E+01  0.13030677058E+01  0.51100000000E-03 0. -1.
    9000002    1    1    2    0    0  0.23812063010E+00 -0.19539296885E+00  0.63996556972E-01  0.98935302398E+00  0.93800000000E+00 0. -1.
         22    1    1    2    0    0 -0.19190545872E+00  0.13439862247E+00  0.26351848095E+01  0.26455792702E+01  0.00000000000E+00 0. -1.
</event>
<event>
 5    1  0.2173147E+002  0.1599677E+01  0.7818608E-02  0.3353714E+00
         11   -1    0    0    0    0  0.00000000000E+00  0.00000000000E+00  0.39999999674E+01  0.40000000000E+01  0.51100000000E-03 0. -1.
    9000002   -1    0    0    0    0 -0.00000000000E+00 -0.00000000000E+00  0.00000000000E+00  0.93800000000E+00  0.93800000000E+00 0.  1.
         11    1    1    2    0    0  0.29432889489E-01  0.24462993989E-01  0.61846352687E+00  0.61964677700E+00  0.51100000000E-03 0.  1.
    9000002    1    1    2    0    0 -0.18864965928E+00 -0.15548907498E+00  0.39685209543E-01  0.97014661894E+00  0.93800000000E+00 0.  1.
         22    1    1    2    0    0  0.15921676979E+00  0.13102608099E+00  0.33418512310E+01  0.33482066041E+01  0.00000000000E+00 0. -1.
</event>
<event>
 5    1  0.2173147E+002  0.1599672E+01  0.7818608E-02  0.3353719E+00
         11   -1    0    0    0    0  0.00000000000E+00  0.00000000000E+00  0.39999999674E+01  0.40000000000E+01  0.51100000000E-03 0. -1.
    9000002   -1    0    0    0    0 -0.00000000000E+00 -0.00000000000E+00  0.00000000000E+00  0.93800000000E+00  0.93800000000E+00 0. -1.
         11    1    1    2    0    0  0.41688460720E-01  0.18322707471E-01  0.55444417674E+00  0.55631129380E+00  0.51100000000E-03 0. -1.
    9000002    1    1    2    0    0 -0.30052811034E+00 -0.11832952258E+00  0.69751490163E-01  0.99449901528E+00  0.93800000000E+00 0. -1.
         22    1    1    2    0    0  0.25883964962E+00  0.10000681511E+00  0.33758043005E+01  0.33871896909E+01  0.00000000000E+00 0. -1.
</event>
<event>
 5    1  0.2173147E+002  0.1599676E+01  0.7818608E-02  0.3353715E+00
         11   -1    0    0    0    0  0.00000000000E+00  0.00000000000E+00  0.39999999674E+01  0.40000000000E+01  0.51100000000E-03 0.  1.
    9000002   -1    0    0    0    0 -0.00000000000E+00 -0.00000000000E+00  0.00000000000E+00  0.93800000000E+00  0.93800000000E+00 0. -1.
         11    1    1    2    0    0  0.42200289254E-02  0.20917228945E-01  0.32092741378E+00  0.32163644872E+00  0.51100000000E-03 0. -1.
    9000002    1    1    2    0    0 -0.53678831947E-01 -0.25252598880E+00  0.44304337100E-01  0.97388791260E+00  0.93800000000E+00 0. -1.
         22    1    1    2    0    0  0.49458803022E-01  0.23160875985E+00  0.36347682165E+01  0.36424756387E+01  0.00000000000E+00 0.  1.
</event>
<event>
 5    1  0.2173147E+002  0.1592798E+01  0.7818608E-02  0.3361217E+00
         11   -1    0    0    0    0  0.00000000000E+00  0.00000000000E+00  0.39999999674E+01  0.40000000000E+01  0.51100000000E-03 0.  1.
    9000002   -1    0    0    0    0 -0.00000000000E+00 -0.00000000000E+00  0.00000000000E+00  0.93800000000E+00  0.93800000000E+00 0.  1.
         11    1    1    2    0    0  0.26837937878E+00 -0.26085252144E+00  0.17636230749E+01  0.18028971519E+01  0.51100000000E-03 0.  1.
    9000002    1    1    2    0    0 -0.48287258875E+00  0.35811335528E+00  0.25909819184E+00  0.11438474484E+01  0.93800000000E+00 0.  1.
         22    1    1    2    0    0  0.21449320996E+00 -0.97260833833E-01  0.19772787006E+01  0.19912553997E+01  0.00000000000E+00 0.  1.
</event>
<event>
 5    1  0.2173147E+002  0.1599341E+01  0.7818608E-02  0.3354079E+00
         11   -1    0    0    0    0  0.00000000000E+00  0.00000000000E+00  0.39999999674E+01  0.40000000000E+01  0.51100000000E-03 0. -1.
    9000002   -1    0    0    0    0 -0.00000000000E+00 -0.00000000000E+00  0.00000000000E+00  0.93800000000E+00  0.93800000000E+00 0.  1.
         11    1    1    2    0    0  0.46820716637E-02 -0.31092743350E-01  0.46970848066E+00  0.47076002210E+00  0.51100000000E-03 0. -1.
    9000002    1    1    2    0    0 -0.14827112323E+00  0.21102733147E+00  0.44471409714E-01  0.97382676431E+00  0.93800000000E+00 0.  1.
         22    1    1    2    0    0  0.14358905157E+00 -0.17993458812E+00  0.34858200770E+01  0.34934132136E+01  0.00000000000E+00 0. -1.
</event>
<event>
 5    1  0.2173147E+002  0.1599676E+01  0.7818608E-02  0.3353715E+00
         11   -1    0    0    0    0  0.00000000000E+00  0.00000000000E+00  0.39999999674E+01  0.40000000000E+01  0.51100000000E-03 0. -1.
    9000002   -1    0    0    0    0 -0.00000000000E+00 -0.00000000000E+00  0.00000000000E+00  0.93800000000E+00  0.93800000000E+00 0. -1.
         11    1    1    2    0    0 -0.19390634521E-01  0.11763365285E-01  0.38932025610E+00  0.38998063593E+00  0.51100000000E-03 0.  1.
    9000002    1    1    2    0    0  0.19502078916E+00 -0.11799189379E+00  0.34458156352E-01  0.96591229402E+00  0.93800000000E+00 0. -1.
         22    1    1    2    0    0 -0.17563015464E+00  0.10622852851E+00  0.35762215549E+01  0.35821070700E+01  0.00000000000E+00 0. -1.
</event>
<event>
 5    1  0.2173147E+002  0.1599676E+01  0.7818608E-02  0.3353715E+00
         11   -1    0    0    0    0  0.00000000000E+00  0.00000000000E+00  0.39999999674E+01  0.40000000000E+01  0.51100000000E-03 0.  1.
    9000002   -1    0    0    0    0 -0.00000000000E+00 -0.00000000000E+00  0.00000000000E+00  0.93800000000E+00  0.93800000000E+00 0.  1.
         11    1    1    2    0    0  0.32525240934E+00  0.39267153596E+00  0.26113632357E+01  0.26606762815E+01  0.51100000000E-03 0.  1.
    9000002    1    1    2    0    0 -0.45427856775E+00 -0.54614643496E+00  0.36167889641E+00  0.12309754545E+01  0.93800000000E+00 0.  1.
         22    1    1    2    0    0  0.12902615841E+00  0.15347489900E+00  0.10269578353E+01  0.10463482640E+01  0.00000000000E+00 0.  1.
</event>
<event>
 5    1  0.2173147E+002  0.1557281E+01  0.7818608E-02  0.3401076E+00
         11   -1    0    0    0    0  0.00000000000E+00  0.00000000000E+00  0.39999999674E+01  0.40000000000E+01  0.51100000000E-03 0. -1.
    9000002   -1    0    0    0    0 -0.00000000000E+00 -0.00000000000E+00  0.00000000000E+00  0.93800000000E+00  0.93800000000E+00 0. -1.
         11    1    1    2    0    0  0.21308154672E+00 -0.21899767463E-02  0.14975511263E+01  0.15126361686E+01  0.51100000000E-03 0. -1.
    9000002    1    1    2    0    0  0.69155113283E-01 -0.53541803715E-01  0.36588999178E-01  0.94277882311E+00  0.93800000000E+00 0. -1.
         22    1    1    2    0    0 -0.28223666000E+00  0.55731780461E-01  0.24658598418E+01  0.24825850083E+01  0.00000000000E+00 0. -1.
</event>
<event>
 5    1  0.2173147E+002  0.1599351E+01  0.7818608E-02  0.3354068E+00
         11   -1    0    0    0    0  0.00000000000E+00  0.00000000000E+00  0.39999999674E+01  0.40000000000E+01  0.51100000000E-03 0. -1.
    9000002   -1    0    0    0    0 -0.00000000000E+00 -0.00000000000E+00  0.00000000000E+00  0.93800000000E+00  0.93800000000E+00 0.  1.
         11    1    1    2    0    0  0.12172582172E-02  0.98044995573E-02  0.11240987979E+00  0.11284437126E+00  0.51100000000E-03 0. -1.
    9000002    1    1    2    0    0  0.13867395814E+00 -0.16852336397E+00  0.31814718010E-01  0.96358018201E+00  0.93800000000E+00 0.  1.
         22    1    1    2    0    0 -0.13989121636E+00  0.15871886441E+00  0.38557753696E+01  0.38615754467E+01  0.00000000000E+00 0. -1.
</event>
<event>
 5    1  0.2173147E+002  0.1599676E+01  0.7818608E-02  0.3353715E+00
         11   -1    0    0    0    0  0.00000000000E+00  0.00000000000E+00  0.39999999674E+01  0.40000000000E+01  0.51100000000E-03 0. -1.
    9000002   -1    0    0    0    0 -0.00000000000E+00 -0.00000000000E+00  0.00000000000E+00  0.93800000000E+00  0.93800000000E+00 0.  1.
         11    1    1    2    0    0  0.27589100623E-01 -0.23097203650E-01  0.46150894113E+00  0.46290971382E+00  0.51100000000E-03 0. -1.
    9000002    1    1    2    0    0 -0.23928227928E+00  0.19479748237E+00  0.63562361377E-01  0.98948786860E+00  0.93800000000E+00 0.  1.
         22    1    1    2    0    0  0.21169317866E+00 -0.17170027872E+00  0.34749286649E+01  0.34856024176E+01  0.00000000000E+00 0. -1.
</event>
<event>
 5    1  0.2173147E+002  0.1589187E+01  0.7818608E-02  0.3365184E+00
         11   -1    0    0    0    0  0.00000000000E+00  0.00000000000E+00  0.39999999674E+01  0.40000000000E+01  0.51100000000E-03 0.  1.
    9000002   -1    0    0    0    0 -0.00000000000E+00 -0.00000000000E+00  0.00000000000E+00  0.93800000000E+00  0.93800000000E+00 0.  1.
         11    1    1    2    0    0 -0.62876930479E-01  0.72806829210E-01  0.14391235594E+01  0.14423353365E+01  0.51100000000E-03 0.  1.
    9000002    1    1    2    0    0 -0.14097082304E+00 -0.11150540578E+00  0.29212333525E-01  0.95551221285E+00  0.93800000000E+00 0.  1.
         22    1    1    2    0    0  0.20384775352E+00  0.38698576567E-01  0.25316640745E+01  0.25401524506E+01  0.00000000000E+00 0.  1.
</event>
<event>
 5    1  0.2173147E+002  0.1582513E+01  0.7818608E-02  0.3372564E+00
         11   -1    0    0    0    0  0.00000000000E+00  0.00000000000E+00  0.39999999674E+01  0.40000000000E+01  0.51100000000E-03 0. -1.
    9000002   -1    0    0    0    0 -0.00000000000E+00 -0.00000000000E+00  0.00000000000E+00  0.93800000000E+00  0.93800000000E+00 0.  1.
         11    1    1    2    0    0  0.70294933422E-01  0.54883949349E-01  0.36573682986E+00  0.37645360325E+00  0.51100000000E-03 0. -1.
    9000002    1    1    2    0    0  0.11710420453E+00 -0.13152437458E+00  0.33375395052E-01  0.95497118952E+00  0.93800000000E+00 0.  1.
         22    1    1    2    0    0 -0.18739913795E+00  0.76640425232E-01  0.36008877424E+01  0.36065752072E+01  0.00000000000E+00 0. -1.
</event>
<event>
 5    1  0.2173147E+002  0.1599453E+01  0.7818608E-02  0.3353957E+00
         11   -1    0    0    0    0  0.00000000000E+00  0.00000000000E+00  0.39999999674E+01  0.40000000000E+01  0.51100000000E-03 0.  1.
    9000002   -1    0    0    0    0 -0.00000000000E+00 -0.00000000000E+00  0.00000000000E+00  0.93800000000E+00  0.93800000000E+00 0.  1.
         11    1    1    2    0    0 -0.20634154827E-01  0.99796977577E-01  0.11376833147E+01  0.11422384999E+01  0.51100000000E-03 0.  1.
    9000002    1    1    2    0    0  0.19969051863E-01 -0.36675756520E+00  0.90818384878E-01  0.10114355410E+01  0.93800000000E+00 0.  1.
         22    1    1    2    0    0  0.66510296399E-03  0.26696058762E+00  0.27714982678E+01  0.27843259590E+01  0.00000000000E+00 0.  1.
</event>
<event>
 5    1  0.2173147E+002  0.1599325E+01  0.7818608E-02  0.3354096E+00
         11   -1    0    0    0    0  0.00000000000E+00  0.00000000000E+00  0.39999999674E+01  0.40000000000E+01  0.51100000000E-03 0. -1.
    9000002   -1    0    0    0    0 -0.00000000000E+00 -0.00000000000E+00  0.00000000000E+00  0.93800000000E+00  0.93800000000E+00 0. -1.
         11    1    1    2    0    0 -0.23535213623E-01  0.71773794347E-02  0.22640768201E+00  0.22774134594E+00  0.51100000000E-03 0. -1.
    9000002    1    1    2    0    0  0.23285186203E+00 -0.17134490159E+00  0.55974849919E-01  0.98313592589E+00  0.93800000000E+00 0. -1.
         22    1    1    2    0    0 -0.20931664841E+00  0.16416752216E+00  0.37176174354E+01  0.37271227282E+01  0.00000000000E+00 0. -1.
</event>
<event>
 5    1  0.2173147E+002  0.1597292E+01  0.7818608E-02  0.3356308E+00
         11   -1    0    0    0    0  0.00000000000E+00  0.00000000000E+00  0.39999999674E+01  0.40000000000E+01  0.51100000000E-03 0. -1.
    9000002   -1    0    0    0    0 -0.00000000000E+00 -0.00000000000E+00  0.00000000000E+00  0.93800000000E+00  0.93800000000E+00 0.  1.
         11    1    1    2    0    0 -0.25520306693E-01  0.73707401068E-01  0.48795082014E+00  0.49414606244E+00  0.51100000000E-03 0. -1.
    9000002    1    1    2    0    0  0.97938274462E-01 -0.29874127952E+00  0.67910548676E-01  0.99161186979E+00  0.93800000000E+00 0.  1.
         22    1    1    2    0    0 -0.72417967769E-01  0.22503387845E+00  0.34441385985E+01  0.34522420678E+01  0.00000000000E+00 0. -1.
</event>
<event>
 5    1  0.2173147E+002  0.1593686E+01  0.7818608E-02  0.3360245E+00
         11   -1    0    0    0    0  0.00000000000E+00  0.00000000000E+00  0.39999999674E+01  0.40000000000E+01  0.51100000000E-03 0.  1.
    9000002   -1    0    0    0    0 -0.00000000000E+00 -0.00000000000E+00  0.00000000000E+00  0.93800000000E+00  0.93800000000E+00 0.  1.
         11    1    1    2    0    0  0.10788236176E+00  0.75269478793E-01  0.17119069167E+01  0.17169535960E+01  0.51100000000E-03 0.  1.
    9000002    1    1    2    0    0 -0.27498502616E+00  0.37637378455E-01  0.55937578673E-01  0.97979913736E+00  0.93800000000E+00 0.  1.
         22    1    1    2    0    0  0.16710266441E+00 -0.11290685725E+00  0.22321554720E+01  0.22412472666E+01  0.00000000000E+00 0.  1.
</event>
<event>
 5    1  0.2173147E+002  0.1599656E+01  0.7818608E-02  0.3353737E+00
         11   -1    0    0    0    0  0.00000000000E+00  0.00000000000E+00  0.39999999674E+01  0.40000000000E+01  0.51100000000E-03 0.  1.
    9000002   -1    0    0    0    0 -0.00000000000E+00 -0.00000000000E+00  0.00000000000E+00  0.93800000000E+00  0.93800000000E+00 0.  1.
         11    1    1    2    0    0  0.21966913163E-01  0.20300228814E+00  0.15377558506E+01  0.15512529747E+01  0.51100000000E-03 0.  1.
    9000002    1    1    2    0    0 -0.47609127230E-01 -0.49407136970E+00  0.16857296019E+00  0.10745389664E+01  0.93800000000E+00 0.  1.
         22    1    1    2    0    0  0.25642214067E-01  0.29106908156E+00  0.22936711566E+01  0.23122080590E+01  0.00000000000E+00 0.  1.
</event>
<event>
 5    1  0.2173147E+002  0.1599490E+01  0.7818608E-02  0.3353917E+00
         11   -1    0    0    0    0  0.00000000000E+00  0.00000000000E+00  0.39999999674E+01  0.40000000000E+01  0.51100000000E-03 0.  1.
    9000002   -1    0    0    0    0 -0.00000000000E+00 -0.00000000000E+00  0.00000000000E+00  0.93800000000E+00  0.93800000000E+00 0.  1.
         11    1    1    2    0    0 -0.33120668796E-02 -0.10235704595E-01  0.11554528203E+00  0.11604616649E+00  0.51100000000E-03 0.  1.
    9000002    1    1    2    0    0 -0.67521384858E-02  0.48551494319E+00  0.16118045853E+00  0.10684537854E+01  0.93800000000E+00 0.  1.
         22    1    1    2    0    0  0.10064205365E-01 -0.47527923859E+00  0.37232742268E+01  0.37535000481E+01  0.00000000000E+00 0.  1.
</event>
<event>
 5    1  0.2173147E+002  0.1599675E+01  0.7818608E-02  0.3353716E+00
         11   -1    0    0    0    0  0.00000000000E+00  0.00000000000E+00  0.39999999674E+01  0.40000000000E+01  0.51100000000E-03 0. -1.
    9000002   -1    0    0    0    0 -0.00000000000E+00 -0.00000000000E+00  0.00000000000E+00  0.93800000000E+00  0.93800000000E+00 0. -1.
         11    1    1    2    0    0 -0.51711168764E-01 -0.12389178712E+00  0.14396158384E+01  0.14458621107E+01  0.51100000000E-03 0. -1.
    9000002    1    1    2    0    0  0.14112280785E+00  0.34082908007E+00  0.91440860901E-01  0.10120699283E+01  0.93800000000E+00 0. -1.
         22    1    1    2    0    0 -0.89411639081E-01 -0.21693729295E+00  0.24689432681E+01  0.24800679610E+01  0.00000000000E+00 0. -1.
</event>
<event>
 5    1  0.2173147E+002  0.1599676E+01  0.7818608E-02  0.3353715E+00
         11   -1    0    0    0    0  0.00000000000E+00  0.00000000000E+00  0.39999999674E+01  0.40000000000E+01  0.51100000000E-03 0.  1.
    9000002   -1    0    0    0    0 -0.00000000000E+00 -0.00000000000E+00  0.00000000000E+00  0.93800000000E+00  0.93800000000E+00 0.  1.
         11    1    1    2    0    0  0.27417508634E+00 -0.20679329420E-01  0.21955748853E+01  0.22127243277E+01  0.51100000000E-03 0.  1.
    9000002    1    1    2    0    0 -0.47949367081E+00  0.37789126541E-01  0.15787430410E+00  0.10658848410E+01  0.93800000000E+00 0.  1.
         22    1    1    2    0    0  0.20531858447E+00 -0.17109797121E-01  0.16465507780E+01  0.16593908312E+01  0.00000000000E+00 0.  1.
</event>
<event>
 5    1  0.2173147E+002  0.1599323E+01  0.7818608E-02  0.3354098E+00
         11   -1    0    0    0    0  0.00000000000E+00  0.00000000000E+00  0.39999999674E+01  0.40000000000E+01  0.51100000000E-03 0. -1.
    9000002   -1    0    0    0    0 -0.00000000000E+00 -0.00000000000E+00  0.00000000000E+00  0.93800000000E+00  0.93800000000E+00 0. -1.
         11    1    1    2    0    0 -0.40047238359E-01 -0.93851750659E-01  0.10529171092E+01  0.10578500046E+01  0.51100000000E-03 0. -1.
    9000002    1    1    2    0    0  0.13888408784E+00  0.27646463042E+00  0.64192071948E-01  0.98979093946E+00  0.93800000000E+00 0. -1.
         22    1    1    2    0    0 -0.98836849482E-01 -0.18261287976E+00  0.28828907863E+01  0.28903590559E+01  0.00000000000E+00 0. -1.
</event>
<event>
 5    1  0.2173147E+002  0.1595535E+01  0.7818608E-02  0.3358224E+00
         11   -1    0    0    0    0  0.00000000000E+00  0.00000000000E+00  0.39999999674E+01  0.40000000000E+01  0.51100000000E-03 0.  1.
    9000002   -1    0    0    0    0 -0.00000000000E+00 -0.00000000000E+00  0.00000000000E+00  0.93800000000E+00  0.93800000000E+00 0.  1.
         11    1    1    2    0    0 -0.16255894994E+00  0.16295485221E+00  0.23166458009E+01  0.23280523456E+01  0.51100000000E-03 0.  1.
    9000002    1    1    2    0    0  0.28104749912E+00 -0.39550980749E+00  0.16445466381E+00  0.10687867145E+01  0.93800000000E+00 0.  1.
         22    1    1    2    0    0 -0.11848854917E+00  0.23255495528E+00  0.15188995027E+01  0.15411609399E+01  0.00000000000E+00 0.  1.
</event>
<event>
 5    1  0.2173147E+002  0.1589602E+01  0.7818608E-02  0.3364727E+00
         11   -1    0    0    0    0  0.00000000000E+00  0.00000000000E+00  0.39999999674E+01  0.40000000000E+01  0.51100000000E-03 0.  1.
    9000002   -1    0    0    0    0 -0.00000000000E+00 -0.00000000000E+00  0.00000000000E+00  0.93800000000E+00  0.93800000000E+00 0. -1.
         11    1    1    2    0    0 -0.14050730867E+00 -0.34095483821E+00  0.20721916287E+01  0.21047496081E+01  0.51100000000E-03 0.  1.
    9000002    1    1    2    0    0  0.38282639625E+00  0.44174684590E+00  0.24754687024E+00  0.11326163421E+01  0.93800000000E+00 0. -1.
         22    1    1    2    0    0 -0.24231908758E+00 -0.10079200769E+00  0.16802614684E+01  0.17006340498E+01  0.00000000000E+00 0.  1.
</event>
<event>
 5    1  0.2173147E+002  0.1599582E+01  0.7818608E-02  0.3353817E+00
         11   -1    0    0    0    0  0.00000000000E+00  0.00000000000E+00  0.39999999674E+01  0.40000000000E+01  0.51100000000E-03 0. -1.
    9000002   -1    0    0    0    0 -0.00000000000E+00 -0.00000000000E+00  0.00000000000E+00  0.93800000000E+00  0.93800000000E+00 0. -1.
         11    1    1    2    0    0 -0.27316969719E-02 -0.16858477768E-01  0.19075874628E+00  0.19152240299E+00  0.51100000000E-03 0. -1.
    9000002    1    1    2    0    0  0.88917408952E-01  0.25068749824E+00  0.47131354806E-01  0.97612288775E+00  0.93800000000E+00 0. -1.
         22    1    1    2    0    0 -0.86185711980E-01 -0.23382902047E+00  0.37621098663E+01  0.37703547093E+01  0.00000000000E+00 0. -1.
</event>
<event>
 5    1  0.2173147E+002  0.1529782E+01  0.7818608E-02  0.3433289E+00
         11   -1    0    0    0    0  0.00000000000E+00  0.00000000000E+00  0.39999999674E+01  0.40000000000E+01  0.51100000000E-03 0. -1.
    9000002   -1    0    0    0    0 -0.00000000000E+00 -0.00000000000E+00  0.00000000000E+00  0.93800000000E+00  0.93800000000E+00 0. -1.
         11    1    1    2    0    0  0.13520527478E+00 -0.28214191284E+00  0.12815264037E+01  0.13191643983E+01  0.51100000000E-03 0. -1.
    9000002    1    1    2    0    0 -0.19006842874E+00 -0.23937496613E-01  0.78460404777E-01  0.96057224948E+00  0.93800000000E+00 0. -1.
         22    1    1    2    0    0  0.54863153964E-01  0.30607940945E+00  0.26400131589E+01  0.26582633522E+01  0.00000000000E+00 0. -1.
</event>
<event>
 5    1  0.2173147E+002  0.1599676E+01  0.7818608E-02  0.3353715E+00
         11   -1    0    0    0    0  0.00000000000E+00  0.00000000000E+00  0.39999999674E+01  0.40000000000E+01  0.51100000000E-03 0.  1.
    9000002   -1    0    0    0    0 -0.00000000000E+00 -0.00000000000E+00  0.00000000000E+00  0.93800000000E+00  0.93800000000E+00 0. -1.
         11    1    1    2    0    0  0.59643525895E-01 -0.19957692483E+00  0.19127060110E+01  0.19240147725E+01  0.51100000000E-03 0.  1.
    9000002    1    1    2    0    0 -0.12339860628E+00  0.40587488174E+00  0.12178008634E+00  0.10366465285E+01  0.93800000000E+00 0. -1.
         22    1    1    2    0    0  0.63755080388E-01 -0.20629795691E+00  0.19655138700E+01  0.19773386990E+01  0.00000000000E+00 0.  1.
</event>
<event>
 5    1  0.2173147E+002  0.1556783E+01  0.7818608E-02  0.3401648E+00
         11   -1    0    0    0    0  0.00000000000E+00  0.00000000000E+00  0.39999999674E+01  0.40000000000E+01  0.51100000000E-03 0.  1.
    9000002   -1    0    0    0    0 -0.00000000000E+00 -0.00000000000E+00  0.00000000000E+00  0.93800000000E+00  0.93800000000E+00 0.  1.
         11    1    1    2    0    0 -0.37264007454E+00 -0.18008639831E+00  0.30252096812E+01  0.30533892010E+01  0.51100000000E-03 0.  1.
    9000002    1    1    2    0    0  0.22942649954E+00  0.32048351410E+00  0.14115164853E+00  0.10271874169E+01  0.93800000000E+00 0.  1.
         22    1    1    2    0    0  0.14321357500E+00 -0.14039711579E+00  0.83363863760E+00  0.85742338216E+00  0.00000000000E+00 0. -1.
</event>
<event>
 5    1  0.2173147E+002  0.1593477E+01  0.7818608E-02  0.3360474E+00
         11   -1    0    0    0    0  0.00000000000E+00  0.00000000000E+00  0.39999999674E+01  0.40000000000E+01  0.51100000000E-03 0.  1.
    9000002   -1    0    0    0    0 -0.00000000000E+00 -0.00000000000E+00  0.00000000000E+00  0.93800000000E+00  0.93800000000E+00 0. -1.
         11    1    1    2    0    0  0.15779512372E+00 -0.13796518589E+00  0.11553446020E+01  0.11742040300E+01  0.51100000000E-03 0.  1.
    9000002    1    1    2    0    0 -0.27679238364E+00  0.31437542446E+00  0.12388404107E+00  0.10347159933E+01  0.93800000000E+00 0. -1.
         22    1    1    2    0    0  0.11899725991E+00 -0.17641023857E+00  0.27207713243E+01  0.27290799767E+01  0.00000000000E+00 0.  1.
</event>
<event>
 5    1  0.2173147E+002  0.1594078E+01  0.7818608E-02  0.3359816E+00
         11   -1    0    0    0    0  0.00000000000E+00  0.00000000000E+00  0.39999999674E+01  0.40000000000E+01  0.51100000000E-03 0. -1.
    9000002   -1    0    0    0    0 -0.00000000000E+00 -0.00000000000E+00  0.00000000000E+00  0.93800000000E+00  0.93800000000E+00 0.  1.
         11    1    1    2    0    0 -0.46303554785E-01 -0.77129865585E-02  0.89248793666E+00  0.89372170587E+00  0.51100000000E-03 0. -1.
    9000002    1    1    2    0    0 -0.64688297106E-01 -0.16210284519E+00  0.24310038646E-01  0.95440918173E+00  0.93800000000E+00 0.  1.
         22    1    1    2    0    0  0.11099185189E+00  0.16981583175E+00  0.30832019921E+01  0.30898691124E+01  0.00000000000E+00 0. -1.
</event>
<event>
 5    1  0.2173147E+002  0.1595164E+01  0.7818608E-02  0.3358629E+00
         11   -1    0    0    0    0  0.00000000000E+00  0.00000000000E+00  0.39999999674E+01  0.40000000000E+01  0.51100000000E-03 0.  1.
    9000002   -1    0    0    0    0 -0.00000000000E+00 -0.00000000000E+00  0.00000000000E+00  0.93800000000E+00  0.93800000000E+00 0.  1.
         11    1    1    2    0    0  0.57052473972E-01 -0.72980346138E-01  0.14905295930E+01  0.14934054521E+01  0.51100000000E-03 0.  1.
    9000002    1    1    2    0    0 -0.28170604782E+00  0.32026867433E-01  0.57056463375E-01  0.98157193197E+00  0.93800000000E+00 0.  1.
         22    1    1    2    0    0  0.22465357385E+00  0.40953478705E-01  0.24524139110E+01  0.24630226159E+01  0.00000000000E+00 0.  1.
</event>
<event>
 5    1  0.2173147E+002  0.1599675E+01  0.7818608E-02  0.3353716E+00
         11   -1    0    0    0    0  0.00000000000E+00  0.00000000000E+00  0.39999999674E+01  0.40000000000E+01  0.51100000000E-03 0. -1.
    9000002   -1    0    0    0    0 -0.00000000000E+00 -0.00000000000E+00  0.00000000000E+00  0.93800000000E+00  0.93800000000E+00 0. -1.
         11    1    1    2    0    0 -0.61799564496E-02 -0.91158682963E-02  0.19967847999E+00  0.19998261776E+00  0.51100000000E-03 0. -1.
    9000002    1    1    2    0    0  0.12389505757E+00  0.17192694933E+00  0.29753762900E-01  0.96210090303E+00  0.93800000000E+00 0. -1.
         22    1    1    2    0    0 -0.11771510112E+00 -0.16281108104E+00  0.37705677245E+01  0.37759164792E+01  0.00000000000E+00 0. -1.
</event>
<event>
 5    1  0.2173147E+002  0.1599660E+01  0.7818608E-02  0.3353733E+00
         11   -1    0    0    0    0  0.00000000000E+00  0.00000000000E+00  0.39999999674E+01  0.40000000000E+01  0.51100000000E-03 0. -1.
    9000002   -1    0    0    0    0 -0.00000000000E+00 -0.00000000000E+00  0.00000000000E+00  0.93800000000E+00  0.93800000000E+00 0. -1.
         11    1    1    2    0    0  0.43713546521E-01  0.55873253374E-01  0.39699208720E+00  0.40328113397E+00  0.51100000000E-03 0. -1.
    9000002    1    1    2    0    0 -0.38787516888E+00 -0.54074301793E+00  0.31369787985E+00  0.11920992064E+01  0.93800000000E+00 0. -1.
         22    1    1    2    0    0  0.34416162236E+00  0.48486976455E+00  0.32893100003E+01  0.33426196596E+01  0.00000000000E+00 0. -1.
</event>
<event>
 5    1  0.2173147E+002  0.1595300E+01  0.7818608E-02  0.3358481E+00
         11   -1    0    0    0    0  0.00000000000E+00  0.00000000000E+00  0.39999999674E+01  0.40000000000E+01  0.51100000000E-03 0.  1.
    9000002   -1    0    0    0    0 -0.00000000000E+00 -0.00000000000E+00  0.00000000000E+00  0.93800000000E+00  0.93800000000E+00 0.  1.
         11    1    1    2    0    0  0.45702597425E-01  0.45017394085E+00  0.24602921028E+01  0.25015560750E+01  0.51100000000E-03 0.  1.
    9000002    1    1    2    0    0  0.37172962422E-01 -0.70203515057E+00  0.35844640314E+00  0.12257907675E+01  0.93800000000E+00 0.  1.
         22    1    1    2    0    0 -0.82875559847E-01  0.25186120972E+00  0.11812614614E+01  0.12106531575E+01  0.00000000000E+00 0.  1.
</event>
<event>
 5    1  0.2173147E+002  0.1599669E+01  0.7818608E-02  0.3353723E+00
         11   -1    0    0    0    0  0.00000000000E+00  0.00000000000E+00  0.39999999674E+01  0.40000000000E+01  0.51100000000E-03 0. -1.
    9000002   -1    0    0    0    0 -0.00000000000E+00 -0.00000000000E+00  0.00000000000E+00  0.93800000000E+00  0.93800000000E+00 0.  1.
         11    1    1    2    0    0 -0.93609293759E-02 -0.40895364730E-02  0.19782112575E+00  0.19808536095E+00  0.51100000000E-03 0. -1.
    9000002    1    1    2    0    0  0.19425979072E+00  0.10963863118E+00  0.32995266870E-01  0.96472285314E+00  0.93800000000E+00 0.  1.
         22    1    1    2    0    0 -0.18489886135E+00 -0.10554909471E+00  0.37691835747E+01  0.37751917859E+01  0.00000000000E+00 0. -1.
</event>
<event>
 5    1  0.2173147E+002  0.1599675E+01  0.7818608E-02  0.3353716E+00
         11   -1    0    0    0    0  0.00000000000E+00  0.00000000000E+00  0.39999999674E+01  0.40000000000E+01  0.51100000000E-03 0. -1.
    9000002   -1    0    0    0    0 -0.00000000000E+00 -0.00000000000E+00  0.00000000000E+00  0.93800000000E+00  0.93800000000E+00 0. -1.
         11    1    1    2    0    0 -0.24306126028E-01 -0.20751727772E-01  0.51019083019E+00  0.51119112502E+00  0.51100000000E-03 0. -1.
    9000002    1    1    2    0    0  0.18104985337E+00  0.15787952717E+00  0.38306272628E-01  0.96902856771E+00  0.93800000000E+00 0. -1.
         22    1    1    2    0    0 -0.15674372735E+00 -0.13712779940E+00  0.34515028645E+01  0.34577803073E+01  0.00000000000E+00 0. -1.
</event>
<event>
 5    1  0.2173147E+002  0.1599668E+01  0.7818608E-02  0.3353724E+00
         11   -1    0    0    0    0  0.00000000000E+00  0.00000000000E+00  0.39999999674E+01  0.40000000000E+01  0.51100000000E-03 0. -1.
    9000002   -1    0    0    0    0 -0.00000000000E+00 -0.00000000000E+00  0.00000000000E+00  0.93800000000E+00  0.93800000000E+00 0.  1.
         11    1    1    2    0    0 -0.19566269174E-01  0.50761775919E-01  0.76910736390E+00  0.77102917915E+00  0.51100000000E-03 0. -1.
    9000002    1    1    2    0    0  0.10759298045E+00 -0.24822941558E+00  0.48708772864E-01  0.97745109174E+00  0.93800000000E+00 0.  1.
         22    1    1    2    0    0 -0.88026711275E-01  0.19746763966E+00  0.31821838306E+01  0.31895197291E+01  0.00000000000E+00 0. -1.
</event>
<event>
 5    1  0.2173147E+002  0.1598841E+01  0.7818608E-02  0.3354622E+00
         11   -1    0    0    0    0  0.00000000000E+00  0.00000000000E+00  0.39999999674E+01  0.40000000000E+01  0.51100000000E-03 0.  1.
    9000002   -1    0    0    0    0 -0.00000000000E+00 -0.00000000000E+00  0.00000000000E+00  0.93800000000E+00  0.93800000000E+00 0.  1.
         11    1    1    2    0    0 -0.43956393159E-02 -0.31779683006E-02  0.69223847954E-01  0.69437910208E-01  0.51100000000E-03 0. -1.
    9000002    1    1    2    0    0 -0.21984485789E-01 -0.26152822925E+00  0.46443902596E-01  0.97513146211E+00  0.93800000000E+00 0.  1.
         22    1    1    2    0    0  0.26380125105E-01  0.26470619755E+00  0.38843322168E+01  0.38934306277E+01  0.00000000000E+00 0.  1.
</event>
<event>
 5    1  0.2173147E+002  0.1557558E+01  0.7818608E-02  0.3400757E+00
         11   -1    0    0    0    0  0.00000000000E+00  0.00000000000E+00  0.39999999674E+01  0.40000000000E+01  0.51100000000E-03 0. -1.
    9000002   -1    0    0    0    0 -0.00000000000E+00 -0.00000000000E+00  0.00000000000E+00  0.93800000000E+00  0.93800000000E+00 0. -1.
         11    1    1    2    0    0  0.25337437650E-01 -0.23944181746E+00  0.20383225076E+01  0.20524944034E+01  0.51100000000E-03 0. -1.
    9000002    1    1    2    0    0 -0.42698990129E+00  0.18426083708E+00  0.18502200567E+00  0.10631789946E+01  0.93800000000E+00 0. -1.
         22    1    1    2    0    0  0.40165246364E+00  0.55180980382E-01  0.17766554541E+01  0.18223266021E+01  0.00000000000E+00 0. -1.
</event>
<event>
 5    1  0.2173147E+002  0.1599200E+01  0.7818608E-02  0.3354232E+00
         11   -1    0    0    0    0  0.00000000000E+00  0.00000000000E+00  0.39999999674E+01  0.40000000000E+01  0.51100000000E-03 0.  1.
    9000002   -1    0    0    0    0 -0.00000000000E+00 -0.00000000000E+00  0.00000000000E+00  0.93800000000E+00  0.93800000000E+00 0. -1.
         11    1    1    2    0    0  0.15877422868E-01  0.67099452588E-01  0.11253354306E+01  0.11274460171E+01  0.51100000000E-03 0.  1.
    9000002    1    1    2    0    0 -0.85811187367E-01 -0.31174227143E+00  0.70280453231E-01  0.99465076574E+00  0.93800000000E+00 0. -1.
         22    1    1    2    0    0  0.69933764499E-01  0.24464281884E+00  0.28043840836E+01  0.28159032172E+01  0.00000000000E+00 0.  1.
</event>
<event>
 5    1  0.2173147E+002  0.1570610E+01  0.7818608E-02  0.3385893E+00
         11   -1    0    0    0    0  0.00000000000E+00  0.00000000000E+00  0.39999999674E+01  0.40000000000E+01  0.51100000000E-03 0.  1.
    9000002   -1    0    0    0    0 -0.00000000000E+00 -0.00000000000E+00  0.00000000000E+00  0.93800000000E+00  0.93800000000E+00 0.  1.
         11    1    1    2    0    0 -0.87157031605E-01 -0.16285967871E+00  0.17395869587E+01  0.17493663627E+01  0.51100000000E-03 0.  1.
    9000002    1    1    2    0    0  0.70469815613E-01 -0.74788350092E-01  0.28499928425E-01  0.94404212731E+00  0.93800000000E+00 0.  1.
         22    1    1    2    0    0  0.16687215993E-01  0.23764802880E+00  0.22319130803E+01  0.22445915100E+01  0.00000000000E+00 0. -1.
</event>
<event>
 5    1  0.2173147E+002  0.1491381E+01  0.7818608E-02  0.3480406E+00
         11   -1    0    0    0    0  0.00000000000E+00  0.00000000000E+00  0.39999999674E+01  0.40000000000E+01  0.51100000000E-03 0.  1.
    9000002   -1    0    0    0    0 -0.00000000000E+00 -0.00000000000E+00  0.00000000000E+00  0.93800000000E+00  0.93800000000E+00 0.  1.
         11    1    1    2    0    0 -0.24798991331E+00  0.23871561945E+00  0.12087943176E+01  0.12568484823E+01  0.51100000000E-03 0.  1.
    9000002    1    1    2    0    0 -0.22811991174E+00 -0.17948967958E+00  0.14587257761E+00  0.99266210168E+00  0.93800000000E+00 0.  1.
         22    1    1    2    0    0  0.47610982506E+00 -0.59225939865E-01  0.26453330721E+01  0.26884894160E+01  0.00000000000E+00 0.  1.
</event>
<event>
 5    1  0.2173147E+002  0.1597794E+01  0.7818608E-02  0.3355761E+00
         11   -1    0    0    0    0  0.00000000000E+00  0.00000000000E+00  0.39999999674E+01  0.40000000000E+01  0.51100000000E-03 0.  1.
    9000002   -1    0    0    0    0 -0.00000000000E+00 -0.00000000000E+00  0.00000000000E+00  0.93800000000E+00  0.93800000000E+00 0.  1.
         11    1    1    2    0    0  0.33978646712E-01  0.97857861428E-01  0.11074827352E+01  0.11123169420E+01  0.51100000000E-03 0.  1.
    9000002    1    1    2    0    0  0.44890450858E-01 -0.32655809096E+00  0.74195571059E-01  0.99699765402E+00  0.93800000000E+00 0.  1.
         22    1    1    2    0    0 -0.78869097570E-01  0.22870022953E+00  0.28183216611E+01  0.28286854040E+01  0.00000000000E+00 0.  1.
</event>
<event>
 5    1  0.2173147E+002  0.1599676E+01  0.7818608E-02  0.3353715E+00
         11   -1    0    0    0    0  0.00000000000E+00  0.00000000000E+00  0.39999999674E+01  0.40000000000E+01  0.51100000000E-03 0.  1.
    9000002   -1    0    0    0    0 -0.00000000000E+00 -0.00000000000E+00  0.00000000000E+00  0.93800000000E+00  0.93800000000E+00 0. -1.
         11    1    1    2    0    0 -0.51907313653E-01  0.34369295384E-01  0.88378934824E+00  0.88597939641E+00  0.51100000000E-03 0.  1.
    9000002    1    1    2    0    0  0.23438340149E+00 -0.15534473596E+00  0.52658205468E-01  0.98065511394E+00  0.93800000000E+00 0. -1.
         22    1    1    2    0    0 -0.18247608784E+00  0.12097544057E+00  0.30635524136E+01  0.30713654897E+01  0.00000000000E+00 0.  1.
</event>
<event>
 5    1  0.2173147E+002  0.1598947E+01  0.7818608E-02  0.3354507E+00
         11   -1    0    0    0    0  0.00000000000E+00  0.00000000000E+00  0.39999999674E+01  0.40000000000E+01  0.51100000000E-03 0. -1.
    9000002   -1    0    0    0    0 -0.00000000000E+00 -0.00000000000E+00  0.00000000000E+00  0.93800000000E+00  0.93800000000E+00 0.  1.
         11    1    1    2    0    0 -0.17509670482E+00 -0.31143271842E+00  0.19479211739E+01  0.19804157026E+01  0.51100000000E-03 0. -1.
    9000002    1    1    2    0    0  0.27074240534E+00  0.59290889916E+00  0.30068966325E+00  0.11811438043E+01  0.93800000000E+00 0.  1.
         22    1    1    2    0    0 -0.95645700524E-01 -0.28147618074E+00  0.17513891302E+01  0.17764404931E+01  0.00000000000E+00 0.  1.
</event>
<event>
 5    1  0.2173147E+002  0.1586890E+01  0.7818608E-02  0.3367716E+00
         11   -1    0    0    0    0  0.00000000000E+00  0.00000000000E+00  0.39999999674E+01  0.40000000000E+01  0.51100000000E-03 0. -1.
    9000002   -1    0    0    0    0 -0.00000000000E+00 -0.00000000000E+00  0.00000000000E+00  0.93800000000E+00  0.93800000000E+00 0.  1.
         11    1    1    2    0    0 -0.50399593793E-01 -0.91929862224E-01  0.13418809645E+01  0.13459702830E+01  0.51100000000E-03 0. -1.
    9000002    1    1    2    0    0  0.10940151774E+00 -0.10676675028E+00  0.24936070491E-01  0.95070165597E+00  0.93800000000E+00 0.  1.
         22    1    1    2    0    0 -0.59001923945E-01  0.19869661250E+00  0.26331829324E+01  0.26413280611E+01  0.00000000000E+00 0.  1.
</event>
<event>
 5    1  0.2173147E+002  0.1555239E+01  0.7818608E-02  0.3403425E+00
         11   -1    0    0    0    0  0.00000000000E+00  0.00000000000E+00  0.39999999674E+01  0.40000000000E+01  0.51100000000E-03 0.  1.
    9000002   -1    0    0    0    0 -0.00000000000E+00 -0.00000000000E+00  0.00000000000E+00  0.93800000000E+00  0.93800000000E+00 0. -1.
         11    1    1    2    0    0  0.13144810745E+00  0.23770537870E-01  0.10407966036E+01  0.10493338242E+01  0.51100000000E-03 0.  1.
    9000002    1    1    2    0    0  0.22417118528E+00  0.34825237365E+00  0.15426698564E+00  0.10369063308E+01  0.93800000000E+00 0. -1.
         22    1    1    2    0    0 -0.35561929273E+00 -0.37202291152E+00  0.28049363781E+01  0.28517598450E+01  0.00000000000E+00 0.  1.
</event>
<event>
 5    1  0.2173147E+002  0.1596789E+01  0.7818608E-02  0.3356856E+00
         11   -1    0    0    0    0  0.00000000000E+00  0.00000000000E+00  0.39999999674E+01  0.40000000000E+01  0.51100000000E-03 0. -1.
    9000002   -1    0    0    0    0 -0.00000000000E+00 -0.00000000000E+00  0.00000000000E+00  0.93800000000E+00  0.93800000000E+00 0. -1.
         11    1    1    2    0    0  0.18680739801E+00  0.13305236129E+00  0.11764498626E+01  0.11985968776E+01  0.51100000000E-03 0. -1.
    9000002    1    1    2    0    0 -0.41238827459E+00 -0.49030680504E+00  0.29201562122E+00  0.11728520687E+01  0.93800000000E+00 0. -1.
         22    1    1    2    0    0  0.22558087658E+00  0.35725444375E+00  0.25315344835E+01  0.25665510536E+01  0.00000000000E+00 0. -1.
</event>
<event>
 5    1  0.2173147E+002  0.1599515E+01  0.7818608E-02  0.3353890E+00
         11   -1    0    0    0    0  0.00000000000E+00  0.00000000000E+00  0.39999999674E+01  0.40000000000E+01  0.51100000000E-03 0. -1.
    9000002   -1    0    0    0    0 -0.00000000000E+00 -0.00000000000E+00  0.00000000000E+00  0.93800000000E+00  0.93800000000E+00 0.  1.
         11    1    1    2    0    0  0.86413373510E-03  0.56470817518E-02  0.68526933784E-01  0.68766547349E-01  0.51100000000E-03 0. -1.
    9000002    1    1    2    0    0 -0.16118961489E+00 -0.12641700220E+00  0.27910378766E-01  0.96051358118E+00  0.93800000000E+00 0.  1.
         22    1    1    2    0    0  0.16032548115E+00  0.12076992045E+00  0.39035626548E+01  0.39087198715E+01  0.00000000000E+00 0. -1.
</event>
<event>
 5    1  0.2173147E+002  0.1599660E+01  0.7818608E-02  0.3353732E+00
         11   -1    0    0    0    0  0.00000000000E+00  0.00000000000E+00  0.39999999674E+01  0.40000000000E+01  0.51100000000E-03 0.  1.
    9000002   -1    0    0    0    0 -0.00000000000E+00 -0.00000000000E+00  0.00000000000E+00  0.93800000000E+00  0.93800000000E+00 0.  1.
         11    1    1    2    0    0 -0.37086511590E-01  0.40440870662E-01  0.63478378931E+00  0.63715115448E+00  0.51100000000E-03 0.  1.
    9000002    1    1    2    0    0  0.24616911441E+00 -0.26331542508E+00  0.87238274339E-01  0.10086569102E+01  0.93800000000E+00 0.  1.
         22    1    1    2    0    0 -0.20908260282E+00  0.22287455442E+00  0.32779779037E+01  0.32921919353E+01  0.00000000000E+00 0.  1.
</event>
<event>
 5    1  0.2173147E+002  0.1599549E+01  0.7818608E-02  0.3353853E+00
         11   -1    0    0    0    0  0.00000000000E+00  0.00000000000E+00  0.39999999674E+01  0.40000000000E+01  0.51100000000E-03 0. -1.
    9000002   -1    0    0    0    0 -0.00000000000E+00 -0.00000000000E+00  0.00000000000E+00  0.93800000000E+00  0.93800000000E+00 0. -1.
         11    1    1    2    0    0  0.52624177954E-01  0.12408607491E+00  0.14663393926E+01  0.14725210130E+01  0.51100000000E-03 0. -1.
    9000002    1    1    2    0    0 -0.15722286563E+00 -0.30073730846E+00  0.77230626306E-01  0.10004851462E+01  0.93800000000E+00 0. -1.
         22    1    1    2    0    0  0.10459868768E+00  0.17665123355E+00  0.24564299484E+01  0.24649938408E+01  0.00000000000E+00 0. -1.
</event>
<event>
 5    1  0.2173147E+002  0.1599651E+01  0.7818608E-02  0.3353742E+00
         11   -1    0    0    0    0  0.00000000000E+00  0.00000000000E+00  0.39999999674E+01  0.40000000000E+01  0.51100000000E-03 0.  1.
    9000002   -1    0    0    0    0 -0.00000000000E+00 -0.00000000000E+00  0.00000000000E+00  0.93800000000E+00  0.93800000000E+00 0. -1.
         11    1    1    2    0    0 -0.74035916220E-01  0.40263214855E+00  0.19101076150E+01  0.19534854302E+01  0.51100000000E-03 0.  1.
    9000002    1    1    2    0    0  0.12772917711E+00 -0.75079568434E+00  0.42199051958E+00  0.12798159637E+01  0.93800000000E+00 0. -1.
         22    1    1    2    0    0 -0.53693260893E-01  0.34816353579E+00  0.16679018327E+01  0.17046986061E+01  0.00000000000E+00 0.  1.
</event>
<event>
 5    1  0.2173147E+002  0.1599676E+01  0.7818608E-02  0.3353715E+00
         11   -1    0    0    0    0  0.00000000000E+00  0.00000000000E+00  0.39999999674E+01  0.40000000000E+01  0.51100000000E-03 0. -1.
    9000002   -1    0    0    0    0 -0.00000000000E+00 -0.00000000000E+00  0.00000000000E+00  0.93800000000E+00  0.93800000000E+00 0. -1.
         11    1    1    2    0    0 -0.29634102453E+00 -0.48781563471E-01  0.21358124096E+01  0.21568246461E+01  0.51100000000E-03 0. -1.
    9000002    1    1    2    0    0  0.52666693679E+00  0.84775520610E-01  0.19594582158E+00  0.10967240839E+01  0.93800000000E+00 0. -1.
         22    1    1    2    0    0 -0.23032591226E+00 -0.35993957139E-01  0.16682417362E+01  0.16844512700E+01  0.00000000000E+00 0. -1.
</event>
<event>
 5    1  0.2173147E+002  0.1599666E+01  0.7818608E-02  0.3353726E+00
         11   -1    0    0    0    0  0.00000000000E+00  0.00000000000E+00  0.39999999674E+01  0.40000000000E+01  0.51100000000E-03 0. -1.
    9000002   -1    0    0    0    0 -0.00000000000E+00 -0.00000000000E+00  0.00000000000E+00  0.93800000000E+00  0.93800000000E+00 0. -1.
         11    1    1    2    0    0 -0.41278832607E-01  0.76303503499E-01  0.11295398466E+01  0.11328665821E+01  0.51100000000E-03 0. -1.
    9000002    1    1    2    0    0  0.14389689248E+00 -0.25393440721E+00  0.56796605483E-01  0.98400144981E+00  0.93800000000E+00 0. -1.
         22    1    1    2    0    0 -0.10261805988E+00  0.17763090371E+00  0.28136635153E+01  0.28211319681E+01  0.00000000000E+00 0.  1.
</event>
<event>
 5    1  0.2173147E+002  0.1599561E+01  0.7818608E-02  0.3353840E+00
         11   -1    0    0    0    0  0.00000000000E+00  0.00000000000E+00  0.39999999674E+01  0.40000000000E+01  0.51100000000E-03 0.  1.
    9000002   -1    0    0    0    0 -0.00000000000E+00 -0.00000000000E+00  0.00000000000E+00  0.93800000000E+00  0.93800000000E+00 0. -1.
         11    1    1    2    0    0 -0.54101971484E-02 -0.19381380177E-01  0.14559776901E+00  0.14698258261E+00  0.51100000000E-03 0.  1.
    9000002    1    1    2    0    0  0.80118286375E-01  0.40236104165E+00  0.11377988006E+00  0.10300986403E+01  0.93800000000E+00 0. -1.
         22    1    1    2    0    0 -0.74708089227E-01 -0.38297966147E+00  0.37406223183E+01  0.37609187771E+01  0.00000000000E+00 0.  1.
</event>
<event>
 5    1  0.2173147E+002  0.1599632E+01  0.7818608E-02  0.3353763E+00
         11   -1    0    0    0    0  0.00000000000E+00  0.00000000000E+00  0.39999999674E+01  0.40000000000E+01  0.51100000000E-03 0.  1.
    9000002   -1    0    0    0    0 -0.00000000000E+00 -0.00000000000E+00  0.00000000000E+00  0.93800000000E+00  0.93800000000E+00 0.  1.
         11    1    1    2    0    0  0.11686154444E-01  0.96733948745E-02  0.23740903922E+00  0.23789378680E+00  0.51100000000E-03 0.  1.
    9000002    1    1    2    0    0 -0.14141705959E+00 -0.19555394669E+00  0.38697442286E-01  0.96932018593E+00  0.93800000000E+00 0.  1.
         22    1    1    2    0    0  0.12973090514E+00  0.18588055182E+00  0.37238934859E+01  0.37307860273E+01  0.00000000000E+00 0.  1.
</event>
<event>
 5    1  0.2173147E+002  0.1532507E+01  0.7818608E-02  0.3430042E+00
         11   -1    0    0    0    0  0.00000000000E+00  0.00000000000E+00  0.39999999674E+01  0.40000000000E+01  0.51100000000E-03 0.  1.
    9000002   -1    0    0    0    0 -0.00000000000E+00 -0.00000000000E+00  0.00000000000E+00  0.93800000000E+00  0.93800000000E+00 0. -1.
         11    1    1    2    0    0  0.22081656022E+00  0.14308179997E+00  0.78280810171E+00  0.82584571197E+00  0.51100000000E-03 0.  1.
    9000002    1    1    2    0    0 -0.68151705460E-01 -0.86738041555E-02  0.53608800606E-01  0.94203916762E+00  0.93800000000E+00 0. -1.
         22    1    1    2    0    0 -0.15266485476E+00 -0.13440799582E+00  0.31635830650E+01  0.31701151204E+01  0.00000000000E+00 0.  1.
</event>
<event>
 5    1  0.2173147E+002  0.1599675E+01  0.7818608E-02  0.3353716E+00
         11   -1    0    0    0    0  0.00000000000E+00  0.00000000000E+00  0.39999999674E+01  0.40000000000E+01  0.51100000000E-03 0. -1.
    9000002   -1    0    0    0    0 -0.00000000000E+00 -0.00000000000E+00  0.00000000000E+00  0.93800000000E+00  0.93800000000E+00 0.  1.
         11    1    1    2    0    0 -0.10189412980E-01 -0.23524216207E+00  0.16383989791E+01  0.16552323628E+01  0.51100000000E-03 0. -1.
    9000002    1    1    2    0    0  0.27158299950E-01  0.54531958636E+00  0.20575139789E+00  0.11046667653E+01  0.93800000000E+00 0.  1.
         22    1    1    2    0    0 -0.16968886971E-01 -0.31007742429E+00  0.21558495904E+01  0.21781008720E+01  0.00000000000E+00 0. -1.
</event>
<event>
 5    1  0.2173147E+002  0.1599659E+01  0.7818608E-02  0.3353733E+00
         11   -1    0    0    0    0  0.00000000000E+00  0.00000000000E+00  0.39999999674E+01  0.40000000000E+01  0.51100000000E-03 0. -1.
    9000002   -1    0    0    0    0 -0.00000000000E+00 -0.00000000000E+00  0.00000000000E+00  0.93800000000E+00  0.93800000000E+00 0. -1.
         11    1    1    2    0    0  0.10105777201E+00  0.69942074031E-01  0.11548246280E+01  0.11613460938E+01  0.51100000000E-03 0. -1.
    9000002    1    1    2    0    0 -0.32490694776E+00 -0.23421506583E+00  0.10822954635E+00  0.10256602052E+01  0.93800000000E+00 0. -1.
         22    1    1    2    0    0  0.22384917575E+00  0.16427299179E+00  0.27369457930E+01  0.27509937011E+01  0.00000000000E+00 0. -1.
</event>
<event>
 5    1  0.2173147E+002  0.1505508E+01  0.7818608E-02  0.3462772E+00
         11   -1    0    0    0    0  0.00000000000E+00  0.00000000000E+00  0.39999999674E+01  0.40000000000E+01  0.51100000000E-03 0. -1.
    9000002   -1    0    0    0    0 -0.00000000000E+00 -0.00000000000E+00  0.00000000000E+00  0.93800000000E+00  0.93800000000E+00 0. -1.
         11    1    1    2    0    0  0.22676875909E+00  0.38406554532E-01  0.50653749926E+00  0.55630893648E+00  0.51100000000E-03 0. -1.
    9000002    1    1    2    0    0  0.10807212770E+00  0.27828385921E+00  0.13713379460E+00  0.99386677614E+00  0.93800000000E+00 0. -1.
         22    1    1    2    0    0 -0.33484088679E+00 -0.31669041375E+00  0.33563286735E+01  0.33878242874E+01  0.00000000000E+00 0. -1.
</event>
<event>
 5    1  0.2173147E+002  0.1555718E+01  0.7818608E-02  0.3402874E+00
         11   -1    0    0    0    0  0.00000000000E+00  0.00000000000E+00  0.39999999674E+01  0.40000000000E+01  0.51100000000E-03 0.  1.
    9000002   -1    0    0    0    0 -0.00000000000E+00 -0.00000000000E+00  0.00000000000E+00  0.93800000000E+00  0.93800000000E+00 0.  1.
         11    1    1    2    0    0  0.19634488522E+00 -0.81051112811E-01  0.16868288434E+01  0.17001507007E+01  0.51100000000E-03 0.  1.
    9000002    1    1    2    0    0  0.76086017626E-01 -0.43539434689E-01  0.37802893507E-01  0.94284559882E+00  0.93800000000E+00 0.  1.
         22    1    1    2    0    0 -0.27243090285E+00  0.12459054750E+00  0.22753682304E+01  0.22950037005E+01  0.00000000000E+00 0.  1.
</event>
<event>
 5    1  0.3707138E+002  0.1568078E+01  0.7818608E-02  0.3388756E+00
         11   -1    0    0    0    0  0.00000000000E+00  0.00000000000E+00  0.39999999674E+01  0.40000000000E+01  0.51100000000E-03 0. -1.
    9000002   -1    0    0    0    0 -0.00000000000E+00 -0.00000000000E+00  0.00000000000E+00  0.93800000000E+00  0.93800000000E+00 0.  1.
         11    1    1    2    0    0  0.10579298523E+00 -0.17870838735E+00  0.20584594661E+01  0.20689090068E+01  0.51100000000E-03 0. -1.
    9000002    1    1    2    0    0 -0.50635774821E-01 -0.38005636844E-01  0.25950383878E-01  0.94049233519E+00  0.93800000000E+00 0.  1.
         22    1    1    2    0    0 -0.55157210405E-01  0.21671402420E+00  0.19155901174E+01  0.19285986581E+01  0.00000000000E+00 0. -1.
</event>
<event>
 5    1  0.2173147E+002  0.1599677E+01  0.7818608E-02  0.3353714E+00
         11   -1    0    0    0    0  0.00000000000E+00  0.00000000000E+00  0.39999999674E+01  0.40000000000E+01  0.51100000000E-03 0.  1.
    9000002   -1    0    0    0    0 -0.00000000000E+00 -0.00000000000E+00  0.00000000000E+00  0.93800000000E+00  0.93800000000E+00 0.  1.
         11    1    1    2    0    0  0.63849096713E-01 -0.24590194869E-01  0.72910544815E+00  0.73230895152E+00  0.51100000000E-03 0.  1.
    9000002    1    1    2    0    0 -0.34422778763E+00  0.13167359164E+00  0.91268218065E-01  0.10119311203E+01  0.93800000000E+00 0.  1.
         22    1    1    2    0    0  0.28037869092E+00 -0.10708339677E+00  0.31796263011E+01  0.31937599282E+01  0.00000000000E+00 0.  1.
</event>
<event>
 5    1  0.2173147E+002  0.1585577E+01  0.7818608E-02  0.3369168E+00
         11   -1    0    0    0    0  0.00000000000E+00  0.00000000000E+00  0.39999999674E+01  0.40000000000E+01  0.51100000000E-03 0. -1.
    9000002   -1    0    0    0    0 -0.00000000000E+00 -0.00000000000E+00  0.00000000000E+00  0.93800000000E+00  0.93800000000E+00 0. -1.
         11    1    1    2    0    0  0.15535920856E+00  0.49178241444E+00  0.26034849952E+01  0.26540762627E+01  0.51100000000E-03 0. -1.
    9000002    1    1    2    0    0 -0.36975407285E-01 -0.69444894313E+00  0.36109602765E+00  0.12222360069E+01  0.93800000000E+00 0. -1.
         22    1    1    2    0    0 -0.11838380128E+00  0.20266652869E+00  0.10354189445E+01  0.10616877304E+01  0.00000000000E+00 0.  1.
</event>
<event>
 5    1  0.2173147E+002  0.1598662E+01  0.7818608E-02  0.3354816E+00
         11   -1    0    0    0    0  0.00000000000E+00  0.00000000000E+00  0.39999999674E+01  0.40000000000E+01  0.51100000000E-03 0.  1.
    9000002   -1    0    0    0    0 -0.00000000000E+00 -0.00000000000E+00  0.00000000000E+00  0.93800000000E+00  0.93800000000E+00 0.  1.
         11    1    1    2    0    0  0.18208346405E-01 -0.62519916990E-01  0.65282753687E+00  0.65606732727E+00  0.51100000000E-03 0.  1.
    9000002    1    1    2    0    0 -0.16594531329E+00  0.21503614457E+00  0.49878628563E-01  0.97780891184E+00  0.93800000000E+00 0.  1.
         22    1    1    2    0    0  0.14773696689E+00 -0.15251622758E+00  0.32972938019E+01  0.33041237609E+01  0.00000000000E+00 0.  1.
</event>
<event>
 5    1  0.2173147E+002  0.1554220E+01  0.7818608E-02  0.3404601E+00
         11   -1    0    0    0    0  0.00000000000E+00  0.00000000000E+00  0.39999999674E+01  0.40000000000E+01  0.51100000000E-03 0. -1.
    9000002   -1    0    0    0    0 -0.00000000000E+00 -0.00000000000E+00  0.00000000000E+00  0.93800000000E+00  0.93800000000E+00 0. -1.
         11    1    1    2    0    0 -0.18159078049E+00  0.14248414557E+00  0.12479105558E+01  0.12690776020E+01  0.51100000000E-03 0. -1.
    9000002    1    1    2    0    0 -0.15038489215E+00 -0.23543070533E+00  0.88050030488E-01  0.98266985334E+00  0.93800000000E+00 0. -1.
         22    1    1    2    0    0  0.33197567264E+00  0.92946559763E-01  0.26640393810E+01  0.26862525447E+01  0.00000000000E+00 0. -1.
</event>
<event>
 5    1  0.2173147E+002  0.1599668E+01  0.7818608E-02  0.3353724E+00
         11   -1    0    0    0    0  0.00000000000E+00  0.00000000000E+00  0.39999999674E+01  0.40000000000E+01  0.51100000000E-03 0. -1.
    9000002   -1    0    0    0    0 -0.00000000000E+00 -0.00000000000E+00  0.00000000000E+00  0.93800000000E+00  0.93800000000E+00 0. -1.
         11    1    1    2    0    0 -0.12058411621E+00 -0.98995163721E-01  0.16128050236E+01  0.16203335696E+01  0.51100000000E-03 0. -1.
    9000002    1    1    2    0    0  0.29340523111E+00  0.24809252361E+00  0.99394830931E-01  0.10185086462E+01  0.93800000000E+00 0. -1.
         22    1    1    2    0    0 -0.17282111490E+00 -0.14909735989E+00  0.22878001129E+01  0.22991577842E+01  0.00000000000E+00 0. -1.
</event>
<event>
 5    1  0.2173147E+002  0.1599663E+01  0.7818608E-02  0.3353729E+00
         11   -1    0    0    0    0  0.00000000000E+00  0.00000000000E+00  0.39999999674E+01  0.40000000000E+01  0.51100000000E-03 0.  1.
    9000002   -1    0    0    0    0 -0.00000000000E+00 -0.00000000000E+00  0.00000000000E+00  0.93800000000E+00  0.93800000000E+00 0. -1.
         11    1    1    2    0    0  0.30905849894E-01  0.25557697505E-01  0.63517103806E+00  0.63643607390E+00  0.51100000000E-03 0.  1.
    9000002    1    1    2    0    0 -0.20208717482E+00 -0.14142114279E+00  0.40415007157E-01  0.97072989995E+00  0.93800000000E+00 0. -1.
         22    1    1    2    0    0  0.17118132493E+00  0.11586344529E+00  0.33244139221E+01  0.33308340261E+01  0.00000000000E+00 0.  1.
</event>
<event>
 5    1  0.2173147E+002  0.1599629E+01  0.7818608E-02  0.3353767E+00
         11   -1    0    0    0    0  0.00000000000E+00  0.00000000000E+00  0.39999999674E+01  0.40000000000E+01  0.51100000000E-03 0.  1.
    9000002   -1    0    0    0    0 -0.00000000000E+00 -0.00000000000E+00  0.00000000000E+00  0.93800000000E+00  0.93800000000E+00 0.  1.
         11    1    1    2    0    0 -0.18717767605E-03 -0.13371586267E-01  0.17503596917E+00  0.17554681991E+00  0.51100000000E-03 0.  1.
    9000002    1    1    2    0    0 -0.65710247090E-01  0.26947090058E+00  0.51256313448E-01  0.97949150711E+00  0.93800000000E+00 0.  1.
         22    1    1    2    0    0  0.65897424766E-01 -0.25609931431E+00  0.37737076847E+01  0.37829616730E+01  0.00000000000E+00 0.  1.
</event>
<event>
 5    1  0.2173147E+002  0.1599501E+01  0.7818608E-02  0.3353906E+00
         11   -1    0    0    0    0  0.00000000000E+00  0.00000000000E+00  0.39999999674E+01  0.40000000000E+01  0.51100000000E-03 0.  1.
    9000002   -1    0    0    0    0 -0.00000000000E+00 -0.00000000000E+00  0.00000000000E+00  0.93800000000E+00  0.93800000000E+00 0. -1.
         11    1    1    2    0    0 -0.17119055239E+00 -0.18110780397E-01  0.15299908055E+01  0.15396448719E+01  0.51100000000E-03 0.  1.
    9000002    1    1    2    0    0  0.41678214592E+00  0.10403117330E-01  0.11765165289E+00  0.10331996387E+01  0.93800000000E+00 0. -1.
         22    1    1    2    0    0 -0.24559159352E+00  0.77076630676E-02  0.23523575090E+01  0.23651554894E+01  0.00000000000E+00 0.  1.
</event>
<event>
 5    1  0.2173147E+002  0.1599609E+01  0.7818608E-02  0.3353788E+00
         11   -1    0    0    0    0  0.00000000000E+00  0.00000000000E+00  0.39999999674E+01  0.40000000000E+01  0.51100000000E-03 0. -1.
    9000002   -1    0    0    0    0 -0.00000000000E+00 -0.00000000000E+00  0.00000000000E+00  0.93800000000E+00  0.93800000000E+00 0.  1.
         11    1    1    2    0    0 -0.74926297205E-03 -0.52406016037E-04  0.13040275781E-01  0.13071880310E-01  0.51100000000E-03 0. -1.
    9000002    1    1    2    0    0 -0.20619226761E-01  0.19945242676E+00  0.26669117894E-01  0.95956326780E+00  0.93800000000E+00 0.  1.
         22    1    1    2    0    0  0.21368489733E-01 -0.19940002074E+00  0.39602905737E+01  0.39653648519E+01  0.00000000000E+00 0. -1.
</event>
<event>
 5    1  0.2173147E+002  0.1599677E+01  0.7818608E-02  0.3353714E+00
         11   -1    0    0    0    0  0.00000000000E+00  0.00000000000E+00  0.39999999674E+01  0.40000000000E+01  0.51100000000E-03 0.  1.
    9000002   -1    0    0    0    0 -0.00000000000E+00 -0.00000000000E+00  0.00000000000E+00  0.93800000000E+00  0.93800000000E+00 0.  1.
         11    1    1    2    0    0  0.41014359105E-01  0.56539448920E-01  0.79551263486E+00  0.79857341571E+00  0.51100000000E-03 0.  1.
    9000002    1    1    2    0    0 -0.20316515654E+00 -0.27623977787E+00  0.78780982371E-01  0.10018158208E+01  0.93800000000E+00 0.  1.
         22    1    1    2    0    0  0.16215079743E+00  0.21970032895E+00  0.31257063501E+01  0.31376107634E+01  0.00000000000E+00 0.  1.
</event>
<event>
 5    1  0.2173147E+002  0.1595296E+01  0.7818608E-02  0.3358485E+00
         11   -1    0    0    0    0  0.00000000000E+00  0.00000000000E+00  0.39999999674E+01  0.40000000000E+01  0.51100000000E-03 0. -1.
    9000002   -1    0    0    0    0 -0.00000000000E+00 -0.00000000000E+00  0.00000000000E+00  0.93800000000E+00  0.93800000000E+00 0.  1.
         11    1    1    2    0    0 -0.60917924499E-01  0.17375038022E-01  0.13742137548E+01  0.13756731408E+01  0.51100000000E-03 0. -1.
    9000002    1    1    2    0    0  0.18730253993E+00  0.16805107705E+00  0.45428510445E-01  0.97222999106E+00  0.93800000000E+00 0.  1.
         22    1    1    2    0    0 -0.12638461543E+00 -0.18542611507E+00  0.25803577021E+01  0.25900968681E+01  0.00000000000E+00 0. -1.
</event>
<event>
 5    1  0.2173147E+002  0.1599657E+01  0.7818608E-02  0.3353736E+00
         11   -1    0    0    0    0  0.00000000000E+00  0.00000000000E+00  0.39999999674E+01  0.40000000000E+01  0.51100000000E-03 0. -1.
    9000002   -1    0    0    0    0 -0.00000000000E+00 -0.00000000000E+00  0.00000000000E+00  0.93800000000E+00  0.93800000000E+00 0. -1.
         11    1    1    2    0    0  0.25703272004E-01 -0.11023464303E-02  0.48897173939E+00  0.48964833953E+00  0.51100000000E-03 0. -1.
    9000002    1    1    2    0    0 -0.23347376256E+00  0.22943409410E-01  0.36533858596E-01  0.96758210022E+00  0.93800000000E+00 0. -1.
         22    1    1    2    0    0  0.20777049056E+00 -0.21841062980E-01  0.34744943694E+01  0.34807695603E+01  0.00000000000E+00 0. -1.
</event>
<event>
 5    1  0.2173147E+002  0.1599665E+01  0.7818608E-02  0.3353727E+00
         11   -1    0    0    0    0  0.00000000000E+00  0.00000000000E+00  0.39999999674E+01  0.40000000000E+01  0.51100000000E-03 0.  1.
    9000002   -1    0    0    0    0 -0.00000000000E+00 -0.00000000000E+00  0.00000000000E+00  0.93800000000E+00  0.93800000000E+00 0. -1.
         11    1    1    2    0    0 -0.12847041049E+00 -0.71331908646E-01  0.85782406983E+00  0.87031906992E+00  0.51100000000E-03 0.  1.
    9000002    1    1    2    0    0  0.55862620266E+00  0.29423104110E+00  0.28008097459E+00  0.11648710195E+01  0.93800000000E+00 0. -1.
         22    1    1    2    0    0 -0.43015579217E+00 -0.22289913245E+00  0.28620949229E+01  0.29028099105E+01  0.00000000000E+00 0.  1.
</event>
<event>
 5    1  0.2173147E+002  0.1599663E+01  0.7818608E-02  0.3353729E+00
         11   -1    0    0    0    0  0.00000000000E+00  0.00000000000E+00  0.39999999674E+01  0.40000000000E+01  0.51100000000E-03 0.  1.
    9000002   -1    0    0    0    0 -0.00000000000E+00 -0.00000000000E+00  0.00000000000E+00  0.93800000000E+00  0.93800000000E+00 0.  1.
         11    1    1    2    0    0  0.58282781409E-01 -0.16390810380E-01  0.74432656546E+00  0.74678500149E+00  0.51100000000E-03 0.  1.
    9000002    1    1    2    0    0 -0.32288242497E+00  0.96658094394E-01  0.76071937346E-01  0.99961331885E+00  0.93800000000E+00 0.  1.
         22    1    1    2    0    0  0.26459964356E+00 -0.80267284014E-01  0.31796014646E+01  0.31916016797E+01  0.00000000000E+00 0.  1.
</event>
<event>
 5    1  0.2173147E+002  0.1474215E+01  0.7818608E-02  0.3502326E+00
         11   -1    0    0    0    0  0.00000000000E+00  0.00000000000E+00  0.39999999674E+01  0.40000000000E+01  0.51100000000E-03 0. -1.
    9000002   -1    0    0    0    0 -0.00000000000E+00 -0.00000000000E+00  0.00000000000E+00  0.93800000000E+00  0.93800000000E+00 0. -1.
         11    1    1    2    0    0 -0.12065948337E+00 -0.52354746595E+00  0.23699503475E+01  0.24300875644E+01  0.51100000000E-03 0. -1.
    9000002    1    1    2    0    0  0.30109442228E-01  0.19765639158E+00  0.12719954227E+00  0.96747007767E+00  0.93800000000E+00 0. -1.
         22    1    1    2    0    0  0.90550041147E-01  0.32589107438E+00  0.15028500776E+01  0.15404423579E+01  0.00000000000E+00 0. -1.
</event>
<event>
 5    1  0.4229082E+002  0.1562077E+01  0.7818608E-02  0.3395581E+00
         11   -1    0    0    0    0  0.00000000000E+00  0.00000000000E+00  0.39999999674E+01  0.40000000000E+01  0.51100000000E-03 0.  1.
    9000002   -1    0    0    0    0 -0.00000000000E+00 -0.00000000000E+00  0.00000000000E+00  0.93800000000E+00  0.93800000000E+00 0.  1.
         11    1    1    2    0    0 -0.19190784949E+00  0.16430592197E+00  0.17975659646E+01  0.18152324141E+01  0.51100000000E-03 0.  1.
    9000002    1    1    2    0    0  0.55465883279E-01 -0.57019319088E-02  0.29846453717E-01  0.94012966501E+00  0.93800000000E+00 0.  1.
         22    1    1    2    0    0  0.13644196621E+00 -0.15860399006E+00  0.21725875490E+01  0.21826379209E+01  0.00000000000E+00 0.  1.
</event>
<event>
 5    1  0.2173147E+002  0.1599676E+01  0.7818608E-02  0.3353715E+00
         11   -1    0    0    0    0  0.00000000000E+00  0.00000000000E+00  0.39999999674E+01  0.40000000000E+01  0.51100000000E-03 0. -1.
    9000002   -1    0    0    0    0 -0.00000000000E+00 -0.00000000000E+00  0.00000000000E+00  0.93800000000E+00  0.93800000000E+00 0.  1.
         11    1    1    2    0    0  0.13708748527E-01 -0.49096246420E-02  0.21702372923E+00  0.21751228556E+00  0.51100000000E-03 0. -1.
    9000002    1    1    2    0    0 -0.25323418215E+00  0.84203642365E-01  0.47373467286E-01  0.97637392929E+00  0.93800000000E+00 0.  1.
         22    1    1    2    0    0  0.23952543362E+00 -0.79294017723E-01  0.37356027708E+01  0.37441137851E+01  0.00000000000E+00 0. -1.
</event>
<event>
 5    1  0.2173147E+002  0.1599675E+01  0.7818608E-02  0.3353716E+00
         11   -1    0    0    0    0  0.00000000000E+00  0.00000000000E+00  0.39999999674E+01  0.40000000000E+01  0.51100000000E-03 0.  1.
    9000002   -1    0    0    0    0 -0.00000000000E+00 -0.00000000000E+00  0.00000000000E+00  0.93800000000E+00  0.93800000000E+00 0. -1.
         11    1    1    2    0    0  0.16077558028E+00 -0.47700123208E-01  0.17566706568E+01  0.17646575154E+01  0.51100000000E-03 0.  1.
    9000002    1    1    2    0    0 -0.35852865723E+00  0.10253644254E+00  0.93484889206E-01  0.10137257739E+01  0.93800000000E+00 0. -1.
         22    1    1    2    0    0  0.19775307694E+00 -0.54836319334E-01  0.21498444213E+01  0.21596167107E+01  0.00000000000E+00 0.  1.
</event>
<event>
 5    1  0.2173147E+002  0.1572825E+01  0.7818608E-02  0.3383397E+00
         11   -1    0    0    0    0  0.00000000000E+00  0.00000000000E+00  0.39999999674E+01  0.40000000000E+01  0.51100000000E-03 0.  1.
    9000002   -1    0    0    0    0 -0.00000000000E+00 -0.00000000000E+00  0.00000000000E+00  0.93800000000E+00  0.93800000000E+00 0. -1.
         11    1    1    2    0    0  0.14862981660E+00 -0.76202598982E-01  0.19586476086E+01  0.19657564382E+01  0.51100000000E-03 0.  1.
    9000002    1    1    2    0    0  0.95187842242E-01  0.10423561045E+00  0.33192785812E-01  0.94914253346E+00  0.93800000000E+00 0. -1.
         22    1    1    2    0    0 -0.24381765884E+00 -0.28033011469E-01  0.20081595729E+01  0.20231010283E+01  0.00000000000E+00 0.  1.
</event>
<event>
 5    1  0.2173147E+002  0.1569236E+01  0.7818608E-02  0.3387446E+00
         11   -1    0    0    0    0  0.00000000000E+00  0.00000000000E+00  0.39999999674E+01  0.40000000000E+01  0.51100000000E-03 0.  1.
    9000002   -1    0    0    0    0 -0.00000000000E+00 -0.00000000000E+00  0.00000000000E+00  0.93800000000E+00  0.93800000000E+00 0.  1.
         11    1    1    2    0    0 -0.50517678934E-02  0.16728979204E+00  0.12716842807E+01  0.12826506016E+01  0.51100000000E-03 0.  1.
    9000002    1    1    2    0    0  0.13030399081E+00  0.78711943363E-01  0.38130373259E-01  0.95103765720E+00  0.93800000000E+00 0.  1.
         22    1    1    2    0    0 -0.12525222291E+00 -0.24600173540E+00  0.26901853134E+01  0.27043117412E+01  0.00000000000E+00 0.  1.
</event>
<event>
 5    1  0.2173147E+002  0.1559729E+01  0.7818608E-02  0.3398266E+00
         11   -1    0    0    0    0  0.00000000000E+00  0.00000000000E+00  0.39999999674E+01  0.40000000000E+01  0.51100000000E-03 0. -1.
    9000002   -1    0    0    0    0 -0.00000000000E+00 -0.00000000000E+00  0.00000000000E+00  0.93800000000E+00  0.93800000000E+00 0.  1.
         11    1    1    2    0    0  0.35509569051E-01  0.82787550449E-01  0.14736907538E+00  0.17272120166E+00  0.51100000000E-03 0. -1.
    9000002    1    1    2    0    0 -0.69869110198E-01  0.14900818934E+00  0.48104058335E-01  0.95354241305E+00  0.93800000000E+00 0.  1.
         22    1    1    2    0    0  0.34359541147E-01 -0.23179573979E+00  0.38045268336E+01  0.38117363853E+01  0.00000000000E+00 0. -1.
</event>
<event>
 5    1  0.2173147E+002  0.1599674E+01  0.7818608E-02  0.3353718E+00
         11   -1    0    0    0    0  0.00000000000E+00  0.00000000000E+00  0.39999999674E+01  0.40000000000E+01  0.51100000000E-03 0.  1.
    9000002   -1    0    0    0    0 -0.00000000000E+00 -0.00000000000E+00  0.00000000000E+00  0.93800000000E+00  0.93800000000E+00 0.  1.
         11    1    1    2    0    0 -0.30347825090E-01  0.35057728543E-01  0.53403964630E+00  0.53604910201E+00  0.51100000000E-03 0.  1.
    9000002    1    1    2    0    0  0.21801467598E+00 -0.24813517435E+00  0.73002624272E-01  0.99713331448E+00  0.93800000000E+00 0.  1.
         22    1    1    2    0    0 -0.18766685089E+00  0.21307744581E+00  0.33929576968E+01  0.34048175835E+01  0.00000000000E+00 0.  1.
</event>
<event>
 5    1  0.2173147E+002  0.1594353E+01  0.7818608E-02  0.3359515E+00
         11   -1    0    0    0    0  0.00000000000E+00  0.00000000000E+00  0.39999999674E+01  0.40000000000E+01  0.51100000000E-03 0. -1.
    9000002   -1    0    0    0    0 -0.00000000000E+00 -0.00000000000E+00  0.00000000000E+00  0.93800000000E+00  0.93800000000E+00 0.  1.
         11    1    1    2    0    0  0.22585115590E-01 -0.83185309609E-02  0.17190358685E+01  0.17192044275E+01  0.51100000000E-03 0. -1.
    9000002    1    1    2    0    0 -0.15048143466E+00  0.19388986811E+00  0.44073005026E-01  0.97057940062E+00  0.93800000000E+00 0.  1.
         22    1    1    2    0    0  0.12789631907E+00 -0.18557133715E+00  0.22368910939E+01  0.22482161719E+01  0.00000000000E+00 0. -1.
</event>
<event>
 5    1  0.2173147E+002  0.1592430E+01  0.7818608E-02  0.3361620E+00
         11   -1    0    0    0    0  0.00000000000E+00  0.00000000000E+00  0.39999999674E+01  0.40000000000E+01  0.51100000000E-03 0.  1.
    9000002   -1    0    0    0    0 -0.00000000000E+00 -0.00000000000E+00  0.00000000000E+00  0.93800000000E+00  0.93800000000E+00 0. -1.
         11    1    1    2    0    0 -0.11394512040E-02  0.12175719573E+00  0.62523976821E+00  0.63698598252E+00  0.51100000000E-03 0.  1.
    9000002    1    1    2    0    0  0.18820364427E+00 -0.32411818467E+00  0.10040806620E+00  0.10150857053E+01  0.93800000000E+00 0. -1.
         22    1    1    2    0    0 -0.18706419307E+00  0.20236098895E+00  0.32743521330E+01  0.32859283122E+01  0.00000000000E+00 0.  1.
</event>
<event>
 5    1  0.2173147E+002  0.1593384E+01  0.7818608E-02  0.3360575E+00
         11   -1    0    0    0    0  0.00000000000E+00  0.00000000000E+00  0.39999999674E+01  0.40000000000E+01  0.51100000000E-03 0. -1.
    9000002   -1    0    0    0    0 -0.00000000000E+00 -0.00000000000E+00  0.00000000000E+00  0.93800000000E+00  0.93800000000E+00 0. -1.
         11    1    1    2    0    0  0.13048909581E-01  0.24737917563E+00  0.15817005362E+01  0.16009820667E+01  0.51100000000E-03 0. -1.
    9000002    1    1    2    0    0  0.16220545044E+00 -0.47860318761E+00  0.18069101560E+00  0.10806779643E+01  0.93800000000E+00 0. -1.
         22    1    1    2    0    0 -0.17525436002E+00  0.23122401198E+00  0.22376084156E+01  0.22563399691E+01  0.00000000000E+00 0. -1.
</event>
<event>
 5    1  0.2173147E+002  0.1543598E+01  0.7818608E-02  0.3416951E+00
         11   -1    0    0    0    0  0.00000000000E+00  0.00000000000E+00  0.39999999674E+01  0.40000000000E+01  0.51100000000E-03 0.  1.
    9000002   -1    0    0    0    0 -0.00000000000E+00 -0.00000000000E+00  0.00000000000E+00  0.93800000000E+00  0.93800000000E+00 0. -1.
         11    1    1    2    0    0  0.36546274091E+00  0.25594587780E+00  0.12543659294E+01  0.13313547436E+01  0.51100000000E-03 0.  1.
    9000002    1    1    2    0    0 -0.29498597917E+00 -0.54356351875E+00  0.32727984083E+00  0.11702282346E+01  0.93800000000E+00 0. -1.
         22    1    1    2    0    0 -0.70476761742E-01  0.28761764096E+00  0.24183541972E+01  0.24364170219E+01  0.00000000000E+00 0.  1.
</event>
<event>
 5    1  0.2173147E+002  0.1566142E+01  0.7818608E-02  0.3390952E+00
         11   -1    0    0    0    0  0.00000000000E+00  0.00000000000E+00  0.39999999674E+01  0.40000000000E+01  0.51100000000E-03 0.  1.
    9000002   -1    0    0    0    0 -0.00000000000E+00 -0.00000000000E+00  0.00000000000E+00  0.93800000000E+00  0.93800000000E+00 0. -1.
         11    1    1    2    0    0  0.19717098026E+00 -0.11431939405E-01  0.10810560611E+01  0.10989492950E+01  0.51100000000E-03 0.  1.
    9000002    1    1    2    0    0 -0.77275308274E-02  0.13051530635E+00  0.36329556369E-01  0.94776463143E+00  0.93800000000E+00 0. -1.
         22    1    1    2    0    0 -0.18944344943E+00 -0.11908336694E+00  0.28826143499E+01  0.28912860736E+01  0.00000000000E+00 0.  1.
</event>
<event>
 5    1  0.2173147E+002  0.1598932E+01  0.7818608E-02  0.3354524E+00
         11   -1    0    0    0    0  0.00000000000E+00  0.00000000000E+00  0.39999999674E+01  0.40000000000E+01  0.51100000000E-03 0.  1.
    9000002   -1    0    0    0    0 -0.00000000000E+00 -0.00000000000E+00  0.00000000000E+00  0.93800000000E+00  0.93800000000E+00 0.  1.
         11    1    1    2    0    0 -0.96323683903E-02  0.15445820536E-01  0.46091771546E+00  0.46127731078E+00  0.51100000000E-03 0.  1.
    9000002    1    1    2    0    0  0.19001464243E+00 -0.27604568133E+00  0.75777314404E-01  0.99894593642E+00  0.93800000000E+00 0.  1.
         22    1    1    2    0    0 -0.18038227404E+00  0.26059986079E+00  0.34633049375E+01  0.34777767528E+01  0.00000000000E+00 0.  1.
</event>
<event>
 5    1  0.2173147E+002  0.1574136E+01  0.7818608E-02  0.3381923E+00
         11   -1    0    0    0    0  0.00000000000E+00  0.00000000000E+00  0.39999999674E+01  0.40000000000E+01  0.51100000000E-03 0.  1.
    9000002   -1    0    0    0    0 -0.00000000000E+00 -0.00000000000E+00  0.00000000000E+00  0.93800000000E+00  0.93800000000E+00 0. -1.
         11    1    1    2    0    0 -0.16794754077E+00 -0.10434568139E+00  0.23674413995E+01  0.23756837834E+01  0.51100000000E-03 0.  1.
    9000002    1    1    2    0    0  0.22692121306E+00 -0.13537367908E+00  0.66340726045E-01  0.97676218285E+00  0.93800000000E+00 0. -1.
         22    1    1    2    0    0 -0.58973672285E-01  0.23971936047E+00  0.15662178419E+01  0.15855540338E+01  0.00000000000E+00 0.  1.
</event>
<event>
 5    1  0.2173147E+002  0.1597599E+01  0.7818608E-02  0.3355974E+00
         11   -1    0    0    0    0  0.00000000000E+00  0.00000000000E+00  0.39999999674E+01  0.40000000000E+01  0.51100000000E-03 0.  1.
    9000002   -1    0    0    0    0 -0.00000000000E+00 -0.00000000000E+00  0.00000000000E+00  0.93800000000E+00  0.93800000000E+00 0. -1.
         11    1    1    2    0    0 -0.26425552358E-03 -0.22655954474E-01  0.92274173866E-01  0.95016558492E-01  0.51100000000E-03 0.  1.
    9000002    1    1    2    0    0 -0.42795837350E-01  0.25537567476E+00  0.46166555205E-01  0.97417840757E+00  0.93800000000E+00 0. -1.
         22    1    1    2    0    0  0.43060092873E-01 -0.23271972029E+00  0.38615592383E+01  0.38688050339E+01  0.00000000000E+00 0.  1.
</event>
<event>
 5    1  0.2173147E+002  0.1467206E+01  0.7818608E-02  0.3511435E+00
         11   -1    0    0    0    0  0.00000000000E+00  0.00000000000E+00  0.39999999674E+01  0.40000000000E+01  0.51100000000E-03 0. -1.
    9000002   -1    0    0    0    0 -0.00000000000E+00 -0.00000000000E+00  0.00000000000E+00  0.93800000000E+00  0.93800000000E+00 0. -1.
         11    1    1    2    0    0  0.73417494275E+00  0.30056135735E+00  0.22805399695E+01  0.24145833574E+01  0.51100000000E-03 0. -1.
    9000002    1    1    2    0    0 -0.58338082213E+00 -0.13453269025E+00  0.39608287937E+00  0.11811680133E+01  0.93800000000E+00 0. -1.
         22    1    1    2    0    0 -0.15079412062E+00 -0.16602866710E+00  0.13233771184E+01  0.13422486293E+01  0.00000000000E+00 0. -1.
</event>
<event>
 5    1  0.2173147E+002  0.1599675E+01  0.7818608E-02  0.3353717E+00
         11   -1    0    0    0    0  0.00000000000E+00  0.00000000000E+00  0.39999999674E+01  0.40000000000E+01  0.51100000000E-03 0.  1.
    9000002   -1    0    0    0    0 -0.00000000000E+00 -0.00000000000E+00  0.00000000000E+00  0.93800000000E+00  0.93800000000E+00 0.  1.
         11    1    1    2    0    0 -0.31627018921E-02  0.28986508381E-02  0.73342193688E-01  0.73469336161E-01  0.51100000000E-03 0. -1.
    9000002    1    1    2    0    0  0.16850019133E+00 -0.16020231000E+00  0.35865082986E-01  0.96705087704E+00  0.93800000000E+00 0.  1.
         22    1    1    2    0    0 -0.16533748944E+00  0.15730365917E+00  0.38907926907E+01  0.38974797868E+01  0.00000000000E+00 0.  1.
</event>
<event>
 5    1  0.2173147E+002  0.1599674E+01  0.7818608E-02  0.3353717E+00
         11   -1    0    0    0    0  0.00000000000E+00  0.00000000000E+00  0.39999999674E+01  0.40000000000E+01  0.51100000000E-03 0. -1.
    9000002   -1    0    0    0    0 -0.00000000000E+00 -0.00000000000E+00  0.00000000000E+00  0.93800000000E+00  0.93800000000E+00 0. -1.
         11    1    1    2    0    0  0.24283061946E+00  0.79968516125E-01  0.19713376093E+01  0.19878465494E+01  0.51100000000E-03 0. -1.
    9000002    1    1    2    0    0 -0.47272363922E+00 -0.15920062402E+00  0.17029470972E+00  0.10759445924E+01  0.93800000000E+00 0. -1.
         22    1    1    2    0    0  0.22989301976E+00  0.79232107897E-01  0.18583676484E+01  0.18742088582E+01  0.00000000000E+00 0. -1.
</event>
<event>
 5    1  0.2173147E+002  0.1599615E+01  0.7818608E-02  0.3353782E+00
         11   -1    0    0    0    0  0.00000000000E+00  0.00000000000E+00  0.39999999674E+01  0.40000000000E+01  0.51100000000E-03 0.  1.
    9000002   -1    0    0    0    0 -0.00000000000E+00 -0.00000000000E+00  0.00000000000E+00  0.93800000000E+00  0.93800000000E+00 0.  1.
         11    1    1    2    0    0 -0.47136440492E+00  0.46707654415E+00  0.25585079398E+01  0.26431625072E+01  0.51100000000E-03 0.  1.
    9000002    1    1    2    0    0  0.62770180807E+00 -0.63095655598E+00  0.60380938429E+00  0.14270758592E+01  0.93800000000E+00 0.  1.
         22    1    1    2    0    0 -0.15633740315E+00  0.16388001183E+00  0.83768264331E+00  0.86776163363E+00  0.00000000000E+00 0. -1.
</event>
<event>
 5    1  0.2173147E+002  0.1599671E+01  0.7818608E-02  0.3353720E+00
         11   -1    0    0    0    0  0.00000000000E+00  0.00000000000E+00  0.39999999674E+01  0.40000000000E+01  0.51100000000E-03 0. -1.
    9000002   -1    0    0    0    0 -0.00000000000E+00 -0.00000000000E+00  0.00000000000E+00  0.93800000000E+00  0.93800000000E+00 0. -1.
         11    1    1    2    0    0  0.54386559154E-01  0.90234493438E-02  0.53191263428E+00  0.53476222013E+00  0.51100000000E-03 0. -1.
    9000002    1    1    2    0    0 -0.38540282567E+00 -0.60814241548E-01  0.10256168508E+00  0.10210762015E+01  0.93800000000E+00 0. -1.
         22    1    1    2    0    0  0.33101626652E+00  0.51790792204E-01  0.33655256480E+01  0.33821615784E+01  0.00000000000E+00 0. -1.
</event>
<event>
 5    1  0.2173147E+002  0.1599636E+01  0.7818608E-02  0.3353758E+00
         11   -1    0    0    0    0  0.00000000000E+00  0.00000000000E+00  0.39999999674E+01  0.40000000000E+01  0.51100000000E-03 0. -1.
    9000002   -1    0    0    0    0 -0.00000000000E+00 -0.00000000000E+00  0.00000000000E+00  0.93800000000E+00  0.93800000000E+00 0.  1.
         11    1    1    2    0    0  0.13642894935E-02  0.77389947843E-01  0.92015288435E+00  0.92340275991E+00  0.51100000000E-03 0. -1.
    9000002    1    1    2    0    0  0.10932632957E-01 -0.35154163927E+00  0.82991273221E-01  0.10052027646E+01  0.93800000000E+00 0.  1.
         22    1    1    2    0    0 -0.12296922451E-01  0.27415169143E+00  0.29968558098E+01  0.30093944755E+01  0.00000000000E+00 0. -1.
</event>
<event>
 5    1  0.2173147E+002  0.1500043E+01  0.7818608E-02  0.3469552E+00
         11   -1    0    0    0    0  0.00000000000E+00  0.00000000000E+00  0.39999999674E+01  0.40000000000E+01  0.51100000000E-03 0. -1.
    9000002   -1    0    0    0    0 -0.00000000000E+00 -0.00000000000E+00  0.00000000000E+00  0.93800000000E+00  0.93800000000E+00 0.  1.
         11    1    1    2    0    0  0.54967238481E-03  0.33027055295E+00  0.85148276473E+00  0.91329190297E+00  0.51100000000E-03 0. -1.
    9000002    1    1    2    0    0  0.17057073593E-01 -0.63405047729E-01  0.79050779040E-01  0.94361229830E+00  0.93800000000E+00 0.  1.
         22    1    1    2    0    0 -0.17606745978E-01 -0.26686550522E+00  0.30694664236E+01  0.30810957987E+01  0.00000000000E+00 0.  1.
</event>
<event>
 5    1  0.2173147E+002  0.1599444E+01  0.7818608E-02  0.3353967E+00
         11   -1    0    0    0    0  0.00000000000E+00  0.00000000000E+00  0.39999999674E+01  0.40000000000E+01  0.51100000000E-03 0. -1.
    9000002   -1    0    0    0    0 -0.00000000000E+00 -0.00000000000E+00  0.00000000000E+00  0.93800000000E+00  0.93800000000E+00 0. -1.
         11    1    1    2    0    0 -0.92660428270E-01  0.10347980072E+00  0.10995700299E+01  0.11083088630E+01  0.51100000000E-03 0. -1.
    9000002    1    1    2    0    0  0.32954137858E+00 -0.30531507518E+00  0.13725480344E+00  0.10490460888E+01  0.93800000000E+00 0. -1.
         22    1    1    2    0    0 -0.23688095031E+00  0.20183527446E+00  0.27631751340E+01  0.27806450482E+01  0.00000000000E+00 0. -1.
</event>
<event>
 5    1  0.2173147E+002  0.1591576E+01  0.7818608E-02  0.3362558E+00
         11   -1    0    0    0    0  0.00000000000E+00  0.00000000000E+00  0.39999999674E+01  0.40000000000E+01  0.51100000000E-03 0.  1.
    9000002   -1    0    0    0    0 -0.00000000000E+00 -0.00000000000E+00  0.00000000000E+00  0.93800000000E+00  0.93800000000E+00 0. -1.
         11    1    1    2    0    0  0.11771190473E+00 -0.29623355667E-02  0.15185106598E+01  0.15230691885E+01  0.51100000000E-03 0.  1.
    9000002    1    1    2    0    0 -0.55687145551E+00 -0.28990361797E-01  0.22282998017E+00  0.11137519738E+01  0.93800000000E+00 0. -1.
         22    1    1    2    0    0  0.43915955078E+00  0.31952697364E-01  0.22586593274E+01  0.23011788377E+01  0.00000000000E+00 0.  1.
</event>
<event>
 5    1  0.2173147E+002  0.1599673E+01  0.7818608E-02  0.3353719E+00
         11   -1    0    0    0    0  0.00000000000E+00  0.00000000000E+00  0.39999999674E+01  0.40000000000E+01  0.51100000000E-03 0.  1.
    9000002   -1    0    0    0    0 -0.00000000000E+00 -0.00000000000E+00  0.00000000000E+00  0.93800000000E+00  0.93800000000E+00 0. -1.
         11    1    1    2    0    0  0.62267273523E-01 -0.16798533736E-01  0.86906484931E+00  0.87145474783E+00  0.51100000000E-03 0.  1.
    9000002    1    1    2    0    0 -0.28276672690E+00  0.66892230050E-01  0.56280134942E-01  0.98358682681E+00  0.93800000000E+00 0. -1.
         22    1    1    2    0    0  0.22049945338E+00 -0.50093696315E-01  0.30746549831E+01  0.30829584254E+01  0.00000000000E+00 0.  1.
</event>
<event>
 5    1  0.2173147E+002  0.1599672E+01  0.7818608E-02  0.3353719E+00
         11   -1    0    0    0    0  0.00000000000E+00  0.00000000000E+00  0.39999999674E+01  0.40000000000E+01  0.51100000000E-03 0.  1.
    9000002   -1    0    0    0    0 -0.00000000000E+00 -0.00000000000E+00  0.00000000000E+00  0.93800000000E+00  0.93800000000E+00 0. -1.
         11    1    1    2    0    0 -0.15702623552E-01  0.51916493227E+00  0.25778123661E+01  0.26296189183E+01  0.51100000000E-03 0.  1.
    9000002    1    1    2    0    0  0.24798363135E-01 -0.72698086880E+00  0.38103912822E+00  0.12466559107E+01  0.93800000000E+00 0. -1.
         22    1    1    2    0    0 -0.90957395828E-02  0.20781593653E+00  0.10411484730E+01  0.10617251711E+01  0.00000000000E+00 0. -1.
</event>
<event>
 5    1  0.2173147E+002  0.1599649E+01  0.7818608E-02  0.3353744E+00
         11   -1    0    0    0    0  0.00000000000E+00  0.00000000000E+00  0.39999999674E+01  0.40000000000E+01  0.51100000000E-03 0.  1.
    9000002   -1    0    0    0    0 -0.00000000000E+00 -0.00000000000E+00  0.00000000000E+00  0.93800000000E+00  0.93800000000E+00 0.  1.
         11    1    1    2    0    0 -0.63457257346E-01  0.72262237726E-01  0.77337794888E+00  0.77933456708E+00  0.51100000000E-03 0.  1.
    9000002    1    1    2    0    0  0.29240363032E+00 -0.36910616597E+00  0.15110403797E+00  0.10603846826E+01  0.93800000000E+00 0.  1.
         22    1    1    2    0    0 -0.22894637297E+00  0.29684392825E+00  0.30755179805E+01  0.30982807503E+01  0.00000000000E+00 0.  1.
</event>
<event>
 5    1  0.2173147E+002  0.1599677E+01  0.7818608E-02  0.3353714E+00
         11   -1    0    0    0    0  0.00000000000E+00  0.00000000000E+00  0.39999999674E+01  0.40000000000E+01  0.51100000000E-03 0.  1.
    9000002   -1    0    0    0    0 -0.00000000000E+00 -0.00000000000E+00  0.00000000000E+00  0.93800000000E+00  0.93800000000E+00 0.  1.
         11    1    1    2    0    0  0.90325363179E-01 -0.24086168048E+00  0.20894624420E+01  0.21052378911E+01  0.51100000000E-03 0.  1.
    9000002    1    1    2    0    0 -0.16592571419E+00  0.44477670983E+00  0.15363740818E+00  0.10624528777E+01  0.93800000000E+00 0.  1.
         22    1    1    2    0    0  0.75600351016E-01 -0.20391502934E+00  0.17569001172E+01  0.17703092312E+01  0.00000000000E+00 0.  1.
</event>
<event>
 5    1  0.2173147E+002  0.1599676E+01  0.7818608E-02  0.3353715E+00
         11   -1    0    0    0    0  0.00000000000E+00  0.00000000000E+00  0.39999999674E+01  0.40000000000E+01  0.51100000000E-03 0.  1.
    9000002   -1    0    0    0    0 -0.00000000000E+00 -0.00000000000E+00  0.00000000000E+00  0.93800000000E+00  0.93800000000E+00 0.  1.
         11    1    1    2    0    0  0.38273921206E-01 -0.45344479567E-01  0.81921435933E+00  0.82136072618E+00  0.51100000000E-03 0.  1.
    9000002    1    1    2    0    0 -0.18841178640E+00  0.21649722214E+00  0.54885944695E-01  0.98245942175E+00  0.93800000000E+00 0.  1.
         22    1    1    2    0    0  0.15013786520E+00 -0.17115274258E+00  0.31258996633E+01  0.31341798521E+01  0.00000000000E+00 0. -1.
</event>
<event>
 5    1  0.2173147E+002  0.1599657E+01  0.7818608E-02  0.3353736E+00
         11   -1    0    0    0    0  0.00000000000E+00  0.00000000000E+00  0.39999999674E+01  0.40000000000E+01  0.51100000000E-03 0. -1.
    9000002   -1    0    0    0    0 -0.00000000000E+00 -0.00000000000E+00  0.00000000000E+00  0.93800000000E+00  0.93800000000E+00 0. -1.
         11    1    1    2    0    0  0.91506515686E-01 -0.44935136427E-01  0.12978501495E+01  0.13018478715E+01  0.51100000000E-03 0. -1.
    9000002    1    1    2    0    0 -0.26659535134E+00  0.14711704029E+00  0.61894264271E-01  0.98812519695E+00  0.93800000000E+00 0. -1.
         22    1    1    2    0    0  0.17508883566E+00 -0.10218190387E+00  0.26402555536E+01  0.26480269316E+01  0.00000000000E+00 0. -1.
</event>
<event>
 5    1  0.2173147E+002  0.1599660E+01  0.7818608E-02  0.3353733E+00
         11   -1    0    0    0    0  0.00000000000E+00  0.00000000000E+00  0.39999999674E+01  0.40000000000E+01  0.51100000000E-03 0. -1.
    9000002   -1    0    0    0    0 -0.00000000000E+00 -0.00000000000E+00  0.00000000000E+00  0.93800000000E+00  0.93800000000E+00 0. -1.
         11    1    1    2    0    0 -0.30158308877E-01 -0.37090969339E-01  0.63790179092E+00  0.63969072182E+00  0.51100000000E-03 0. -1.
    9000002    1    1    2    0    0  0.20385770786E+00  0.24236663696E+00  0.67031763466E-01  0.99228867225E+00  0.93800000000E+00 0. -1.
         22    1    1    2    0    0 -0.17369939898E+00 -0.20527566762E+00  0.32950664130E+01  0.33060206059E+01  0.00000000000E+00 0. -1.
</event>
<event>
 5    1  0.2173147E+002  0.1563613E+01  0.7818608E-02  0.3393829E+00
         11   -1    0    0    0    0  0.00000000000E+00  0.00000000000E+00  0.39999999674E+01  0.40000000000E+01  0.51100000000E-03 0.  1.
    9000002   -1    0    0    0    0 -0.00000000000E+00 -0.00000000000E+00  0.00000000000E+00  0.93800000000E+00  0.93800000000E+00 0.  1.
         11    1    1    2    0    0 -0.10834216476E+00  0.99318777315E-01  0.21705281734E+01  0.21754988064E+01  0.51100000000E-03 0.  1.
    9000002    1    1    2    0    0 -0.49112168929E-01  0.15276188827E+00  0.44193480457E-01  0.95265170097E+00  0.93800000000E+00 0.  1.
         22    1    1    2    0    0  0.15745433369E+00 -0.25208066558E+00  0.17852783135E+01  0.18098494926E+01  0.00000000000E+00 0. -1.
</event>
<event>
 5    1  0.2173147E+002  0.1599668E+01  0.7818608E-02  0.3353724E+00
         11   -1    0    0    0    0  0.00000000000E+00  0.00000000000E+00  0.39999999674E+01  0.40000000000E+01  0.51100000000E-03 0.  1.
    9000002   -1    0    0    0    0 -0.00000000000E+00 -0.00000000000E+00  0.00000000000E+00  0.93800000000E+00  0.93800000000E+00 0.  1.
         11    1    1    2    0    0 -0.11611549190E+00 -0.97069135106E-01  0.14480236600E+01  0.14559114003E+01  0.51100000000E-03 0.  1.
    9000002    1    1    2    0    0  0.30425468321E+00  0.26620204376E+00  0.11030816051E+00  0.10273491766E+01  0.93800000000E+00 0.  1.
         22    1    1    2    0    0 -0.18813919131E+00 -0.16913290865E+00  0.24416681468E+01  0.24547394231E+01  0.00000000000E+00 0. -1.
</event>
<event>
 5    1  0.2173147E+002  0.1599676E+01  0.7818608E-02  0.3353716E+00
         11   -1    0    0    0    0  0.00000000000E+00  0.00000000000E+00  0.39999999674E+01  0.40000000000E+01  0.51100000000E-03 0. -1.
    9000002   -1    0    0    0    0 -0.00000000000E+00 -0.00000000000E+00  0.00000000000E+00  0.93800000000E+00  0.93800000000E+00 0. -1.
         11    1    1    2    0    0 -0.66316589179E-02  0.76848333002E-01  0.10393923243E+01  0.10422505985E+01  0.51100000000E-03 0. -1.
    9000002    1    1    2    0    0  0.28093538462E-01 -0.28795486624E+00  0.55788796783E-01  0.98319054193E+00  0.93800000000E+00 0. -1.
         22    1    1    2    0    0 -0.21461879544E-01  0.21110653323E+00  0.29048188463E+01  0.29125588595E+01  0.00000000000E+00 0. -1.
</event>
<event>
 5    1  0.2173147E+002  0.1599674E+01  0.7818608E-02  0.3353717E+00
         11   -1    0    0    0    0  0.00000000000E+00  0.00000000000E+00  0.39999999674E+01  0.40000000000E+01  0.51100000000E-03 0. -1.
    9000002   -1    0    0    0    0 -0.00000000000E+00 -0.00000000000E+00  0.00000000000E+00  0.93800000000E+00  0.93800000000E+00 0. -1.
         11    1    1    2    0    0 -0.94737419786E-01  0.20853663079E+00  0.19235062679E+01  0.19370955911E+01  0.51100000000E-03 0. -1.
    9000002    1    1    2    0    0  0.18918040854E+00 -0.41437274046E+00  0.14104459783E+00  0.10522507180E+01  0.93800000000E+00 0. -1.
         22    1    1    2    0    0 -0.94442988755E-01  0.20583610967E+00  0.19354491016E+01  0.19486536909E+01  0.00000000000E+00 0.  1.
</event>
<event>
 5    1  0.2173147E+002  0.1599671E+01  0.7818608E-02  0.3353721E+00
         11   -1    0    0    0    0  0.00000000000E+00  0.00000000000E+00  0.39999999674E+01  0.40000000000E+01  0.51100000000E-03 0.  1.
    9000002   -1    0    0    0    0 -0.00000000000E+00 -0.00000000000E+00  0.00000000000E+00  0.93800000000E+00  0.93800000000E+00 0. -1.
         11    1    1    2    0    0  0.15183409657E-01  0.48303573555E-02  0.24947719368E+00  0.24998599875E+00  0.51100000000E-03 0.  1.
    9000002    1    1    2    0    0 -0.25879133092E+00 -0.89141476640E-01  0.49868001506E-01  0.97839152357E+00  0.93800000000E+00 0. -1.
         22    1    1    2    0    0  0.24360792126E+00  0.84311119285E-01  0.37006547722E+01  0.37096224777E+01  0.00000000000E+00 0.  1.
</event>
<event>
 5    1  0.2173147E+002  0.1594263E+01  0.7818608E-02  0.3359613E+00
         11   -1    0    0    0    0  0.00000000000E+00  0.00000000000E+00  0.39999999674E+01  0.40000000000E+01  0.51100000000E-03 0.  1.
    9000002   -1    0    0    0    0 -0.00000000000E+00 -0.00000000000E+00  0.00000000000E+00  0.93800000000E+00  0.93800000000E+00 0. -1.
         11    1    1    2    0    0  0.13451502990E+00  0.16477610353E+00  0.20540293396E+01  0.20650138611E+01  0.51100000000E-03 0.  1.
    9000002    1    1    2    0    0 -0.35954032051E+00 -0.42352613131E+00  0.21856263734E+00  0.11118710593E+01  0.93800000000E+00 0. -1.
         22    1    1    2    0    0  0.22502529061E+00  0.25875002778E+00  0.17274079904E+01  0.17611150796E+01  0.00000000000E+00 0.  1.
</event>
<event>
 5    1  0.2173147E+002  0.1599554E+01  0.7818608E-02  0.3353847E+00
         11   -1    0    0    0    0  0.00000000000E+00  0.00000000000E+00  0.39999999674E+01  0.40000000000E+01  0.51100000000E-03 0.  1.
    9000002   -1    0    0    0    0 -0.00000000000E+00 -0.00000000000E+00  0.00000000000E+00  0.93800000000E+00  0.93800000000E+00 0. -1.
         11    1    1    2    0    0  0.17011482889E-01 -0.36324584467E-03  0.19496007372E+00  0.19570184967E+00  0.51100000000E-03 0.  1.
    9000002    1    1    2    0    0 -0.24378780410E+00 -0.50464789050E-01  0.41262577704E-01  0.97135255633E+00  0.93800000000E+00 0. -1.
         22    1    1    2    0    0  0.22677632121E+00  0.50828034895E-01  0.37637773159E+01  0.37709455940E+01  0.00000000000E+00 0.  1.
</event>
<event>
 5    1  0.2173147E+002  0.1599673E+01  0.7818608E-02  0.3353718E+00
         11   -1    0    0    0    0  0.00000000000E+00  0.00000000000E+00  0.39999999674E+01  0.40000000000E+01  0.51100000000E-03 0. -1.
    9000002   -1    0    0    0    0 -0.00000000000E+00 -0.00000000000E+00  0.00000000000E+00  0.93800000000E+00  0.93800000000E+00 0. -1.
         11    1    1    2    0    0 -0.23904714721E-01 -0.90728481026E-03  0.36840583157E+00  0.36918203695E+00  0.51100000000E-03 0. -1.
    9000002    1    1    2    0    0  0.24319674894E+00  0.13328958357E-01  0.39391078291E-01  0.96990616911E+00  0.93800000000E+00 0. -1.
         22    1    1    2    0    0 -0.21929203422E+00 -0.12421673547E-01  0.35922030575E+01  0.35989117939E+01  0.00000000000E+00 0. -1.
</event>
<event>
 5    1  0.2173147E+002  0.1599677E+01  0.7818608E-02  0.3353714E+00
         11   -1    0    0    0    0  0.00000000000E+00  0.00000000000E+00  0.39999999674E+01  0.40000000000E+01  0.51100000000E-03 0. -1.
    9000002   -1    0    0    0    0 -0.00000000000E+00 -0.00000000000E+00  0.00000000000E+00  0.93800000000E+00  0.93800000000E+00 0.  1.
         11    1    1    2    0    0  0.18701034651E+00  0.12917218189E+00  0.16520950394E+01  0.16676560204E+01  0.51100000000E-03 0. -1.
    9000002    1    1    2    0    0 -0.42984824983E+00 -0.29800471843E+00  0.18802597940E+00  0.10903091759E+01  0.93800000000E+00 0.  1.
         22    1    1    2    0    0  0.24283790332E+00  0.16883253654E+00  0.21598789486E+01  0.21800348037E+01  0.00000000000E+00 0. -1.
</event>
<event>
 5    1  0.2173147E+002  0.1599658E+01  0.7818608E-02  0.3353735E+00
         11   -1    0    0    0    0  0.00000000000E+00  0.00000000000E+00  0.39999999674E+01  0.40000000000E+01  0.51100000000E-03 0. -1.
    9000002   -1    0    0    0    0 -0.00000000000E+00 -0.00000000000E+00  0.00000000000E+00  0.93800000000E+00  0.93800000000E+00 0. -1.
         11    1    1    2    0    0  0.20604857416E+00  0.11935134945E+00  0.16089547498E+01  0.16264797593E+01  0.51100000000E-03 0. -1.
    9000002    1    1    2    0    0 -0.48828766488E+00 -0.29150829810E+00  0.22420442292E+00  0.11196041956E+01  0.93800000000E+00 0. -1.
         22    1    1    2    0    0  0.28223909073E+00  0.17215694865E+00  0.21668407946E+01  0.21919160451E+01  0.00000000000E+00 0.  1.
</event>
<event>
 5    1  0.2173147E+002  0.1598854E+01  0.7818608E-02  0.3354608E+00
         11   -1    0    0    0    0  0.00000000000E+00  0.00000000000E+00  0.39999999674E+01  0.40000000000E+01  0.51100000000E-03 0. -1.
    9000002   -1    0    0    0    0 -0.00000000000E+00 -0.00000000000E+00  0.00000000000E+00  0.93800000000E+00  0.93800000000E+00 0. -1.
         11    1    1    2    0    0  0.62341344756E-02  0.64110432690E-01  0.66312031250E+00  0.66624156429E+00  0.51100000000E-03 0. -1.
    9000002    1    1    2    0    0  0.59154216200E-01 -0.26190282261E+00  0.48595078570E-01  0.97688166706E+00  0.93800000000E+00 0. -1.
         22    1    1    2    0    0 -0.65388350676E-01  0.19779238992E+00  0.32882845763E+01  0.32948767687E+01  0.00000000000E+00 0. -1.
</event>
<event>
 5    1  0.2173147E+002  0.1599661E+01  0.7818608E-02  0.3353731E+00
         11   -1    0    0    0    0  0.00000000000E+00  0.00000000000E+00  0.39999999674E+01  0.40000000000E+01  0.51100000000E-03 0. -1.
    9000002   -1    0    0    0    0 -0.00000000000E+00 -0.00000000000E+00  0.00000000000E+00  0.93800000000E+00  0.93800000000E+00 0. -1.
         11    1    1    2    0    0 -0.10160985347E-01 -0.21907381266E-01  0.37301474763E+00  0.37379598987E+00  0.51100000000E-03 0. -1.
    9000002    1    1    2    0    0  0.11946761805E+00  0.25831262020E+00  0.53971537670E-01  0.98171016517E+00  0.93800000000E+00 0. -1.
         22    1    1    2    0    0 -0.10930663270E+00 -0.23640523893E+00  0.35730136821E+01  0.35824938450E+01  0.00000000000E+00 0. -1.
</event>
<event>
 5    1  0.2173147E+002  0.1599676E+01  0.7818608E-02  0.3353715E+00
         11   -1    0    0    0    0  0.00000000000E+00  0.00000000000E+00  0.39999999674E+01  0.40000000000E+01  0.51100000000E-03 0. -1.
    9000002   -1    0    0    0    0 -0.00000000000E+00 -0.00000000000E+00  0.00000000000E+00  0.93800000000E+00  0.93800000000E+00 0.  1.
         11    1    1    2    0    0  0.13835000838E+00  0.47766487535E-01  0.12428510936E+01  0.12514397565E+01  0.51100000000E-03 0. -1.
    9000002    1    1    2    0    0 -0.43203852973E+00 -0.14894207987E+00  0.14198974543E+00  0.10530176267E+01  0.93800000000E+00 0.  1.
         22    1    1    2    0    0  0.29368852135E+00  0.10117559233E+00  0.26151591283E+01  0.26335426168E+01  0.00000000000E+00 0. -1.
</event>
<event>
 5    1  0.2173147E+002  0.1599648E+01  0.7818608E-02  0.3353746E+00
         11   -1    0    0    0    0  0.00000000000E+00  0.00000000000E+00  0.39999999674E+01  0.40000000000E+01  0.51100000000E-03 0.  1.
    9000002   -1    0    0    0    0 -0.00000000000E+00 -0.00000000000E+00  0.00000000000E+00  0.93800000000E+00  0.93800000000E+00 0. -1.
         11    1    1    2    0    0 -0.39699478990E-01 -0.35895088449E+00  0.15719913392E+01  0.16129410459E+01  0.51100000000E-03 0.  1.
    9000002    1    1    2    0    0  0.10149559618E+00  0.79713320658E+00  0.47626930879E+00  0.13237821420E+01  0.93800000000E+00 0. -1.
         22    1    1    2    0    0 -0.61796117185E-01 -0.43818232209E+00  0.19517393194E+01  0.20012768120E+01  0.00000000000E+00 0.  1.
</event>
<event>
 5    1  0.2173147E+002  0.1599603E+01  0.7818608E-02  0.3353795E+00
         11   -1    0    0    0    0  0.00000000000E+00  0.00000000000E+00  0.39999999674E+01  0.40000000000E+01  0.51100000000E-03 0. -1.
    9000002   -1    0    0    0    0 -0.00000000000E+00 -0.00000000000E+00  0.00000000000E+00  0.93800000000E+00  0.93800000000E+00 0.  1.
         11    1    1    2    0    0  0.13146740364E-01 -0.59819568076E-02  0.18497724095E+00  0.18554099650E+00  0.51100000000E-03 0. -1.
    9000002    1    1    2    0    0 -0.19372166806E+00  0.97875442397E-01  0.31275743774E-01  0.96329116006E+00  0.93800000000E+00 0.  1.
         22    1    1    2    0    0  0.18057492769E+00 -0.91893485589E-01  0.37837469826E+01  0.37891678434E+01  0.00000000000E+00 0. -1.
</event>
<event>
 5    1  0.2173147E+002  0.1599591E+01  0.7818608E-02  0.3353808E+00
         11   -1    0    0    0    0  0.00000000000E+00  0.00000000000E+00  0.39999999674E+01  0.40000000000E+01  0.51100000000E-03 0. -1.
    9000002   -1    0    0    0    0 -0.00000000000E+00 -0.00000000000E+00  0.00000000000E+00  0.93800000000E+00  0.93800000000E+00 0. -1.
         11    1    1    2    0    0  0.90088048953E-02 -0.39125615032E-01  0.50875769571E+00  0.51033971664E+00  0.51100000000E-03 0. -1.
    9000002    1    1    2    0    0 -0.80823707702E-01  0.24698084649E+00  0.44961630294E-01  0.97437033948E+00  0.93800000000E+00 0. -1.
         22    1    1    2    0    0  0.71814902807E-01 -0.20785523146E+00  0.34462806414E+01  0.34532899439E+01  0.00000000000E+00 0. -1.
</event>
<event>
 5    1  0.2173147E+002  0.1599475E+01  0.7818608E-02  0.3353933E+00
         11   -1    0    0    0    0  0.00000000000E+00  0.00000000000E+00  0.39999999674E+01  0.40000000000E+01  0.51100000000E-03 0. -1.
    9000002   -1    0    0    0    0 -0.00000000000E+00 -0.00000000000E+00  0.00000000000E+00  0.93800000000E+00  0.93800000000E+00 0.  1.
         11    1    1    2    0    0 -0.48570528276E-02 -0.65563089081E-02  0.24823465155E+00  0.24836924024E+00  0.51100000000E-03 0. -1.
    9000002    1    1    2    0    0  0.20781007737E+00  0.12629811572E+00  0.39417165119E-01  0.96981129876E+00  0.93800000000E+00 0.  1.
         22    1    1    2    0    0 -0.20295302455E+00 -0.11974180681E+00  0.37123481507E+01  0.37198194610E+01  0.00000000000E+00 0. -1.
</event>
<event>
 5    1  0.2173147E+002  0.1599676E+01  0.7818608E-02  0.3353715E+00
         11   -1    0    0    0    0  0.00000000000E+00  0.00000000000E+00  0.39999999674E+01  0.40000000000E+01  0.51100000000E-03 0.  1.
    9000002   -1    0    0    0    0 -0.00000000000E+00 -0.00000000000E+00  0.00000000000E+00  0.93800000000E+00  0.93800000000E+00 0. -1.
         11    1    1    2    0    0  0.16948733988E-01  0.62972203439E-01  0.67441741316E+00  0.67756318250E+00  0.51100000000E-03 0.  1.
    9000002    1    1    2    0    0 -0.99848509175E-01 -0.36039623710E+00  0.94032928979E-01  0.10141702836E+01  0.93800000000E+00 0. -1.
         22    1    1    2    0    0  0.82899775187E-01  0.29742403366E+00  0.32315496252E+01  0.32462665338E+01  0.00000000000E+00 0.  1.
</event>
<event>
 5    1  0.2173147E+002  0.1599530E+01  0.7818608E-02  0.3353874E+00
         11   -1    0    0    0    0  0.00000000000E+00  0.00000000000E+00  0.39999999674E+01  0.40000000000E+01  0.51100000000E-03 0. -1.
    9000002   -1    0    0    0    0 -0.00000000000E+00 -0.00000000000E+00  0.00000000000E+00  0.93800000000E+00  0.93800000000E+00 0. -1.
         11    1    1    2    0    0  0.15348603539E-02  0.82099650803E-02  0.87777701110E-01  0.88175650018E-01  0.51100000000E-03 0. -1.
    9000002    1    1    2    0    0 -0.15513611702E+00 -0.19749902478E+00  0.42015094323E-01  0.97194770834E+00  0.93800000000E+00 0. -1.
         22    1    1    2    0    0  0.15360125666E+00  0.18928905970E+00  0.38702071719E+01  0.38778766416E+01  0.00000000000E+00 0. -1.
</event>
<event>
 5    1  0.2173147E+002  0.1588027E+01  0.7818608E-02  0.3366462E+00
         11   -1    0    0    0    0  0.00000000000E+00  0.00000000000E+00  0.39999999674E+01  0.40000000000E+01  0.51100000000E-03 0. -1.
    9000002   -1    0    0    0    0 -0.00000000000E+00 -0.00000000000E+00  0.00000000000E+00  0.93800000000E+00  0.93800000000E+00 0. -1.
         11    1    1    2    0    0 -0.31537681060E-01  0.10221576286E+00  0.85684842303E+00  0.86349995291E+00  0.51100000000E-03 0. -1.
    9000002    1    1    2    0    0 -0.28506159227E+00 -0.22877405228E+00  0.99268932874E-01  0.10115809406E+01  0.93800000000E+00 0. -1.
         22    1    1    2    0    0  0.31659927333E+00  0.12655828942E+00  0.30438826115E+01  0.30629191065E+01  0.00000000000E+00 0. -1.
</event>
<event>
 5    1  0.2173147E+002  0.1554881E+01  0.7818608E-02  0.3403839E+00
         11   -1    0    0    0    0  0.00000000000E+00  0.00000000000E+00  0.39999999674E+01  0.40000000000E+01  0.51100000000E-03 0. -1.
    9000002   -1    0    0    0    0 -0.00000000000E+00 -0.00000000000E+00  0.00000000000E+00  0.93800000000E+00  0.93800000000E+00 0.  1.
         11    1    1    2    0    0  0.16652276045E+00  0.74895953407E-01  0.26467961213E+01  0.26530867310E+01  0.51100000000E-03 0. -1.
    9000002    1    1    2    0    0 -0.21611175755E+00  0.24020198334E+00  0.10619962369E+00  0.99775931197E+00  0.93800000000E+00 0.  1.
         22    1    1    2    0    0  0.49588997099E-01 -0.31509793675E+00  0.12470042224E+01  0.12871539570E+01  0.00000000000E+00 0. -1.
</event>
<event>
 5    1  0.2173147E+002  0.1568223E+01  0.7818608E-02  0.3388592E+00
         11   -1    0    0    0    0  0.00000000000E+00  0.00000000000E+00  0.39999999674E+01  0.40000000000E+01  0.51100000000E-03 0. -1.
    9000002   -1    0    0    0    0 -0.00000000000E+00 -0.00000000000E+00  0.00000000000E+00  0.93800000000E+00  0.93800000000E+00 0.  1.
         11    1    1    2    0    0 -0.15133306407E+00 -0.17238269740E+00  0.32704323412E+01  0.32784669360E+01  0.51100000000E-03 0. -1.
    9000002    1    1    2    0    0  0.25479956578E+00  0.36709522285E+00  0.16317866767E+00  0.10517380848E+01  0.93800000000E+00 0.  1.
         22    1    1    2    0    0 -0.10346650171E+00 -0.19471252545E+00  0.56638895847E+00  0.60779497927E+00  0.00000000000E+00 0. -1.
</event>
<event>
 5    1  0.2173147E+002  0.1584986E+01  0.7818608E-02  0.3369822E+00
         11   -1    0    0    0    0  0.00000000000E+00  0.00000000000E+00  0.39999999674E+01  0.40000000000E+01  0.51100000000E-03 0.  1.
    9000002   -1    0    0    0    0 -0.00000000000E+00 -0.00000000000E+00  0.00000000000E+00  0.93800000000E+00  0.93800000000E+00 0.  1.
         11    1    1    2    0    0  0.56756876507E-01  0.39708042141E-01  0.50928745484E+00  0.51397669637E+00  0.51100000000E-03 0.  1.
    9000002    1    1    2    0    0  0.22877773633E+00  0.49074059006E-01  0.47560847793E-01  0.96791195372E+00  0.93800000000E+00 0.  1.
         22    1    1    2    0    0 -0.28553461284E+00 -0.88782101147E-01  0.34431516647E+01  0.34561113499E+01  0.00000000000E+00 0.  1.
</event>
<event>
 5    1  0.2173147E+002  0.1563359E+01  0.7818608E-02  0.3394119E+00
         11   -1    0    0    0    0  0.00000000000E+00  0.00000000000E+00  0.39999999674E+01  0.40000000000E+01  0.51100000000E-03 0.  1.
    9000002   -1    0    0    0    0 -0.00000000000E+00 -0.00000000000E+00  0.00000000000E+00  0.93800000000E+00  0.93800000000E+00 0. -1.
         11    1    1    2    0    0  0.37479304913E-01 -0.95828553433E-01  0.16922141666E+00  0.19805039492E+00  0.51100000000E-03 0.  1.
    9000002    1    1    2    0    0  0.67673350656E+00  0.46521875411E+00  0.55097074083E+00  0.13630148515E+01  0.93800000000E+00 0.  1.
         22    1    1    2    0    0 -0.71421281148E+00 -0.36939020068E+00  0.32798078099E+01  0.33769347536E+01  0.00000000000E+00 0.  1.
</event>
<event>
 5    1  0.2173147E+002  0.1599667E+01  0.7818608E-02  0.3353725E+00
         11   -1    0    0    0    0  0.00000000000E+00  0.00000000000E+00  0.39999999674E+01  0.40000000000E+01  0.51100000000E-03 0. -1.
    9000002   -1    0    0    0    0 -0.00000000000E+00 -0.00000000000E+00  0.00000000000E+00  0.93800000000E+00  0.93800000000E+00 0. -1.
         11    1    1    2    0    0  0.11475289752E-01 -0.14372853451E-02  0.19295781823E+00  0.19330475628E+00  0.51100000000E-03 0. -1.
    9000002    1    1    2    0    0 -0.21869448462E+00  0.57129173985E-01  0.33887826695E-01  0.96544466694E+00  0.93800000000E+00 0. -1.
         22    1    1    2    0    0  0.20721919486E+00 -0.55691888639E-01  0.37731543224E+01  0.37792505768E+01  0.00000000000E+00 0. -1.
</event>
<event>
 5    1  0.2173147E+002  0.1599502E+01  0.7818608E-02  0.3353904E+00
         11   -1    0    0    0    0  0.00000000000E+00  0.00000000000E+00  0.39999999674E+01  0.40000000000E+01  0.51100000000E-03 0.  1.
    9000002   -1    0    0    0    0 -0.00000000000E+00 -0.00000000000E+00  0.00000000000E+00  0.93800000000E+00  0.93800000000E+00 0. -1.
         11    1    1    2    0    0  0.44909834548E-01 -0.13455059164E-01  0.48823792357E+00  0.49048390696E+00  0.51100000000E-03 0.  1.
    9000002    1    1    2    0    0 -0.28537687877E+00  0.73446130204E-01  0.58036249296E-01  0.98490938833E+00  0.93800000000E+00 0. -1.
         22    1    1    2    0    0  0.24046704423E+00 -0.59991071040E-01  0.34537257945E+01  0.34626067047E+01  0.00000000000E+00 0.  1.
</event>
<event>
 5    1  0.2173147E+002  0.1599676E+01  0.7818608E-02  0.3353715E+00
         11   -1    0    0    0    0  0.00000000000E+00  0.00000000000E+00  0.39999999674E+01  0.40000000000E+01  0.51100000000E-03 0. -1.
    9000002   -1    0    0    0    0 -0.00000000000E+00 -0.00000000000E+00  0.00000000000E+00  0.93800000000E+00  0.93800000000E+00 0. -1.
         11    1    1    2    0    0 -0.44777640428E-02 -0.27728933028E+00  0.16756701192E+01  0.16984640216E+01  0.51100000000E-03 0. -1.
    9000002    1    1    2    0    0  0.11367732181E-01  0.61904351182E+00  0.26858091723E+00  0.11555621160E+01  0.93800000000E+00 0. -1.
         22    1    1    2    0    0 -0.68899681385E-02 -0.34175418153E+00  0.20557489309E+01  0.20839738624E+01  0.00000000000E+00 0. -1.
</event>
<event>
 5    1  0.2173147E+002  0.1599676E+01  0.7818608E-02  0.3353715E+00
         11   -1    0    0    0    0  0.00000000000E+00  0.00000000000E+00  0.39999999674E+01  0.40000000000E+01  0.51100000000E-03 0. -1.
    9000002   -1    0    0    0    0 -0.00000000000E+00 -0.00000000000E+00  0.00000000000E+00  0.93800000000E+00  0.93800000000E+00 0.  1.
         11    1    1    2    0    0 -0.35795991385E-02 -0.53927042136E-01  0.78326888928E+00  0.78513142431E+00  0.51100000000E-03 0. -1.
    9000002    1    1    2    0    0  0.22436649034E-01  0.27172297979E+00  0.49471757039E-01  0.97807373736E+00  0.93800000000E+00 0.  1.
         22    1    1    2    0    0 -0.18857049895E-01 -0.21779593765E+00  0.31672593210E+01  0.31747948383E+01  0.00000000000E+00 0.  1.
</event>
<event>
 5    1  0.2173147E+002  0.1599671E+01  0.7818608E-02  0.3353721E+00
         11   -1    0    0    0    0  0.00000000000E+00  0.00000000000E+00  0.39999999674E+01  0.40000000000E+01  0.51100000000E-03 0.  1.
    9000002   -1    0    0    0    0 -0.00000000000E+00 -0.00000000000E+00  0.00000000000E+00  0.93800000000E+00  0.93800000000E+00 0.  1.
         11    1    1    2    0    0  0.27958098328E-01  0.98233132410E-02  0.47937733886E+00  0.48029266794E+00  0.51100000000E-03 0.  1.
    9000002    1    1    2    0    0 -0.22420491013E+00 -0.66946961117E-01  0.36331374401E-01  0.96742633110E+00  0.93800000000E+00 0.  1.
         22    1    1    2    0    0  0.19624681181E+00  0.57123647876E-01  0.34842912541E+01  0.34902810010E+01  0.00000000000E+00 0.  1.
</event>
<event>
 5    1  0.2173147E+002  0.1599676E+01  0.7818608E-02  0.3353715E+00
         11   -1    0    0    0    0  0.00000000000E+00  0.00000000000E+00  0.39999999674E+01  0.40000000000E+01  0.51100000000E-03 0. -1.
    9000002   -1    0    0    0    0 -0.00000000000E+00 -0.00000000000E+00  0.00000000000E+00  0.93800000000E+00  0.93800000000E+00 0.  1.
         11    1    1    2    0    0  0.31829173870E-01 -0.17009142566E+00  0.17823291439E+01  0.17907098112E+01  0.51100000000E-03 0. -1.
    9000002    1    1    2    0    0 -0.69911860918E-01  0.37460342060E+00  0.97720003558E-01  0.10171571118E+01  0.93800000000E+00 0.  1.
         22    1    1    2    0    0  0.38082687048E-01 -0.20451199494E+00  0.21199508199E+01  0.21301330770E+01  0.00000000000E+00 0. -1.
</event>
<event>
 5    1  0.2173147E+002  0.1599579E+01  0.7818608E-02  0.3353820E+00
         11   -1    0    0    0    0  0.00000000000E+00  0.00000000000E+00  0.39999999674E+01  0.40000000000E+01  0.51100000000E-03 0.  1.
    9000002   -1    0    0    0    0 -0.00000000000E+00 -0.00000000000E+00  0.00000000000E+00  0.93800000000E+00  0.93800000000E+00 0.  1.
         11    1    1    2    0    0  0.25493807931E-01 -0.17757926577E-01  0.53131021062E+00  0.53221807488E+00  0.51100000000E-03 0.  1.
    9000002    1    1    2    0    0 -0.17703320078E+00  0.19120180903E+00  0.45217022768E-01  0.97457040028E+00  0.93800000000E+00 0.  1.
         22    1    1    2    0    0  0.15153939285E+00 -0.17344388245E+00  0.34234727340E+01  0.34312115248E+01  0.00000000000E+00 0.  1.
</event>
<event>
 5    1  0.2173147E+002  0.1599677E+01  0.7818608E-02  0.3353714E+00
         11   -1    0    0    0    0  0.00000000000E+00  0.00000000000E+00  0.39999999674E+01  0.40000000000E+01  0.51100000000E-03 0.  1.
    9000002   -1    0    0    0    0 -0.00000000000E+00 -0.00000000000E+00  0.00000000000E+00  0.93800000000E+00  0.93800000000E+00 0.  1.
         11    1    1    2    0    0  0.19969451897E-01  0.95578618260E-01  0.81040653053E+00  0.81626776068E+00  0.51100000000E-03 0.  1.
    9000002    1    1    2    0    0 -0.95608179441E-01 -0.45405499327E+00  0.14654132901E+00  0.10567048888E+01  0.93800000000E+00 0.  1.
         22    1    1    2    0    0  0.75638727544E-01  0.35847637501E+00  0.30430521078E+01  0.30650273505E+01  0.00000000000E+00 0.  1.
</event>
<event>
 5    1  0.2173147E+002  0.1597966E+01  0.7818608E-02  0.3355574E+00
         11   -1    0    0    0    0  0.00000000000E+00  0.00000000000E+00  0.39999999674E+01  0.40000000000E+01  0.51100000000E-03 0. -1.
    9000002   -1    0    0    0    0 -0.00000000000E+00 -0.00000000000E+00  0.00000000000E+00  0.93800000000E+00  0.93800000000E+00 0. -1.
         11    1    1    2    0    0 -0.48150062839E-01 -0.34799310036E-01  0.10237081417E+01  0.10254306612E+01  0.51100000000E-03 0. -1.
    9000002    1    1    2    0    0  0.32976457142E+00  0.21312392451E+00  0.10530917709E+00  0.10223015712E+01  0.93800000000E+00 0. -1.
         22    1    1    2    0    0 -0.28161450858E+00 -0.17832461447E+00  0.28709826486E+01  0.28902677675E+01  0.00000000000E+00 0. -1.
</event>
<event>
 5    1  0.2173147E+002  0.1599376E+01  0.7818608E-02  0.3354041E+00
         11   -1    0    0    0    0  0.00000000000E+00  0.00000000000E+00  0.39999999674E+01  0.40000000000E+01  0.51100000000E-03 0. -1.
    9000002   -1    0    0    0    0 -0.00000000000E+00 -0.00000000000E+00  0.00000000000E+00  0.93800000000E+00  0.93800000000E+00 0.  1.
         11    1    1    2    0    0 -0.19736396228E+00 -0.15372768964E-01  0.13200390229E+01  0.13348004116E+01  0.51100000000E-03 0. -1.
    9000002    1    1    2    0    0  0.51949708438E+00  0.72776700300E-01  0.18945211287E+00  0.10912881250E+01  0.93800000000E+00 0.  1.
         22    1    1    2    0    0 -0.32213312210E+00 -0.57403931335E-01  0.24905088315E+01  0.25119114633E+01  0.00000000000E+00 0. -1.
</event>
<event>
 5    1  0.2173147E+002  0.1598486E+01  0.7818608E-02  0.3355009E+00
         11   -1    0    0    0    0  0.00000000000E+00  0.00000000000E+00  0.39999999674E+01  0.40000000000E+01  0.51100000000E-03 0.  1.
    9000002   -1    0    0    0    0 -0.00000000000E+00 -0.00000000000E+00  0.00000000000E+00  0.93800000000E+00  0.93800000000E+00 0.  1.
         11    1    1    2    0    0 -0.26306300695E-01  0.86923682428E-02  0.64905580341E+00  0.64964703938E+00  0.51100000000E-03 0.  1.
    9000002    1    1    2    0    0  0.28107172012E+00  0.89825097574E-01  0.58989710516E-01  0.98508560336E+00  0.93800000000E+00 0.  1.
         22    1    1    2    0    0 -0.25476541942E+00 -0.98517465817E-01  0.32919544534E+01  0.33032673573E+01  0.00000000000E+00 0.  1.
</event>
<event>
 5    1  0.2173147E+002  0.1599571E+01  0.7818608E-02  0.3353829E+00
         11   -1    0    0    0    0  0.00000000000E+00  0.00000000000E+00  0.39999999674E+01  0.40000000000E+01  0.51100000000E-03 0. -1.
    9000002   -1    0    0    0    0 -0.00000000000E+00 -0.00000000000E+00  0.00000000000E+00  0.93800000000E+00  0.93800000000E+00 0. -1.
         11    1    1    2    0    0  0.66894520305E-01 -0.24883470154E-01  0.83263699520E+00  0.83569054729E+00  0.51100000000E-03 0. -1.
    9000002    1    1    2    0    0 -0.28448839444E+00  0.82346872223E-01  0.58577223456E-01  0.98538822047E+00  0.93800000000E+00 0. -1.
         22    1    1    2    0    0  0.21759387413E+00 -0.57463402069E-01  0.31087857487E+01  0.31169212322E+01  0.00000000000E+00 0. -1.
</event>
<event>
 5    1  0.2173147E+002  0.1599078E+01  0.7818608E-02  0.3354365E+00
         11   -1    0    0    0    0  0.00000000000E+00  0.00000000000E+00  0.39999999674E+01  0.40000000000E+01  0.51100000000E-03 0. -1.
    9000002   -1    0    0    0    0 -0.00000000000E+00 -0.00000000000E+00  0.00000000000E+00  0.93800000000E+00  0.93800000000E+00 0. -1.
         11    1    1    2    0    0 -0.39788098425E+00  0.29213690984E+00  0.22151839914E+01  0.22695139631E+01  0.51100000000E-03 0. -1.
    9000002    1    1    2    0    0  0.60607491158E+00 -0.44570037114E+00  0.41130350281E+00  0.12708226433E+01  0.93800000000E+00 0. -1.
         22    1    1    2    0    0 -0.20819392733E+00  0.15356346129E+00  0.13735124731E+01  0.13976633936E+01  0.00000000000E+00 0. -1.
</event>
<event>
 5    1  0.2173147E+002  0.1599591E+01  0.7818608E-02  0.3353808E+00
         11   -1    0    0    0    0  0.00000000000E+00  0.00000000000E+00  0.39999999674E+01  0.40000000000E+01  0.51100000000E-03 0. -1.
    9000002   -1    0    0    0    0 -0.00000000000E+00 -0.00000000000E+00  0.00000000000E+00  0.93800000000E+00  0.93800000000E+00 0.  1.
         11    1    1    2    0    0  0.78381205769E-02  0.36358489262E-02  0.10385755707E+00  0.10421760318E+00  0.51100000000E-03 0. -1.
    9000002    1    1    2    0    0 -0.21377562146E+00 -0.34391609391E-01  0.31134608973E-01  0.96316985158E+00  0.93800000000E+00 0.  1.
         22    1    1    2    0    0  0.20593750088E+00  0.30755760464E-01  0.38650078013E+01  0.38706125452E+01  0.00000000000E+00 0. -1.
</event>
<event>
 5    1  0.2173147E+002  0.1599674E+01  0.7818608E-02  0.3353717E+00
         11   -1    0    0    0    0  0.00000000000E+00  0.00000000000E+00  0.39999999674E+01  0.40000000000E+01  0.51100000000E-03 0.  1.
    9000002   -1    0    0    0    0 -0.00000000000E+00 -0.00000000000E+00  0.00000000000E+00  0.93800000000E+00  0.93800000000E+00 0.  1.
         11    1    1    2    0    0  0.85495890361E-01  0.64656009588E-01  0.13246255855E+01  0.13289556613E+01  0.51100000000E-03 0.  1.
    9000002    1    1    2    0    0 -0.24818625633E+00 -0.19279011063E+00  0.65979095292E-01  0.99144424231E+00  0.93800000000E+00 0.  1.
         22    1    1    2    0    0  0.16269036596E+00  0.12813410104E+00  0.26093952866E+01  0.26176000964E+01  0.00000000000E+00 0.  1.
</event>
<event>
 5    1  0.2173147E+002  0.1594920E+01  0.7818608E-02  0.3358895E+00
         11   -1    0    0    0    0  0.00000000000E+00  0.00000000000E+00  0.39999999674E+01  0.40000000000E+01  0.51100000000E-03 0. -1.
    9000002   -1    0    0    0    0 -0.00000000000E+00 -0.00000000000E+00  0.00000000000E+00  0.93800000000E+00  0.93800000000E+00 0.  1.
         11    1    1    2    0    0 -0.12234840333E+00 -0.12351175661E+00  0.20290877131E+01  0.20365219111E+01  0.51100000000E-03 0. -1.
    9000002    1    1    2    0    0  0.27009094595E+00  0.38729269055E+00  0.15612592842E+00  0.10616798259E+01  0.93800000000E+00 0.  1.
         22    1    1    2    0    0 -0.14774254262E+00 -0.26378093395E+00  0.18147863258E+01  0.18397982629E+01  0.00000000000E+00 0. -1.
</event>
<event>
 5    1  0.2173147E+002  0.1599666E+01  0.7818608E-02  0.3353726E+00
         11   -1    0    0    0    0  0.00000000000E+00  0.00000000000E+00  0.39999999674E+01  0.40000000000E+01  0.51100000000E-03 0.  1.
    9000002   -1    0    0    0    0 -0.00000000000E+00 -0.00000000000E+00  0.00000000000E+00  0.93800000000E+00  0.93800000000E+00 0.  1.
         11    1    1    2    0    0 -0.30952277404E+00  0.18328146088E+00  0.17366309854E+01  0.17734948216E+01  0.51100000000E-03 0.  1.
    9000002    1    1    2    0    0  0.63412187941E+00 -0.38155915360E+00  0.39588208992E+00  0.12586757226E+01  0.93800000000E+00 0.  1.
         22    1    1    2    0    0 -0.32459910537E+00  0.19827769271E+00  0.18674868920E+01  0.19058294558E+01  0.00000000000E+00 0.  1.
</event>
<event>
 5    1  0.2173147E+002  0.1599675E+01  0.7818608E-02  0.3353717E+00
         11   -1    0    0    0    0  0.00000000000E+00  0.00000000000E+00  0.39999999674E+01  0.40000000000E+01  0.51100000000E-03 0. -1.
    9000002   -1    0    0    0    0 -0.00000000000E+00 -0.00000000000E+00  0.00000000000E+00  0.93800000000E+00  0.93800000000E+00 0.  1.
         11    1    1    2    0    0  0.14082745116E+00  0.60937524143E-01  0.91161664826E+00  0.92444087283E+00  0.51100000000E-03 0.  1.
    9000002    1    1    2    0    0 -0.56946426621E+00 -0.25042523555E+00  0.27132515122E+00  0.11577839551E+01  0.93800000000E+00 0.  1.
         22    1    1    2    0    0  0.42863681505E+00  0.18948771140E+00  0.28170581679E+01  0.28557751720E+01  0.00000000000E+00 0. -1.
</event>
<event>
 5    1  0.2173147E+002  0.1584851E+01  0.7818608E-02  0.3369972E+00
         11   -1    0    0    0    0  0.00000000000E+00  0.00000000000E+00  0.39999999674E+01  0.40000000000E+01  0.51100000000E-03 0. -1.
    9000002   -1    0    0    0    0 -0.00000000000E+00 -0.00000000000E+00  0.00000000000E+00  0.93800000000E+00  0.93800000000E+00 0.  1.
         11    1    1    2    0    0  0.35910666814E-01  0.34135142879E-01  0.96367236070E+00  0.96494531652E+00  0.51100000000E-03 0. -1.
    9000002    1    1    2    0    0  0.35949459820E+00 -0.53081193019E-01  0.10081437208E+00  0.10109705816E+01  0.93800000000E+00 0.  1.
         22    1    1    2    0    0 -0.39540526501E+00  0.18946050139E-01  0.29355132346E+01  0.29620841019E+01  0.00000000000E+00 0. -1.
</event>
<event>
 5    1  0.2173147E+002  0.1599620E+01  0.7818608E-02  0.3353776E+00
         11   -1    0    0    0    0  0.00000000000E+00  0.00000000000E+00  0.39999999674E+01  0.40000000000E+01  0.51100000000E-03 0.  1.
    9000002   -1    0    0    0    0 -0.00000000000E+00 -0.00000000000E+00  0.00000000000E+00  0.93800000000E+00  0.93800000000E+00 0. -1.
         11    1    1    2    0    0 -0.26102960111E-02 -0.27137401309E-01  0.41910815412E+00  0.41999423588E+00  0.51100000000E-03 0.  1.
    9000002    1    1    2    0    0 -0.21109893376E-01  0.23091013229E+00  0.35710945049E-01  0.96689419710E+00  0.93800000000E+00 0. -1.
         22    1    1    2    0    0  0.23720189387E-01 -0.20377273098E+00  0.35451808682E+01  0.35511115670E+01  0.00000000000E+00 0.  1.
</event>
<event>
 5    1  0.2173147E+002  0.1541736E+01  0.7818608E-02  0.3419135E+00
         11   -1    0    0    0    0  0.00000000000E+00  0.00000000000E+00  0.39999999674E+01  0.40000000000E+01  0.51100000000E-03 0. -1.
    9000002   -1    0    0    0    0 -0.00000000000E+00 -0.00000000000E+00  0.00000000000E+00  0.93800000000E+00  0.93800000000E+00 0. -1.
         11    1    1    2    0    0 -0.14602671959E+00 -0.41063110156E-01  0.41913252092E+00  0.44573794214E+00  0.51100000000E-03 0. -1.
    9000002    1    1    2    0    0 -0.23796942221E+00 -0.14137139841E+00  0.97262291087E-01  0.98281192070E+00  0.93800000000E+00 0. -1.
         22    1    1    2    0    0  0.38399614180E+00  0.18243450856E+00  0.34836051554E+01  0.35094501372E+01  0.00000000000E+00 0. -1.
</event>
<event>
 5    1  0.2173147E+002  0.1562930E+01  0.7818608E-02  0.3394607E+00
         11   -1    0    0    0    0  0.00000000000E+00  0.00000000000E+00  0.39999999674E+01  0.40000000000E+01  0.51100000000E-03 0. -1.
    9000002   -1    0    0    0    0 -0.00000000000E+00 -0.00000000000E+00  0.00000000000E+00  0.93800000000E+00  0.93800000000E+00 0.  1.
         11    1    1    2    0    0  0.19774679395E+00 -0.16634945665E+00  0.22740758003E+01  0.22887107600E+01  0.51100000000E-03 0. -1.
    9000002    1    1    2    0    0 -0.89977565317E-01 -0.15439149445E-01  0.32774639789E-01  0.94300185928E+00  0.93800000000E+00 0.  1.
         22    1    1    2    0    0 -0.10776922864E+00  0.18178860609E+00  0.16931495272E+01  0.17062873807E+01  0.00000000000E+00 0. -1.
</event>
<event>
 5    1  0.2173147E+002  0.1583785E+01  0.7818608E-02  0.3371153E+00
         11   -1    0    0    0    0  0.00000000000E+00  0.00000000000E+00  0.39999999674E+01  0.40000000000E+01  0.51100000000E-03 0. -1.
    9000002   -1    0    0    0    0 -0.00000000000E+00 -0.00000000000E+00  0.00000000000E+00  0.93800000000E+00  0.93800000000E+00 0. -1.
         11    1    1    2    0    0  0.20143856257E+00 -0.26610335396E-01  0.81816999251E+00  0.84302313266E+00  0.51100000000E-03 0. -1.
    9000002    1    1    2    0    0 -0.44995468634E+00 -0.19533874323E+00  0.17879320074E+00  0.10735117386E+01  0.93800000000E+00 0. -1.
         22    1    1    2    0    0  0.24851612377E+00  0.22194907863E+00  0.30030367741E+01  0.30214651287E+01  0.00000000000E+00 0. -1.
</event>
<event>
 5    1  0.2173147E+002  0.1592188E+01  0.7818608E-02  0.3361886E+00
         11   -1    0    0    0    0  0.00000000000E+00  0.00000000000E+00  0.39999999674E+01  0.40000000000E+01  0.51100000000E-03 0. -1.
    9000002   -1    0    0    0    0 -0.00000000000E+00 -0.00000000000E+00  0.00000000000E+00  0.93800000000E+00  0.93800000000E+00 0. -1.
         11    1    1    2    0    0 -0.15884625225E+00  0.67090036793E-01  0.21381441551E+01  0.21450859876E+01  0.51100000000E-03 0. -1.
    9000002    1    1    2    0    0  0.36086791413E+00  0.53306376221E-01  0.95482964699E-01  0.10109541126E+01  0.93800000000E+00 0. -1.
         22    1    1    2    0    0 -0.20202166187E+00 -0.12039641301E+00  0.17663728476E+01  0.17819598999E+01  0.00000000000E+00 0. -1.
</event>
<event>
 5    1  0.2173147E+002  0.1599661E+01  0.7818608E-02  0.3353732E+00
         11   -1    0    0    0    0  0.00000000000E+00  0.00000000000E+00  0.39999999674E+01  0.40000000000E+01  0.51100000000E-03 0.  1.
    9000002   -1    0    0    0    0 -0.00000000000E+00 -0.00000000000E+00  0.00000000000E+00  0.93800000000E+00  0.93800000000E+00 0.  1.
         11    1    1    2    0    0 -0.13294224487E+00 -0.85383992609E-01  0.12001709203E+01  0.12105265655E+01  0.51100000000E-03 0.  1.
    9000002    1    1    2    0    0  0.41046750901E+00  0.27089747963E+00  0.16536197639E+00  0.10719410449E+01  0.93800000000E+00 0.  1.
         22    1    1    2    0    0 -0.27752526414E+00 -0.18551348702E+00  0.26344670707E+01  0.26555323896E+01  0.00000000000E+00 0.  1.
</event>
<event>
 5    1  0.2173147E+002  0.1597048E+01  0.7818608E-02  0.3356573E+00
         11   -1    0    0    0    0  0.00000000000E+00  0.00000000000E+00  0.39999999674E+01  0.40000000000E+01  0.51100000000E-03 0.  1.
    9000002   -1    0    0    0    0 -0.00000000000E+00 -0.00000000000E+00  0.00000000000E+00  0.93800000000E+00  0.93800000000E+00 0. -1.
         11    1    1    2    0    0  0.22163345834E-01  0.27158416610E-01  0.16457519402E+00  0.16826778985E+00  0.51100000000E-03 0.  1.
    9000002    1    1    2    0    0 -0.41982187653E+00 -0.59485834011E-01  0.12388751042E+00  0.10368129473E+01  0.93800000000E+00 0. -1.
         22    1    1    2    0    0  0.39765853070E+00  0.32327417400E-01  0.37115372629E+01  0.37329192628E+01  0.00000000000E+00 0.  1.
</event>
<event>
 5    1  0.2173147E+002  0.1515942E+01  0.7818608E-02  0.3449975E+00
         11   -1    0    0    0    0  0.00000000000E+00  0.00000000000E+00  0.39999999674E+01  0.40000000000E+01  0.51100000000E-03 0.  1.
    9000002   -1    0    0    0    0 -0.00000000000E+00 -0.00000000000E+00  0.00000000000E+00  0.93800000000E+00  0.93800000000E+00 0. -1.
         11    1    1    2    0    0  0.13949565338E+00  0.23498314237E+00  0.70043901883E+00  0.75185849383E+00  0.51100000000E-03 0.  1.
    9000002    1    1    2    0    0  0.67873432111E-01 -0.68060792483E-01  0.69868811598E-01  0.94549707831E+00  0.93800000000E+00 0. -1.
         22    1    1    2    0    0 -0.20736908549E+00 -0.16692234989E+00  0.32296921369E+01  0.32406444279E+01  0.00000000000E+00 0.  1.
</event>
<event>
 5    1  0.2173147E+002  0.1539022E+01  0.7818608E-02  0.3422328E+00
         11   -1    0    0    0    0  0.00000000000E+00  0.00000000000E+00  0.39999999674E+01  0.40000000000E+01  0.51100000000E-03 0. -1.
    9000002   -1    0    0    0    0 -0.00000000000E+00 -0.00000000000E+00  0.00000000000E+00  0.93800000000E+00  0.93800000000E+00 0.  1.
         11    1    1    2    0    0  0.25179543117E+00  0.98741470550E-01  0.13780417001E+01  0.14043325836E+01  0.51100000000E-03 0. -1.
    9000002    1    1    2    0    0  0.11130909796E-01  0.62350256313E-01  0.48058655541E-01  0.94136341866E+00  0.93800000000E+00 0.  1.
         22    1    1    2    0    0 -0.26292634097E+00 -0.16109172686E+00  0.25738996118E+01  0.25923039977E+01  0.00000000000E+00 0. -1.
</event>
<event>
 5    1  0.2173147E+002  0.1599454E+01  0.7818608E-02  0.3353956E+00
         11   -1    0    0    0    0  0.00000000000E+00  0.00000000000E+00  0.39999999674E+01  0.40000000000E+01  0.51100000000E-03 0. -1.
    9000002   -1    0    0    0    0 -0.00000000000E+00 -0.00000000000E+00  0.00000000000E+00  0.93800000000E+00  0.93800000000E+00 0. -1.
         11    1    1    2    0    0 -0.80468711715E-01  0.64841431182E-01  0.10095357719E+01  0.10148114902E+01  0.51100000000E-03 0. -1.
    9000002    1    1    2    0    0  0.25128866238E+00 -0.25836321384E+00  0.87379809396E-01  0.10086509670E+01  0.93800000000E+00 0. -1.
         22    1    1    2    0    0 -0.17081995067E+00  0.19352178266E+00  0.29030843860E+01  0.29145375428E+01  0.00000000000E+00 0. -1.
</event>
<event>
 5    1  0.2173147E+002  0.1599249E+01  0.7818608E-02  0.3354179E+00
         11   -1    0    0    0    0  0.00000000000E+00  0.00000000000E+00  0.39999999674E+01  0.40000000000E+01  0.51100000000E-03 0. -1.
    9000002   -1    0    0    0    0 -0.00000000000E+00 -0.00000000000E+00  0.00000000000E+00  0.93800000000E+00  0.93800000000E+00 0.  1.
         11    1    1    2    0    0  0.75598233699E-01  0.58722548232E-01  0.87088729183E+00  0.87613261942E+00  0.51100000000E-03 0. -1.
    9000002    1    1    2    0    0 -0.24831413517E+00 -0.24632067188E+00  0.82368926827E-01  0.10044712157E+01  0.93800000000E+00 0.  1.
         22    1    1    2    0    0  0.17271590147E+00  0.18759812365E+00  0.30467437487E+01  0.30573961649E+01  0.00000000000E+00 0. -1.
</event>
<event>
 5    1  0.2173147E+002  0.1599670E+01  0.7818608E-02  0.3353722E+00
         11   -1    0    0    0    0  0.00000000000E+00  0.00000000000E+00  0.39999999674E+01  0.40000000000E+01  0.51100000000E-03 0.  1.
    9000002   -1    0    0    0    0 -0.00000000000E+00 -0.00000000000E+00  0.00000000000E+00  0.93800000000E+00  0.93800000000E+00 0.  1.
         11    1    1    2    0    0 -0.33185353873E-01 -0.64786886357E-01  0.10011943466E+01  0.10038371328E+01  0.51100000000E-03 0.  1.
    9000002    1    1    2    0    0  0.14152660453E+00  0.25545596937E+00  0.56860212574E-01  0.98405518943E+00  0.93800000000E+00 0.  1.
         22    1    1    2    0    0 -0.10834125065E+00 -0.19066908302E+00  0.29419454082E+01  0.29501076778E+01  0.00000000000E+00 0.  1.
</event>
<event>
 5    1  0.2173147E+002  0.1598615E+01  0.7818608E-02  0.3354868E+00
         11   -1    0    0    0    0  0.00000000000E+00  0.00000000000E+00  0.39999999674E+01  0.40000000000E+01  0.51100000000E-03 0.  1.
    9000002   -1    0    0    0    0 -0.00000000000E+00 -0.00000000000E+00  0.00000000000E+00  0.93800000000E+00  0.93800000000E+00 0.  1.
         11    1    1    2    0    0  0.13442693550E+00 -0.80038183868E-01  0.11685722907E+01  0.11789988005E+01  0.51100000000E-03 0.  1.
    9000002    1    1    2    0    0 -0.37329222026E+00  0.35941591189E+00  0.18536987196E+00  0.10875352265E+01  0.93800000000E+00 0.  1.
         22    1    1    2    0    0  0.23886528476E+00 -0.27937772802E+00  0.26460578047E+01  0.26714659730E+01  0.00000000000E+00 0.  1.
</event>
<event>
 5    1  0.2173147E+002  0.1599611E+01  0.7818608E-02  0.3353786E+00
         11   -1    0    0    0    0  0.00000000000E+00  0.00000000000E+00  0.39999999674E+01  0.40000000000E+01  0.51100000000E-03 0.  1.
    9000002   -1    0    0    0    0 -0.00000000000E+00 -0.00000000000E+00  0.00000000000E+00  0.93800000000E+00  0.93800000000E+00 0. -1.
         11    1    1    2    0    0 -0.11585820653E+00 -0.42343533762E-01  0.13065006106E+01  0.13123110171E+01  0.51100000000E-03 0.  1.
    9000002    1    1    2    0    0  0.34655494905E+00  0.15406582119E+00  0.96824469755E-01  0.10163934218E+01  0.93800000000E+00 0. -1.
         22    1    1    2    0    0 -0.23069674252E+00 -0.11172228742E+00  0.25966748870E+01  0.26092955611E+01  0.00000000000E+00 0.  1.
</event>
<event>
 5    1  0.2173147E+002  0.1599668E+01  0.7818608E-02  0.3353724E+00
         11   -1    0    0    0    0  0.00000000000E+00  0.00000000000E+00  0.39999999674E+01  0.40000000000E+01  0.51100000000E-03 0. -1.
    9000002   -1    0    0    0    0 -0.00000000000E+00 -0.00000000000E+00  0.00000000000E+00  0.93800000000E+00  0.93800000000E+00 0.  1.
         11    1    1    2    0    0 -0.72963691353E-01  0.42044219762E-01  0.11474643293E+01  0.11505503313E+01  0.51100000000E-03 0. -1.
    9000002    1    1    2    0    0  0.24578452183E+00 -0.15455084293E+00  0.56192163880E-01  0.98351286392E+00  0.93800000000E+00 0.  1.
         22    1    1    2    0    0 -0.17282083048E+00  0.11250662317E+00  0.27963434741E+01  0.28039368047E+01  0.00000000000E+00 0. -1.
</event>
<event>
 5    1  0.2173147E+002  0.1573406E+01  0.7818608E-02  0.3382744E+00
         11   -1    0    0    0    0  0.00000000000E+00  0.00000000000E+00  0.39999999674E+01  0.40000000000E+01  0.51100000000E-03 0. -1.
    9000002   -1    0    0    0    0 -0.00000000000E+00 -0.00000000000E+00  0.00000000000E+00  0.93800000000E+00  0.93800000000E+00 0.  1.
         11    1    1    2    0    0  0.84734110602E-01  0.15129580708E+00  0.18546482039E+01  0.18627373707E+01  0.51100000000E-03 0. -1.
    9000002    1    1    2    0    0 -0.38947054230E-01  0.67645485726E-01  0.23377959171E-01  0.94153242841E+00  0.93800000000E+00 0.  1.
         22    1    1    2    0    0 -0.45787056372E-01 -0.21894129281E+00  0.21219738043E+01  0.21337302009E+01  0.00000000000E+00 0. -1.
</event>
<event>
 5    1  0.2173147E+002  0.1599644E+01  0.7818608E-02  0.3353750E+00
         11   -1    0    0    0    0  0.00000000000E+00  0.00000000000E+00  0.39999999674E+01  0.40000000000E+01  0.51100000000E-03 0. -1.
    9000002   -1    0    0    0    0 -0.00000000000E+00 -0.00000000000E+00  0.00000000000E+00  0.93800000000E+00  0.93800000000E+00 0. -1.
         11    1    1    2    0    0 -0.65798908895E+00  0.40303740022E+00  0.16026628945E+01  0.17787403975E+01  0.51100000000E-03 0. -1.
    9000002    1    1    2    0    0  0.10454854047E+01 -0.62813293092E+00  0.14636870874E+01  0.21236324071E+01  0.93800000000E+00 0. -1.
         22    1    1    2    0    0 -0.38749631577E+00  0.22509553070E+00  0.93364998545E+00  0.10356271955E+01  0.00000000000E+00 0. -1.
</event>
<event>
 5    1  0.2173147E+002  0.1599676E+01  0.7818608E-02  0.3353715E+00
         11   -1    0    0    0    0  0.00000000000E+00  0.00000000000E+00  0.39999999674E+01  0.40000000000E+01  0.51100000000E-03 0. -1.
    9000002   -1    0    0    0    0 -0.00000000000E+00 -0.00000000000E+00  0.00000000000E+00  0.93800000000E+00  0.93800000000E+00 0. -1.
         11    1    1    2    0    0 -0.12837331131E+00  0.86801872551E-02  0.15511162754E+01  0.15564437072E+01  0.51100000000E-03 0. -1.
    9000002    1    1    2    0    0  0.32806261346E+00 -0.20933399494E-01  0.72294383843E-01  0.99656096828E+00  0.93800000000E+00 0. -1.
         22    1    1    2    0    0 -0.19968930215E+00  0.12253212239E-01  0.23765893082E+01  0.23849953246E+01  0.00000000000E+00 0. -1.
</event>
<event>
 5    1  0.2173147E+002  0.1599677E+01  0.7818608E-02  0.3353714E+00
         11   -1    0    0    0    0  0.00000000000E+00  0.00000000000E+00  0.39999999674E+01  0.40000000000E+01  0.51100000000E-03 0.  1.
    9000002   -1    0    0    0    0 -0.00000000000E+00 -0.00000000000E+00  0.00000000000E+00  0.93800000000E+00  0.93800000000E+00 0.  1.
         11    1    1    2    0    0 -0.41737876438E+00 -0.25854625724E+00  0.25379386975E+01  0.25849921264E+01  0.51100000000E-03 0.  1.
    9000002    1    1    2    0    0  0.60001473280E+00  0.37154625446E+00  0.35650760782E+00  0.12267868491E+01  0.93800000000E+00 0.  1.
         22    1    1    2    0    0 -0.18263596842E+00 -0.11299999722E+00  0.11055536620E+01  0.11262210244E+01  0.00000000000E+00 0.  1.
</event>
<event>
 5    1  0.2173147E+002  0.1583439E+01  0.7818608E-02  0.3371537E+00
         11   -1    0    0    0    0  0.00000000000E+00  0.00000000000E+00  0.39999999674E+01  0.40000000000E+01  0.51100000000E-03 0. -1.
    9000002   -1    0    0    0    0 -0.00000000000E+00 -0.00000000000E+00  0.00000000000E+00  0.93800000000E+00  0.93800000000E+00 0. -1.
         11    1    1    2    0    0 -0.24781350175E-01  0.11820566609E-02  0.25782573378E-01  0.35784281262E-01  0.51100000000E-03 0. -1.
    9000002    1    1    2    0    0 -0.28318711412E+00 -0.96695197780E-01  0.72547085069E-01  0.98724464163E+00  0.93800000000E+00 0. -1.
         22    1    1    2    0    0  0.30796846430E+00  0.95513141119E-01  0.39016703089E+01  0.39149710771E+01  0.00000000000E+00 0. -1.
</event>
<event>
 5    1  0.2173147E+002  0.1599675E+01  0.7818608E-02  0.3353716E+00
         11   -1    0    0    0    0  0.00000000000E+00  0.00000000000E+00  0.39999999674E+01  0.40000000000E+01  0.51100000000E-03 0.  1.
    9000002   -1    0    0    0    0 -0.00000000000E+00 -0.00000000000E+00  0.00000000000E+00  0.93800000000E+00  0.93800000000E+00 0.  1.
         11    1    1    2    0    0 -0.48955922741E-01 -0.10279947945E-01  0.58785908299E+00  0.58998383221E+00  0.51100000000E-03 0.  1.
    9000002    1    1    2    0    0  0.32837730039E+00  0.60773272174E-01  0.74651536442E-01  0.99846977616E+00  0.93800000000E+00 0.  1.
         22    1    1    2    0    0 -0.27942137765E+00 -0.50493324230E-01  0.33374893479E+01  0.33495463916E+01  0.00000000000E+00 0.  1.
</event>
<event>
 5    1  0.2173147E+002  0.1599530E+01  0.7818608E-02  0.3353874E+00
         11   -1    0    0    0    0  0.00000000000E+00  0.00000000000E+00  0.39999999674E+01  0.40000000000E+01  0.51100000000E-03 0.  1.
    9000002   -1    0    0    0    0 -0.00000000000E+00 -0.00000000000E+00  0.00000000000E+00  0.93800000000E+00  0.93800000000E+00 0.  1.
         11    1    1    2    0    0  0.16903163963E-02 -0.38217293058E-01  0.52002076412E+00  0.52142619314E+00  0.51100000000E-03 0.  1.
    9000002    1    1    2    0    0 -0.59110495442E-01  0.34648047899E+00  0.82968918673E-01  0.10051221888E+01  0.93800000000E+00 0.  1.
         22    1    1    2    0    0  0.57420179046E-01 -0.30826318593E+00  0.33970102846E+01  0.34114516180E+01  0.00000000000E+00 0.  1.
</event>
<event>
 5    1  0.2173147E+002  0.1585377E+01  0.7818608E-02  0.3369389E+00
         11   -1    0    0    0    0  0.00000000000E+00  0.00000000000E+00  0.39999999674E+01  0.40000000000E+01  0.51100000000E-03 0. -1.
    9000002   -1    0    0    0    0 -0.00000000000E+00 -0.00000000000E+00  0.00000000000E+00  0.93800000000E+00  0.93800000000E+00 0.  1.
         11    1    1    2    0    0  0.18307611247E-01  0.89446902055E-01  0.28886322263E+00  0.30294907068E+00  0.51100000000E-03 0. -1.
    9000002    1    1    2    0    0  0.22334380212E+00 -0.29067803742E+00  0.10199663918E+00  0.10122368743E+01  0.93800000000E+00 0.  1.
         22    1    1    2    0    0 -0.24165141336E+00  0.20123113536E+00  0.36091401056E+01  0.36228140550E+01  0.00000000000E+00 0. -1.
</event>
<event>
 5    1  0.2173147E+002  0.1599672E+01  0.7818608E-02  0.3353719E+00
         11   -1    0    0    0    0  0.00000000000E+00  0.00000000000E+00  0.39999999674E+01  0.40000000000E+01  0.51100000000E-03 0. -1.
    9000002   -1    0    0    0    0 -0.00000000000E+00 -0.00000000000E+00  0.00000000000E+00  0.93800000000E+00  0.93800000000E+00 0.  1.
         11    1    1    2    0    0  0.69973833681E-01 -0.64681773301E-01  0.48332536149E+00  0.49262940978E+00  0.51100000000E-03 0. -1.
    9000002    1    1    2    0    0 -0.52653701664E+00  0.47366752011E+00  0.35929095676E+00  0.12290387061E+01  0.93800000000E+00 0.  1.
         22    1    1    2    0    0  0.45656318296E+00 -0.40898574681E+00  0.31573836491E+01  0.32163318841E+01  0.00000000000E+00 0. -1.
</event>
<event>
 5    1  0.2453867E+002  0.1549949E+01  0.7818608E-02  0.3409545E+00
         11   -1    0    0    0    0  0.00000000000E+00  0.00000000000E+00  0.39999999674E+01  0.40000000000E+01  0.51100000000E-03 0. -1.
    9000002   -1    0    0    0    0 -0.00000000000E+00 -0.00000000000E+00  0.00000000000E+00  0.93800000000E+00  0.93800000000E+00 0.  1.
         11    1    1    2    0    0 -0.13915126318E+00 -0.23053183375E+00  0.19639536635E+01  0.19823274840E+01  0.51100000000E-03 0. -1.
    9000002    1    1    2    0    0 -0.40673417644E-01  0.29541407322E-01  0.38639089328E-01  0.94014041551E+00  0.93800000000E+00 0.  1.
         22    1    1    2    0    0  0.17982468082E+00  0.20099042643E+00  0.19974072145E+01  0.20155321005E+01  0.00000000000E+00 0. -1.
</event>
<event>
 5    1  0.2173147E+002  0.1599334E+01  0.7818608E-02  0.3354086E+00
         11   -1    0    0    0    0  0.00000000000E+00  0.00000000000E+00  0.39999999674E+01  0.40000000000E+01  0.51100000000E-03 0. -1.
    9000002   -1    0    0    0    0 -0.00000000000E+00 -0.00000000000E+00  0.00000000000E+00  0.93800000000E+00  0.93800000000E+00 0. -1.
         11    1    1    2    0    0  0.60591184128E-01 -0.60620110796E-01  0.96196172620E+00  0.96577259913E+00  0.51100000000E-03 0. -1.
    9000002    1    1    2    0    0 -0.20507367272E+00  0.31248098527E+00  0.94205367815E-01  0.10141095743E+01  0.93800000000E+00 0. -1.
         22    1    1    2    0    0  0.14448248860E+00 -0.25186087447E+00  0.29438328733E+01  0.29581178266E+01  0.00000000000E+00 0. -1.
</event>
<event>
 5    1  0.2173147E+002  0.1599337E+01  0.7818608E-02  0.3354083E+00
         11   -1    0    0    0    0  0.00000000000E+00  0.00000000000E+00  0.39999999674E+01  0.40000000000E+01  0.51100000000E-03 0.  1.
    9000002   -1    0    0    0    0 -0.00000000000E+00 -0.00000000000E+00  0.00000000000E+00  0.93800000000E+00  0.93800000000E+00 0.  1.
         11    1    1    2    0    0  0.17027424691E-01  0.86928297865E-02  0.20147934268E+00  0.20238499235E+00  0.51100000000E-03 0.  1.
    9000002    1    1    2    0    0 -0.14460154784E+00 -0.19484573324E+00  0.39346833021E-01  0.96967347116E+00  0.93800000000E+00 0.  1.
         22    1    1    2    0    0  0.12757412315E+00  0.18615290345E+00  0.37591737917E+01  0.37659415365E+01  0.00000000000E+00 0.  1.
</event>
<event>
 5    1  0.2173147E+002  0.1594418E+01  0.7818608E-02  0.3359444E+00
         11   -1    0    0    0    0  0.00000000000E+00  0.00000000000E+00  0.39999999674E+01  0.40000000000E+01  0.51100000000E-03 0. -1.
    9000002   -1    0    0    0    0 -0.00000000000E+00 -0.00000000000E+00  0.00000000000E+00  0.93800000000E+00  0.93800000000E+00 0.  1.
         11    1    1    2    0    0  0.11547375903E+00 -0.44077085956E-01  0.82660279491E+00  0.83579268973E+00  0.51100000000E-03 0. -1.
    9000002    1    1    2    0    0 -0.35108076234E+00 -0.67301456268E-01  0.90020191389E-01  0.10078367043E+01  0.93800000000E+00 0.  1.
         22    1    1    2    0    0  0.23560700331E+00  0.11137854222E+00  0.30833769811E+01  0.30943706060E+01  0.00000000000E+00 0. -1.
</event>
<event>
 5    1  0.2173147E+002  0.1599675E+01  0.7818608E-02  0.3353716E+00
         11   -1    0    0    0    0  0.00000000000E+00  0.00000000000E+00  0.39999999674E+01  0.40000000000E+01  0.51100000000E-03 0. -1.
    9000002   -1    0    0    0    0 -0.00000000000E+00 -0.00000000000E+00  0.00000000000E+00  0.93800000000E+00  0.93800000000E+00 0.  1.
         11    1    1    2    0    0  0.14164461866E-01  0.14543449640E-01  0.34666635263E+00  0.34726065869E+00  0.51100000000E-03 0. -1.
    9000002    1    1    2    0    0 -0.15199533388E+00 -0.16771485619E+00  0.33975201552E-01  0.96552015454E+00  0.93800000000E+00 0.  1.
         22    1    1    2    0    0  0.13783087202E+00  0.15317140655E+00  0.36193584132E+01  0.36252191868E+01  0.00000000000E+00 0. -1.
</event>
<event>
 5    1  0.2173147E+002  0.1598589E+01  0.7818608E-02  0.3354896E+00
         11   -1    0    0    0    0  0.00000000000E+00  0.00000000000E+00  0.39999999674E+01  0.40000000000E+01  0.51100000000E-03 0.  1.
    9000002   -1    0    0    0    0 -0.00000000000E+00 -0.00000000000E+00  0.00000000000E+00  0.93800000000E+00  0.93800000000E+00 0. -1.
         11    1    1    2    0    0  0.14038140298E-01  0.23404065982E-01  0.16881717716E+00  0.17100970765E+00  0.51100000000E-03 0.  1.
    9000002    1    1    2    0    0 -0.22006121717E+00 -0.18524752200E+00  0.55983768751E-01  0.98271143581E+00  0.93800000000E+00 0. -1.
         22    1    1    2    0    0  0.20602307687E+00  0.16184345602E+00  0.37751990215E+01  0.37842788565E+01  0.00000000000E+00 0.  1.
</event>
<event>
 5    1  0.2173147E+002  0.1591777E+01  0.7818608E-02  0.3362337E+00
         11   -1    0    0    0    0  0.00000000000E+00  0.00000000000E+00  0.39999999674E+01  0.40000000000E+01  0.51100000000E-03 0.  1.
    9000002   -1    0    0    0    0 -0.00000000000E+00 -0.00000000000E+00  0.00000000000E+00  0.93800000000E+00  0.93800000000E+00 0. -1.
         11    1    1    2    0    0  0.13264881802E+00 -0.50375849258E+00  0.27336919129E+01  0.27828834082E+01  0.51100000000E-03 0.  1.
    9000002    1    1    2    0    0 -0.64102452231E-01  0.71703175109E+00  0.38155856250E+00  0.12424470182E+01  0.93800000000E+00 0. -1.
         22    1    1    2    0    0 -0.68546365791E-01 -0.21327325851E+00  0.88474949196E+00  0.91266957360E+00  0.00000000000E+00 0.  1.
</event>
<event>
 5    1  0.2173147E+002  0.1599676E+01  0.7818608E-02  0.3353715E+00
         11   -1    0    0    0    0  0.00000000000E+00  0.00000000000E+00  0.39999999674E+01  0.40000000000E+01  0.51100000000E-03 0. -1.
    9000002   -1    0    0    0    0 -0.00000000000E+00 -0.00000000000E+00  0.00000000000E+00  0.93800000000E+00  0.93800000000E+00 0.  1.
         11    1    1    2    0    0  0.30721612611E-01  0.15641688107E+00  0.15275545466E+01  0.15358493455E+01  0.51100000000E-03 0. -1.
    9000002    1    1    2    0    0 -0.77729307809E-01 -0.40103799009E+00  0.11268463869E+00  0.10292789430E+01  0.93800000000E+00 0.  1.
         22    1    1    2    0    0  0.47007695198E-01  0.24462110902E+00  0.23597607821E+01  0.23728717115E+01  0.00000000000E+00 0. -1.
</event>
<event>
 5    1  0.2173147E+002  0.1599668E+01  0.7818608E-02  0.3353724E+00
         11   -1    0    0    0    0  0.00000000000E+00  0.00000000000E+00  0.39999999674E+01  0.40000000000E+01  0.51100000000E-03 0.  1.
    9000002   -1    0    0    0    0 -0.00000000000E+00 -0.00000000000E+00  0.00000000000E+00  0.93800000000E+00  0.93800000000E+00 0.  1.
         11    1    1    2    0    0 -0.17418813938E-01  0.22620009111E-01  0.48580233071E+00  0.48664077669E+00  0.51100000000E-03 0.  1.
    9000002    1    1    2    0    0  0.13866948005E+00 -0.20295637423E+00  0.40130710310E-01  0.97050244124E+00  0.93800000000E+00 0.  1.
         22    1    1    2    0    0 -0.12125066611E+00  0.18033636512E+00  0.34740669263E+01  0.34808567821E+01  0.00000000000E+00 0.  1.
</event>
<event>
 5    1  0.2173147E+002  0.1599677E+01  0.7818608E-02  0.3353714E+00
         11   -1    0    0    0    0  0.00000000000E+00  0.00000000000E+00  0.39999999674E+01  0.40000000000E+01  0.51100000000E-03 0.  1.
    9000002   -1    0    0    0    0 -0.00000000000E+00 -0.00000000000E+00  0.00000000000E+00  0.93800000000E+00  0.93800000000E+00 0. -1.
         11    1    1    2    0    0  0.12457190408E+00 -0.21473412596E-03  0.15069703839E+01  0.15121105134E+01  0.51100000000E-03 0.  1.
    9000002    1    1    2    0    0 -0.32642574491E+00 -0.84596064429E-04  0.71267077038E-01  0.99572926560E+00  0.93800000000E+00 0. -1.
         22    1    1    2    0    0  0.20185384083E+00  0.29933019039E-03  0.24217625064E+01  0.24301602210E+01  0.00000000000E+00 0.  1.
</event>
<event>
 5    1  0.2173147E+002  0.1599674E+01  0.7818608E-02  0.3353717E+00
         11   -1    0    0    0    0  0.00000000000E+00  0.00000000000E+00  0.39999999674E+01  0.40000000000E+01  0.51100000000E-03 0.  1.
    9000002   -1    0    0    0    0 -0.00000000000E+00 -0.00000000000E+00  0.00000000000E+00  0.93800000000E+00  0.93800000000E+00 0.  1.
         11    1    1    2    0    0 -0.29399741568E-02 -0.53366798749E-02  0.10785543915E+00  0.10802860953E+00  0.51100000000E-03 0. -1.
    9000002    1    1    2    0    0  0.11523192632E+00  0.18369303968E+00  0.31164167582E-01  0.96324282246E+00  0.93800000000E+00 0.  1.
         22    1    1    2    0    0 -0.11229195217E+00 -0.17835635980E+00  0.38609803606E+01  0.38667285680E+01  0.00000000000E+00 0.  1.
</event>
<event>
 5    1  0.2173147E+002  0.1596848E+01  0.7818608E-02  0.3356791E+00
         11   -1    0    0    0    0  0.00000000000E+00  0.00000000000E+00  0.39999999674E+01  0.40000000000E+01  0.51100000000E-03 0. -1.
    9000002   -1    0    0    0    0 -0.00000000000E+00 -0.00000000000E+00  0.00000000000E+00  0.93800000000E+00  0.93800000000E+00 0. -1.
         11    1    1    2    0    0 -0.17978214640E+00 -0.26976837528E-01  0.21316901957E+01  0.21394281295E+01  0.51100000000E-03 0. -1.
    9000002    1    1    2    0    0  0.33355670922E+00  0.16618436122E+00  0.95674271151E-01  0.10138416476E+01  0.93800000000E+00 0. -1.
         22    1    1    2    0    0 -0.15377456282E+00 -0.13920752369E+00  0.17726355006E+01  0.17847302229E+01  0.00000000000E+00 0. -1.
</event>
<event>
 5    1  0.2173147E+002  0.1599663E+01  0.7818608E-02  0.3353729E+00
         11   -1    0    0    0    0  0.00000000000E+00  0.00000000000E+00  0.39999999674E+01  0.40000000000E+01  0.51100000000E-03 0.  1.
    9000002   -1    0    0    0    0 -0.00000000000E+00 -0.00000000000E+00  0.00000000000E+00  0.93800000000E+00  0.93800000000E+00 0.  1.
         11    1    1    2    0    0  0.17891183100E+00  0.64661727702E-01  0.14474117396E+01  0.14598601259E+01  0.51100000000E-03 0.  1.
    9000002    1    1    2    0    0 -0.46300483483E+00 -0.16774958887E+00  0.16581806696E+00  0.10723120036E+01  0.93800000000E+00 0.  1.
         22    1    1    2    0    0  0.28409300383E+00  0.10308786116E+00  0.23867701608E+01  0.24058278705E+01  0.00000000000E+00 0. -1.
</event>
<event>
 5    1  0.2173147E+002  0.1599666E+01  0.7818608E-02  0.3353726E+00
         11   -1    0    0    0    0  0.00000000000E+00  0.00000000000E+00  0.39999999674E+01  0.40000000000E+01  0.51100000000E-03 0. -1.
    9000002   -1    0    0    0    0 -0.00000000000E+00 -0.00000000000E+00  0.00000000000E+00  0.93800000000E+00  0.93800000000E+00 0.  1.
         11    1    1    2    0    0 -0.99349971175E-01 -0.20618758307E+00  0.13862324973E+01  0.14049998342E+01  0.51100000000E-03 0. -1.
    9000002    1    1    2    0    0  0.27681610765E+00  0.55807896178E+00  0.27214153401E+00  0.11584404601E+01  0.93800000000E+00 0.  1.
         22    1    1    2    0    0 -0.17746613648E+00 -0.35189137870E+00  0.23416259360E+01  0.23745597058E+01  0.00000000000E+00 0. -1.
</event>
<event>
 5    1  0.2173147E+002  0.1599677E+01  0.7818608E-02  0.3353714E+00
         11   -1    0    0    0    0  0.00000000000E+00  0.00000000000E+00  0.39999999674E+01  0.40000000000E+01  0.51100000000E-03 0. -1.
    9000002   -1    0    0    0    0 -0.00000000000E+00 -0.00000000000E+00  0.00000000000E+00  0.93800000000E+00  0.93800000000E+00 0.  1.
         11    1    1    2    0    0 -0.10065256497E+00  0.27696765794E-01  0.11170911192E+01  0.11219585016E+01  0.51100000000E-03 0. -1.
    9000002    1    1    2    0    0  0.35340020512E+00 -0.95070220679E-01  0.89964092730E-01  0.10108746657E+01  0.93800000000E+00 0.  1.
         22    1    1    2    0    0 -0.25274764015E+00  0.67373454885E-01  0.27929447554E+01  0.28051668326E+01  0.00000000000E+00 0. -1.
</event>
<event>
 5    1  0.2173147E+002  0.1599676E+01  0.7818608E-02  0.3353715E+00
         11   -1    0    0    0    0  0.00000000000E+00  0.00000000000E+00  0.39999999674E+01  0.40000000000E+01  0.51100000000E-03 0.  1.
    9000002   -1    0    0    0    0 -0.00000000000E+00 -0.00000000000E+00  0.00000000000E+00  0.93800000000E+00  0.93800000000E+00 0. -1.
         11    1    1    2    0    0  0.90232166780E-01  0.15013180028E+00  0.12003629183E+01  0.12130757595E+01  0.51100000000E-03 0.  1.
    9000002    1    1    2    0    0 -0.28706933462E+00 -0.47491164518E+00  0.21290226766E+00  0.11104599269E+01  0.93800000000E+00 0. -1.
         22    1    1    2    0    0  0.19683716783E+00  0.32477984490E+00  0.25867347814E+01  0.26144643137E+01  0.00000000000E+00 0.  1.
</event>
<event>
 5    1  0.2173147E+002  0.1455013E+01  0.7818608E-02  0.3527510E+00
         11   -1    0    0    0    0  0.00000000000E+00  0.00000000000E+00  0.39999999674E+01  0.40000000000E+01  0.51100000000E-03 0. -1.
    9000002   -1    0    0    0    0 -0.00000000000E+00 -0.00000000000E+00  0.00000000000E+00  0.93800000000E+00  0.93800000000E+00 0. -1.
         11    1    1    2    0    0 -0.48424469270E-01 -0.97324878492E-02 -0.45547862692E-01  0.67190173840E-01  0.51100000000E-03 0. -1.
    9000002    1    1    2    0    0 -0.28477459289E+00  0.57439862132E+00  0.45990871852E+00  0.12257203491E+01  0.93800000000E+00 0. -1.
         22    1    1    2    0    0  0.33319906216E+00 -0.56466613347E+00  0.35856391115E+01  0.36450894770E+01  0.00000000000E+00 0. -1.
</event>
<event>
 5    1  0.2173147E+002  0.1578012E+01  0.7818608E-02  0.3377579E+00
         11   -1    0    0    0    0  0.00000000000E+00  0.00000000000E+00  0.39999999674E+01  0.40000000000E+01  0.51100000000E-03 0.  1.
    9000002   -1    0    0    0    0 -0.00000000000E+00 -0.00000000000E+00  0.00000000000E+00  0.93800000000E+00  0.93800000000E+00 0. -1.
         11    1    1    2    0    0 -0.70708317276E-01  0.29513673371E-01  0.22819354003E+01  0.22832214425E+01  0.51100000000E-03 0.  1.
    9000002    1    1    2    0    0  0.16281724593E+00 -0.34573482643E+00  0.11631558448E+00  0.10195172097E+01  0.93800000000E+00 0. -1.
         22    1    1    2    0    0 -0.92108928657E-01  0.31622115306E+00  0.16017489826E+01  0.16352613478E+01  0.00000000000E+00 0.  1.
</event>
<event>
 5    1  0.2173147E+002  0.1599677E+01  0.7818608E-02  0.3353714E+00
         11   -1    0    0    0    0  0.00000000000E+00  0.00000000000E+00  0.39999999674E+01  0.40000000000E+01  0.51100000000E-03 0. -1.
    9000002   -1    0    0    0    0 -0.00000000000E+00 -0.00000000000E+00  0.00000000000E+00  0.93800000000E+00  0.93800000000E+00 0.  1.
         11    1    1    2    0    0 -0.18402030458E+00 -0.15965726505E+00  0.19432379237E+01  0.19584503578E+01  0.51100000000E-03 0. -1.
    9000002    1    1    2    0    0  0.36449772623E+00  0.31509859587E+00  0.15844340879E+00  0.10663461124E+01  0.93800000000E+00 0.  1.
         22    1    1    2    0    0 -0.18047742166E+00 -0.15544133082E+00  0.18983186349E+01  0.19132035298E+01  0.00000000000E+00 0.  1.
</event>
<event>
 5    1  0.2173147E+002  0.1590858E+01  0.7818608E-02  0.3363346E+00
         11   -1    0    0    0    0  0.00000000000E+00  0.00000000000E+00  0.39999999674E+01  0.40000000000E+01  0.51100000000E-03 0.  1.
    9000002   -1    0    0    0    0 -0.00000000000E+00 -0.00000000000E+00  0.00000000000E+00  0.93800000000E+00  0.93800000000E+00 0.  1.
         11    1    1    2    0    0 -0.12584453866E+00  0.27944992034E+00  0.18645222263E+01  0.18895429340E+01  0.51100000000E-03 0.  1.
    9000002    1    1    2    0    0  0.45116304902E+00 -0.45510088826E+00  0.29839501873E+00  0.11745418266E+01  0.93800000000E+00 0.  1.
         22    1    1    2    0    0 -0.32531851036E+00  0.17565096792E+00  0.18370827223E+01  0.18739152394E+01  0.00000000000E+00 0. -1.
</event>
<event>
 5    1  0.2173147E+002  0.1588430E+01  0.7818608E-02  0.3366017E+00
         11   -1    0    0    0    0  0.00000000000E+00  0.00000000000E+00  0.39999999674E+01  0.40000000000E+01  0.51100000000E-03 0. -1.
    9000002   -1    0    0    0    0 -0.00000000000E+00 -0.00000000000E+00  0.00000000000E+00  0.93800000000E+00  0.93800000000E+00 0.  1.
         11    1    1    2    0    0  0.51306684199E-01 -0.26786955999E-01  0.10207922303E+01  0.10224318831E+01  0.51100000000E-03 0. -1.
    9000002    1    1    2    0    0  0.17678255569E+00 -0.11144778712E+00  0.37431585744E-01  0.96172647092E+00  0.93800000000E+00 0.  1.
         22    1    1    2    0    0 -0.22808923989E+00  0.13823474312E+00  0.29417761513E+01  0.29538416460E+01  0.00000000000E+00 0. -1.
</event>
<event>
 5    1  0.2173147E+002  0.1599540E+01  0.7818608E-02  0.3353863E+00
         11   -1    0    0    0    0  0.00000000000E+00  0.00000000000E+00  0.39999999674E+01  0.40000000000E+01  0.51100000000E-03 0. -1.
    9000002   -1    0    0    0    0 -0.00000000000E+00 -0.00000000000E+00  0.00000000000E+00  0.93800000000E+00  0.93800000000E+00 0. -1.
         11    1    1    2    0    0  0.58192729491E-01 -0.63845559207E-01  0.13220740593E+01  0.13248934782E+01  0.51100000000E-03 0. -1.
    9000002    1    1    2    0    0 -0.18206713265E+00  0.22920397018E+00  0.57228627572E-01  0.98427740833E+00  0.93800000000E+00 0. -1.
         22    1    1    2    0    0  0.12387440316E+00 -0.16535841097E+00  0.26206972805E+01  0.26288291135E+01  0.00000000000E+00 0. -1.
</event>
<event>
 5    1  0.2173147E+002  0.1508788E+01  0.7818608E-02  0.3458729E+00
         11   -1    0    0    0    0  0.00000000000E+00  0.00000000000E+00  0.39999999674E+01  0.40000000000E+01  0.51100000000E-03 0. -1.
    9000002   -1    0    0    0    0 -0.00000000000E+00 -0.00000000000E+00  0.00000000000E+00  0.93800000000E+00  0.93800000000E+00 0. -1.
         11    1    1    2    0    0  0.14368509798E+00  0.98965189799E-01  0.13564958454E+00  0.22099906579E+00  0.51100000000E-03 0. -1.
    9000002    1    1    2    0    0 -0.30144956804E+00 -0.36712115348E+00  0.23889825264E+00  0.10782236125E+01  0.93800000000E+00 0. -1.
         22    1    1    2    0    0  0.15776447006E+00  0.26815596368E+00  0.36254521302E+01  0.36387773217E+01  0.00000000000E+00 0. -1.
</event>
<event>
 5    1  0.2173147E+002  0.1599633E+01  0.7818608E-02  0.3353762E+00
         11   -1    0    0    0    0  0.00000000000E+00  0.00000000000E+00  0.39999999674E+01  0.40000000000E+01  0.51100000000E-03 0.  1.
    9000002   -1    0    0    0    0 -0.00000000000E+00 -0.00000000000E+00  0.00000000000E+00  0.93800000000E+00  0.93800000000E+00 0.  1.
         11    1    1    2    0    0  0.10155814171E+00  0.34087453062E-02  0.98893078314E+00  0.99413783282E+00  0.51100000000E-03 0.  1.
    9000002    1    1    2    0    0 -0.41220172361E+00  0.10678486368E-01  0.11490711998E+00  0.10310537994E+01  0.93800000000E+00 0.  1.
         22    1    1    2    0    0  0.31064358191E+00 -0.14087231674E-01  0.28961620642E+01  0.29128083678E+01  0.00000000000E+00 0.  1.
</event>
<event>
 5    1  0.2173147E+002  0.1599677E+01  0.7818608E-02  0.3353714E+00
         11   -1    0    0    0    0  0.00000000000E+00  0.00000000000E+00  0.39999999674E+01  0.40000000000E+01  0.51100000000E-03 0.  1.
    9000002   -1    0    0    0    0 -0.00000000000E+00 -0.00000000000E+00  0.00000000000E+00  0.93800000000E+00  0.93800000000E+00 0.  1.
         11    1    1    2    0    0  0.10930698264E+00  0.13319625479E+00  0.15571078558E+01  0.15666123944E+01  0.51100000000E-03 0.  1.
    9000002    1    1    2    0    0 -0.27022893308E+00 -0.33218315530E+00  0.12415396956E+00  0.10385699462E+01  0.93800000000E+00 0.  1.
         22    1    1    2    0    0  0.16092195044E+00  0.19898690051E+00  0.23187381420E+01  0.23328176594E+01  0.00000000000E+00 0.  1.
</event>
<event>
 5    1  0.2173147E+002  0.1589033E+01  0.7818608E-02  0.3365354E+00
         11   -1    0    0    0    0  0.00000000000E+00  0.00000000000E+00  0.39999999674E+01  0.40000000000E+01  0.51100000000E-03 0.  1.
    9000002   -1    0    0    0    0 -0.00000000000E+00 -0.00000000000E+00  0.00000000000E+00  0.93800000000E+00  0.93800000000E+00 0. -1.
         11    1    1    2    0    0  0.29049234907E-01  0.46164447862E-01  0.13897892006E+00  0.14929975096E+00  0.51100000000E-03 0.  1.
    9000002    1    1    2    0    0 -0.15479162400E-01 -0.25757063355E+00  0.52465950323E-01  0.97425813401E+00  0.93800000000E+00 0. -1.
         22    1    1    2    0    0 -0.13570072507E-01  0.21140618569E+00  0.38085550970E+01  0.38144421150E+01  0.00000000000E+00 0.  1.
</event>
<event>
 5    1  0.2173147E+002  0.1597901E+01  0.7818608E-02  0.3355645E+00
         11   -1    0    0    0    0  0.00000000000E+00  0.00000000000E+00  0.39999999674E+01  0.40000000000E+01  0.51100000000E-03 0.  1.
    9000002   -1    0    0    0    0 -0.00000000000E+00 -0.00000000000E+00  0.00000000000E+00  0.93800000000E+00  0.93800000000E+00 0. -1.
         11    1    1    2    0    0  0.12751078112E+00 -0.13535739480E-01  0.10447919230E+01  0.10526312930E+01  0.51100000000E-03 0.  1.
    9000002    1    1    2    0    0 -0.44310890632E+00 -0.11411668173E+00  0.14390480415E+00  0.10535277465E+01  0.93800000000E+00 0. -1.
         22    1    1    2    0    0  0.31559812520E+00  0.12765242121E+00  0.28113032402E+01  0.28318409605E+01  0.00000000000E+00 0. -1.
</event>
<event>
 5    1  0.2173147E+002  0.1584128E+01  0.7818608E-02  0.3370772E+00
         11   -1    0    0    0    0  0.00000000000E+00  0.00000000000E+00  0.39999999674E+01  0.40000000000E+01  0.51100000000E-03 0.  1.
    9000002   -1    0    0    0    0 -0.00000000000E+00 -0.00000000000E+00  0.00000000000E+00  0.93800000000E+00  0.93800000000E+00 0. -1.
         11    1    1    2    0    0 -0.37925009281E-01  0.10151749006E+00  0.54031635774E+00  0.55107724928E+00  0.51100000000E-03 0.  1.
    9000002    1    1    2    0    0 -0.25410858767E+00 -0.20151622549E+00  0.82768574337E-01  0.99592901372E+00  0.93800000000E+00 0. -1.
         22    1    1    2    0    0  0.29203359696E+00  0.99998735428E-01  0.33769150353E+01  0.33909937370E+01  0.00000000000E+00 0.  1.
</event>
<event>
 5    1  0.2173147E+002  0.1599676E+01  0.7818608E-02  0.3353715E+00
         11   -1    0    0    0    0  0.00000000000E+00  0.00000000000E+00  0.39999999674E+01  0.40000000000E+01  0.51100000000E-03 0.  1.
    9000002   -1    0    0    0    0 -0.00000000000E+00 -0.00000000000E+00  0.00000000000E+00  0.93800000000E+00  0.93800000000E+00 0. -1.
         11    1    1    2    0    0 -0.18987748295E+00  0.20718282228E+00  0.22143729131E+01  0.22321348166E+01  0.51100000000E-03 0.  1.
    9000002    1    1    2    0    0  0.32862593328E+00 -0.36103586230E+00  0.16284118289E+00  0.10699080095E+01  0.93800000000E+00 0. -1.
         22    1    1    2    0    0 -0.13874845033E+00  0.15385304002E+00  0.16227858714E+01  0.16359571739E+01  0.00000000000E+00 0.  1.
</event>
<event>
 5    1  0.2173147E+002  0.1598715E+01  0.7818608E-02  0.3354760E+00
         11   -1    0    0    0    0  0.00000000000E+00  0.00000000000E+00  0.39999999674E+01  0.40000000000E+01  0.51100000000E-03 0.  1.
    9000002   -1    0    0    0    0 -0.00000000000E+00 -0.00000000000E+00  0.00000000000E+00  0.93800000000E+00  0.93800000000E+00 0.  1.
         11    1    1    2    0    0 -0.49394572174E-01  0.86069893855E-01  0.12879695750E+01  0.12917870326E+01  0.51100000000E-03 0.  1.
    9000002    1    1    2    0    0  0.20040275817E+00 -0.35321378496E+00  0.11213517012E+00  0.10282701687E+01  0.93800000000E+00 0.  1.
         22    1    1    2    0    0 -0.15100818599E+00  0.26714389111E+00  0.25998952223E+01  0.26179427988E+01  0.00000000000E+00 0.  1.
</event>
<event>
 5    1  0.2173147E+002  0.1599676E+01  0.7818608E-02  0.3353715E+00
         11   -1    0    0    0    0  0.00000000000E+00  0.00000000000E+00  0.39999999674E+01  0.40000000000E+01  0.51100000000E-03 0.  1.
    9000002   -1    0    0    0    0 -0.00000000000E+00 -0.00000000000E+00  0.00000000000E+00  0.93800000000E+00  0.93800000000E+00 0.  1.
         11    1    1    2    0    0 -0.40724690903E-01  0.17057896069E+00  0.16881173799E+01  0.16972024722E+01  0.51100000000E-03 0.  1.
    9000002    1    1    2    0    0  0.95683253904E-01 -0.39214168004E+00  0.10995197814E+00  0.10270656356E+01  0.93800000000E+00 0.  1.
         22    1    1    2    0    0 -0.54958563002E-01  0.22156271935E+00  0.22019306093E+01  0.22137318922E+01  0.00000000000E+00 0.  1.
</event>
<event>
 5    1  0.2173147E+002  0.1599643E+01  0.7818608E-02  0.3353751E+00
         11   -1    0    0    0    0  0.00000000000E+00  0.00000000000E+00  0.39999999674E+01  0.40000000000E+01  0.51100000000E-03 0.  1.
    9000002   -1    0    0    0    0 -0.00000000000E+00 -0.00000000000E+00  0.00000000000E+00  0.93800000000E+00  0.93800000000E+00 0. -1.
         11    1    1    2    0    0  0.12328897910E+00 -0.91984888270E-01  0.13072601472E+01  0.13162791291E+01  0.51100000000E-03 0.  1.
    9000002    1    1    2    0    0 -0.38124113555E+00  0.26309406171E+00  0.14604663075E+00  0.10562844821E+01  0.93800000000E+00 0. -1.
         22    1    1    2    0    0  0.25795215646E+00 -0.17110917344E+00  0.25466931894E+01  0.25654363888E+01  0.00000000000E+00 0.  1.
</event>
<event>
 5    1  0.2173147E+002  0.1590877E+01  0.7818608E-02  0.3363325E+00
         11   -1    0    0    0    0  0.00000000000E+00  0.00000000000E+00  0.39999999674E+01  0.40000000000E+01  0.51100000000E-03 0. -1.
    9000002   -1    0    0    0    0 -0.00000000000E+00 -0.00000000000E+00  0.00000000000E+00  0.93800000000E+00  0.93800000000E+00 0. -1.
         11    1    1    2    0    0 -0.86141803312E-01 -0.44348417315E-01  0.31986995494E+00  0.33422184487E+00  0.51100000000E-03 0. -1.
    9000002    1    1    2    0    0  0.34544255355E+00  0.22233727610E+00  0.12141080226E+00  0.10311881521E+01  0.93800000000E+00 0. -1.
         22    1    1    2    0    0 -0.25930075024E+00 -0.17798885878E+00  0.35587192102E+01  0.35725900030E+01  0.00000000000E+00 0. -1.
</event>
<event>
 5    1  0.2173147E+002  0.1599677E+01  0.7818608E-02  0.3353714E+00
         11   -1    0    0    0    0  0.00000000000E+00  0.00000000000E+00  0.39999999674E+01  0.40000000000E+01  0.51100000000E-03 0. -1.
    9000002   -1    0    0    0    0 -0.00000000000E+00 -0.00000000000E+00  0.00000000000E+00  0.93800000000E+00  0.93800000000E+00 0. -1.
         11    1    1    2    0    0  0.67357547699E-01  0.33938155381E-01  0.10166313638E+01  0.10194255385E+01  0.51100000000E-03 0. -1.
    9000002    1    1    2    0    0 -0.26232173067E+00 -0.13206265425E+00  0.57507269292E-01  0.98458332357E+00  0.93800000000E+00 0. -1.
         22    1    1    2    0    0  0.19496418297E+00  0.98124498869E-01  0.29258613343E+01  0.29339911379E+01  0.00000000000E+00 0. -1.
</event>
<event>
 5    1  0.2173147E+002  0.1599571E+01  0.7818608E-02  0.3353829E+00
         11   -1    0    0    0    0  0.00000000000E+00  0.00000000000E+00  0.39999999674E+01  0.40000000000E+01  0.51100000000E-03 0.  1.
    9000002   -1    0    0    0    0 -0.00000000000E+00 -0.00000000000E+00  0.00000000000E+00  0.93800000000E+00  0.93800000000E+00 0. -1.
         11    1    1    2    0    0  0.25969548942E-01 -0.18547585439E-01  0.41214194280E+00  0.41337594576E+00  0.51100000000E-03 0.  1.
    9000002    1    1    2    0    0 -0.27335459250E+00  0.24296097979E+00  0.89928250797E-01  0.10107837856E+01  0.93800000000E+00 0. -1.
         22    1    1    2    0    0  0.24738504356E+00 -0.22441339435E+00  0.34979297738E+01  0.35138402686E+01  0.00000000000E+00 0.  1.
</event>
<event>
 5    1  0.2173147E+002  0.1595707E+01  0.7818608E-02  0.3358036E+00
         11   -1    0    0    0    0  0.00000000000E+00  0.00000000000E+00  0.39999999674E+01  0.40000000000E+01  0.51100000000E-03 0. -1.
    9000002   -1    0    0    0    0 -0.00000000000E+00 -0.00000000000E+00  0.00000000000E+00  0.93800000000E+00  0.93800000000E+00 0. -1.
         11    1    1    2    0    0 -0.13386452752E+00  0.14520504340E+00  0.16687536321E+01  0.16803997031E+01  0.51100000000E-03 0. -1.
    9000002    1    1    2    0    0  0.15077915252E+00 -0.40628311108E+00  0.13063789741E+00  0.10414943972E+01  0.93800000000E+00 0. -1.
         22    1    1    2    0    0 -0.16914625003E-01  0.26107806768E+00  0.22006084379E+01  0.22161058997E+01  0.00000000000E+00 0.  1.
</event>
<event>
 5    1  0.2173147E+002  0.1589204E+01  0.7818608E-02  0.3365165E+00
         11   -1    0    0    0    0  0.00000000000E+00  0.00000000000E+00  0.39999999674E+01  0.40000000000E+01  0.51100000000E-03 0.  1.
    9000002   -1    0    0    0    0 -0.00000000000E+00 -0.00000000000E+00  0.00000000000E+00  0.93800000000E+00  0.93800000000E+00 0.  1.
         11    1    1    2    0    0 -0.32829888101E-01 -0.30285425432E-01  0.15289561332E+00  0.15928696820E+00  0.51100000000E-03 0.  1.
    9000002    1    1    2    0    0 -0.22940226193E+00  0.17375450824E+00  0.63377154723E-01  0.98319717791E+00  0.93800000000E+00 0.  1.
         22    1    1    2    0    0  0.26223215003E+00 -0.14346908281E+00  0.37837271993E+01  0.37955158539E+01  0.00000000000E+00 0.  1.
</event>
<event>
 5    1  0.2173147E+002  0.1541936E+01  0.7818608E-02  0.3418900E+00
         11   -1    0    0    0    0  0.00000000000E+00  0.00000000000E+00  0.39999999674E+01  0.40000000000E+01  0.51100000000E-03 0. -1.
    9000002   -1    0    0    0    0 -0.00000000000E+00 -0.00000000000E+00  0.00000000000E+00  0.93800000000E+00  0.93800000000E+00 0. -1.
         11    1    1    2    0    0  0.11916452306E+00  0.25720627400E+00  0.18767796060E+01  0.18980667010E+01  0.51100000000E-03 0. -1.
    9000002    1    1    2    0    0  0.40616918216E-01 -0.80161556089E-02  0.44208637749E-01  0.93995340121E+00  0.93800000000E+00 0. -1.
         22    1    1    2    0    0 -0.15978144128E+00 -0.24919011839E+00  0.20790117236E+01  0.20999798978E+01  0.00000000000E+00 0. -1.
</event>
<event>
 5    1  0.2173147E+002  0.1521594E+01  0.7818608E-02  0.3443122E+00
         11   -1    0    0    0    0  0.00000000000E+00  0.00000000000E+00  0.39999999674E+01  0.40000000000E+01  0.51100000000E-03 0. -1.
    9000002   -1    0    0    0    0 -0.00000000000E+00 -0.00000000000E+00  0.00000000000E+00  0.93800000000E+00  0.93800000000E+00 0. -1.
         11    1    1    2    0    0 -0.12639258242E-01 -0.19796473460E+00  0.39401676015E+00  0.44113405604E+00  0.51100000000E-03 0. -1.
    9000002    1    1    2    0    0 -0.12995338904E+00 -0.66010087270E-01  0.73972172368E-01  0.95213502048E+00  0.93800000000E+00 0. -1.
         22    1    1    2    0    0  0.14259264728E+00  0.26397482187E+00  0.35320110348E+01  0.35447309235E+01  0.00000000000E+00 0. -1.
</event>
<event>
 5    1  0.2173147E+002  0.1599587E+01  0.7818608E-02  0.3353812E+00
         11   -1    0    0    0    0  0.00000000000E+00  0.00000000000E+00  0.39999999674E+01  0.40000000000E+01  0.51100000000E-03 0.  1.
    9000002   -1    0    0    0    0 -0.00000000000E+00 -0.00000000000E+00  0.00000000000E+00  0.93800000000E+00  0.93800000000E+00 0.  1.
         11    1    1    2    0    0 -0.63202494804E-01 -0.23381519650E+00  0.19079543901E+01  0.19232665747E+01  0.51100000000E-03 0.  1.
    9000002    1    1    2    0    0  0.12482341666E+00  0.44900906244E+00  0.14794764551E+00  0.10577913449E+01  0.93800000000E+00 0.  1.
         22    1    1    2    0    0 -0.61620921854E-01 -0.21519386594E+00  0.19440979317E+01  0.19569420804E+01  0.00000000000E+00 0.  1.
</event>
<event>
 5    1  0.2173147E+002  0.1599658E+01  0.7818608E-02  0.3353735E+00
         11   -1    0    0    0    0  0.00000000000E+00  0.00000000000E+00  0.39999999674E+01  0.40000000000E+01  0.51100000000E-03 0.  1.
    9000002   -1    0    0    0    0 -0.00000000000E+00 -0.00000000000E+00  0.00000000000E+00  0.93800000000E+00  0.93800000000E+00 0.  1.
         11    1    1    2    0    0 -0.30598655452E+00  0.26387291812E-01  0.16462078827E+01  0.16746118102E+01  0.51100000000E-03 0.  1.
    9000002    1    1    2    0    0  0.67334635237E+00 -0.65680635380E-01  0.32513051186E+00  0.12013588581E+01  0.93800000000E+00 0.  1.
         22    1    1    2    0    0 -0.36735979785E+00  0.39293343568E-01  0.20286615728E+01  0.20620293317E+01  0.00000000000E+00 0.  1.
</event>
<event>
 5    1  0.2173147E+002  0.1599665E+01  0.7818608E-02  0.3353727E+00
         11   -1    0    0    0    0  0.00000000000E+00  0.00000000000E+00  0.39999999674E+01  0.40000000000E+01  0.51100000000E-03 0. -1.
    9000002   -1    0    0    0    0 -0.00000000000E+00 -0.00000000000E+00  0.00000000000E+00  0.93800000000E+00  0.93800000000E+00 0.  1.
         11    1    1    2    0    0 -0.22191605368E-01 -0.29154207864E-01  0.61472499443E+00  0.61581613740E+00  0.51100000000E-03 0. -1.
    9000002    1    1    2    0    0  0.15270856788E+00  0.20392242362E+00  0.43140042688E-01  0.97293850003E+00  0.93800000000E+00 0.  1.
         22    1    1    2    0    0 -0.13051696251E+00 -0.17476821576E+00  0.33421349302E+01  0.33492453626E+01  0.00000000000E+00 0. -1.
</event>
<event>
 5    1  0.2173147E+002  0.1599593E+01  0.7818608E-02  0.3353805E+00
         11   -1    0    0    0    0  0.00000000000E+00  0.00000000000E+00  0.39999999674E+01  0.40000000000E+01  0.51100000000E-03 0.  1.
    9000002   -1    0    0    0    0 -0.00000000000E+00 -0.00000000000E+00  0.00000000000E+00  0.93800000000E+00  0.93800000000E+00 0. -1.
         11    1    1    2    0    0 -0.71687768438E-01  0.15350221991E-01  0.38383127526E+00  0.39077036024E+00  0.51100000000E-03 0.  1.
    9000002    1    1    2    0    0  0.65352935836E+00 -0.93367129965E-01  0.30838363773E+00  0.11877552404E+01  0.93800000000E+00 0. -1.
         22    1    1    2    0    0 -0.58184158992E+00  0.78016907975E-01  0.33077850544E+01  0.33594743993E+01  0.00000000000E+00 0.  1.
</event>
<event>
 5    1  0.2173147E+002  0.1599646E+01  0.7818608E-02  0.3353748E+00
         11   -1    0    0    0    0  0.00000000000E+00  0.00000000000E+00  0.39999999674E+01  0.40000000000E+01  0.51100000000E-03 0.  1.
    9000002   -1    0    0    0    0 -0.00000000000E+00 -0.00000000000E+00  0.00000000000E+00  0.93800000000E+00  0.93800000000E+00 0.  1.
         11    1    1    2    0    0 -0.42461288682E-01  0.43593049720E-01  0.75222062156E+00  0.75467836834E+00  0.51100000000E-03 0.  1.
    9000002    1    1    2    0    0  0.21959795627E+00 -0.20100383335E+00  0.59134875874E-01  0.98588373400E+00  0.93800000000E+00 0.  1.
         22    1    1    2    0    0 -0.17713666758E+00  0.15741078363E+00  0.31886444699E+01  0.31974378977E+01  0.00000000000E+00 0.  1.
</event>
<event>
 5    1  0.2173147E+002  0.1599521E+01  0.7818608E-02  0.3353883E+00
         11   -1    0    0    0    0  0.00000000000E+00  0.00000000000E+00  0.39999999674E+01  0.40000000000E+01  0.51100000000E-03 0. -1.
    9000002   -1    0    0    0    0 -0.00000000000E+00 -0.00000000000E+00  0.00000000000E+00  0.93800000000E+00  0.93800000000E+00 0. -1.
         11    1    1    2    0    0  0.84699633932E-01  0.12537139631E+00  0.15453306008E+01  0.15527198530E+01  0.51100000000E-03 0. -1.
    9000002    1    1    2    0    0 -0.24543661947E+00 -0.33301167083E+00  0.11577259083E+00  0.10316894881E+01  0.93800000000E+00 0. -1.
         22    1    1    2    0    0  0.16073698554E+00  0.20764027451E+00  0.23388967758E+01  0.23535906589E+01  0.00000000000E+00 0. -1.
</event>
<event>
 5    1  0.2173147E+002  0.1599531E+01  0.7818608E-02  0.3353872E+00
         11   -1    0    0    0    0  0.00000000000E+00  0.00000000000E+00  0.39999999674E+01  0.40000000000E+01  0.51100000000E-03 0. -1.
    9000002   -1    0    0    0    0 -0.00000000000E+00 -0.00000000000E+00  0.00000000000E+00  0.93800000000E+00  0.93800000000E+00 0. -1.
         11    1    1    2    0    0  0.50059579650E-01  0.80628327613E-01  0.90584516665E+00  0.91080328051E+00  0.51100000000E-03 0. -1.
    9000002    1    1    2    0    0 -0.16564137349E+00 -0.36483995369E+00  0.10842186581E+00  0.10257409797E+01  0.93800000000E+00 0. -1.
         22    1    1    2    0    0  0.11558179384E+00  0.28421162608E+00  0.29857329349E+01  0.30014557398E+01  0.00000000000E+00 0. -1.
</event>
<event>
 5    1  0.2173147E+002  0.1599668E+01  0.7818608E-02  0.3353724E+00
         11   -1    0    0    0    0  0.00000000000E+00  0.00000000000E+00  0.39999999674E+01  0.40000000000E+01  0.51100000000E-03 0.  1.
    9000002   -1    0    0    0    0 -0.00000000000E+00 -0.00000000000E+00  0.00000000000E+00  0.93800000000E+00  0.93800000000E+00 0.  1.
         11    1    1    2    0    0  0.67336610146E-01  0.14374364707E+00  0.16746592921E+01  0.16821654083E+01  0.51100000000E-03 0.  1.
    9000002    1    1    2    0    0 -0.15003669844E+00 -0.33146566738E+00  0.88908425851E-01  0.10100144592E+01  0.93800000000E+00 0.  1.
         22    1    1    2    0    0  0.82700088294E-01  0.18772202032E+00  0.22364322495E+01  0.22458201326E+01  0.00000000000E+00 0.  1.
</event>
<event>
 5    1  0.2173147E+002  0.1599500E+01  0.7818608E-02  0.3353906E+00
         11   -1    0    0    0    0  0.00000000000E+00  0.00000000000E+00  0.39999999674E+01  0.40000000000E+01  0.51100000000E-03 0.  1.
    9000002   -1    0    0    0    0 -0.00000000000E+00 -0.00000000000E+00  0.00000000000E+00  0.93800000000E+00  0.93800000000E+00 0. -1.
         11    1    1    2    0    0  0.20139151192E+00 -0.42760677752E+00  0.18922809371E+01  0.19504188020E+01  0.51100000000E-03 0.  1.
    9000002    1    1    2    0    0 -0.37412945337E+00  0.75460147001E+00  0.53073625481E+00  0.13678162152E+01  0.93800000000E+00 0. -1.
         22    1    1    2    0    0  0.17273794145E+00 -0.32699469249E+00  0.15769827754E+01  0.16197649828E+01  0.00000000000E+00 0.  1.
</event>
<event>
 5    1  0.2173147E+002  0.1599540E+01  0.7818608E-02  0.3353862E+00
         11   -1    0    0    0    0  0.00000000000E+00  0.00000000000E+00  0.39999999674E+01  0.40000000000E+01  0.51100000000E-03 0.  1.
    9000002   -1    0    0    0    0 -0.00000000000E+00 -0.00000000000E+00  0.00000000000E+00  0.93800000000E+00  0.93800000000E+00 0. -1.
         11    1    1    2    0    0  0.35045201969E-01  0.47844304291E-01  0.70908357735E+00  0.71155957194E+00  0.51100000000E-03 0.  1.
    9000002    1    1    2    0    0 -0.14187381655E+00 -0.23833061163E+00  0.51322838476E-01  0.97949359059E+00  0.93800000000E+00 0. -1.
         22    1    1    2    0    0  0.10682861458E+00  0.19048630734E+00  0.32395935515E+01  0.32469468375E+01  0.00000000000E+00 0.  1.
</event>
<event>
 5    1  0.2173147E+002  0.1599674E+01  0.7818608E-02  0.3353717E+00
         11   -1    0    0    0    0  0.00000000000E+00  0.00000000000E+00  0.39999999674E+01  0.40000000000E+01  0.51100000000E-03 0.  1.
    9000002   -1    0    0    0    0 -0.00000000000E+00 -0.00000000000E+00  0.00000000000E+00  0.93800000000E+00  0.93800000000E+00 0. -1.
         11    1    1    2    0    0  0.19578835935E-02 -0.15054990596E-01  0.23619080439E+00  0.23667877651E+00  0.51100000000E-03 0.  1.
    9000002    1    1    2    0    0 -0.29965346248E-01  0.23758400666E+00  0.38065480693E-01  0.96883283543E+00  0.93800000000E+00 0. -1.
         22    1    1    2    0    0  0.28007462654E-01 -0.22252901606E+00  0.37257436823E+01  0.37324883881E+01  0.00000000000E+00 0.  1.
</event>
<event>
 5    1  0.2173147E+002  0.1599620E+01  0.7818608E-02  0.3353776E+00
         11   -1    0    0    0    0  0.00000000000E+00  0.00000000000E+00  0.39999999674E+01  0.40000000000E+01  0.51100000000E-03 0.  1.
    9000002   -1    0    0    0    0 -0.00000000000E+00 -0.00000000000E+00  0.00000000000E+00  0.93800000000E+00  0.93800000000E+00 0. -1.
         11    1    1    2    0    0 -0.39434307719E-01 -0.42080607953E-02  0.53032774493E+00  0.53180875375E+00  0.51100000000E-03 0.  1.
    9000002    1    1    2    0    0  0.25885699877E+00  0.61427187037E-01  0.47122422907E-01  0.97613767874E+00  0.93800000000E+00 0. -1.
         22    1    1    2    0    0 -0.21942269105E+00 -0.57219126241E-01  0.34225497995E+01  0.34300535675E+01  0.00000000000E+00 0.  1.
</event>
<event>
 5    1  0.2173147E+002  0.1599116E+01  0.7818608E-02  0.3354323E+00
         11   -1    0    0    0    0  0.00000000000E+00  0.00000000000E+00  0.39999999674E+01  0.40000000000E+01  0.51100000000E-03 0.  1.
    9000002   -1    0    0    0    0 -0.00000000000E+00 -0.00000000000E+00  0.00000000000E+00  0.93800000000E+00  0.93800000000E+00 0. -1.
         11    1    1    2    0    0 -0.60160436776E-01  0.31582828899E-01  0.12087986254E+01  0.12107068725E+01  0.51100000000E-03 0.  1.
    9000002    1    1    2    0    0  0.19851682495E+00 -0.18906963303E+00  0.50456268841E-01  0.97854284065E+00  0.93800000000E+00 0. -1.
         22    1    1    2    0    0 -0.13835638817E+00  0.15748680413E+00  0.27407450731E+01  0.27487502868E+01  0.00000000000E+00 0.  1.
</event>
<event>
 5    1  0.2173147E+002  0.1599005E+01  0.7818608E-02  0.3354444E+00
         11   -1    0    0    0    0  0.00000000000E+00  0.00000000000E+00  0.39999999674E+01  0.40000000000E+01  0.51100000000E-03 0. -1.
    9000002   -1    0    0    0    0 -0.00000000000E+00 -0.00000000000E+00  0.00000000000E+00  0.93800000000E+00  0.93800000000E+00 0.  1.
         11    1    1    2    0    0  0.47601987906E-01 -0.16153789615E-01  0.29024041318E+00  0.29456179782E+00  0.51100000000E-03 0. -1.
    9000002    1    1    2    0    0 -0.48176847469E+00  0.51361507467E-01  0.16087939574E+00  0.10679255815E+01  0.93800000000E+00 0.  1.
         22    1    1    2    0    0  0.43416648679E+00 -0.35207717852E-01  0.35488801584E+01  0.35755126207E+01  0.00000000000E+00 0. -1.
</event>
<event>
 5    1  0.2173147E+002  0.1599675E+01  0.7818608E-02  0.3353716E+00
         11   -1    0    0    0    0  0.00000000000E+00  0.00000000000E+00  0.39999999674E+01  0.40000000000E+01  0.51100000000E-03 0.  1.
    9000002   -1    0    0    0    0 -0.00000000000E+00 -0.00000000000E+00  0.00000000000E+00  0.93800000000E+00  0.93800000000E+00 0. -1.
         11    1    1    2    0    0 -0.10451419447E-01  0.23736758790E+00  0.21136138128E+01  0.21269264714E+01  0.51100000000E-03 0.  1.
    9000002    1    1    2    0    0  0.19978144370E-01 -0.43724502497E+00  0.12988904802E+00  0.10432149840E+01  0.93800000000E+00 0. -1.
         22    1    1    2    0    0 -0.95267249233E-02  0.19987743707E+00  0.17564971066E+01  0.17678585446E+01  0.00000000000E+00 0.  1.
</event>
<event>
 5    1  0.2173147E+002  0.1599632E+01  0.7818608E-02  0.3353763E+00
         11   -1    0    0    0    0  0.00000000000E+00  0.00000000000E+00  0.39999999674E+01  0.40000000000E+01  0.51100000000E-03 0. -1.
    9000002   -1    0    0    0    0 -0.00000000000E+00 -0.00000000000E+00  0.00000000000E+00  0.93800000000E+00  0.93800000000E+00 0. -1.
         11    1    1    2    0    0 -0.19792057285E+00 -0.65003790206E-01  0.15024829410E+01  0.15168563858E+01  0.51100000000E-03 0. -1.
    9000002    1    1    2    0    0  0.50322654260E+00  0.18446224896E+00  0.19793632875E+00  0.10983105502E+01  0.93800000000E+00 0. -1.
         22    1    1    2    0    0 -0.30530596975E+00 -0.11945845875E+00  0.22995806976E+01  0.23228330640E+01  0.00000000000E+00 0. -1.
</event>
<event>
 5    1  0.2173147E+002  0.1599675E+01  0.7818608E-02  0.3353717E+00
         11   -1    0    0    0    0  0.00000000000E+00  0.00000000000E+00  0.39999999674E+01  0.40000000000E+01  0.51100000000E-03 0.  1.
    9000002   -1    0    0    0    0 -0.00000000000E+00 -0.00000000000E+00  0.00000000000E+00  0.93800000000E+00  0.93800000000E+00 0. -1.
         11    1    1    2    0    0 -0.38364397493E-01 -0.17546551104E-01  0.54383348044E+00  0.54546752792E+00  0.51100000000E-03 0.  1.
    9000002    1    1    2    0    0  0.27418023569E+00  0.13532592318E+00  0.62402622191E-01  0.98854741636E+00  0.93800000000E+00 0. -1.
         22    1    1    2    0    0 -0.23581583820E+00 -0.11777937208E+00  0.33937638647E+01  0.34039850557E+01  0.00000000000E+00 0.  1.
</event>
<event>
 5    1  0.2173147E+002  0.1599676E+01  0.7818608E-02  0.3353715E+00
         11   -1    0    0    0    0  0.00000000000E+00  0.00000000000E+00  0.39999999674E+01  0.40000000000E+01  0.51100000000E-03 0.  1.
    9000002   -1    0    0    0    0 -0.00000000000E+00 -0.00000000000E+00  0.00000000000E+00  0.93800000000E+00  0.93800000000E+00 0.  1.
         11    1    1    2    0    0 -0.34714512227E+00 -0.12504040494E+00  0.22219815973E+01  0.22524092254E+01  0.51100000000E-03 0.  1.
    9000002    1    1    2    0    0  0.58323437868E+00  0.21193795319E+00  0.26988219610E+00  0.11566159416E+01  0.93800000000E+00 0.  1.
         22    1    1    2    0    0 -0.23608925641E+00 -0.86897548259E-01  0.15081361740E+01  0.15289748330E+01  0.00000000000E+00 0. -1.
</event>
<event>
 5    1  0.2173147E+002  0.1599504E+01  0.7818608E-02  0.3353902E+00
         11   -1    0    0    0    0  0.00000000000E+00  0.00000000000E+00  0.39999999674E+01  0.40000000000E+01  0.51100000000E-03 0. -1.
    9000002   -1    0    0    0    0 -0.00000000000E+00 -0.00000000000E+00  0.00000000000E+00  0.93800000000E+00  0.93800000000E+00 0. -1.
         11    1    1    2    0    0 -0.39367981450E-01  0.89007855792E-01  0.10893470505E+01  0.10936861953E+01  0.51100000000E-03 0. -1.
    9000002    1    1    2    0    0  0.94642116397E-01 -0.30220853912E+00  0.67146443053E-01  0.99229016730E+00  0.93800000000E+00 0. -1.
         22    1    1    2    0    0 -0.55274134947E-01  0.21320068333E+00  0.28435064738E+01  0.28520236374E+01  0.00000000000E+00 0. -1.
</event>
<event>
 5    1  0.2173147E+002  0.1599608E+01  0.7818608E-02  0.3353789E+00
         11   -1    0    0    0    0  0.00000000000E+00  0.00000000000E+00  0.39999999674E+01  0.40000000000E+01  0.51100000000E-03 0. -1.
    9000002   -1    0    0    0    0 -0.00000000000E+00 -0.00000000000E+00  0.00000000000E+00  0.93800000000E+00  0.93800000000E+00 0. -1.
         11    1    1    2    0    0  0.29937620802E-01  0.12727181524E-01  0.32545794841E+00  0.32708008132E+00  0.51100000000E-03 0. -1.
    9000002    1    1    2    0    0 -0.40885004847E+00 -0.11119808420E+00  0.12153225654E+00  0.10364060331E+01  0.93800000000E+00 0. -1.
         22    1    1    2    0    0  0.37891242766E+00  0.98470902672E-01  0.35530097624E+01  0.35745138856E+01  0.00000000000E+00 0. -1.
</event>
<event>
 5    1  0.2173147E+002  0.1599674E+01  0.7818608E-02  0.3353718E+00
         11   -1    0    0    0    0  0.00000000000E+00  0.00000000000E+00  0.39999999674E+01  0.40000000000E+01  0.51100000000E-03 0. -1.
    9000002   -1    0    0    0    0 -0.00000000000E+00 -0.00000000000E+00  0.00000000000E+00  0.93800000000E+00  0.93800000000E+00 0.  1.
         11    1    1    2    0    0  0.10689793214E+00  0.80545797666E-01  0.15377936332E+01  0.15436075644E+01  0.51100000000E-03 0. -1.
    9000002    1    1    2    0    0 -0.27307198649E+00 -0.19990597152E+00  0.76700620984E-01  0.10001288380E+01  0.93800000000E+00 0.  1.
         22    1    1    2    0    0  0.16617405435E+00  0.11936017385E+00  0.23855057132E+01  0.23942635976E+01  0.00000000000E+00 0. -1.
</event>
<event>
 5    1  0.2173147E+002  0.1544403E+01  0.7818608E-02  0.3416009E+00
         11   -1    0    0    0    0  0.00000000000E+00  0.00000000000E+00  0.39999999674E+01  0.40000000000E+01  0.51100000000E-03 0. -1.
    9000002   -1    0    0    0    0 -0.00000000000E+00 -0.00000000000E+00  0.00000000000E+00  0.93800000000E+00  0.93800000000E+00 0.  1.
         11    1    1    2    0    0  0.60252152445E-01  0.25184963747E+00  0.12783120947E+01  0.13042778210E+01  0.51100000000E-03 0. -1.
    9000002    1    1    2    0    0  0.51304476651E-01  0.51125491073E-02  0.42971886552E-01  0.94039825102E+00  0.93800000000E+00 0.  1.
         22    1    1    2    0    0 -0.11155662910E+00 -0.25696218658E+00  0.26787159861E+01  0.26933239280E+01  0.00000000000E+00 0. -1.
</event>
<event>
 5    1  0.2173147E+002  0.1561848E+01  0.7818608E-02  0.3395842E+00
         11   -1    0    0    0    0  0.00000000000E+00  0.00000000000E+00  0.39999999674E+01  0.40000000000E+01  0.51100000000E-03 0.  1.
    9000002   -1    0    0    0    0 -0.00000000000E+00 -0.00000000000E+00  0.00000000000E+00  0.93800000000E+00  0.93800000000E+00 0.  1.
         11    1    1    2    0    0 -0.33468596058E-01  0.20072215401E+00  0.20278910948E+01  0.20380755834E+01  0.51100000000E-03 0.  1.
    9000002    1    1    2    0    0  0.20110793936E-01  0.62885365183E-01  0.30873762260E-01  0.94082740308E+00  0.93800000000E+00 0.  1.
         22    1    1    2    0    0  0.13357802122E-01 -0.26360751919E+00  0.19412351103E+01  0.19590970136E+01  0.00000000000E+00 0.  1.
</event>
<event>
 5    1  0.2173147E+002  0.1593405E+01  0.7818608E-02  0.3360553E+00
         11   -1    0    0    0    0  0.00000000000E+00  0.00000000000E+00  0.39999999674E+01  0.40000000000E+01  0.51100000000E-03 0.  1.
    9000002   -1    0    0    0    0 -0.00000000000E+00 -0.00000000000E+00  0.00000000000E+00  0.93800000000E+00  0.93800000000E+00 0.  1.
         11    1    1    2    0    0 -0.13217523605E-02  0.26215355022E-01  0.24537773660E+00  0.24677821340E+00  0.51100000000E-03 0.  1.
    9000002    1    1    2    0    0  0.17854621461E-01  0.31863777010E+00  0.73046454006E-01  0.99349313057E+00  0.93800000000E+00 0.  1.
         22    1    1    2    0    0 -0.16532869100E-01 -0.34485312512E+00  0.36815757768E+01  0.36977286560E+01  0.00000000000E+00 0.  1.
</event>
<event>
 5    1  0.2173147E+002  0.1541551E+01  0.7818608E-02  0.3419353E+00
         11   -1    0    0    0    0  0.00000000000E+00  0.00000000000E+00  0.39999999674E+01  0.40000000000E+01  0.51100000000E-03 0. -1.
    9000002   -1    0    0    0    0 -0.00000000000E+00 -0.00000000000E+00  0.00000000000E+00  0.93800000000E+00  0.93800000000E+00 0. -1.
         11    1    1    2    0    0 -0.18103599373E+00 -0.38070308728E+00  0.25712580240E+01  0.26055857228E+01  0.51100000000E-03 0. -1.
    9000002    1    1    2    0    0  0.32932531208E+00  0.16472038687E+00  0.14006318989E+00  0.10173739058E+01  0.93800000000E+00 0. -1.
         22    1    1    2    0    0 -0.14828931835E+00  0.21598270041E+00  0.12886787535E+01  0.13150403714E+01  0.00000000000E+00 0. -1.
</event>
<event>
 5    1  0.2173147E+002  0.1599504E+01  0.7818608E-02  0.3353902E+00
         11   -1    0    0    0    0  0.00000000000E+00  0.00000000000E+00  0.39999999674E+01  0.40000000000E+01  0.51100000000E-03 0. -1.
    9000002   -1    0    0    0    0 -0.00000000000E+00 -0.00000000000E+00  0.00000000000E+00  0.93800000000E+00  0.93800000000E+00 0.  1.
         11    1    1    2    0    0  0.22566872776E-01 -0.42872361473E+00  0.20480242213E+01  0.20925383326E+01  0.51100000000E-03 0. -1.
    9000002    1    1    2    0    0 -0.66027347002E-01  0.75650106415E+00  0.41944280876E+00  0.12776657389E+01  0.93800000000E+00 0.  1.
         22    1    1    2    0    0  0.43460474227E-01 -0.32777744943E+00  0.15325329373E+01  0.15677959284E+01  0.00000000000E+00 0. -1.
</event>
<event>
 5    1  0.2173147E+002  0.1598676E+01  0.7818608E-02  0.3354801E+00
         11   -1    0    0    0    0  0.00000000000E+00  0.00000000000E+00  0.39999999674E+01  0.40000000000E+01  0.51100000000E-03 0.  1.
    9000002   -1    0    0    0    0 -0.00000000000E+00 -0.00000000000E+00  0.00000000000E+00  0.93800000000E+00  0.93800000000E+00 0. -1.
         11    1    1    2    0    0 -0.39533033829E+00 -0.48680357630E+00  0.23919415009E+01  0.24727814709E+01  0.51100000000E-03 0.  1.
    9000002    1    1    2    0    0  0.56931450916E+00  0.72629041358E+00  0.66014221371E+00  0.14721577760E+01  0.93800000000E+00 0. -1.
         22    1    1    2    0    0 -0.17398417088E+00 -0.23948683728E+00  0.94791625279E+00  0.99306075305E+00  0.00000000000E+00 0.  1.
</event>
<event>
 5    1  0.2173147E+002  0.1565654E+01  0.7818608E-02  0.3391507E+00
         11   -1    0    0    0    0  0.00000000000E+00  0.00000000000E+00  0.39999999674E+01  0.40000000000E+01  0.51100000000E-03 0.  1.
    9000002   -1    0    0    0    0 -0.00000000000E+00 -0.00000000000E+00  0.00000000000E+00  0.93800000000E+00  0.93800000000E+00 0.  1.
         11    1    1    2    0    0 -0.20830612959E+00 -0.29510704586E-01  0.15635437115E+01  0.15776347880E+01  0.51100000000E-03 0.  1.
    9000002    1    1    2    0    0 -0.21756916219E-01  0.85891320301E-01  0.30387998823E-01  0.94266542993E+00  0.93800000000E+00 0.  1.
         22    1    1    2    0    0  0.23006304581E+00 -0.56380615715E-01  0.24060682570E+01  0.24176997821E+01  0.00000000000E+00 0.  1.
</event>
<event>
 5    1  0.2173147E+002  0.1599669E+01  0.7818608E-02  0.3353723E+00
         11   -1    0    0    0    0  0.00000000000E+00  0.00000000000E+00  0.39999999674E+01  0.40000000000E+01  0.51100000000E-03 0.  1.
    9000002   -1    0    0    0    0 -0.00000000000E+00 -0.00000000000E+00  0.00000000000E+00  0.93800000000E+00  0.93800000000E+00 0.  1.
         11    1    1    2    0    0 -0.12433282724E+00 -0.33163890913E+00  0.21245524518E+01  0.21538724196E+01  0.51100000000E-03 0.  1.
    9000002    1    1    2    0    0  0.21603424197E+00  0.57735172235E+00  0.26608939429E+00  0.11535394968E+01  0.93800000000E+00 0.  1.
         22    1    1    2    0    0 -0.91701414734E-01 -0.24571281322E+00  0.16093581212E+01  0.16305880836E+01  0.00000000000E+00 0. -1.
</event>
<event>
 5    1  0.2173147E+002  0.1595353E+01  0.7818608E-02  0.3358423E+00
         11   -1    0    0    0    0  0.00000000000E+00  0.00000000000E+00  0.39999999674E+01  0.40000000000E+01  0.51100000000E-03 0. -1.
    9000002   -1    0    0    0    0 -0.00000000000E+00 -0.00000000000E+00  0.00000000000E+00  0.93800000000E+00  0.93800000000E+00 0.  1.
         11    1    1    2    0    0 -0.30760487534E-01  0.40570402223E-01  0.12457078421E+01  0.12467479514E+01  0.51100000000E-03 0. -1.
    9000002    1    1    2    0    0  0.19377515451E+00  0.84230273361E-01  0.32836207391E-01  0.96206328585E+00  0.93800000000E+00 0.  1.
         22    1    1    2    0    0 -0.16301466698E+00 -0.12480067558E+00  0.27214559178E+01  0.27291887628E+01  0.00000000000E+00 0. -1.
</event>
<event>
 5    1  0.2173147E+002  0.1599594E+01  0.7818608E-02  0.3353804E+00
         11   -1    0    0    0    0  0.00000000000E+00  0.00000000000E+00  0.39999999674E+01  0.40000000000E+01  0.51100000000E-03 0.  1.
    9000002   -1    0    0    0    0 -0.00000000000E+00 -0.00000000000E+00  0.00000000000E+00  0.93800000000E+00  0.93800000000E+00 0.  1.
         11    1    1    2    0    0  0.79423579034E-01  0.22086748796E-01  0.10509891580E+01  0.10542174352E+01  0.51100000000E-03 0.  1.
    9000002    1    1    2    0    0 -0.29965854258E+00 -0.11880167773E+00  0.69534989115E-01  0.99427772553E+00  0.93800000000E+00 0.  1.
         22    1    1    2    0    0  0.22023496354E+00  0.96714928934E-01  0.28794758202E+01  0.28895048392E+01  0.00000000000E+00 0.  1.
</event>
<event>
 5    1  0.2173147E+002  0.1599677E+01  0.7818608E-02  0.3353714E+00
         11   -1    0    0    0    0  0.00000000000E+00  0.00000000000E+00  0.39999999674E+01  0.40000000000E+01  0.51100000000E-03 0.  1.
    9000002   -1    0    0    0    0 -0.00000000000E+00 -0.00000000000E+00  0.00000000000E+00  0.93800000000E+00  0.93800000000E+00 0. -1.
         11    1    1    2    0    0  0.10609038759E+00 -0.47776529426E-01  0.68650274018E+00  0.69629307084E+00  0.51100000000E-03 0. -1.
    9000002    1    1    2    0    0 -0.57461653549E+00  0.25907995997E+00  0.27906794658E+00  0.11640573471E+01  0.93800000000E+00 0. -1.
         22    1    1    2    0    0  0.46852614790E+00 -0.21130343054E+00  0.30344292806E+01  0.30776495821E+01  0.00000000000E+00 0.  1.
</event>
<event>
 5    1  0.2173147E+002  0.1599552E+01  0.7818608E-02  0.3353849E+00
         11   -1    0    0    0    0  0.00000000000E+00  0.00000000000E+00  0.39999999674E+01  0.40000000000E+01  0.51100000000E-03 0. -1.
    9000002   -1    0    0    0    0 -0.00000000000E+00 -0.00000000000E+00  0.00000000000E+00  0.93800000000E+00  0.93800000000E+00 0. -1.
         11    1    1    2    0    0 -0.53320227904E-01  0.65236422309E-01  0.99017166308E+00  0.99374997912E+00  0.51100000000E-03 0. -1.
    9000002    1    1    2    0    0  0.16724815483E+00 -0.24779194821E+00  0.59713418951E-01  0.98629736251E+00  0.93800000000E+00 0. -1.
         22    1    1    2    0    0 -0.11392792692E+00  0.18255552590E+00  0.29501148853E+01  0.29579526584E+01  0.00000000000E+00 0. -1.
</event>
<event>
 5    1  0.2173147E+002  0.1599061E+01  0.7818608E-02  0.3354383E+00
         11   -1    0    0    0    0  0.00000000000E+00  0.00000000000E+00  0.39999999674E+01  0.40000000000E+01  0.51100000000E-03 0.  1.
    9000002   -1    0    0    0    0 -0.00000000000E+00 -0.00000000000E+00  0.00000000000E+00  0.93800000000E+00  0.93800000000E+00 0.  1.
         11    1    1    2    0    0 -0.10884351109E+00  0.11987481562E-01  0.92450775080E+00  0.93097016710E+00  0.51100000000E-03 0.  1.
    9000002    1    1    2    0    0  0.39420763705E+00 -0.13681645749E+00  0.11823245293E+00  0.10334124622E+01  0.93800000000E+00 0.  1.
         22    1    1    2    0    0 -0.28536412596E+00  0.12482897593E+00  0.29572597636E+01  0.29736173707E+01  0.00000000000E+00 0.  1.
</event>
<event>
 5    1  0.2173147E+002  0.1599667E+01  0.7818608E-02  0.3353725E+00
         11   -1    0    0    0    0  0.00000000000E+00  0.00000000000E+00  0.39999999674E+01  0.40000000000E+01  0.51100000000E-03 0.  1.
    9000002   -1    0    0    0    0 -0.00000000000E+00 -0.00000000000E+00  0.00000000000E+00  0.93800000000E+00  0.93800000000E+00 0. -1.
         11    1    1    2    0    0  0.41492544891E-02 -0.30046360997E-01  0.39513665750E+00  0.39629943141E+00  0.51100000000E-03 0.  1.
    9000002    1    1    2    0    0 -0.40392693638E-01  0.27733257598E+00  0.52313478497E-01  0.98037014817E+00  0.93800000000E+00 0. -1.
         22    1    1    2    0    0  0.36243439149E-01 -0.24728621498E+00  0.35525498314E+01  0.35613304204E+01  0.00000000000E+00 0.  1.
</event>
<event>
 5    1  0.2173147E+002  0.1565048E+01  0.7818608E-02  0.3392195E+00
         11   -1    0    0    0    0  0.00000000000E+00  0.00000000000E+00  0.39999999674E+01  0.40000000000E+01  0.51100000000E-03 0. -1.
    9000002   -1    0    0    0    0 -0.00000000000E+00 -0.00000000000E+00  0.00000000000E+00  0.93800000000E+00  0.93800000000E+00 0. -1.
         11    1    1    2    0    0 -0.12458303189E+00 -0.10775498317E+00  0.17600389433E+01  0.17677300165E+01  0.51100000000E-03 0. -1.
    9000002    1    1    2    0    0 -0.21646830673E+00  0.19138775158E+00  0.83095579830E-01  0.98500592621E+00  0.93800000000E+00 0. -1.
         22    1    1    2    0    0  0.34105133862E+00 -0.83632768417E-01  0.21568654442E+01  0.21852640573E+01  0.00000000000E+00 0. -1.
</event>
<event>
 5    1  0.2173147E+002  0.1599676E+01  0.7818608E-02  0.3353715E+00
         11   -1    0    0    0    0  0.00000000000E+00  0.00000000000E+00  0.39999999674E+01  0.40000000000E+01  0.51100000000E-03 0. -1.
    9000002   -1    0    0    0    0 -0.00000000000E+00 -0.00000000000E+00  0.00000000000E+00  0.93800000000E+00  0.93800000000E+00 0.  1.
         11    1    1    2    0    0  0.99850613310E-03 -0.49840348554E-01  0.75796061161E+00  0.75959831967E+00  0.51100000000E-03 0.  1.
    9000002    1    1    2    0    0 -0.71793079413E-02  0.25683592934E+00  0.43878125279E-01  0.97354277099E+00  0.93800000000E+00 0.  1.
         22    1    1    2    0    0  0.61808018082E-02 -0.20699558078E+00  0.31981612305E+01  0.32048589093E+01  0.00000000000E+00 0. -1.
</event>
<event>
 5    1  0.2173147E+002  0.1548008E+01  0.7818608E-02  0.3411802E+00
         11   -1    0    0    0    0  0.00000000000E+00  0.00000000000E+00  0.39999999674E+01  0.40000000000E+01  0.51100000000E-03 0.  1.
    9000002   -1    0    0    0    0 -0.00000000000E+00 -0.00000000000E+00  0.00000000000E+00  0.93800000000E+00  0.93800000000E+00 0. -1.
         11    1    1    2    0    0  0.32777633325E-01  0.27543764069E+00  0.15261801581E+01  0.15511822599E+01  0.51100000000E-03 0.  1.
    9000002    1    1    2    0    0 -0.12066080990E+00 -0.24044882752E-01  0.48877914324E-01  0.94729627780E+00  0.93800000000E+00 0. -1.
         22    1    1    2    0    0  0.87883176572E-01 -0.25139275793E+00  0.24249418949E+01  0.24395214623E+01  0.00000000000E+00 0.  1.
</event>
<event>
 5    1  0.2173147E+002  0.1449132E+01  0.7818608E-02  0.3535368E+00
         11   -1    0    0    0    0  0.00000000000E+00  0.00000000000E+00  0.39999999674E+01  0.40000000000E+01  0.51100000000E-03 0.  1.
    9000002   -1    0    0    0    0 -0.00000000000E+00 -0.00000000000E+00  0.00000000000E+00  0.93800000000E+00  0.93800000000E+00 0. -1.
         11    1    1    2    0    0 -0.15498463782E+00 -0.20903340224E+00  0.28439375778E+00  0.38548057253E+00  0.51100000000E-03 0.  1.
    9000002    1    1    2    0    0 -0.40298806953E-01  0.25737788123E-01  0.11988624452E+00  0.94683849690E+00  0.93800000000E+00 0. -1.
         22    1    1    2    0    0  0.19528344477E+00  0.18329561412E+00  0.35957199651E+01  0.36056809306E+01  0.00000000000E+00 0.  1.
</event>
<event>
 5    1  0.2173147E+002  0.1550697E+01  0.7818608E-02  0.3408678E+00
         11   -1    0    0    0    0  0.00000000000E+00  0.00000000000E+00  0.39999999674E+01  0.40000000000E+01  0.51100000000E-03 0.  1.
    9000002   -1    0    0    0    0 -0.00000000000E+00 -0.00000000000E+00  0.00000000000E+00  0.93800000000E+00  0.93800000000E+00 0.  1.
         11    1    1    2    0    0 -0.15820755958E+00 -0.17176014244E+00  0.14797791535E+01  0.14980913800E+01  0.51100000000E-03 0.  1.
    9000002    1    1    2    0    0 -0.35860474237E-01 -0.54803268913E-01  0.39287359768E-01  0.94110406892E+00  0.93800000000E+00 0.  1.
         22    1    1    2    0    0  0.19406803381E+00  0.22656341135E+00  0.24809334541E+01  0.24988045511E+01  0.00000000000E+00 0.  1.
</event>
<event>
 5    1  0.2173147E+002  0.1599377E+01  0.7818608E-02  0.3354040E+00
         11   -1    0    0    0    0  0.00000000000E+00  0.00000000000E+00  0.39999999674E+01  0.40000000000E+01  0.51100000000E-03 0.  1.
    9000002   -1    0    0    0    0 -0.00000000000E+00 -0.00000000000E+00  0.00000000000E+00  0.93800000000E+00  0.93800000000E+00 0.  1.
         11    1    1    2    0    0 -0.48190603073E+00 -0.78233009350E+00  0.23155549772E+01  0.24911982882E+01  0.51100000000E-03 0.  1.
    9000002    1    1    2    0    0  0.60240252026E+00  0.95211358797E+00  0.11191408315E+01  0.18443777492E+01  0.93800000000E+00 0.  1.
         22    1    1    2    0    0 -0.12049648953E+00 -0.16978349447E+00  0.56530415866E+00  0.60242396265E+00  0.00000000000E+00 0.  1.
</event>
<event>
 5    1  0.2173147E+002  0.1536048E+01  0.7818608E-02  0.3425840E+00
         11   -1    0    0    0    0  0.00000000000E+00  0.00000000000E+00  0.39999999674E+01  0.40000000000E+01  0.51100000000E-03 0.  1.
    9000002   -1    0    0    0    0 -0.00000000000E+00 -0.00000000000E+00  0.00000000000E+00  0.93800000000E+00  0.93800000000E+00 0.  1.
         11    1    1    2    0    0  0.11814736691E+00 -0.41606372527E+00  0.25706527443E+01  0.26067841523E+01  0.51100000000E-03 0.  1.
    9000002    1    1    2    0    0  0.85329059932E-01  0.28410360675E+00  0.11017792212E+00  0.98993892860E+00  0.93800000000E+00 0.  1.
         22    1    1    2    0    0 -0.20347642684E+00  0.13196011852E+00  0.13191693010E+01  0.13412769191E+01  0.00000000000E+00 0.  1.
</event>
<event>
 5    1  0.2173147E+002  0.1599548E+01  0.7818608E-02  0.3353854E+00
         11   -1    0    0    0    0  0.00000000000E+00  0.00000000000E+00  0.39999999674E+01  0.40000000000E+01  0.51100000000E-03 0.  1.
    9000002   -1    0    0    0    0 -0.00000000000E+00 -0.00000000000E+00  0.00000000000E+00  0.93800000000E+00  0.93800000000E+00 0. -1.
         11    1    1    2    0    0 -0.14153163996E+00 -0.78122175083E-01  0.15030863613E+01  0.15117549901E+01  0.51100000000E-03 0.  1.
    9000002    1    1    2    0    0  0.35305670614E+00  0.23368550901E+00  0.12139789424E+00  0.10362622272E+01  0.93800000000E+00 0. -1.
         22    1    1    2    0    0 -0.21152506618E+00 -0.15556333392E+00  0.23755157118E+01  0.23899827827E+01  0.00000000000E+00 0. -1.
</event>
<event>
 5    1  0.2173147E+002  0.1599066E+01  0.7818608E-02  0.3354377E+00
         11   -1    0    0    0    0  0.00000000000E+00  0.00000000000E+00  0.39999999674E+01  0.40000000000E+01  0.51100000000E-03 0. -1.
    9000002   -1    0    0    0    0 -0.00000000000E+00 -0.00000000000E+00  0.00000000000E+00  0.93800000000E+00  0.93800000000E+00 0.  1.
         11    1    1    2    0    0  0.14722280756E-01 -0.35515430260E-01  0.64909116649E+00  0.65022895573E+00  0.51100000000E-03 0. -1.
    9000002    1    1    2    0    0 -0.22280461573E+00  0.20427585150E+00  0.61445948628E-01  0.98741588244E+00  0.93800000000E+00 0.  1.
         22    1    1    2    0    0  0.20808233497E+00 -0.16876042124E+00  0.32894628522E+01  0.33003551618E+01  0.00000000000E+00 0. -1.
</event>
<event>
 5    1  0.2173147E+002  0.1620910E+01  0.7818608E-02  0.3330977E+00
         11   -1    0    0    0    0  0.00000000000E+00  0.00000000000E+00  0.39999999674E+01  0.40000000000E+01  0.51100000000E-03 0. -1.
    9000002   -1    0    0    0    0 -0.00000000000E+00 -0.00000000000E+00  0.00000000000E+00  0.93800000000E+00  0.93800000000E+00 0.  1.
         11    1    1    2    0    0 -0.13949517865E+00 -0.20113844698E+00  0.11714283527E-01  0.24505726939E+00  0.51100000000E-03 0. -1.
    9000002    1    1    2    0    0  0.18739877644E+00 -0.50691103749E+00  0.61341889666E+00  0.12442683971E+01  0.93800000000E+00 0.  1.
         22    1    1    2    0    0 -0.47903597782E-01  0.70804948447E+00  0.33748667872E+01  0.34486743335E+01  0.00000000000E+00 0. -1.
</event>
<event>
 5    1  0.2173147E+002  0.1578938E+01  0.7818608E-02  0.3376545E+00
         11   -1    0    0    0    0  0.00000000000E+00  0.00000000000E+00  0.39999999674E+01  0.40000000000E+01  0.51100000000E-03 0. -1.
    9000002   -1    0    0    0    0 -0.00000000000E+00 -0.00000000000E+00  0.00000000000E+00  0.93800000000E+00  0.93800000000E+00 0.  1.
         11    1    1    2    0    0  0.12865967903E+00  0.11932390651E+00  0.18009688848E+01  0.18094973592E+01  0.51100000000E-03 0. -1.
    9000002    1    1    2    0    0 -0.14418005187E+00  0.90803882941E-01  0.34743839842E-01  0.95398342067E+00  0.93800000000E+00 0.  1.
         22    1    1    2    0    0  0.15520372841E-01 -0.21012778945E+00  0.21642872427E+01  0.21745192201E+01  0.00000000000E+00 0. -1.
</event>
<event>
 5    1  0.2173147E+002  0.1599635E+01  0.7818608E-02  0.3353759E+00
         11   -1    0    0    0    0  0.00000000000E+00  0.00000000000E+00  0.39999999674E+01  0.40000000000E+01  0.51100000000E-03 0. -1.
    9000002   -1    0    0    0    0 -0.00000000000E+00 -0.00000000000E+00  0.00000000000E+00  0.93800000000E+00  0.93800000000E+00 0.  1.
         11    1    1    2    0    0  0.74540816549E-01  0.33382567009E-01  0.59759353223E+00  0.60314925184E+00  0.51100000000E-03 0. -1.
    9000002    1    1    2    0    0 -0.45585602981E+00 -0.24293620422E+00  0.18321201255E+00  0.10863854568E+01  0.93800000000E+00 0.  1.
         22    1    1    2    0    0  0.38131521326E+00  0.20955363721E+00  0.32191944226E+01  0.32484652913E+01  0.00000000000E+00 0. -1.
</event>
<event>
 5    1  0.2173147E+002  0.1599664E+01  0.7818608E-02  0.3353728E+00
         11   -1    0    0    0    0  0.00000000000E+00  0.00000000000E+00  0.39999999674E+01  0.40000000000E+01  0.51100000000E-03 0.  1.
    9000002   -1    0    0    0    0 -0.00000000000E+00 -0.00000000000E+00  0.00000000000E+00  0.93800000000E+00  0.93800000000E+00 0.  1.
         11    1    1    2    0    0 -0.36337228990E+00 -0.29434099500E+00  0.14983274237E+01  0.15696054829E+01  0.51100000000E-03 0.  1.
    9000002    1    1    2    0    0  0.77701776721E+00  0.62049987415E+00  0.79293817387E+00  0.15803074549E+01  0.93800000000E+00 0.  1.
         22    1    1    2    0    0 -0.41364547731E+00 -0.32615887916E+00  0.17087343698E+01  0.17880870622E+01  0.00000000000E+00 0.  1.
</event>
<event>
 5    1  0.2173147E+002  0.1593778E+01  0.7818608E-02  0.3360144E+00
         11   -1    0    0    0    0  0.00000000000E+00  0.00000000000E+00  0.39999999674E+01  0.40000000000E+01  0.51100000000E-03 0. -1.
    9000002   -1    0    0    0    0 -0.00000000000E+00 -0.00000000000E+00  0.00000000000E+00  0.93800000000E+00  0.93800000000E+00 0.  1.
         11    1    1    2    0    0 -0.57727977741E-01 -0.29646002814E+00  0.15247586624E+01  0.15543842213E+01  0.51100000000E-03 0. -1.
    9000002    1    1    2    0    0  0.11086644175E+00  0.51370565953E+00  0.19536124003E+00  0.10927922431E+01  0.93800000000E+00 0.  1.
         22    1    1    2    0    0 -0.53138464006E-01 -0.21724563139E+00  0.22798800650E+01  0.22908235356E+01  0.00000000000E+00 0. -1.
</event>
<event>
 5    1  0.2173147E+002  0.1599671E+01  0.7818608E-02  0.3353721E+00
         11   -1    0    0    0    0  0.00000000000E+00  0.00000000000E+00  0.39999999674E+01  0.40000000000E+01  0.51100000000E-03 0.  1.
    9000002   -1    0    0    0    0 -0.00000000000E+00 -0.00000000000E+00  0.00000000000E+00  0.93800000000E+00  0.93800000000E+00 0.  1.
         11    1    1    2    0    0 -0.94086127155E-01  0.15226581387E-01  0.71516189559E+00  0.72148516695E+00  0.51100000000E-03 0.  1.
    9000002    1    1    2    0    0  0.50297178568E+00 -0.68783407283E-01  0.17665302553E+00  0.10810929959E+01  0.93800000000E+00 0.  1.
         22    1    1    2    0    0 -0.40888565852E+00  0.53556825895E-01  0.31081850462E+01  0.31354218372E+01  0.00000000000E+00 0.  1.
</event>
<event>
 5    1  0.2173147E+002  0.1594471E+01  0.7818608E-02  0.3359386E+00
         11   -1    0    0    0    0  0.00000000000E+00  0.00000000000E+00  0.39999999674E+01  0.40000000000E+01  0.51100000000E-03 0.  1.
    9000002   -1    0    0    0    0 -0.00000000000E+00 -0.00000000000E+00  0.00000000000E+00  0.93800000000E+00  0.93800000000E+00 0. -1.
         11    1    1    2    0    0  0.72062364424E-01  0.92362934384E-01  0.12544165721E+01  0.12598750309E+01  0.51100000000E-03 0.  1.
    9000002    1    1    2    0    0 -0.34540231727E+00 -0.65957484408E-01  0.87133666596E-01  0.10055294259E+01  0.93800000000E+00 0. -1.
         22    1    1    2    0    0  0.27333995284E+00 -0.26405449976E-01  0.26584497286E+01  0.26725955431E+01  0.00000000000E+00 0.  1.
</event>
<event>
 5    1  0.2173147E+002  0.1597914E+01  0.7818608E-02  0.3355631E+00
         11   -1    0    0    0    0  0.00000000000E+00  0.00000000000E+00  0.39999999674E+01  0.40000000000E+01  0.51100000000E-03 0.  1.
    9000002   -1    0    0    0    0 -0.00000000000E+00 -0.00000000000E+00  0.00000000000E+00  0.93800000000E+00  0.93800000000E+00 0. -1.
         11    1    1    2    0    0  0.25996794184E-02  0.12065241375E-01  0.43774661429E+00  0.43792086937E+00  0.51100000000E-03 0.  1.
    9000002    1    1    2    0    0 -0.26618381997E+00  0.43024460463E-01  0.49733405731E-01  0.97725244531E+00  0.93800000000E+00 0. -1.
         22    1    1    2    0    0  0.26358414056E+00 -0.55089701838E-01  0.35125199473E+01  0.35228266853E+01  0.00000000000E+00 0.  1.
</event>
<event>
 5    1  0.2173147E+002  0.1599676E+01  0.7818608E-02  0.3353715E+00
         11   -1    0    0    0    0  0.00000000000E+00  0.00000000000E+00  0.39999999674E+01  0.40000000000E+01  0.51100000000E-03 0. -1.
    9000002   -1    0    0    0    0 -0.00000000000E+00 -0.00000000000E+00  0.00000000000E+00  0.93800000000E+00  0.93800000000E+00 0. -1.
         11    1    1    2    0    0 -0.16339212171E+00  0.38336543356E+00  0.24124894549E+01  0.24482180606E+01  0.51100000000E-03 0. -1.
    9000002    1    1    2    0    0  0.25044322696E+00 -0.59125947995E+00  0.29040190556E+00  0.11732377633E+01  0.93800000000E+00 0. -1.
         22    1    1    2    0    0 -0.87051105249E-01  0.20789404639E+00  0.12971086069E+01  0.13165441761E+01  0.00000000000E+00 0.  1.
</event>
<event>
 5    1  0.2173147E+002  0.1519696E+01  0.7818608E-02  0.3445417E+00
         11   -1    0    0    0    0  0.00000000000E+00  0.00000000000E+00  0.39999999674E+01  0.40000000000E+01  0.51100000000E-03 0. -1.
    9000002   -1    0    0    0    0 -0.00000000000E+00 -0.00000000000E+00  0.00000000000E+00  0.93800000000E+00  0.93800000000E+00 0.  1.
         11    1    1    2    0    0  0.18807818147E-01  0.10255436061E+00  0.74320819717E-01  0.12804286887E+00  0.51100000000E-03 0. -1.
    9000002    1    1    2    0    0  0.84346438457E-01  0.11000552157E+00  0.74035270590E-01  0.95107347652E+00  0.93800000000E+00 0.  1.
         22    1    1    2    0    0 -0.10315425660E+00 -0.21255988218E+00  0.38516438771E+01  0.38588836546E+01  0.00000000000E+00 0. -1.
</event>
<event>
 5    1  0.2173147E+002  0.1599451E+01  0.7818608E-02  0.3353959E+00
         11   -1    0    0    0    0  0.00000000000E+00  0.00000000000E+00  0.39999999674E+01  0.40000000000E+01  0.51100000000E-03 0. -1.
    9000002   -1    0    0    0    0 -0.00000000000E+00 -0.00000000000E+00  0.00000000000E+00  0.93800000000E+00  0.93800000000E+00 0. -1.
         11    1    1    2    0    0 -0.51677740832E-03 -0.16984634286E-02  0.53323681862E-01  0.53355674536E-01  0.51100000000E-03 0. -1.
    9000002    1    1    2    0    0  0.17921381399E+00 -0.14692726575E+00  0.35799012852E-01  0.96686647572E+00  0.93800000000E+00 0. -1.
         22    1    1    2    0    0 -0.17869703659E+00  0.14862572918E+00  0.39108772726E+01  0.39177778497E+01  0.00000000000E+00 0. -1.
</event>
<event>
 5    1  0.2173147E+002  0.1599660E+01  0.7818608E-02  0.3353733E+00
         11   -1    0    0    0    0  0.00000000000E+00  0.00000000000E+00  0.39999999674E+01  0.40000000000E+01  0.51100000000E-03 0. -1.
    9000002   -1    0    0    0    0 -0.00000000000E+00 -0.00000000000E+00  0.00000000000E+00  0.93800000000E+00  0.93800000000E+00 0.  1.
         11    1    1    2    0    0 -0.29487954529E-02 -0.28898682206E-02  0.51232914807E-01  0.51401550693E-01  0.51100000000E-03 0. -1.
    9000002    1    1    2    0    0  0.15861429327E+00  0.26157480194E+00  0.62476643537E-01  0.98859860511E+00  0.93800000000E+00 0.  1.
         22    1    1    2    0    0 -0.15566549782E+00 -0.25868493372E+00  0.38862904090E+01  0.38979998442E+01  0.00000000000E+00 0. -1.
</event>
<event>
 5    1  0.2423811E+002  0.1576250E+01  0.7818608E-02  0.3379551E+00
         11   -1    0    0    0    0  0.00000000000E+00  0.00000000000E+00  0.39999999674E+01  0.40000000000E+01  0.51100000000E-03 0. -1.
    9000002   -1    0    0    0    0 -0.00000000000E+00 -0.00000000000E+00  0.00000000000E+00  0.93800000000E+00  0.93800000000E+00 0.  1.
         11    1    1    2    0    0  0.10816285004E+00  0.11124062248E-01  0.48421639574E+00  0.49627484916E+00  0.51100000000E-03 0. -1.
    9000002    1    1    2    0    0  0.91312500109E-01  0.69019301313E-01  0.25988684695E-01  0.94531531690E+00  0.93800000000E+00 0.  1.
         22    1    1    2    0    0 -0.19947535015E+00 -0.80143363561E-01  0.34897948869E+01  0.34964098339E+01  0.00000000000E+00 0. -1.
</event>
<event>
 5    1  0.2173147E+002  0.1599645E+01  0.7818608E-02  0.3353749E+00
         11   -1    0    0    0    0  0.00000000000E+00  0.00000000000E+00  0.39999999674E+01  0.40000000000E+01  0.51100000000E-03 0. -1.
    9000002   -1    0    0    0    0 -0.00000000000E+00 -0.00000000000E+00  0.00000000000E+00  0.93800000000E+00  0.93800000000E+00 0. -1.
         11    1    1    2    0    0  0.31089483284E-01 -0.10546205155E+00  0.13865431698E+01  0.13908957629E+01  0.51100000000E-03 0. -1.
    9000002    1    1    2    0    0 -0.75023219515E-01  0.31190065352E+00  0.68816063609E-01  0.99372539051E+00  0.93800000000E+00 0. -1.
         22    1    1    2    0    0  0.43933736231E-01 -0.20643860197E+00  0.25446407339E+01  0.25533788466E+01  0.00000000000E+00 0. -1.
</event>
<event>
 5    1  0.2173147E+002  0.1599667E+01  0.7818608E-02  0.3353725E+00
         11   -1    0    0    0    0  0.00000000000E+00  0.00000000000E+00  0.39999999674E+01  0.40000000000E+01  0.51100000000E-03 0. -1.
    9000002   -1    0    0    0    0 -0.00000000000E+00 -0.00000000000E+00  0.00000000000E+00  0.93800000000E+00  0.93800000000E+00 0.  1.
         11    1    1    2    0    0 -0.82040203595E-01  0.28757180263E-01  0.99705391846E+00  0.10008368238E+01  0.51100000000E-03 0. -1.
    9000002    1    1    2    0    0  0.31905823316E+00 -0.12552069585E+00  0.78767512444E-01  0.10017993423E+01  0.93800000000E+00 0.  1.
         22    1    1    2    0    0 -0.23701802957E+00  0.96763515584E-01  0.29241785365E+01  0.29353638339E+01  0.00000000000E+00 0. -1.
</event>
<event>
 5    1  0.2173147E+002  0.1592742E+01  0.7818608E-02  0.3361279E+00
         11   -1    0    0    0    0  0.00000000000E+00  0.00000000000E+00  0.39999999674E+01  0.40000000000E+01  0.51100000000E-03 0.  1.
    9000002   -1    0    0    0    0 -0.00000000000E+00 -0.00000000000E+00  0.00000000000E+00  0.93800000000E+00  0.93800000000E+00 0. -1.
         11    1    1    2    0    0  0.42387872647E-01  0.17228033142E+00  0.23182209643E+01  0.23250002032E+01  0.51100000000E-03 0.  1.
    9000002    1    1    2    0    0  0.70608397646E-01 -0.37537970804E+00  0.10390896660E+00  0.10181043878E+01  0.93800000000E+00 0. -1.
         22    1    1    2    0    0 -0.11299627029E+00  0.20309937662E+00  0.15778700365E+01  0.15948954091E+01  0.00000000000E+00 0. -1.
</event>
<event>
 5    1  0.2173147E+002  0.1578629E+01  0.7818608E-02  0.3376891E+00
         11   -1    0    0    0    0  0.00000000000E+00  0.00000000000E+00  0.39999999674E+01  0.40000000000E+01  0.51100000000E-03 0.  1.
    9000002   -1    0    0    0    0 -0.00000000000E+00 -0.00000000000E+00  0.00000000000E+00  0.93800000000E+00  0.93800000000E+00 0.  1.
         11    1    1    2    0    0 -0.19756578909E+00  0.86405063359E-01  0.15013614458E+01  0.15167677898E+01  0.51100000000E-03 0.  1.
    9000002    1    1    2    0    0  0.34055023079E+00  0.18193020061E+00  0.11793197383E+00  0.10211880376E+01  0.93800000000E+00 0.  1.
         22    1    1    2    0    0 -0.14298444170E+00 -0.26833526397E+00  0.23807065477E+01  0.24000441726E+01  0.00000000000E+00 0.  1.
</event>
<event>
 5    1  0.2173147E+002  0.1599659E+01  0.7818608E-02  0.3353734E+00
         11   -1    0    0    0    0  0.00000000000E+00  0.00000000000E+00  0.39999999674E+01  0.40000000000E+01  0.51100000000E-03 0. -1.
    9000002   -1    0    0    0    0 -0.00000000000E+00 -0.00000000000E+00  0.00000000000E+00  0.93800000000E+00  0.93800000000E+00 0.  1.
         11    1    1    2    0    0  0.18197851986E+00  0.98713809452E-01  0.18086903526E+01  0.18205003847E+01  0.51100000000E-03 0. -1.
    9000002    1    1    2    0    0 -0.39010374706E+00 -0.22181777326E+00  0.13676782359E+00  0.10487771429E+01  0.93800000000E+00 0.  1.
         22    1    1    2    0    0  0.20812522720E+00  0.12310396380E+00  0.20545417912E+01  0.20687224724E+01  0.00000000000E+00 0. -1.
</event>
<event>
 5    1  0.2173147E+002  0.1599547E+01  0.7818608E-02  0.3353855E+00
         11   -1    0    0    0    0  0.00000000000E+00  0.00000000000E+00  0.39999999674E+01  0.40000000000E+01  0.51100000000E-03 0.  1.
    9000002   -1    0    0    0    0 -0.00000000000E+00 -0.00000000000E+00  0.00000000000E+00  0.93800000000E+00  0.93800000000E+00 0.  1.
         11    1    1    2    0    0 -0.23270304842E-01 -0.10888493681E-01  0.26070139110E+00  0.26196477401E+00  0.51100000000E-03 0.  1.
    9000002    1    1    2    0    0  0.29288457652E+00  0.79726360968E-01  0.61588471017E-01  0.98781314405E+00  0.93800000000E+00 0.  1.
         22    1    1    2    0    0 -0.26961427168E+00 -0.68837867287E-01  0.36777101052E+01  0.36882220819E+01  0.00000000000E+00 0.  1.
</event>
<event>
 5    1  0.2173147E+002  0.1596250E+01  0.7818608E-02  0.3357443E+00
         11   -1    0    0    0    0  0.00000000000E+00  0.00000000000E+00  0.39999999674E+01  0.40000000000E+01  0.51100000000E-03 0.  1.
    9000002   -1    0    0    0    0 -0.00000000000E+00 -0.00000000000E+00  0.00000000000E+00  0.93800000000E+00  0.93800000000E+00 0. -1.
         11    1    1    2    0    0 -0.82470297074E-02  0.24927370092E-01  0.33654088897E+00  0.33756394705E+00  0.51100000000E-03 0.  1.
    9000002    1    1    2    0    0 -0.28768458599E+00 -0.37234303312E-01  0.58759014095E-01  0.98358804186E+00  0.93800000000E+00 0. -1.
         22    1    1    2    0    0  0.29593161569E+00  0.12306933219E-01  0.36047000643E+01  0.36168480111E+01  0.00000000000E+00 0.  1.
</event>
<event>
 5    1  0.2173147E+002  0.1512381E+01  0.7818608E-02  0.3454321E+00
         11   -1    0    0    0    0  0.00000000000E+00  0.00000000000E+00  0.39999999674E+01  0.40000000000E+01  0.51100000000E-03 0. -1.
    9000002   -1    0    0    0    0 -0.00000000000E+00 -0.00000000000E+00  0.00000000000E+00  0.93800000000E+00  0.93800000000E+00 0.  1.
         11    1    1    2    0    0  0.15907048380E+00 -0.12257442406E-01  0.17825090482E+00  0.23922230226E+00  0.51100000000E-03 0. -1.
    9000002    1    1    2    0    0 -0.26671028993E-01 -0.18848790754E+00  0.92276375579E-01  0.96156017210E+00  0.93800000000E+00 0.  1.
         22    1    1    2    0    0 -0.13239945480E+00  0.20074534994E+00  0.37294726870E+01  0.37372175256E+01  0.00000000000E+00 0. -1.
</event>
<event>
 5    1  0.2173147E+002  0.1599677E+01  0.7818608E-02  0.3353714E+00
         11   -1    0    0    0    0  0.00000000000E+00  0.00000000000E+00  0.39999999674E+01  0.40000000000E+01  0.51100000000E-03 0.  1.
    9000002   -1    0    0    0    0 -0.00000000000E+00 -0.00000000000E+00  0.00000000000E+00  0.93800000000E+00  0.93800000000E+00 0. -1.
         11    1    1    2    0    0  0.14988822807E+00  0.11331819643E+00  0.17114766562E+01  0.17217607558E+01  0.51100000000E-03 0.  1.
    9000002    1    1    2    0    0 -0.34049639405E+00 -0.25672340481E+00  0.12309096380E+00  0.10377090567E+01  0.93800000000E+00 0. -1.
         22    1    1    2    0    0  0.19060816598E+00  0.14340520838E+00  0.21654323474E+01  0.21785301875E+01  0.00000000000E+00 0.  1.
</event>
<event>
 5    1  0.2173147E+002  0.1597681E+01  0.7818608E-02  0.3355884E+00
         11   -1    0    0    0    0  0.00000000000E+00  0.00000000000E+00  0.39999999674E+01  0.40000000000E+01  0.51100000000E-03 0. -1.
    9000002   -1    0    0    0    0 -0.00000000000E+00 -0.00000000000E+00  0.00000000000E+00  0.93800000000E+00  0.93800000000E+00 0.  1.
         11    1    1    2    0    0  0.22573275827E+00  0.18382901612E+00  0.16619649620E+01  0.16872688528E+01  0.51100000000E-03 0. -1.
    9000002    1    1    2    0    0 -0.56711577311E+00 -0.30917587980E+00  0.29621020330E+00  0.11767729217E+01  0.93800000000E+00 0.  1.
         22    1    1    2    0    0  0.34138301483E+00  0.12534686367E+00  0.20418248020E+01  0.20739582255E+01  0.00000000000E+00 0. -1.
</event>
<event>
 5    1  0.2173147E+002  0.1599662E+01  0.7818608E-02  0.3353730E+00
         11   -1    0    0    0    0  0.00000000000E+00  0.00000000000E+00  0.39999999674E+01  0.40000000000E+01  0.51100000000E-03 0.  1.
    9000002   -1    0    0    0    0 -0.00000000000E+00 -0.00000000000E+00  0.00000000000E+00  0.93800000000E+00  0.93800000000E+00 0. -1.
         11    1    1    2    0    0 -0.13578822019E-01  0.24594988506E-02  0.23092889618E+00  0.23134141383E+00  0.51100000000E-03 0.  1.
    9000002    1    1    2    0    0  0.22059717175E+00 -0.80160575365E-02  0.32312357692E-01  0.96416567965E+00  0.93800000000E+00 0. -1.
         22    1    1    2    0    0 -0.20701834974E+00  0.55565586858E-02  0.37367587135E+01  0.37424929065E+01  0.00000000000E+00 0.  1.
</event>
<event>
 5    1  0.2173147E+002  0.1599672E+01  0.7818608E-02  0.3353719E+00
         11   -1    0    0    0    0  0.00000000000E+00  0.00000000000E+00  0.39999999674E+01  0.40000000000E+01  0.51100000000E-03 0.  1.
    9000002   -1    0    0    0    0 -0.00000000000E+00 -0.00000000000E+00  0.00000000000E+00  0.93800000000E+00  0.93800000000E+00 0. -1.
         11    1    1    2    0    0  0.15766318279E+00  0.21695708190E+00  0.21583523252E+01  0.21749512811E+01  0.51100000000E-03 0.  1.
    9000002    1    1    2    0    0 -0.27777385371E+00 -0.38994514164E+00  0.15637145775E+00  0.10646649990E+01  0.93800000000E+00 0. -1.
         22    1    1    2    0    0  0.12011067092E+00  0.17298805974E+00  0.16852761844E+01  0.16983837199E+01  0.00000000000E+00 0. -1.
</event>
<event>
 5    1  0.2173147E+002  0.1573394E+01  0.7818608E-02  0.3382757E+00
         11   -1    0    0    0    0  0.00000000000E+00  0.00000000000E+00  0.39999999674E+01  0.40000000000E+01  0.51100000000E-03 0.  1.
    9000002   -1    0    0    0    0 -0.00000000000E+00 -0.00000000000E+00  0.00000000000E+00  0.93800000000E+00  0.93800000000E+00 0. -1.
         11    1    1    2    0    0  0.10593807534E+00 -0.22172408503E-01  0.22544857385E+01  0.22570823418E+01  0.51100000000E-03 0.  1.
    9000002    1    1    2    0    0  0.14925225970E+00  0.93940512281E-01  0.40367311933E-01  0.95528769318E+00  0.93800000000E+00 0. -1.
         22    1    1    2    0    0 -0.25519033504E+00 -0.71768103778E-01  0.17051469169E+01  0.17256299650E+01  0.00000000000E+00 0. -1.
</event>
<event>
 5    1  0.2173147E+002  0.1599671E+01  0.7818608E-02  0.3353721E+00
         11   -1    0    0    0    0  0.00000000000E+00  0.00000000000E+00  0.39999999674E+01  0.40000000000E+01  0.51100000000E-03 0. -1.
    9000002   -1    0    0    0    0 -0.00000000000E+00 -0.00000000000E+00  0.00000000000E+00  0.93800000000E+00  0.93800000000E+00 0. -1.
         11    1    1    2    0    0 -0.18204820852E-02  0.60574407749E-02  0.12919383932E+00  0.12934958826E+00  0.51100000000E-03 0. -1.
    9000002    1    1    2    0    0  0.82524755634E-01 -0.19770533255E+00  0.30416910702E-01  0.96263540464E+00  0.93800000000E+00 0. -1.
         22    1    1    2    0    0 -0.80704273549E-01  0.19164789177E+00  0.38403892173E+01  0.38460150071E+01  0.00000000000E+00 0. -1.
</event>
<event>
 5    1  0.2173147E+002  0.1594906E+01  0.7818608E-02  0.3358911E+00
         11   -1    0    0    0    0  0.00000000000E+00  0.00000000000E+00  0.39999999674E+01  0.40000000000E+01  0.51100000000E-03 0.  1.
    9000002   -1    0    0    0    0 -0.00000000000E+00 -0.00000000000E+00  0.00000000000E+00  0.93800000000E+00  0.93800000000E+00 0.  1.
         11    1    1    2    0    0  0.58412576908E-01 -0.18352463380E-01  0.79789207482E+00  0.80023800599E+00  0.51100000000E-03 0.  1.
    9000002    1    1    2    0    0 -0.11371118237E+00 -0.18898501831E+00  0.35857655428E-01  0.96424858911E+00  0.93800000000E+00 0.  1.
         22    1    1    2    0    0  0.55298605462E-01  0.20733748169E+00  0.31662502371E+01  0.31735134049E+01  0.00000000000E+00 0.  1.
</event>
<event>
 5    1  0.2173147E+002  0.1557993E+01  0.7818608E-02  0.3400257E+00
         11   -1    0    0    0    0  0.00000000000E+00  0.00000000000E+00  0.39999999674E+01  0.40000000000E+01  0.51100000000E-03 0.  1.
    9000002   -1    0    0    0    0 -0.00000000000E+00 -0.00000000000E+00  0.00000000000E+00  0.93800000000E+00  0.93800000000E+00 0.  1.
         11    1    1    2    0    0  0.12365816672E+00 -0.26490067220E-01  0.36406924281E+00  0.38540853719E+00  0.51100000000E-03 0.  1.
    9000002    1    1    2    0    0  0.20833439385E+00  0.13978977654E+00  0.74391759599E-01  0.97381853298E+00  0.93800000000E+00 0.  1.
         22    1    1    2    0    0 -0.33199256057E+00 -0.11329970932E+00  0.35615389649E+01  0.35787729298E+01  0.00000000000E+00 0.  1.
</event>
<event>
 5    1  0.2173147E+002  0.1583259E+01  0.7818608E-02  0.3371736E+00
         11   -1    0    0    0    0  0.00000000000E+00  0.00000000000E+00  0.39999999674E+01  0.40000000000E+01  0.51100000000E-03 0.  1.
    9000002   -1    0    0    0    0 -0.00000000000E+00 -0.00000000000E+00  0.00000000000E+00  0.93800000000E+00  0.93800000000E+00 0. -1.
         11    1    1    2    0    0  0.85638506276E-01  0.80139453565E-01  0.55635716390E+00  0.56858582529E+00  0.51100000000E-03 0.  1.
    9000002    1    1    2    0    0  0.11423542484E+00 -0.31121016024E+00  0.86736552889E-01  0.99863342911E+00  0.93800000000E+00 0. -1.
         22    1    1    2    0    0 -0.19987393111E+00  0.23107070667E+00  0.33569062506E+01  0.33707807456E+01  0.00000000000E+00 0.  1.
</event>
<event>
 5    1  0.2173147E+002  0.1599677E+01  0.7818608E-02  0.3353714E+00
         11   -1    0    0    0    0  0.00000000000E+00  0.00000000000E+00  0.39999999674E+01  0.40000000000E+01  0.51100000000E-03 0. -1.
    9000002   -1    0    0    0    0 -0.00000000000E+00 -0.00000000000E+00  0.00000000000E+00  0.93800000000E+00  0.93800000000E+00 0. -1.
         11    1    1    2    0    0  0.19848341682E+00  0.47910028097E-01  0.14873696632E+01  0.15013193577E+01  0.51100000000E-03 0.  1.
    9000002    1    1    2    0    0 -0.50913283127E+00 -0.12286151783E+00  0.18855430489E+00  0.10907373278E+01  0.93800000000E+00 0. -1.
         22    1    1    2    0    0  0.31064941445E+00  0.74951489735E-01  0.23240759992E+01  0.23459433145E+01  0.00000000000E+00 0. -1.
</event>
<event>
 5    1  0.2173147E+002  0.1599674E+01  0.7818608E-02  0.3353718E+00
         11   -1    0    0    0    0  0.00000000000E+00  0.00000000000E+00  0.39999999674E+01  0.40000000000E+01  0.51100000000E-03 0. -1.
    9000002   -1    0    0    0    0 -0.00000000000E+00 -0.00000000000E+00  0.00000000000E+00  0.93800000000E+00  0.93800000000E+00 0.  1.
         11    1    1    2    0    0  0.61740353005E-01 -0.14369948032E-01  0.90508718825E+00  0.90730449467E+00  0.51100000000E-03 0. -1.
    9000002    1    1    2    0    0 -0.26579439311E+00  0.69796698619E-01  0.50269020911E-01  0.97871814789E+00  0.93800000000E+00 0.  1.
         22    1    1    2    0    0  0.20405404011E+00 -0.55426750587E-01  0.30446437582E+01  0.30519773574E+01  0.00000000000E+00 0. -1.
</event>
<event>
 5    1  0.2173147E+002  0.1533724E+01  0.7818608E-02  0.3428596E+00
         11   -1    0    0    0    0  0.00000000000E+00  0.00000000000E+00  0.39999999674E+01  0.40000000000E+01  0.51100000000E-03 0. -1.
    9000002   -1    0    0    0    0 -0.00000000000E+00 -0.00000000000E+00  0.00000000000E+00  0.93800000000E+00  0.93800000000E+00 0.  1.
         11    1    1    2    0    0 -0.34168274090E+00 -0.25810030386E-01  0.19369579675E+01  0.19670332184E+01  0.51100000000E-03 0. -1.
    9000002    1    1    2    0    0  0.11604354043E+00 -0.19266340168E+00  0.85200275856E-01  0.96834310894E+00  0.93800000000E+00 0.  1.
         22    1    1    2    0    0  0.22563920047E+00  0.21847343206E+00  0.19778417240E+01  0.20026236727E+01  0.00000000000E+00 0. -1.
</event>
<event>
 5    1  0.2173147E+002  0.1595342E+01  0.7818608E-02  0.3358435E+00
         11   -1    0    0    0    0  0.00000000000E+00  0.00000000000E+00  0.39999999674E+01  0.40000000000E+01  0.51100000000E-03 0.  1.
    9000002   -1    0    0    0    0 -0.00000000000E+00 -0.00000000000E+00  0.00000000000E+00  0.93800000000E+00  0.93800000000E+00 0. -1.
         11    1    1    2    0    0  0.35822501827E-01 -0.72832051742E-02  0.54418700598E+00  0.54541365524E+00  0.51100000000E-03 0.  1.
    9000002    1    1    2    0    0  0.12489992009E+00  0.14722474974E+00  0.27914714800E-01  0.95807011658E+00  0.93800000000E+00 0. -1.
         22    1    1    2    0    0 -0.16072242192E+00 -0.13994154457E+00  0.34278982466E+01  0.34345162282E+01  0.00000000000E+00 0.  1.
</event>
<event>
 5    1  0.2173147E+002  0.1599001E+01  0.7818608E-02  0.3354448E+00
         11   -1    0    0    0    0  0.00000000000E+00  0.00000000000E+00  0.39999999674E+01  0.40000000000E+01  0.51100000000E-03 0.  1.
    9000002   -1    0    0    0    0 -0.00000000000E+00 -0.00000000000E+00  0.00000000000E+00  0.93800000000E+00  0.93800000000E+00 0.  1.
         11    1    1    2    0    0  0.13526515903E+00  0.31477196793E-01  0.14313069855E+01  0.14380290071E+01  0.51100000000E-03 0.  1.
    9000002    1    1    2    0    0 -0.31955542954E+00 -0.15127847336E+00  0.84392855420E-01  0.10059657067E+01  0.93800000000E+00 0.  1.
         22    1    1    2    0    0  0.18429027051E+00  0.11980127656E+00  0.24843001264E+01  0.24940052862E+01  0.00000000000E+00 0.  1.
</event>
<event>
 5    1  0.2173147E+002  0.1599675E+01  0.7818608E-02  0.3353716E+00
         11   -1    0    0    0    0  0.00000000000E+00  0.00000000000E+00  0.39999999674E+01  0.40000000000E+01  0.51100000000E-03 0. -1.
    9000002   -1    0    0    0    0 -0.00000000000E+00 -0.00000000000E+00  0.00000000000E+00  0.93800000000E+00  0.93800000000E+00 0. -1.
         11    1    1    2    0    0 -0.85405207232E-01 -0.13398676363E+00  0.12038141704E+01  0.12142550474E+01  0.51100000000E-03 0. -1.
    9000002    1    1    2    0    0  0.26672387841E+00  0.42541669302E+00  0.17265414985E+00  0.10778564123E+01  0.93800000000E+00 0. -1.
         22    1    1    2    0    0 -0.18131867117E+00 -0.29142992939E+00  0.26235316471E+01  0.26458885403E+01  0.00000000000E+00 0. -1.
</event>
<event>
 5    1  0.2173147E+002  0.1599666E+01  0.7818608E-02  0.3353726E+00
         11   -1    0    0    0    0  0.00000000000E+00  0.00000000000E+00  0.39999999674E+01  0.40000000000E+01  0.51100000000E-03 0.  1.
    9000002   -1    0    0    0    0 -0.00000000000E+00 -0.00000000000E+00  0.00000000000E+00  0.93800000000E+00  0.93800000000E+00 0. -1.
         11    1    1    2    0    0 -0.90827695708E-01 -0.55941840075E-01  0.13034609672E+01  0.13078187619E+01  0.51100000000E-03 0.  1.
    9000002    1    1    2    0    0  0.26955998434E+00  0.17901786438E+00  0.70021978296E-01  0.99471456125E+00  0.93800000000E+00 0. -1.
         22    1    1    2    0    0 -0.17873228863E+00 -0.12307602430E+00  0.26265170219E+01  0.26354666769E+01  0.00000000000E+00 0.  1.
</event>
<event>
 5    1  0.2173147E+002  0.1599619E+01  0.7818608E-02  0.3353777E+00
         11   -1    0    0    0    0  0.00000000000E+00  0.00000000000E+00  0.39999999674E+01  0.40000000000E+01  0.51100000000E-03 0. -1.
    9000002   -1    0    0    0    0 -0.00000000000E+00 -0.00000000000E+00  0.00000000000E+00  0.93800000000E+00  0.93800000000E+00 0.  1.
         11    1    1    2    0    0 -0.36680829945E-01 -0.27058842897E-01  0.72147006321E+00  0.72290869237E+00  0.51100000000E-03 0. -1.
    9000002    1    1    2    0    0  0.19993323990E+00  0.18683164395E+00  0.49880934565E-01  0.97837184712E+00  0.93800000000E+00 0.  1.
         22    1    1    2    0    0 -0.16325240995E+00 -0.15977280105E+00  0.32286489696E+01  0.32367194605E+01  0.00000000000E+00 0. -1.
</event>
<event>
 5    1  0.2173147E+002  0.1599294E+01  0.7818608E-02  0.3354131E+00
         11   -1    0    0    0    0  0.00000000000E+00  0.00000000000E+00  0.39999999674E+01  0.40000000000E+01  0.51100000000E-03 0.  1.
    9000002   -1    0    0    0    0 -0.00000000000E+00 -0.00000000000E+00  0.00000000000E+00  0.93800000000E+00  0.93800000000E+00 0. -1.
         11    1    1    2    0    0 -0.97716882949E-01  0.85403529244E-01  0.10130408474E+01  0.10213199164E+01  0.51100000000E-03 0.  1.
    9000002    1    1    2    0    0  0.41682028183E+00 -0.26017465798E+00  0.16537812130E+00  0.10717387382E+01  0.93800000000E+00 0. -1.
         22    1    1    2    0    0 -0.31910339888E+00  0.17477112873E+00  0.28215809986E+01  0.28449413454E+01  0.00000000000E+00 0.  1.
</event>
<event>
 5    1  0.2173147E+002  0.1599671E+01  0.7818608E-02  0.3353721E+00
         11   -1    0    0    0    0  0.00000000000E+00  0.00000000000E+00  0.39999999674E+01  0.40000000000E+01  0.51100000000E-03 0.  1.
    9000002   -1    0    0    0    0 -0.00000000000E+00 -0.00000000000E+00  0.00000000000E+00  0.93800000000E+00  0.93800000000E+00 0. -1.
         11    1    1    2    0    0  0.21462662330E+00  0.84227832525E-01  0.16766323536E+01  0.16924110687E+01  0.51100000000E-03 0.  1.
    9000002    1    1    2    0    0 -0.48935734616E+00 -0.18476580571E+00  0.18805504891E+00  0.10903291781E+01  0.93800000000E+00 0. -1.
         22    1    1    2    0    0  0.27473072286E+00  0.10053797319E+00  0.21353125649E+01  0.21552597532E+01  0.00000000000E+00 0.  1.
</event>
<event>
 5    1  0.2173147E+002  0.1599663E+01  0.7818608E-02  0.3353729E+00
         11   -1    0    0    0    0  0.00000000000E+00  0.00000000000E+00  0.39999999674E+01  0.40000000000E+01  0.51100000000E-03 0.  1.
    9000002   -1    0    0    0    0 -0.00000000000E+00 -0.00000000000E+00  0.00000000000E+00  0.93800000000E+00  0.93800000000E+00 0. -1.
         11    1    1    2    0    0  0.17066429552E+00 -0.19574710083E+00  0.20844259915E+01  0.21005416454E+01  0.51100000000E-03 0.  1.
    9000002    1    1    2    0    0 -0.31090029610E+00  0.36813928454E+00  0.15848376406E+00  0.10663707753E+01  0.93800000000E+00 0. -1.
         22    1    1    2    0    0  0.14023600058E+00 -0.17239218371E+00  0.17570902118E+01  0.17710875793E+01  0.00000000000E+00 0.  1.
</event>
<event>
 5    1  0.2173147E+002  0.1599676E+01  0.7818608E-02  0.3353715E+00
         11   -1    0    0    0    0  0.00000000000E+00  0.00000000000E+00  0.39999999674E+01  0.40000000000E+01  0.51100000000E-03 0.  1.
    9000002   -1    0    0    0    0 -0.00000000000E+00 -0.00000000000E+00  0.00000000000E+00  0.93800000000E+00  0.93800000000E+00 0. -1.
         11    1    1    2    0    0  0.14160612874E-01  0.88403309272E-01  0.73315813074E+00  0.73860461266E+00  0.51100000000E-03 0.  1.
    9000002    1    1    2    0    0 -0.71750907328E-01 -0.46767166849E+00  0.15258253039E+00  0.10615980458E+01  0.93800000000E+00 0. -1.
         22    1    1    2    0    0  0.57590294454E-01  0.37926835921E+00  0.31142593062E+01  0.31377973416E+01  0.00000000000E+00 0.  1.
</event>
<event>
 5    1  0.2173147E+002  0.1599677E+01  0.7818608E-02  0.3353714E+00
         11   -1    0    0    0    0  0.00000000000E+00  0.00000000000E+00  0.39999999674E+01  0.40000000000E+01  0.51100000000E-03 0. -1.
    9000002   -1    0    0    0    0 -0.00000000000E+00 -0.00000000000E+00  0.00000000000E+00  0.93800000000E+00  0.93800000000E+00 0.  1.
         11    1    1    2    0    0  0.45812958507E-01  0.11260944069E+00  0.13410739048E+01  0.13465731293E+01  0.51100000000E-03 0. -1.
    9000002    1    1    2    0    0 -0.13271541192E+00 -0.32809644326E+00  0.84025256964E-01  0.10060640638E+01  0.93800000000E+00 0.  1.
         22    1    1    2    0    0  0.86902453414E-01  0.21548700258E+00  0.25749008056E+01  0.25853628069E+01  0.00000000000E+00 0. -1.
</event>
<event>
 5    1  0.2173147E+002  0.1599654E+01  0.7818608E-02  0.3353739E+00
         11   -1    0    0    0    0  0.00000000000E+00  0.00000000000E+00  0.39999999674E+01  0.40000000000E+01  0.51100000000E-03 0. -1.
    9000002   -1    0    0    0    0 -0.00000000000E+00 -0.00000000000E+00  0.00000000000E+00  0.93800000000E+00  0.93800000000E+00 0.  1.
         11    1    1    2    0    0  0.55483590677E-01  0.72138662849E-01  0.99534662111E+00  0.99949866073E+00  0.51100000000E-03 0. -1.
    9000002    1    1    2    0    0 -0.22345098303E+00 -0.26489764247E+00  0.80517133190E-01  0.10032089072E+01  0.93800000000E+00 0.  1.
         22    1    1    2    0    0  0.16796739235E+00  0.19275897962E+00  0.29241362131E+01  0.29352924320E+01  0.00000000000E+00 0. -1.
</event>
<event>
 5    1  0.2173147E+002  0.1599676E+01  0.7818608E-02  0.3353715E+00
         11   -1    0    0    0    0  0.00000000000E+00  0.00000000000E+00  0.39999999674E+01  0.40000000000E+01  0.51100000000E-03 0.  1.
    9000002   -1    0    0    0    0 -0.00000000000E+00 -0.00000000000E+00  0.00000000000E+00  0.93800000000E+00  0.93800000000E+00 0. -1.
         11    1    1    2    0    0  0.15176730890E-01 -0.47112586646E-03  0.27148698635E+00  0.27191175039E+00  0.51100000000E-03 0. -1.
    9000002    1    1    2    0    0 -0.22014432749E+00  0.82650258057E-02  0.32170997338E-01  0.96405954621E+00  0.93800000000E+00 0. -1.
         22    1    1    2    0    0  0.20496759660E+00 -0.77938999393E-02  0.36963419837E+01  0.37020287034E+01  0.00000000000E+00 0.  1.
</event>
<event>
 5    1  0.2173147E+002  0.1599447E+01  0.7818608E-02  0.3353964E+00
         11   -1    0    0    0    0  0.00000000000E+00  0.00000000000E+00  0.39999999674E+01  0.40000000000E+01  0.51100000000E-03 0.  1.
    9000002   -1    0    0    0    0 -0.00000000000E+00 -0.00000000000E+00  0.00000000000E+00  0.93800000000E+00  0.93800000000E+00 0. -1.
         11    1    1    2    0    0  0.21605241066E+00 -0.22496464741E-02  0.12749446717E+01  0.12931233050E+01  0.51100000000E-03 0.  1.
    9000002    1    1    2    0    0 -0.61655237661E+00 -0.41608632997E-01  0.26770857718E+00  0.11547207427E+01  0.93800000000E+00 0. -1.
         22    1    1    2    0    0  0.40049996595E+00  0.43858279471E-01  0.24573467185E+01  0.24901559522E+01  0.00000000000E+00 0.  1.
</event>
<event>
 5    1  0.2173147E+002  0.1596022E+01  0.7818608E-02  0.3357692E+00
         11   -1    0    0    0    0  0.00000000000E+00  0.00000000000E+00  0.39999999674E+01  0.40000000000E+01  0.51100000000E-03 0. -1.
    9000002   -1    0    0    0    0 -0.00000000000E+00 -0.00000000000E+00  0.00000000000E+00  0.93800000000E+00  0.93800000000E+00 0. -1.
         11    1    1    2    0    0  0.48880277169E-01 -0.21842332643E-01  0.33185355161E+00  0.33614492385E+00  0.51100000000E-03 0. -1.
    9000002    1    1    2    0    0 -0.10016559064E+00  0.24407292790E+00  0.49103824704E-01  0.97563308948E+00  0.93800000000E+00 0. -1.
         22    1    1    2    0    0  0.51285313467E-01 -0.22223059526E+00  0.36190425910E+01  0.36262219867E+01  0.00000000000E+00 0. -1.
</event>
<event>
 5    1  0.2173147E+002  0.1599676E+01  0.7818608E-02  0.3353715E+00
         11   -1    0    0    0    0  0.00000000000E+00  0.00000000000E+00  0.39999999674E+01  0.40000000000E+01  0.51100000000E-03 0.  1.
    9000002   -1    0    0    0    0 -0.00000000000E+00 -0.00000000000E+00  0.00000000000E+00  0.93800000000E+00  0.93800000000E+00 0. -1.
         11    1    1    2    0    0 -0.49241204464E-01 -0.10933533029E-01  0.63354812612E+00  0.63555308794E+00  0.51100000000E-03 0.  1.
    9000002    1    1    2    0    0  0.31011900946E+00  0.65833421199E-01  0.67160403179E-01  0.99240231717E+00  0.93800000000E+00 0. -1.
         22    1    1    2    0    0 -0.26087780500E+00 -0.54899888170E-01  0.32992914381E+01  0.33100445949E+01  0.00000000000E+00 0.  1.
</event>
<event>
 5    1  0.2173147E+002  0.1599666E+01  0.7818608E-02  0.3353726E+00
         11   -1    0    0    0    0  0.00000000000E+00  0.00000000000E+00  0.39999999674E+01  0.40000000000E+01  0.51100000000E-03 0. -1.
    9000002   -1    0    0    0    0 -0.00000000000E+00 -0.00000000000E+00  0.00000000000E+00  0.93800000000E+00  0.93800000000E+00 0.  1.
         11    1    1    2    0    0  0.38435398834E-01 -0.74311827192E-01  0.91743899056E+00  0.92124594439E+00  0.51100000000E-03 0. -1.
    9000002    1    1    2    0    0 -0.16458793645E+00  0.30287076605E+00  0.79632951214E-01  0.10024995245E+01  0.93800000000E+00 0.  1.
         22    1    1    2    0    0  0.12615253762E+00 -0.22855893886E+00  0.30029280256E+01  0.30142545311E+01  0.00000000000E+00 0.  1.
</event>
<event>
 5    1  0.2173147E+002  0.1495887E+01  0.7818608E-02  0.3474743E+00
         11   -1    0    0    0    0  0.00000000000E+00  0.00000000000E+00  0.39999999674E+01  0.40000000000E+01  0.51100000000E-03 0. -1.
    9000002   -1    0    0    0    0 -0.00000000000E+00 -0.00000000000E+00  0.00000000000E+00  0.93800000000E+00  0.93800000000E+00 0.  1.
         11    1    1    2    0    0  0.25439096410E+00 -0.16320055360E-01  0.45893960009E+00  0.52498278493E+00  0.51100000000E-03 0. -1.
    9000002    1    1    2    0    0  0.17153344411E-01  0.33652860313E+00  0.16416042652E+00  0.10101180048E+01  0.93800000000E+00 0.  1.
         22    1    1    2    0    0 -0.27154430851E+00 -0.32020854777E+00  0.33768999407E+01  0.34028992103E+01  0.00000000000E+00 0. -1.
</event>
<event>
 5    1  0.2173147E+002  0.1599655E+01  0.7818608E-02  0.3353738E+00
         11   -1    0    0    0    0  0.00000000000E+00  0.00000000000E+00  0.39999999674E+01  0.40000000000E+01  0.51100000000E-03 0.  1.
    9000002   -1    0    0    0    0 -0.00000000000E+00 -0.00000000000E+00  0.00000000000E+00  0.93800000000E+00  0.93800000000E+00 0.  1.
         11    1    1    2    0    0  0.75526780489E-02  0.18442678914E-03  0.12866210620E+00  0.12888473786E+00  0.51100000000E-03 0.  1.
    9000002    1    1    2    0    0 -0.23878488918E+00  0.54018352496E-01  0.39816302782E-01  0.97023994129E+00  0.93800000000E+00 0.  1.
         22    1    1    2    0    0  0.23123221114E+00 -0.54202779285E-01  0.38315215584E+01  0.38388753208E+01  0.00000000000E+00 0.  1.
</event>
<event>
 5    1  0.2173147E+002  0.1597744E+01  0.7818608E-02  0.3355816E+00
         11   -1    0    0    0    0  0.00000000000E+00  0.00000000000E+00  0.39999999674E+01  0.40000000000E+01  0.51100000000E-03 0. -1.
    9000002   -1    0    0    0    0 -0.00000000000E+00 -0.00000000000E+00  0.00000000000E+00  0.93800000000E+00  0.93800000000E+00 0. -1.
         11    1    1    2    0    0 -0.72596786089E-01  0.19390532328E+00  0.15994009635E+01  0.16127471193E+01  0.51100000000E-03 0. -1.
    9000002    1    1    2    0    0  0.62399501713E-01 -0.41463802172E+00  0.12052800426E+00  0.10344995827E+01  0.93800000000E+00 0. -1.
         22    1    1    2    0    0  0.10197284376E-01  0.22073269843E+00  0.22800709996E+01  0.22907532979E+01  0.00000000000E+00 0. -1.
</event>
<event>
 5    1  0.2173147E+002  0.1598356E+01  0.7818608E-02  0.3355150E+00
         11   -1    0    0    0    0  0.00000000000E+00  0.00000000000E+00  0.39999999674E+01  0.40000000000E+01  0.51100000000E-03 0. -1.
    9000002   -1    0    0    0    0 -0.00000000000E+00 -0.00000000000E+00  0.00000000000E+00  0.93800000000E+00  0.93800000000E+00 0. -1.
         11    1    1    2    0    0  0.53100922319E-02  0.83481673597E-01  0.54238569980E+00  0.54879859272E+00  0.51100000000E-03 0. -1.
    9000002    1    1    2    0    0 -0.93530973888E-01 -0.38738611977E+00  0.10820329797E+00  0.10248746277E+01  0.93800000000E+00 0. -1.
         22    1    1    2    0    0  0.88220881656E-01  0.30390444617E+00  0.33494109696E+01  0.33643267796E+01  0.00000000000E+00 0. -1.
</event>
<event>
 5    1  0.2173147E+002  0.1599456E+01  0.7818608E-02  0.3353954E+00
         11   -1    0    0    0    0  0.00000000000E+00  0.00000000000E+00  0.39999999674E+01  0.40000000000E+01  0.51100000000E-03 0. -1.
    9000002   -1    0    0    0    0 -0.00000000000E+00 -0.00000000000E+00  0.00000000000E+00  0.93800000000E+00  0.93800000000E+00 0.  1.
         11    1    1    2    0    0  0.31984235633E+00  0.10400370915E+00  0.19525302174E+01  0.19812850414E+01  0.51100000000E-03 0. -1.
    9000002    1    1    2    0    0 -0.61599569509E+00 -0.22899768269E+00  0.30552739324E+00  0.11853613892E+01  0.93800000000E+00 0.  1.
         22    1    1    2    0    0  0.29615333876E+00  0.12499397353E+00  0.17419423568E+01  0.17713535694E+01  0.00000000000E+00 0. -1.
</event>
<event>
 5    1  0.2173147E+002  0.1599174E+01  0.7818608E-02  0.3354261E+00
         11   -1    0    0    0    0  0.00000000000E+00  0.00000000000E+00  0.39999999674E+01  0.40000000000E+01  0.51100000000E-03 0.  1.
    9000002   -1    0    0    0    0 -0.00000000000E+00 -0.00000000000E+00  0.00000000000E+00  0.93800000000E+00  0.93800000000E+00 0.  1.
         11    1    1    2    0    0  0.23766542262E-01  0.62476616731E-01  0.76623857537E+00  0.76914887485E+00  0.51100000000E-03 0.  1.
    9000002    1    1    2    0    0 -0.18841746344E+00 -0.23353328057E+00  0.60460325533E-01  0.98668048761E+00  0.93800000000E+00 0.  1.
         22    1    1    2    0    0  0.16465092118E+00  0.17105666384E+00  0.31733010665E+01  0.31821706375E+01  0.00000000000E+00 0.  1.
</event>
<event>
 5    1  0.2173147E+002  0.1595656E+01  0.7818608E-02  0.3358092E+00
         11   -1    0    0    0    0  0.00000000000E+00  0.00000000000E+00  0.39999999674E+01  0.40000000000E+01  0.51100000000E-03 0. -1.
    9000002   -1    0    0    0    0 -0.00000000000E+00 -0.00000000000E+00  0.00000000000E+00  0.93800000000E+00  0.93800000000E+00 0.  1.
         11    1    1    2    0    0 -0.14717276321E+00  0.15773293600E+00  0.19839158021E+01  0.19956106013E+01  0.51100000000E-03 0. -1.
    9000002    1    1    2    0    0  0.39866641672E+00 -0.20979446016E+00  0.14133178980E+00  0.10501272790E+01  0.93800000000E+00 0.  1.
         22    1    1    2    0    0 -0.25149365351E+00  0.52061524156E-01  0.18747523755E+01  0.18922621196E+01  0.00000000000E+00 0. -1.
</event>
<event>
 5    1  0.2173147E+002  0.1599584E+01  0.7818608E-02  0.3353815E+00
         11   -1    0    0    0    0  0.00000000000E+00  0.00000000000E+00  0.39999999674E+01  0.40000000000E+01  0.51100000000E-03 0.  1.
    9000002   -1    0    0    0    0 -0.00000000000E+00 -0.00000000000E+00  0.00000000000E+00  0.93800000000E+00  0.93800000000E+00 0.  1.
         11    1    1    2    0    0 -0.12086777349E-02  0.93873149014E-01  0.12601652338E+01  0.12636575116E+01  0.51100000000E-03 0.  1.
    9000002    1    1    2    0    0  0.15858718428E-01 -0.32443006588E+00  0.70628831437E-01  0.99515767516E+00  0.93800000000E+00 0.  1.
         22    1    1    2    0    0 -0.14650040693E-01  0.23055691687E+00  0.26692059022E+01  0.26791848133E+01  0.00000000000E+00 0.  1.
</event>
<event>
 5    1  0.2173147E+002  0.1575832E+01  0.7818608E-02  0.3380020E+00
         11   -1    0    0    0    0  0.00000000000E+00  0.00000000000E+00  0.39999999674E+01  0.40000000000E+01  0.51100000000E-03 0.  1.
    9000002   -1    0    0    0    0 -0.00000000000E+00 -0.00000000000E+00  0.00000000000E+00  0.93800000000E+00  0.93800000000E+00 0. -1.
         11    1    1    2    0    0  0.43524276443E-01 -0.35452313452E-01  0.61053573102E-01  0.82939912457E-01  0.51100000000E-03 0.  1.
    9000002    1    1    2    0    0 -0.32554265546E+00  0.13706863889E+00  0.10318116483E+00  0.10075992185E+01  0.93800000000E+00 0. -1.
         22    1    1    2    0    0  0.28201837902E+00 -0.10161632544E+00  0.38357652294E+01  0.38474608691E+01  0.00000000000E+00 0.  1.
</event>
<event>
 5    1  0.2173147E+002  0.1550828E+01  0.7818608E-02  0.3408525E+00
         11   -1    0    0    0    0  0.00000000000E+00  0.00000000000E+00  0.39999999674E+01  0.40000000000E+01  0.51100000000E-03 0. -1.
    9000002   -1    0    0    0    0 -0.00000000000E+00 -0.00000000000E+00  0.00000000000E+00  0.93800000000E+00  0.93800000000E+00 0. -1.
         11    1    1    2    0    0  0.93194107657E-01  0.17334675268E+00  0.68359137062E+00  0.71135902431E+00  0.51100000000E-03 0. -1.
    9000002    1    1    2    0    0 -0.56411665994E-01  0.62514871772E-01  0.41124547948E-01  0.94266940849E+00  0.93800000000E+00 0. -1.
         22    1    1    2    0    0 -0.36782441663E-01 -0.23586162445E+00  0.32752840488E+01  0.32839715672E+01  0.00000000000E+00 0. -1.
</event>
<event>
 5    1  0.2173147E+002  0.1599590E+01  0.7818608E-02  0.3353808E+00
         11   -1    0    0    0    0  0.00000000000E+00  0.00000000000E+00  0.39999999674E+01  0.40000000000E+01  0.51100000000E-03 0. -1.
    9000002   -1    0    0    0    0 -0.00000000000E+00 -0.00000000000E+00  0.00000000000E+00  0.93800000000E+00  0.93800000000E+00 0. -1.
         11    1    1    2    0    0 -0.58419895247E+00 -0.21809135633E+00  0.26172284400E+01  0.26904901457E+01  0.51100000000E-03 0. -1.
    9000002    1    1    2    0    0  0.76933522749E+00  0.29894710027E+00  0.50640656726E+00  0.13481608481E+01  0.93800000000E+00 0. -1.
         22    1    1    2    0    0 -0.18513627502E+00 -0.80855743933E-01  0.87636496011E+00  0.89934900620E+00  0.00000000000E+00 0. -1.
</event>
<event>
 5    1  0.2173147E+002  0.1598734E+01  0.7818608E-02  0.3354738E+00
         11   -1    0    0    0    0  0.00000000000E+00  0.00000000000E+00  0.39999999674E+01  0.40000000000E+01  0.51100000000E-03 0.  1.
    9000002   -1    0    0    0    0 -0.00000000000E+00 -0.00000000000E+00  0.00000000000E+00  0.93800000000E+00  0.93800000000E+00 0.  1.
         11    1    1    2    0    0  0.16554794442E-01  0.28659262069E-01  0.35387464186E+00  0.35541938297E+00  0.51100000000E-03 0.  1.
    9000002    1    1    2    0    0 -0.22178627233E+00 -0.87610745537E-01  0.38459410846E-01  0.96860101157E+00  0.93800000000E+00 0.  1.
         22    1    1    2    0    0  0.20523147788E+00  0.58951483468E-01  0.36076659147E+01  0.36139796055E+01  0.00000000000E+00 0.  1.
</event>
<event>
 5    1  0.2173147E+002  0.1599674E+01  0.7818608E-02  0.3353717E+00
         11   -1    0    0    0    0  0.00000000000E+00  0.00000000000E+00  0.39999999674E+01  0.40000000000E+01  0.51100000000E-03 0.  1.
    9000002   -1    0    0    0    0 -0.00000000000E+00 -0.00000000000E+00  0.00000000000E+00  0.93800000000E+00  0.93800000000E+00 0.  1.
         11    1    1    2    0    0  0.14345656716E+00  0.17438213763E+00  0.18601820287E+01  0.18738373349E+01  0.51100000000E-03 0.  1.
    9000002    1    1    2    0    0 -0.29508595753E+00 -0.35759663067E+00  0.14629294474E+00  0.10565021052E+01  0.93800000000E+00 0.  1.
         22    1    1    2    0    0  0.15162939038E+00  0.18321449305E+00  0.19935249939E+01  0.20076605599E+01  0.00000000000E+00 0.  1.
</event>
<event>
 5    1  0.2173147E+002  0.1598765E+01  0.7818608E-02  0.3354705E+00
         11   -1    0    0    0    0  0.00000000000E+00  0.00000000000E+00  0.39999999674E+01  0.40000000000E+01  0.51100000000E-03 0.  1.
    9000002   -1    0    0    0    0 -0.00000000000E+00 -0.00000000000E+00  0.00000000000E+00  0.93800000000E+00  0.93800000000E+00 0. -1.
         11    1    1    2    0    0  0.14070881393E-01 -0.19547417272E-01  0.25705618017E+00  0.25818255578E+00  0.51100000000E-03 0.  1.
    9000002    1    1    2    0    0 -0.27250654891E+00  0.30649176770E-01  0.50756906690E-01  0.97858032619E+00  0.93800000000E+00 0. -1.
         22    1    1    2    0    0  0.25843566752E+00 -0.11101759499E-01  0.36921868805E+01  0.37012371180E+01  0.00000000000E+00 0.  1.
</event>
<event>
 5    1  0.2173147E+002  0.1577962E+01  0.7818608E-02  0.3377635E+00
         11   -1    0    0    0    0  0.00000000000E+00  0.00000000000E+00  0.39999999674E+01  0.40000000000E+01  0.51100000000E-03 0.  1.
    9000002   -1    0    0    0    0 -0.00000000000E+00 -0.00000000000E+00  0.00000000000E+00  0.93800000000E+00  0.93800000000E+00 0. -1.
         11    1    1    2    0    0  0.10986188348E+00 -0.69122092215E-01  0.16589867399E+01  0.16640567182E+01  0.51100000000E-03 0.  1.
    9000002    1    1    2    0    0  0.52588232157E-01 -0.10974812975E+00  0.25860072031E-01  0.94621504822E+00  0.93800000000E+00 0. -1.
         22    1    1    2    0    0 -0.16245011563E+00  0.17887022196E+00  0.23151531554E+01  0.23277282336E+01  0.00000000000E+00 0.  1.
</event>
<event>
 5    1  0.2173147E+002  0.1599389E+01  0.7818608E-02  0.3354026E+00
         11   -1    0    0    0    0  0.00000000000E+00  0.00000000000E+00  0.39999999674E+01  0.40000000000E+01  0.51100000000E-03 0.  1.
    9000002   -1    0    0    0    0 -0.00000000000E+00 -0.00000000000E+00  0.00000000000E+00  0.93800000000E+00  0.93800000000E+00 0. -1.
         11    1    1    2    0    0  0.16821396223E+00  0.61993564775E-01  0.18063939001E+01  0.18152681132E+01  0.51100000000E-03 0.  1.
    9000002    1    1    2    0    0 -0.40058006916E+00 -0.11317256079E+00  0.11736778919E+00  0.10329044575E+01  0.93800000000E+00 0. -1.
         22    1    1    2    0    0  0.23236610693E+00  0.51178996019E-01  0.20762382780E+01  0.20898274293E+01  0.00000000000E+00 0. -1.
</event>
<event>
 5    1  0.2173147E+002  0.1598610E+01  0.7818608E-02  0.3354873E+00
         11   -1    0    0    0    0  0.00000000000E+00  0.00000000000E+00  0.39999999674E+01  0.40000000000E+01  0.51100000000E-03 0. -1.
    9000002   -1    0    0    0    0 -0.00000000000E+00 -0.00000000000E+00  0.00000000000E+00  0.93800000000E+00  0.93800000000E+00 0. -1.
         11    1    1    2    0    0 -0.17278180398E+00 -0.14092548347E+00  0.18542831752E+01  0.18676401952E+01  0.51100000000E-03 0. -1.
    9000002    1    1    2    0    0  0.42569857920E+00  0.24748079748E+00  0.16672741967E+00  0.10724309106E+01  0.93800000000E+00 0. -1.
         22    1    1    2    0    0 -0.25291677522E+00 -0.10655531401E+00  0.19789893725E+01  0.19979288942E+01  0.00000000000E+00 0.  1.
</event>
<event>
 5    1  0.2173147E+002  0.1564787E+01  0.7818608E-02  0.3392492E+00
         11   -1    0    0    0    0  0.00000000000E+00  0.00000000000E+00  0.39999999674E+01  0.40000000000E+01  0.51100000000E-03 0. -1.
    9000002   -1    0    0    0    0 -0.00000000000E+00 -0.00000000000E+00  0.00000000000E+00  0.93800000000E+00  0.93800000000E+00 0. -1.
         11    1    1    2    0    0 -0.12364076610E+00 -0.15874941729E+00  0.16710342204E+01  0.16831054761E+01  0.51100000000E-03 0. -1.
    9000002    1    1    2    0    0  0.54337249368E-01 -0.92603558989E-01  0.33552829218E-01  0.94472098958E+00  0.93800000000E+00 0. -1.
         22    1    1    2    0    0  0.69303516733E-01  0.25135297628E+00  0.22954129177E+01  0.23101735344E+01  0.00000000000E+00 0. -1.
</event>
<event>
 5    1  0.2173147E+002  0.1599677E+01  0.7818608E-02  0.3353714E+00
         11   -1    0    0    0    0  0.00000000000E+00  0.00000000000E+00  0.39999999674E+01  0.40000000000E+01  0.51100000000E-03 0. -1.
    9000002   -1    0    0    0    0 -0.00000000000E+00 -0.00000000000E+00  0.00000000000E+00  0.93800000000E+00  0.93800000000E+00 0. -1.
         11    1    1    2    0    0  0.15518479424E+00  0.42731415674E-01  0.11243711237E+01  0.11358340456E+01  0.51100000000E-03 0.  1.
    9000002    1    1    2    0    0 -0.52363925763E+00 -0.14386808577E+00  0.20341845051E+00  0.11027779306E+01  0.93800000000E+00 0. -1.
         22    1    1    2    0    0  0.36845446338E+00  0.10113667010E+00  0.26722103931E+01  0.26993880238E+01  0.00000000000E+00 0. -1.
</event>
<event>
 5    1  0.2173147E+002  0.1576685E+01  0.7818608E-02  0.3379064E+00
         11   -1    0    0    0    0  0.00000000000E+00  0.00000000000E+00  0.39999999674E+01  0.40000000000E+01  0.51100000000E-03 0. -1.
    9000002   -1    0    0    0    0 -0.00000000000E+00 -0.00000000000E+00  0.00000000000E+00  0.93800000000E+00  0.93800000000E+00 0. -1.
         11    1    1    2    0    0 -0.96712899998E-01 -0.16034897881E+00  0.95235409347E+00  0.97058938820E+00  0.51100000000E-03 0. -1.
    9000002    1    1    2    0    0 -0.11771934945E+00  0.27176278195E+00  0.76675091916E-01  0.98662856466E+00  0.93800000000E+00 0. -1.
         22    1    1    2    0    0  0.21443224945E+00 -0.11141380314E+00  0.29709707820E+01  0.29807820471E+01  0.00000000000E+00 0. -1.
</event>
<event>
 5    1  0.2173147E+002  0.1594346E+01  0.7818608E-02  0.3359523E+00
         11   -1    0    0    0    0  0.00000000000E+00  0.00000000000E+00  0.39999999674E+01  0.40000000000E+01  0.51100000000E-03 0. -1.
    9000002   -1    0    0    0    0 -0.00000000000E+00 -0.00000000000E+00  0.00000000000E+00  0.93800000000E+00  0.93800000000E+00 0.  1.
         11    1    1    2    0    0  0.56162067826E-01 -0.43023625345E-02  0.53112477415E+00  0.53410343101E+00  0.51100000000E-03 0. -1.
    9000002    1    1    2    0    0 -0.42317210336E+00 -0.40275275761E+00  0.24255417220E+00  0.11313535872E+01  0.93800000000E+00 0.  1.
         22    1    1    2    0    0  0.36701003554E+00  0.40705512014E+00  0.32263210210E+01  0.32725429818E+01  0.00000000000E+00 0. -1.
</event>
<event>
 5    1  0.2173147E+002  0.1599673E+01  0.7818608E-02  0.3353719E+00
         11   -1    0    0    0    0  0.00000000000E+00  0.00000000000E+00  0.39999999674E+01  0.40000000000E+01  0.51100000000E-03 0.  1.
    9000002   -1    0    0    0    0 -0.00000000000E+00 -0.00000000000E+00  0.00000000000E+00  0.93800000000E+00  0.93800000000E+00 0. -1.
         11    1    1    2    0    0 -0.99916240144E-01 -0.22544551537E-01  0.91444630614E+00  0.92016510463E+00  0.51100000000E-03 0.  1.
    9000002    1    1    2    0    0  0.41529439924E+00  0.92515446474E-01  0.12252581370E+00  0.10372488230E+01  0.93800000000E+00 0. -1.
         22    1    1    2    0    0 -0.31537815910E+00 -0.69970894937E-01  0.29630278475E+01  0.29805860723E+01  0.00000000000E+00 0.  1.
</event>
<event>
 5    1  0.2173147E+002  0.1599592E+01  0.7818608E-02  0.3353807E+00
         11   -1    0    0    0    0  0.00000000000E+00  0.00000000000E+00  0.39999999674E+01  0.40000000000E+01  0.51100000000E-03 0. -1.
    9000002   -1    0    0    0    0 -0.00000000000E+00 -0.00000000000E+00  0.00000000000E+00  0.93800000000E+00  0.93800000000E+00 0. -1.
         11    1    1    2    0    0 -0.81092416218E-02 -0.46392474753E-02  0.11001228075E+00  0.11040944459E+00  0.51100000000E-03 0. -1.
    9000002    1    1    2    0    0  0.40688780921E+00  0.11807898551E+00  0.12152998289E+00  0.10363946511E+01  0.93800000000E+00 0. -1.
         22    1    1    2    0    0 -0.39877856759E+00 -0.11343973803E+00  0.37684577037E+01  0.37911959043E+01  0.00000000000E+00 0. -1.
</event>
<event>
 5    1  0.2173147E+002  0.1599617E+01  0.7818608E-02  0.3353779E+00
         11   -1    0    0    0    0  0.00000000000E+00  0.00000000000E+00  0.39999999674E+01  0.40000000000E+01  0.51100000000E-03 0.  1.
    9000002   -1    0    0    0    0 -0.00000000000E+00 -0.00000000000E+00  0.00000000000E+00  0.93800000000E+00  0.93800000000E+00 0. -1.
         11    1    1    2    0    0  0.68198690304E-01 -0.16386169856E-01  0.81866826777E+00  0.82166754937E+00  0.51100000000E-03 0.  1.
    9000002    1    1    2    0    0 -0.34982732175E+00  0.50999961574E-01  0.83881358436E-01  0.10059126371E+01  0.93800000000E+00 0. -1.
         22    1    1    2    0    0  0.28162863145E+00 -0.34613791718E-01  0.30974503412E+01  0.31104198136E+01  0.00000000000E+00 0.  1.
</event>
<event>
 5    1  0.2173147E+002  0.1598201E+01  0.7818608E-02  0.3355318E+00
         11   -1    0    0    0    0  0.00000000000E+00  0.00000000000E+00  0.39999999674E+01  0.40000000000E+01  0.51100000000E-03 0. -1.
    9000002   -1    0    0    0    0 -0.00000000000E+00 -0.00000000000E+00  0.00000000000E+00  0.93800000000E+00  0.93800000000E+00 0.  1.
         11    1    1    2    0    0  0.15375175042E-01  0.13902085862E+00  0.16732792809E+01  0.16791149478E+01  0.51100000000E-03 0. -1.
    9000002    1    1    2    0    0 -0.70753660612E-01 -0.42257595507E+00  0.12555296482E+00  0.10388378436E+01  0.93800000000E+00 0.  1.
         22    1    1    2    0    0  0.55378485570E-01  0.28355509645E+00  0.22011677217E+01  0.22200472086E+01  0.00000000000E+00 0. -1.
</event>
<event>
 5    1  0.2173147E+002  0.1599676E+01  0.7818608E-02  0.3353715E+00
         11   -1    0    0    0    0  0.00000000000E+00  0.00000000000E+00  0.39999999674E+01  0.40000000000E+01  0.51100000000E-03 0. -1.
    9000002   -1    0    0    0    0 -0.00000000000E+00 -0.00000000000E+00  0.00000000000E+00  0.93800000000E+00  0.93800000000E+00 0.  1.
         11    1    1    2    0    0 -0.16162705533E-01 -0.54430812866E-01  0.70922352309E+00  0.71149294674E+00  0.51100000000E-03 0. -1.
    9000002    1    1    2    0    0  0.88345121402E-01  0.29759273186E+00  0.64351479445E-01  0.99012696531E+00  0.93800000000E+00 0.  1.
         22    1    1    2    0    0 -0.72182415869E-01 -0.24316191899E+00  0.32264249648E+01  0.32363800879E+01  0.00000000000E+00 0. -1.
</event>
<event>
 5    1  0.2173147E+002  0.1599677E+01  0.7818608E-02  0.3353714E+00
         11   -1    0    0    0    0  0.00000000000E+00  0.00000000000E+00  0.39999999674E+01  0.40000000000E+01  0.51100000000E-03 0.  1.
    9000002   -1    0    0    0    0 -0.00000000000E+00 -0.00000000000E+00  0.00000000000E+00  0.93800000000E+00  0.93800000000E+00 0.  1.
         11    1    1    2    0    0  0.14538315752E+00  0.90274677148E-01  0.16553543369E+01  0.16641766799E+01  0.51100000000E-03 0.  1.
    9000002    1    1    2    0    0 -0.34220629171E+00 -0.21088067884E+00  0.10901387862E+00  0.10263059157E+01  0.93800000000E+00 0.  1.
         22    1    1    2    0    0  0.19682313418E+00  0.12060600169E+00  0.22356317518E+01  0.22475174045E+01  0.00000000000E+00 0.  1.
</event>
<event>
 5    1  0.2173147E+002  0.1599474E+01  0.7818608E-02  0.3353935E+00
         11   -1    0    0    0    0  0.00000000000E+00  0.00000000000E+00  0.39999999674E+01  0.40000000000E+01  0.51100000000E-03 0.  1.
    9000002   -1    0    0    0    0 -0.00000000000E+00 -0.00000000000E+00  0.00000000000E+00  0.93800000000E+00  0.93800000000E+00 0.  1.
         11    1    1    2    0    0  0.12650606250E+00 -0.43855658602E-01  0.13143362409E+01  0.13211385688E+01  0.51100000000E-03 0.  1.
    9000002    1    1    2    0    0 -0.41869358012E+00  0.14157486465E+00  0.13269654517E+00  0.10453708095E+01  0.93800000000E+00 0.  1.
         22    1    1    2    0    0  0.29218751761E+00 -0.97719206051E-01  0.25529671812E+01  0.25714906216E+01  0.00000000000E+00 0.  1.
</event>
<event>
 5    1  0.2173147E+002  0.1592353E+01  0.7818608E-02  0.3361705E+00
         11   -1    0    0    0    0  0.00000000000E+00  0.00000000000E+00  0.39999999674E+01  0.40000000000E+01  0.51100000000E-03 0.  1.
    9000002   -1    0    0    0    0 -0.00000000000E+00 -0.00000000000E+00  0.00000000000E+00  0.93800000000E+00  0.93800000000E+00 0.  1.
         11    1    1    2    0    0 -0.12235692794E-01  0.22566823502E-01  0.87136151085E-01  0.90840209423E-01  0.51100000000E-03 0.  1.
    9000002    1    1    2    0    0 -0.16470963172E+00  0.15310495335E+00  0.39091965819E-01  0.96537172701E+00  0.93800000000E+00 0.  1.
         22    1    1    2    0    0  0.17694532452E+00 -0.17567177685E+00  0.38737718505E+01  0.38817880636E+01  0.00000000000E+00 0.  1.
</event>
<event>
 5    1  0.2173147E+002  0.1579133E+01  0.7818608E-02  0.3376328E+00
         11   -1    0    0    0    0  0.00000000000E+00  0.00000000000E+00  0.39999999674E+01  0.40000000000E+01  0.51100000000E-03 0.  1.
    9000002   -1    0    0    0    0 -0.00000000000E+00 -0.00000000000E+00  0.00000000000E+00  0.93800000000E+00  0.93800000000E+00 0.  1.
         11    1    1    2    0    0 -0.57149413146E-01  0.79036375993E-01  0.19001132721E+01  0.19026149143E+01  0.51100000000E-03 0.  1.
    9000002    1    1    2    0    0  0.30610759815E+00  0.13868915497E+00  0.92201337020E-01  0.10006406098E+01  0.93800000000E+00 0.  1.
         22    1    1    2    0    0 -0.24895818500E+00 -0.21772553096E+00  0.20076853582E+01  0.20347444759E+01  0.00000000000E+00 0.  1.
</event>
<event>
 5    1  0.2173147E+002  0.1595337E+01  0.7818608E-02  0.3358440E+00
         11   -1    0    0    0    0  0.00000000000E+00  0.00000000000E+00  0.39999999674E+01  0.40000000000E+01  0.51100000000E-03 0.  1.
    9000002   -1    0    0    0    0 -0.00000000000E+00 -0.00000000000E+00  0.00000000000E+00  0.93800000000E+00  0.93800000000E+00 0. -1.
         11    1    1    2    0    0 -0.15550319575E-01  0.13689749119E-01  0.91896450797E-01  0.94204248630E-01  0.51100000000E-03 0.  1.
    9000002    1    1    2    0    0  0.11909846235E-02  0.19511915257E+00  0.28451609376E-01  0.95850216287E+00  0.93800000000E+00 0. -1.
         22    1    1    2    0    0  0.14359334951E-01 -0.20880890169E+00  0.38796519072E+01  0.38852935885E+01  0.00000000000E+00 0.  1.
</event>
<event>
 5    1  0.2173147E+002  0.1541687E+01  0.7818608E-02  0.3419193E+00
         11   -1    0    0    0    0  0.00000000000E+00  0.00000000000E+00  0.39999999674E+01  0.40000000000E+01  0.51100000000E-03 0. -1.
    9000002   -1    0    0    0    0 -0.00000000000E+00 -0.00000000000E+00  0.00000000000E+00  0.93800000000E+00  0.93800000000E+00 0.  1.
         11    1    1    2    0    0  0.10223217748E+00  0.24133103271E+00  0.20509734230E+01  0.20676518876E+01  0.51100000000E-03 0. -1.
    9000002    1    1    2    0    0 -0.16761963547E+00  0.91764870796E-01  0.68812726291E-01  0.95973763342E+00  0.93800000000E+00 0.  1.
         22    1    1    2    0    0  0.65387457986E-01 -0.33309590351E+00  0.18802138181E+01  0.19106104789E+01  0.00000000000E+00 0. -1.
</event>
<event>
 5    1  0.2173147E+002  0.1599674E+01  0.7818608E-02  0.3353718E+00
         11   -1    0    0    0    0  0.00000000000E+00  0.00000000000E+00  0.39999999674E+01  0.40000000000E+01  0.51100000000E-03 0. -1.
    9000002   -1    0    0    0    0 -0.00000000000E+00 -0.00000000000E+00  0.00000000000E+00  0.93800000000E+00  0.93800000000E+00 0. -1.
         11    1    1    2    0    0 -0.75207209926E-01 -0.10981161386E+00  0.13803352434E+01  0.13867373076E+01  0.51100000000E-03 0. -1.
    9000002    1    1    2    0    0  0.21811929680E+00  0.30826245862E+00  0.95923433405E-01  0.10157002885E+01  0.93800000000E+00 0. -1.
         22    1    1    2    0    0 -0.14291208687E+00 -0.19845084477E+00  0.25237412905E+01  0.25355624039E+01  0.00000000000E+00 0. -1.
</event>
<event>
 5    1  0.2173147E+002  0.1598277E+01  0.7818608E-02  0.3355235E+00
         11   -1    0    0    0    0  0.00000000000E+00  0.00000000000E+00  0.39999999674E+01  0.40000000000E+01  0.51100000000E-03 0. -1.
    9000002   -1    0    0    0    0 -0.00000000000E+00 -0.00000000000E+00  0.00000000000E+00  0.93800000000E+00  0.93800000000E+00 0. -1.
         11    1    1    2    0    0 -0.77259297030E-01 -0.23026019736E-01  0.54392891603E+00  0.54987100613E+00  0.51100000000E-03 0. -1.
    9000002    1    1    2    0    0  0.33293907586E+00  0.20824090058E+00  0.10508281518E+00  0.10223008847E+01  0.93800000000E+00 0. -1.
         22    1    1    2    0    0 -0.25567977883E+00 -0.18521488084E+00  0.33509882361E+01  0.33658281091E+01  0.00000000000E+00 0. -1.
</event>
<event>
 5    1  0.2173147E+002  0.1575820E+01  0.7818608E-02  0.3380033E+00
         11   -1    0    0    0    0  0.00000000000E+00  0.00000000000E+00  0.39999999674E+01  0.40000000000E+01  0.51100000000E-03 0.  1.
    9000002   -1    0    0    0    0 -0.00000000000E+00 -0.00000000000E+00  0.00000000000E+00  0.93800000000E+00  0.93800000000E+00 0. -1.
         11    1    1    2    0    0 -0.45837701897E-01  0.29948435397E-01  0.17801661060E+01  0.17810080375E+01  0.51100000000E-03 0.  1.
    9000002    1    1    2    0    0 -0.12428468409E+00 -0.40095819276E+00  0.13958867210E+00  0.10370839659E+01  0.93800000000E+00 0. -1.
         22    1    1    2    0    0  0.17012238599E+00  0.37100975737E+00  0.20802451893E+01  0.21199079965E+01  0.00000000000E+00 0.  1.
</event>
<event>
 5    1  0.2173147E+002  0.1599677E+01  0.7818608E-02  0.3353715E+00
         11   -1    0    0    0    0  0.00000000000E+00  0.00000000000E+00  0.39999999674E+01  0.40000000000E+01  0.51100000000E-03 0.  1.
    9000002   -1    0    0    0    0 -0.00000000000E+00 -0.00000000000E+00  0.00000000000E+00  0.93800000000E+00  0.93800000000E+00 0. -1.
         11    1    1    2    0    0 -0.24214232200E+00  0.16553009649E-01  0.15385512999E+01  0.15575773720E+01  0.51100000000E-03 0.  1.
    9000002    1    1    2    0    0  0.59272732943E+00 -0.41052780219E-01  0.24599001120E+00  0.11372625482E+01  0.93800000000E+00 0. -1.
         22    1    1    2    0    0 -0.35058500744E+00  0.24499770570E-01  0.22154586562E+01  0.22431600798E+01  0.00000000000E+00 0.  1.
</event>
<event>
 5    1  0.2173147E+002  0.1599634E+01  0.7818608E-02  0.3353761E+00
         11   -1    0    0    0    0  0.00000000000E+00  0.00000000000E+00  0.39999999674E+01  0.40000000000E+01  0.51100000000E-03 0.  1.
    9000002   -1    0    0    0    0 -0.00000000000E+00 -0.00000000000E+00  0.00000000000E+00  0.93800000000E+00  0.93800000000E+00 0. -1.
         11    1    1    2    0    0 -0.86697871059E-02 -0.43143195265E-01  0.60190306271E+00  0.60350978329E+00  0.51100000000E-03 0.  1.
    9000002    1    1    2    0    0  0.89015774248E-01  0.26399003459E+00  0.51712158722E-01  0.97986360979E+00  0.93800000000E+00 0. -1.
         22    1    1    2    0    0 -0.80345987143E-01 -0.22084683932E+00  0.33463847459E+01  0.33546266069E+01  0.00000000000E+00 0.  1.
</event>
<event>
 5    1  0.2173147E+002  0.1599044E+01  0.7818608E-02  0.3354402E+00
         11   -1    0    0    0    0  0.00000000000E+00  0.00000000000E+00  0.39999999674E+01  0.40000000000E+01  0.51100000000E-03 0.  1.
    9000002   -1    0    0    0    0 -0.00000000000E+00 -0.00000000000E+00  0.00000000000E+00  0.93800000000E+00  0.93800000000E+00 0. -1.
         11    1    1    2    0    0 -0.24553929550E-01  0.24682151579E-01  0.96453993629E+00  0.96516819979E+00  0.51100000000E-03 0.  1.
    9000002    1    1    2    0    0  0.11476232565E+00 -0.20732268057E+00  0.37746900477E-01  0.96820551215E+00  0.93800000000E+00 0. -1.
         22    1    1    2    0    0 -0.90208396104E-01  0.18264052899E+00  0.29977131306E+01  0.30046262881E+01  0.00000000000E+00 0.  1.
</event>
<event>
 5    1  0.2173147E+002  0.1576459E+01  0.7818608E-02  0.3379317E+00
         11   -1    0    0    0    0  0.00000000000E+00  0.00000000000E+00  0.39999999674E+01  0.40000000000E+01  0.51100000000E-03 0.  1.
    9000002   -1    0    0    0    0 -0.00000000000E+00 -0.00000000000E+00  0.00000000000E+00  0.93800000000E+00  0.93800000000E+00 0. -1.
         11    1    1    2    0    0 -0.10013653920E+00  0.89626489274E-01  0.76921665952E+00  0.78086795584E+00  0.51100000000E-03 0.  1.
    9000002    1    1    2    0    0 -0.10941387507E+00 -0.51766836879E-01  0.26879396068E-01  0.94615944924E+00  0.93800000000E+00 0. -1.
         22    1    1    2    0    0  0.20955041427E+00 -0.37859652394E-01  0.32039039118E+01  0.32109725949E+01  0.00000000000E+00 0.  1.
</event>
<event>
 5    1  0.2173147E+002  0.1599671E+01  0.7818608E-02  0.3353721E+00
         11   -1    0    0    0    0  0.00000000000E+00  0.00000000000E+00  0.39999999674E+01  0.40000000000E+01  0.51100000000E-03 0. -1.
    9000002   -1    0    0    0    0 -0.00000000000E+00 -0.00000000000E+00  0.00000000000E+00  0.93800000000E+00  0.93800000000E+00 0.  1.
         11    1    1    2    0    0 -0.71593844041E-01  0.12337752884E+00  0.16565022484E+01  0.16626327475E+01  0.51100000000E-03 0. -1.
    9000002    1    1    2    0    0  0.16884454178E+00 -0.29895246548E+00  0.78987872430E-01  0.10019801095E+01  0.93800000000E+00 0.  1.
         22    1    1    2    0    0 -0.97250697744E-01  0.17557493664E+00  0.22645098466E+01  0.22733871430E+01  0.00000000000E+00 0. -1.
</event>
<event>
 5    1  0.2173147E+002  0.1582792E+01  0.7818608E-02  0.3372255E+00
         11   -1    0    0    0    0  0.00000000000E+00  0.00000000000E+00  0.39999999674E+01  0.40000000000E+01  0.51100000000E-03 0.  1.
    9000002   -1    0    0    0    0 -0.00000000000E+00 -0.00000000000E+00  0.00000000000E+00  0.93800000000E+00  0.93800000000E+00 0.  1.
         11    1    1    2    0    0 -0.11383706480E+00  0.36040474681E+00  0.23267108340E+01  0.23572089481E+01  0.51100000000E-03 0.  1.
    9000002    1    1    2    0    0 -0.49509959356E-01 -0.50822341926E+00  0.19433526085E+00  0.10855194487E+01  0.93800000000E+00 0.  1.
         22    1    1    2    0    0  0.16334702416E+00  0.14781867245E+00  0.14789538725E+01  0.14952716031E+01  0.00000000000E+00 0. -1.
</event>
<event>
 5    1  0.2173147E+002  0.1599364E+01  0.7818608E-02  0.3354054E+00
         11   -1    0    0    0    0  0.00000000000E+00  0.00000000000E+00  0.39999999674E+01  0.40000000000E+01  0.51100000000E-03 0.  1.
    9000002   -1    0    0    0    0 -0.00000000000E+00 -0.00000000000E+00  0.00000000000E+00  0.93800000000E+00  0.93800000000E+00 0.  1.
         11    1    1    2    0    0 -0.92832137980E-01  0.79684812161E-01  0.11318542358E+01  0.11384470771E+01  0.51100000000E-03 0.  1.
    9000002    1    1    2    0    0  0.26831006990E+00 -0.23420037189E+00  0.85358879143E-01  0.10069608960E+01  0.93800000000E+00 0.  1.
         22    1    1    2    0    0 -0.17547793192E+00  0.15451555973E+00  0.27827868524E+01  0.27925920269E+01  0.00000000000E+00 0.  1.
</event>
<event>
 5    1  0.2173147E+002  0.1587779E+01  0.7818608E-02  0.3366735E+00
         11   -1    0    0    0    0  0.00000000000E+00  0.00000000000E+00  0.39999999674E+01  0.40000000000E+01  0.51100000000E-03 0.  1.
    9000002   -1    0    0    0    0 -0.00000000000E+00 -0.00000000000E+00  0.00000000000E+00  0.93800000000E+00  0.93800000000E+00 0.  1.
         11    1    1    2    0    0 -0.13545434983E-01  0.48303785270E-01  0.33848689334E+00  0.34218470533E+00  0.51100000000E-03 0.  1.
    9000002    1    1    2    0    0  0.46339530942E-01  0.28714630654E+00  0.65717423370E-01  0.98425765591E+00  0.93800000000E+00 0.  1.
         22    1    1    2    0    0 -0.32794095958E-01 -0.33545009181E+00  0.35957956507E+01  0.36115576388E+01  0.00000000000E+00 0.  1.
</event>
<event>
 5    1  0.2173147E+002  0.1599612E+01  0.7818608E-02  0.3353785E+00
         11   -1    0    0    0    0  0.00000000000E+00  0.00000000000E+00  0.39999999674E+01  0.40000000000E+01  0.51100000000E-03 0. -1.
    9000002   -1    0    0    0    0 -0.00000000000E+00 -0.00000000000E+00  0.00000000000E+00  0.93800000000E+00  0.93800000000E+00 0.  1.
         11    1    1    2    0    0  0.39571913115E-01  0.10578897990E-01  0.64323962567E+00  0.64454272670E+00  0.51100000000E-03 0. -1.
    9000002    1    1    2    0    0 -0.27790878534E+00 -0.38366951667E-01  0.52463990265E-01  0.98045998706E+00  0.93800000000E+00 0.  1.
         22    1    1    2    0    0  0.23833687223E+00  0.27788053677E-01  0.33042963514E+01  0.33129972862E+01  0.00000000000E+00 0. -1.
</event>
<event>
 5    1  0.2173147E+002  0.1599400E+01  0.7818608E-02  0.3354015E+00
         11   -1    0    0    0    0  0.00000000000E+00  0.00000000000E+00  0.39999999674E+01  0.40000000000E+01  0.51100000000E-03 0. -1.
    9000002   -1    0    0    0    0 -0.00000000000E+00 -0.00000000000E+00  0.00000000000E+00  0.93800000000E+00  0.93800000000E+00 0. -1.
         11    1    1    2    0    0  0.24685230148E-02 -0.45174254194E-02  0.29685222995E-01  0.30132612292E-01  0.51100000000E-03 0. -1.
    9000002    1    1    2    0    0 -0.29411991292E+00  0.14234341472E+00  0.71632847622E-01  0.99586316116E+00  0.93800000000E+00 0. -1.
         22    1    1    2    0    0  0.29165138991E+00 -0.13782598930E+00  0.38986818967E+01  0.39120042266E+01  0.00000000000E+00 0. -1.
</event>
<event>
 5    1  0.2173147E+002  0.1599676E+01  0.7818608E-02  0.3353715E+00
         11   -1    0    0    0    0  0.00000000000E+00  0.00000000000E+00  0.39999999674E+01  0.40000000000E+01  0.51100000000E-03 0.  1.
    9000002   -1    0    0    0    0 -0.00000000000E+00 -0.00000000000E+00  0.00000000000E+00  0.93800000000E+00  0.93800000000E+00 0. -1.
         11    1    1    2    0    0  0.36688499330E+00 -0.11133058594E+00  0.21582220694E+01  0.21920131979E+01  0.51100000000E-03 0.  1.
    9000002    1    1    2    0    0 -0.62988987746E+00  0.18986480367E+00  0.30599623233E+00  0.11858699742E+01  0.93800000000E+00 0. -1.
         22    1    1    2    0    0  0.26300488416E+00 -0.78534217730E-01  0.15357816656E+01  0.15601168280E+01  0.00000000000E+00 0.  1.
</event>
<event>
 5    1  0.2173147E+002  0.1599672E+01  0.7818608E-02  0.3353719E+00
         11   -1    0    0    0    0  0.00000000000E+00  0.00000000000E+00  0.39999999674E+01  0.40000000000E+01  0.51100000000E-03 0.  1.
    9000002   -1    0    0    0    0 -0.00000000000E+00 -0.00000000000E+00  0.00000000000E+00  0.93800000000E+00  0.93800000000E+00 0.  1.
         11    1    1    2    0    0  0.12845805351E+00 -0.15037056720E-01  0.11311968527E+01  0.11385667153E+01  0.51100000000E-03 0.  1.
    9000002    1    1    2    0    0 -0.44287676552E+00  0.58644331466E-01  0.13549034172E+00  0.10477502659E+01  0.93800000000E+00 0.  1.
         22    1    1    2    0    0  0.31441871202E+00 -0.43607274746E-01  0.27333127729E+01  0.27516830187E+01  0.00000000000E+00 0.  1.
</event>
<event>
 5    1  0.2173147E+002  0.1599655E+01  0.7818608E-02  0.3353737E+00
         11   -1    0    0    0    0  0.00000000000E+00  0.00000000000E+00  0.39999999674E+01  0.40000000000E+01  0.51100000000E-03 0. -1.
    9000002   -1    0    0    0    0 -0.00000000000E+00 -0.00000000000E+00  0.00000000000E+00  0.93800000000E+00  0.93800000000E+00 0.  1.
         11    1    1    2    0    0  0.89961245395E-02 -0.78223978326E-02  0.25358049481E+00  0.25386108137E+00  0.51100000000E-03 0. -1.
    9000002    1    1    2    0    0 -0.18060094568E+00  0.13623316237E+00  0.33953409667E-01  0.96549107201E+00  0.93800000000E+00 0.  1.
         22    1    1    2    0    0  0.17160482114E+00 -0.12841076454E+00  0.37124660629E+01  0.37186478466E+01  0.00000000000E+00 0. -1.
</event>
<event>
 5    1  0.2173147E+002  0.1598188E+01  0.7818608E-02  0.3355333E+00
         11   -1    0    0    0    0  0.00000000000E+00  0.00000000000E+00  0.39999999674E+01  0.40000000000E+01  0.51100000000E-03 0. -1.
    9000002   -1    0    0    0    0 -0.00000000000E+00 -0.00000000000E+00  0.00000000000E+00  0.93800000000E+00  0.93800000000E+00 0. -1.
         11    1    1    2    0    0 -0.10551226011E+00  0.79267409648E-01  0.13473137682E+01  0.13537617258E+01  0.51100000000E-03 0. -1.
    9000002    1    1    2    0    0  0.32638620782E+00 -0.10375711718E+00  0.79776582286E-01  0.10017493694E+01  0.93800000000E+00 0. -1.
         22    1    1    2    0    0 -0.22087394771E+00  0.24489707533E-01  0.25729096169E+01  0.25824889048E+01  0.00000000000E+00 0. -1.
</event>
<event>
 5    1  0.4247255E+002  0.1550163E+01  0.7818608E-02  0.3409297E+00
         11   -1    0    0    0    0  0.00000000000E+00  0.00000000000E+00  0.39999999674E+01  0.40000000000E+01  0.51100000000E-03 0. -1.
    9000002   -1    0    0    0    0 -0.00000000000E+00 -0.00000000000E+00  0.00000000000E+00  0.93800000000E+00  0.93800000000E+00 0. -1.
         11    1    1    2    0    0 -0.16528457023E+00  0.14038349089E+00  0.83465162006E+00  0.86236309154E+00  0.51100000000E-03 0. -1.
    9000002    1    1    2    0    0  0.17546241979E-01  0.37225084581E-01  0.37899506794E-01  0.93966693575E+00  0.93800000000E+00 0. -1.
         22    1    1    2    0    0  0.14773832825E+00 -0.17760857547E+00  0.31274488405E+01  0.31359699727E+01  0.00000000000E+00 0. -1.
</event>
<event>
 5    1  0.2173147E+002  0.1599676E+01  0.7818608E-02  0.3353715E+00
         11   -1    0    0    0    0  0.00000000000E+00  0.00000000000E+00  0.39999999674E+01  0.40000000000E+01  0.51100000000E-03 0.  1.
    9000002   -1    0    0    0    0 -0.00000000000E+00 -0.00000000000E+00  0.00000000000E+00  0.93800000000E+00  0.93800000000E+00 0.  1.
         11    1    1    2    0    0  0.40148200227E+00  0.18887774111E+00  0.23788516836E+01  0.24198756565E+01  0.51100000000E-03 0.  1.
    9000002    1    1    2    0    0 -0.61948006526E+00 -0.29241772431E+00  0.33404642164E+00  0.12085920273E+01  0.93800000000E+00 0.  1.
         22    1    1    2    0    0  0.21799806300E+00  0.10353998320E+00  0.12871018621E+01  0.13095323161E+01  0.00000000000E+00 0.  1.
</event>
<event>
 5    1  0.2173147E+002  0.1599668E+01  0.7818608E-02  0.3353724E+00
         11   -1    0    0    0    0  0.00000000000E+00  0.00000000000E+00  0.39999999674E+01  0.40000000000E+01  0.51100000000E-03 0.  1.
    9000002   -1    0    0    0    0 -0.00000000000E+00 -0.00000000000E+00  0.00000000000E+00  0.93800000000E+00  0.93800000000E+00 0. -1.
         11    1    1    2    0    0  0.21016658308E+00  0.18818493473E+00  0.21121004844E+01  0.21308571702E+01  0.51100000000E-03 0.  1.
    9000002    1    1    2    0    0 -0.37497212946E+00 -0.34446938779E+00  0.17776563074E+00  0.10819925492E+01  0.93800000000E+00 0. -1.
         22    1    1    2    0    0  0.16480554638E+00  0.15628445306E+00  0.17101338522E+01  0.17251502806E+01  0.00000000000E+00 0. -1.
</event>
<event>
 5    1  0.2173147E+002  0.1599674E+01  0.7818608E-02  0.3353718E+00
         11   -1    0    0    0    0  0.00000000000E+00  0.00000000000E+00  0.39999999674E+01  0.40000000000E+01  0.51100000000E-03 0.  1.
    9000002   -1    0    0    0    0 -0.00000000000E+00 -0.00000000000E+00  0.00000000000E+00  0.93800000000E+00  0.93800000000E+00 0.  1.
         11    1    1    2    0    0  0.28294004954E-01  0.17401804996E+00  0.13652396710E+01  0.13765763520E+01  0.51100000000E-03 0.  1.
    9000002    1    1    2    0    0 -0.76460080307E-01 -0.48386729314E+00  0.16400283967E+00  0.10708476235E+01  0.93800000000E+00 0.  1.
         22    1    1    2    0    0  0.48166075352E-01  0.30984924318E+00  0.24707574567E+01  0.24905760246E+01  0.00000000000E+00 0.  1.
</event>
<event>
 5    1  0.2173147E+002  0.1578250E+01  0.7818608E-02  0.3377314E+00
         11   -1    0    0    0    0  0.00000000000E+00  0.00000000000E+00  0.39999999674E+01  0.40000000000E+01  0.51100000000E-03 0. -1.
    9000002   -1    0    0    0    0 -0.00000000000E+00 -0.00000000000E+00  0.00000000000E+00  0.93800000000E+00  0.93800000000E+00 0. -1.
         11    1    1    2    0    0  0.38227804621E-01 -0.10679986090E+00  0.22116107836E+01  0.22145180277E+01  0.51100000000E-03 0. -1.
    9000002    1    1    2    0    0 -0.58415770376E-02 -0.11648039783E+00  0.24829184575E-01  0.94554867432E+00  0.93800000000E+00 0. -1.
         22    1    1    2    0    0 -0.32386227583E-01  0.22328025873E+00  0.17635599991E+01  0.17779332980E+01  0.00000000000E+00 0.  1.
</event>
<event>
 5    1  0.2173147E+002  0.1599674E+01  0.7818608E-02  0.3353718E+00
         11   -1    0    0    0    0  0.00000000000E+00  0.00000000000E+00  0.39999999674E+01  0.40000000000E+01  0.51100000000E-03 0.  1.
    9000002   -1    0    0    0    0 -0.00000000000E+00 -0.00000000000E+00  0.00000000000E+00  0.93800000000E+00  0.93800000000E+00 0. -1.
         11    1    1    2    0    0  0.15052378422E+00 -0.82088886605E-01  0.17125413894E+01  0.17211026310E+01  0.51100000000E-03 0.  1.
    9000002    1    1    2    0    0 -0.34109939478E+00  0.19159551417E+00  0.10312849091E+00  0.10215366483E+01  0.93800000000E+00 0. -1.
         22    1    1    2    0    0  0.19057561055E+00 -0.10950662757E+00  0.21843300870E+01  0.21953607207E+01  0.00000000000E+00 0.  1.
</event>
<event>
 5    1  0.2173147E+002  0.1599676E+01  0.7818608E-02  0.3353715E+00
         11   -1    0    0    0    0  0.00000000000E+00  0.00000000000E+00  0.39999999674E+01  0.40000000000E+01  0.51100000000E-03 0. -1.
    9000002   -1    0    0    0    0 -0.00000000000E+00 -0.00000000000E+00  0.00000000000E+00  0.93800000000E+00  0.93800000000E+00 0.  1.
         11    1    1    2    0    0 -0.20503923613E-02  0.92417187607E-01  0.10233553643E+01  0.10275220695E+01  0.51100000000E-03 0. -1.
    9000002    1    1    2    0    0  0.85374611794E-02 -0.35646691390E+00  0.85312648062E-01  0.10071066462E+01  0.93800000000E+00 0.  1.
         22    1    1    2    0    0 -0.64870688181E-02  0.26404972629E+00  0.28913319550E+01  0.29033712842E+01  0.00000000000E+00 0. -1.
</event>
<event>
 5    1  0.2173147E+002  0.1598662E+01  0.7818608E-02  0.3354817E+00
         11   -1    0    0    0    0  0.00000000000E+00  0.00000000000E+00  0.39999999674E+01  0.40000000000E+01  0.51100000000E-03 0.  1.
    9000002   -1    0    0    0    0 -0.00000000000E+00 -0.00000000000E+00  0.00000000000E+00  0.93800000000E+00  0.93800000000E+00 0. -1.
         11    1    1    2    0    0  0.16159015007E-01 -0.27161203557E-01  0.24731708765E+00  0.24932879438E+00  0.51100000000E-03 0.  1.
    9000002    1    1    2    0    0 -0.18781531286E+00  0.14559423070E+00  0.38251707317E-01  0.96839014084E+00  0.93800000000E+00 0. -1.
         22    1    1    2    0    0  0.17165629785E+00 -0.11843302714E+00  0.37144311724E+01  0.37202810648E+01  0.00000000000E+00 0.  1.
</event>
<event>
 5    1  0.2173147E+002  0.1598365E+01  0.7818608E-02  0.3355140E+00
         11   -1    0    0    0    0  0.00000000000E+00  0.00000000000E+00  0.39999999674E+01  0.40000000000E+01  0.51100000000E-03 0.  1.
    9000002   -1    0    0    0    0 -0.00000000000E+00 -0.00000000000E+00  0.00000000000E+00  0.93800000000E+00  0.93800000000E+00 0.  1.
         11    1    1    2    0    0  0.38696945914E-02  0.60287327494E-02  0.18633794958E-01  0.19969967209E-01  0.51100000000E-03 0.  1.
    9000002    1    1    2    0    0 -0.33746493911E+00 -0.75148704403E-01  0.81163275209E-01  0.10029762660E+01  0.93800000000E+00 0.  1.
         22    1    1    2    0    0  0.33359524452E+00  0.69119971653E-01  0.39002028972E+01  0.39150537668E+01  0.00000000000E+00 0.  1.
</event>
<event>
 5    1  0.2173147E+002  0.1599489E+01  0.7818608E-02  0.3353919E+00
         11   -1    0    0    0    0  0.00000000000E+00  0.00000000000E+00  0.39999999674E+01  0.40000000000E+01  0.51100000000E-03 0.  1.
    9000002   -1    0    0    0    0 -0.00000000000E+00 -0.00000000000E+00  0.00000000000E+00  0.93800000000E+00  0.93800000000E+00 0. -1.
         11    1    1    2    0    0 -0.13030455934E-01 -0.24861335849E-02  0.30900195659E+00  0.30928699284E+00  0.51100000000E-03 0.  1.
    9000002    1    1    2    0    0  0.26800437208E+00 -0.19109161499E-01  0.48172725664E-01  0.97691151851E+00  0.93800000000E+00 0. -1.
         22    1    1    2    0    0 -0.25497391614E+00  0.21595295084E-01  0.36428252851E+01  0.36518014886E+01  0.00000000000E+00 0.  1.
</event>
<event>
 5    1  0.2173147E+002  0.1599673E+01  0.7818608E-02  0.3353718E+00
         11   -1    0    0    0    0  0.00000000000E+00  0.00000000000E+00  0.39999999674E+01  0.40000000000E+01  0.51100000000E-03 0.  1.
    9000002   -1    0    0    0    0 -0.00000000000E+00 -0.00000000000E+00  0.00000000000E+00  0.93800000000E+00  0.93800000000E+00 0.  1.
         11    1    1    2    0    0 -0.11787557012E-01 -0.11874694367E-01  0.26944817159E+00  0.26996765206E+00  0.51100000000E-03 0.  1.
    9000002    1    1    2    0    0  0.17300365915E+00  0.15808828721E+00  0.36445051097E-01  0.96751972299E+00  0.93800000000E+00 0.  1.
         22    1    1    2    0    0 -0.16121610214E+00 -0.14621359285E+00  0.36941067447E+01  0.37005126249E+01  0.00000000000E+00 0.  1.
</event>
<event>
 5    1  0.2173147E+002  0.1599669E+01  0.7818608E-02  0.3353722E+00
         11   -1    0    0    0    0  0.00000000000E+00  0.00000000000E+00  0.39999999674E+01  0.40000000000E+01  0.51100000000E-03 0.  1.
    9000002   -1    0    0    0    0 -0.00000000000E+00 -0.00000000000E+00  0.00000000000E+00  0.93800000000E+00  0.93800000000E+00 0. -1.
         11    1    1    2    0    0 -0.52284279858E-01  0.62908757493E-01  0.92283462864E+00  0.92645300508E+00  0.51100000000E-03 0.  1.
    9000002    1    1    2    0    0  0.23336904765E+00 -0.26974224480E+00  0.85373378988E-01  0.10071517288E+01  0.93800000000E+00 0. -1.
         22    1    1    2    0    0 -0.18108476780E+00  0.20683348731E+00  0.29917919597E+01  0.30043952661E+01  0.00000000000E+00 0.  1.
</event>
<event>
 5    1  0.2173147E+002  0.1597018E+01  0.7818608E-02  0.3356606E+00
         11   -1    0    0    0    0  0.00000000000E+00  0.00000000000E+00  0.39999999674E+01  0.40000000000E+01  0.51100000000E-03 0. -1.
    9000002   -1    0    0    0    0 -0.00000000000E+00 -0.00000000000E+00  0.00000000000E+00  0.93800000000E+00  0.93800000000E+00 0.  1.
         11    1    1    2    0    0  0.41171260176E-01 -0.59497646894E-02  0.92129361307E+00  0.92223243001E+00  0.51100000000E-03 0. -1.
    9000002    1    1    2    0    0 -0.58822176342E-01  0.21762446678E+00  0.35713506968E-01  0.96537034943E+00  0.93800000000E+00 0.  1.
         22    1    1    2    0    0  0.17650916166E-01 -0.21167470209E+00  0.30429928473E+01  0.30503972206E+01  0.00000000000E+00 0. -1.
</event>
<event>
 5    1  0.2173147E+002  0.1599673E+01  0.7818608E-02  0.3353719E+00
         11   -1    0    0    0    0  0.00000000000E+00  0.00000000000E+00  0.39999999674E+01  0.40000000000E+01  0.51100000000E-03 0. -1.
    9000002   -1    0    0    0    0 -0.00000000000E+00 -0.00000000000E+00  0.00000000000E+00  0.93800000000E+00  0.93800000000E+00 0.  1.
         11    1    1    2    0    0 -0.48241234500E-01  0.16909527938E+00  0.15463301268E+01  0.15562961005E+01  0.51100000000E-03 0. -1.
    9000002    1    1    2    0    0  0.11867887953E+00 -0.41777523246E+00  0.12782179009E+00  0.10415388765E+01  0.93800000000E+00 0.  1.
         22    1    1    2    0    0 -0.70437645028E-01  0.24867995309E+00  0.23258480505E+01  0.23401650230E+01  0.00000000000E+00 0. -1.
</event>
<event>
 5    1  0.2173147E+002  0.1599677E+01  0.7818608E-02  0.3353714E+00
         11   -1    0    0    0    0  0.00000000000E+00  0.00000000000E+00  0.39999999674E+01  0.40000000000E+01  0.51100000000E-03 0.  1.
    9000002   -1    0    0    0    0 -0.00000000000E+00 -0.00000000000E+00  0.00000000000E+00  0.93800000000E+00  0.93800000000E+00 0.  1.
         11    1    1    2    0    0  0.39331942878E-01 -0.33499238040E-01  0.61816977329E+00  0.62032518118E+00  0.51100000000E-03 0. -1.
    9000002    1    1    2    0    0 -0.24876905680E+00  0.21290555572E+00  0.71716520263E-01  0.99609340855E+00  0.93800000000E+00 0.  1.
         22    1    1    2    0    0  0.20943711392E+00 -0.17940631768E+00  0.33101136738E+01  0.33215814103E+01  0.00000000000E+00 0.  1.
</event>
<event>
 5    1  0.2173147E+002  0.1599650E+01  0.7818608E-02  0.3353743E+00
         11   -1    0    0    0    0  0.00000000000E+00  0.00000000000E+00  0.39999999674E+01  0.40000000000E+01  0.51100000000E-03 0. -1.
    9000002   -1    0    0    0    0 -0.00000000000E+00 -0.00000000000E+00  0.00000000000E+00  0.93800000000E+00  0.93800000000E+00 0.  1.
         11    1    1    2    0    0  0.43999146485E-01  0.56921132065E-01  0.67554200537E+00  0.67936234979E+00  0.51100000000E-03 0. -1.
    9000002    1    1    2    0    0 -0.25650977551E+00 -0.30093859585E+00  0.10542983084E+00  0.10233869027E+01  0.93800000000E+00 0.  1.
         22    1    1    2    0    0  0.21251062903E+00  0.24401746379E+00  0.32190281312E+01  0.32352507475E+01  0.00000000000E+00 0. -1.
</event>
<event>
 5    1  0.2173147E+002  0.1599603E+01  0.7818608E-02  0.3353794E+00
         11   -1    0    0    0    0  0.00000000000E+00  0.00000000000E+00  0.39999999674E+01  0.40000000000E+01  0.51100000000E-03 0.  1.
    9000002   -1    0    0    0    0 -0.00000000000E+00 -0.00000000000E+00  0.00000000000E+00  0.93800000000E+00  0.93800000000E+00 0. -1.
         11    1    1    2    0    0 -0.73704183652E-01  0.86199528184E-01  0.11828866979E+01  0.11883113509E+01  0.51100000000E-03 0.  1.
    9000002    1    1    2    0    0  0.23493031612E+00 -0.25541605975E+00  0.80782427268E-01  0.10033939493E+01  0.93800000000E+00 0. -1.
         22    1    1    2    0    0 -0.16122613247E+00  0.16921653156E+00  0.27363308422E+01  0.27462946998E+01  0.00000000000E+00 0.  1.
</event>
<event>
 5    1  0.2173147E+002  0.1554377E+01  0.7818608E-02  0.3404420E+00
         11   -1    0    0    0    0  0.00000000000E+00  0.00000000000E+00  0.39999999674E+01  0.40000000000E+01  0.51100000000E-03 0.  1.
    9000002   -1    0    0    0    0 -0.00000000000E+00 -0.00000000000E+00  0.00000000000E+00  0.93800000000E+00  0.93800000000E+00 0. -1.
         11    1    1    2    0    0 -0.17896931674E+00  0.13634904460E+00  0.13484101740E+01  0.13670520607E+01  0.51100000000E-03 0.  1.
    9000002    1    1    2    0    0  0.63148011946E-01  0.14266657518E+00  0.50343945943E-01  0.95221842871E+00  0.93800000000E+00 0. -1.
         22    1    1    2    0    0  0.11582130479E+00 -0.27901561978E+00  0.26012458474E+01  0.26187295106E+01  0.00000000000E+00 0.  1.
</event>
<event>
 5    1  0.5951791E+002  0.1558564E+01  0.7818608E-02  0.3399603E+00
         11   -1    0    0    0    0  0.00000000000E+00  0.00000000000E+00  0.39999999674E+01  0.40000000000E+01  0.51100000000E-03 0.  1.
    9000002   -1    0    0    0    0 -0.00000000000E+00 -0.00000000000E+00  0.00000000000E+00  0.93800000000E+00  0.93800000000E+00 0. -1.
         11    1    1    2    0    0 -0.20687697035E+00  0.14328168803E+00  0.14663351824E+01  0.14877724461E+01  0.51100000000E-03 0.  1.
    9000002    1    1    2    0    0  0.21183826308E-01 -0.45912034377E-01  0.32119800827E-01  0.93991082077E+00  0.93800000000E+00 0. -1.
         22    1    1    2    0    0  0.18569314404E+00 -0.97369653656E-01  0.25015449841E+01  0.25103167332E+01  0.00000000000E+00 0.  1.
</event>
<event>
 5    1  0.2173147E+002  0.1593523E+01  0.7818608E-02  0.3360424E+00
         11   -1    0    0    0    0  0.00000000000E+00  0.00000000000E+00  0.39999999674E+01  0.40000000000E+01  0.51100000000E-03 0.  1.
    9000002   -1    0    0    0    0 -0.00000000000E+00 -0.00000000000E+00  0.00000000000E+00  0.93800000000E+00  0.93800000000E+00 0. -1.
         11    1    1    2    0    0  0.24236419364E-01  0.16140685371E-01  0.61792475644E+00  0.61861069461E+00  0.51100000000E-03 0.  1.
    9000002    1    1    2    0    0  0.26517425738E+00  0.22256606200E-01  0.51852374204E-01  0.97639408643E+00  0.93800000000E+00 0. -1.
         22    1    1    2    0    0 -0.28941067674E+00 -0.38397291571E-01  0.33302228367E+01  0.33429952190E+01  0.00000000000E+00 0.  1.
</event>
<event>
 5    1  0.2173147E+002  0.1599648E+01  0.7818608E-02  0.3353745E+00
         11   -1    0    0    0    0  0.00000000000E+00  0.00000000000E+00  0.39999999674E+01  0.40000000000E+01  0.51100000000E-03 0.  1.
    9000002   -1    0    0    0    0 -0.00000000000E+00 -0.00000000000E+00  0.00000000000E+00  0.93800000000E+00  0.93800000000E+00 0.  1.
         11    1    1    2    0    0  0.41701322604E+00  0.33279286049E+00  0.22894022566E+01  0.23507475561E+01  0.51100000000E-03 0.  1.
    9000002    1    1    2    0    0 -0.63121937041E+00 -0.50758872509E+00  0.48498207423E+00  0.13308402683E+01  0.93800000000E+00 0.  1.
         22    1    1    2    0    0  0.21420614437E+00  0.17479586461E+00  0.12256156365E+01  0.12564121756E+01  0.00000000000E+00 0.  1.
</event>
<event>
 5    1  0.2173147E+002  0.1588332E+01  0.7818608E-02  0.3366126E+00
         11   -1    0    0    0    0  0.00000000000E+00  0.00000000000E+00  0.39999999674E+01  0.40000000000E+01  0.51100000000E-03 0.  1.
    9000002   -1    0    0    0    0 -0.00000000000E+00 -0.00000000000E+00  0.00000000000E+00  0.93800000000E+00  0.93800000000E+00 0.  1.
         11    1    1    2    0    0 -0.34508411565E-01 -0.10473201324E-01  0.74262563717E-01  0.82557300740E-01  0.51100000000E-03 0.  1.
    9000002    1    1    2    0    0  0.10773271415E+00 -0.23392920063E+00  0.52837797537E-01  0.97414836727E+00  0.93800000000E+00 0.  1.
         22    1    1    2    0    0 -0.73224302589E-01  0.24440240195E+00  0.38728996061E+01  0.38812943320E+01  0.00000000000E+00 0.  1.
</event>
<event>
 5    1  0.2173147E+002  0.1599664E+01  0.7818608E-02  0.3353728E+00
         11   -1    0    0    0    0  0.00000000000E+00  0.00000000000E+00  0.39999999674E+01  0.40000000000E+01  0.51100000000E-03 0. -1.
    9000002   -1    0    0    0    0 -0.00000000000E+00 -0.00000000000E+00  0.00000000000E+00  0.93800000000E+00  0.93800000000E+00 0.  1.
         11    1    1    2    0    0 -0.40096840554E-01  0.37944592161E-02  0.49555685378E+00  0.49719112119E+00  0.51100000000E-03 0. -1.
    9000002    1    1    2    0    0  0.32185487037E+00 -0.79248852821E-02  0.69305675943E-01  0.99413310885E+00  0.93800000000E+00 0.  1.
         22    1    1    2    0    0 -0.28175802981E+00  0.41304260660E-02  0.34351374376E+01  0.34466757700E+01  0.00000000000E+00 0. -1.
</event>
<event>
 5    1  0.2173147E+002  0.1475151E+01  0.7818608E-02  0.3501117E+00
         11   -1    0    0    0    0  0.00000000000E+00  0.00000000000E+00  0.39999999674E+01  0.40000000000E+01  0.51100000000E-03 0. -1.
    9000002   -1    0    0    0    0 -0.00000000000E+00 -0.00000000000E+00  0.00000000000E+00  0.93800000000E+00  0.93800000000E+00 0.  1.
         11    1    1    2    0    0 -0.22281376693E-01  0.57232473772E+00  0.16773038153E+01  0.17723996206E+01  0.51100000000E-03 0. -1.
    9000002    1    1    2    0    0  0.52853707000E+00 -0.45116451775E+00  0.49984371311E+00  0.12698773933E+01  0.93800000000E+00 0.  1.
         22    1    1    2    0    0 -0.50625569330E+00 -0.12116021997E+00  0.18228524389E+01  0.18957229861E+01  0.00000000000E+00 0. -1.
</event>
<event>
 5    1  0.2173147E+002  0.1597899E+01  0.7818608E-02  0.3355647E+00
         11   -1    0    0    0    0  0.00000000000E+00  0.00000000000E+00  0.39999999674E+01  0.40000000000E+01  0.51100000000E-03 0.  1.
    9000002   -1    0    0    0    0 -0.00000000000E+00 -0.00000000000E+00  0.00000000000E+00  0.93800000000E+00  0.93800000000E+00 0.  1.
         11    1    1    2    0    0  0.19495895212E+00  0.67508050567E-01  0.20049604586E+01  0.20155478242E+01  0.51100000000E-03 0.  1.
    9000002    1    1    2    0    0 -0.46763156954E+00 -0.15221874036E+00  0.16692525744E+00  0.10721743661E+01  0.93800000000E+00 0.  1.
         22    1    1    2    0    0  0.27267261743E+00  0.84710689793E-01  0.18281142513E+01  0.18502778097E+01  0.00000000000E+00 0.  1.
</event>
<event>
 5    1  0.2173147E+002  0.1534426E+01  0.7818608E-02  0.3427762E+00
         11   -1    0    0    0    0  0.00000000000E+00  0.00000000000E+00  0.39999999674E+01  0.40000000000E+01  0.51100000000E-03 0. -1.
    9000002   -1    0    0    0    0 -0.00000000000E+00 -0.00000000000E+00  0.00000000000E+00  0.93800000000E+00  0.93800000000E+00 0. -1.
         11    1    1    2    0    0  0.19375460360E+00 -0.22850997631E+00  0.12374986543E+01  0.12732481440E+01  0.51100000000E-03 0. -1.
    9000002    1    1    2    0    0 -0.21054826922E-01  0.39608229277E-01  0.50212462958E-01  0.94041342451E+00  0.93800000000E+00 0. -1.
         22    1    1    2    0    0 -0.17269977667E+00  0.18890174703E+00  0.27122888501E+01  0.27243384315E+01  0.00000000000E+00 0. -1.
</event>
<event>
 5    1  0.2173147E+002  0.1599634E+01  0.7818608E-02  0.3353761E+00
         11   -1    0    0    0    0  0.00000000000E+00  0.00000000000E+00  0.39999999674E+01  0.40000000000E+01  0.51100000000E-03 0.  1.
    9000002   -1    0    0    0    0 -0.00000000000E+00 -0.00000000000E+00  0.00000000000E+00  0.93800000000E+00  0.93800000000E+00 0. -1.
         11    1    1    2    0    0  0.42858120405E-01 -0.34474629568E-01  0.62575193646E+00  0.62816483957E+00  0.51100000000E-03 0.  1.
    9000002    1    1    2    0    0 -0.24832551771E+00  0.18724397522E+00  0.64628414461E-01  0.99032656278E+00  0.93800000000E+00 0. -1.
         22    1    1    2    0    0  0.20546739730E+00 -0.15276934565E+00  0.33096196164E+01  0.33195085976E+01  0.00000000000E+00 0.  1.
</event>
<event>
 5    1  0.2173147E+002  0.1569855E+01  0.7818608E-02  0.3386746E+00
         11   -1    0    0    0    0  0.00000000000E+00  0.00000000000E+00  0.39999999674E+01  0.40000000000E+01  0.51100000000E-03 0.  1.
    9000002   -1    0    0    0    0 -0.00000000000E+00 -0.00000000000E+00  0.00000000000E+00  0.93800000000E+00  0.93800000000E+00 0.  1.
         11    1    1    2    0    0  0.11808514851E+00  0.42092380500E-01  0.22287977611E+00  0.25571766953E+00  0.51100000000E-03 0.  1.
    9000002    1    1    2    0    0 -0.40128670010E+00 -0.10244520309E+00  0.14142044417E+00  0.10350699384E+01  0.93800000000E+00 0.  1.
         22    1    1    2    0    0  0.28320155160E+00  0.60352822594E-01  0.36356997471E+01  0.36472123921E+01  0.00000000000E+00 0.  1.
</event>
<event>
 5    1  0.2173147E+002  0.1599305E+01  0.7818608E-02  0.3354118E+00
         11   -1    0    0    0    0  0.00000000000E+00  0.00000000000E+00  0.39999999674E+01  0.40000000000E+01  0.51100000000E-03 0. -1.
    9000002   -1    0    0    0    0 -0.00000000000E+00 -0.00000000000E+00  0.00000000000E+00  0.93800000000E+00  0.93800000000E+00 0. -1.
         11    1    1    2    0    0 -0.12640102913E-01  0.31545292028E-02  0.39003455068E+00  0.39025239922E+00  0.51100000000E-03 0. -1.
    9000002    1    1    2    0    0  0.19835271205E+00  0.89927919551E-01  0.31715984751E-01  0.96347326521E+00  0.93800000000E+00 0. -1.
         22    1    1    2    0    0 -0.18571260914E+00 -0.93082448754E-01  0.35782494319E+01  0.35842743356E+01  0.00000000000E+00 0. -1.
</event>
<event>
 5    1  0.2173147E+002  0.1598432E+01  0.7818608E-02  0.3355067E+00
         11   -1    0    0    0    0  0.00000000000E+00  0.00000000000E+00  0.39999999674E+01  0.40000000000E+01  0.51100000000E-03 0.  1.
    9000002   -1    0    0    0    0 -0.00000000000E+00 -0.00000000000E+00  0.00000000000E+00  0.93800000000E+00  0.93800000000E+00 0. -1.
         11    1    1    2    0    0 -0.13578599519E+00 -0.14834169787E+00  0.19867350678E+01  0.19968874747E+01  0.51100000000E-03 0.  1.
    9000002    1    1    2    0    0  0.20238444443E+00  0.34412892118E+00  0.10853285161E+00  0.10251865965E+01  0.93800000000E+00 0. -1.
         22    1    1    2    0    0 -0.66598449241E-01 -0.19578722330E+00  0.19047320480E+01  0.19159259289E+01  0.00000000000E+00 0.  1.
</event>
<event>
 5    1  0.2173147E+002  0.1596150E+01  0.7818608E-02  0.3357553E+00
         11   -1    0    0    0    0  0.00000000000E+00  0.00000000000E+00  0.39999999674E+01  0.40000000000E+01  0.51100000000E-03 0. -1.
    9000002   -1    0    0    0    0 -0.00000000000E+00 -0.00000000000E+00  0.00000000000E+00  0.93800000000E+00  0.93800000000E+00 0.  1.
         11    1    1    2    0    0 -0.51552024046E-02 -0.49629687915E-01  0.96024912945E+00  0.96154476430E+00  0.51100000000E-03 0. -1.
    9000002    1    1    2    0    0  0.21044684024E+00  0.37150454053E-01  0.32919877064E-01  0.96259843502E+00  0.93800000000E+00 0.  1.
         22    1    1    2    0    0 -0.20529163784E+00  0.12479233862E-01  0.30068309609E+01  0.30138568007E+01  0.00000000000E+00 0. -1.
</event>
<event>
 5    1  0.2173147E+002  0.1512541E+01  0.7818608E-02  0.3454126E+00
         11   -1    0    0    0    0  0.00000000000E+00  0.00000000000E+00  0.39999999674E+01  0.40000000000E+01  0.51100000000E-03 0.  1.
    9000002   -1    0    0    0    0 -0.00000000000E+00 -0.00000000000E+00  0.00000000000E+00  0.93800000000E+00  0.93800000000E+00 0. -1.
         11    1    1    2    0    0  0.11828779635E+00 -0.16664939735E+00  0.35422977881E+01  0.35481879749E+01  0.51100000000E-03 0.  1.
    9000002    1    1    2    0    0 -0.34206275999E+00  0.18591295772E+00  0.17795736125E+00  0.10310593494E+01  0.93800000000E+00 0. -1.
         22    1    1    2    0    0  0.22377496363E+00 -0.19263560379E-01  0.27974481800E+00  0.35875267568E+00  0.00000000000E+00 0. -1.
</event>
<event>
 5    1  0.2173147E+002  0.1599677E+01  0.7818608E-02  0.3353714E+00
         11   -1    0    0    0    0  0.00000000000E+00  0.00000000000E+00  0.39999999674E+01  0.40000000000E+01  0.51100000000E-03 0.  1.
    9000002   -1    0    0    0    0 -0.00000000000E+00 -0.00000000000E+00  0.00000000000E+00  0.93800000000E+00  0.93800000000E+00 0.  1.
         11    1    1    2    0    0 -0.22680998458E-01  0.92066998312E-01  0.12354329583E+01  0.12390664290E+01  0.51100000000E-03 0.  1.
    9000002    1    1    2    0    0  0.71495742487E-01 -0.29275895469E+00  0.60594548428E-01  0.98708416361E+00  0.93800000000E+00 0.  1.
         22    1    1    2    0    0 -0.48814744029E-01  0.20069195638E+00  0.27039724606E+01  0.27118494074E+01  0.00000000000E+00 0.  1.
</event>
<event>
 5    1  0.2173147E+002  0.1597780E+01  0.7818608E-02  0.3355777E+00
         11   -1    0    0    0    0  0.00000000000E+00  0.00000000000E+00  0.39999999674E+01  0.40000000000E+01  0.51100000000E-03 0.  1.
    9000002   -1    0    0    0    0 -0.00000000000E+00 -0.00000000000E+00  0.00000000000E+00  0.93800000000E+00  0.93800000000E+00 0.  1.
         11    1    1    2    0    0 -0.43155315248E+00 -0.11328531304E+00  0.21815614146E+01  0.22267200435E+01  0.51100000000E-03 0.  1.
    9000002    1    1    2    0    0  0.64548920574E+00  0.16206584224E+00  0.31577152859E+00  0.11926765321E+01  0.93800000000E+00 0.  1.
         22    1    1    2    0    0 -0.21393605326E+00 -0.48780529192E-01  0.15026670242E+01  0.15186034244E+01  0.00000000000E+00 0.  1.
</event>
<event>
 5    1  0.2173147E+002  0.1599503E+01  0.7818608E-02  0.3353903E+00
         11   -1    0    0    0    0  0.00000000000E+00  0.00000000000E+00  0.39999999674E+01  0.40000000000E+01  0.51100000000E-03 0. -1.
    9000002   -1    0    0    0    0 -0.00000000000E+00 -0.00000000000E+00  0.00000000000E+00  0.93800000000E+00  0.93800000000E+00 0.  1.
         11    1    1    2    0    0 -0.29882970353E-02 -0.28922005661E-01  0.27498728208E+00  0.27652066606E+00  0.51100000000E-03 0. -1.
    9000002    1    1    2    0    0  0.92100947306E-02  0.30305170430E+00  0.61479162523E-01  0.98769876417E+00  0.93800000000E+00 0.  1.
         22    1    1    2    0    0 -0.62217976953E-02 -0.27412969864E+00  0.36635335228E+01  0.36737805698E+01  0.00000000000E+00 0. -1.
</event>
<event>
 5    1  0.2173147E+002  0.1599670E+01  0.7818608E-02  0.3353722E+00
         11   -1    0    0    0    0  0.00000000000E+00  0.00000000000E+00  0.39999999674E+01  0.40000000000E+01  0.51100000000E-03 0. -1.
    9000002   -1    0    0    0    0 -0.00000000000E+00 -0.00000000000E+00  0.00000000000E+00  0.93800000000E+00  0.93800000000E+00 0. -1.
         11    1    1    2    0    0 -0.52081781785E-01 -0.84644510734E-01  0.10446990570E+01  0.10494158308E+01  0.51100000000E-03 0. -1.
    9000002    1    1    2    0    0  0.19327270755E+00  0.30640947031E+00  0.88125873187E-01  0.10093816288E+01  0.93800000000E+00 0. -1.
         22    1    1    2    0    0 -0.14119092577E+00 -0.22176495957E+00  0.28671750372E+01  0.28792025404E+01  0.00000000000E+00 0. -1.
</event>
<event>
 5    1  0.2173147E+002  0.1527553E+01  0.7818608E-02  0.3435954E+00
         11   -1    0    0    0    0  0.00000000000E+00  0.00000000000E+00  0.39999999674E+01  0.40000000000E+01  0.51100000000E-03 0.  1.
    9000002   -1    0    0    0    0 -0.00000000000E+00 -0.00000000000E+00  0.00000000000E+00  0.93800000000E+00  0.93800000000E+00 0.  1.
         11    1    1    2    0    0  0.15780052281E+00 -0.18203969680E+00  0.26658516966E+01  0.26767153351E+01  0.51100000000E-03 0.  1.
    9000002    1    1    2    0    0  0.22147576321E-01 -0.99378857740E-01  0.61480460368E-01  0.94551071888E+00  0.93800000000E+00 0.  1.
         22    1    1    2    0    0 -0.17994809913E+00  0.28141855454E+00  0.12726678104E+01  0.13157739460E+01  0.00000000000E+00 0.  1.
</event>
<event>
 5    1  0.2173147E+002  0.1599677E+01  0.7818608E-02  0.3353714E+00
         11   -1    0    0    0    0  0.00000000000E+00  0.00000000000E+00  0.39999999674E+01  0.40000000000E+01  0.51100000000E-03 0.  1.
    9000002   -1    0    0    0    0 -0.00000000000E+00 -0.00000000000E+00  0.00000000000E+00  0.93800000000E+00  0.93800000000E+00 0. -1.
         11    1    1    2    0    0 -0.49526810455E+00  0.64815710500E-01  0.22689571611E+01  0.23232861279E+01  0.51100000000E-03 0.  1.
    9000002    1    1    2    0    0  0.77502289837E+00 -0.10102996706E+00  0.44723676664E+00  0.13002816128E+01  0.93800000000E+00 0. -1.
         22    1    1    2    0    0 -0.27975479382E+00  0.36214256563E-01  0.12838060396E+01  0.13144322593E+01  0.00000000000E+00 0.  1.
</event>
<event>
 5    1  0.2173147E+002  0.1599494E+01  0.7818608E-02  0.3353913E+00
         11   -1    0    0    0    0  0.00000000000E+00  0.00000000000E+00  0.39999999674E+01  0.40000000000E+01  0.51100000000E-03 0.  1.
    9000002   -1    0    0    0    0 -0.00000000000E+00 -0.00000000000E+00  0.00000000000E+00  0.93800000000E+00  0.93800000000E+00 0.  1.
         11    1    1    2    0    0  0.42779813961E-01  0.40014842326E-01  0.48942354036E+00  0.49291679123E+00  0.51100000000E-03 0.  1.
    9000002    1    1    2    0    0 -0.40220859109E+00 -0.26056774833E+00  0.15684935513E+00  0.10649474271E+01  0.93800000000E+00 0.  1.
         22    1    1    2    0    0  0.35942877713E+00  0.22055290600E+00  0.33537270719E+01  0.33801357817E+01  0.00000000000E+00 0.  1.
</event>
<event>
 5    1  0.2173147E+002  0.1599677E+01  0.7818608E-02  0.3353714E+00
         11   -1    0    0    0    0  0.00000000000E+00  0.00000000000E+00  0.39999999674E+01  0.40000000000E+01  0.51100000000E-03 0.  1.
    9000002   -1    0    0    0    0 -0.00000000000E+00 -0.00000000000E+00  0.00000000000E+00  0.93800000000E+00  0.93800000000E+00 0.  1.
         11    1    1    2    0    0 -0.35866873979E-01  0.12843053304E-02  0.55865419954E+00  0.55980608953E+00  0.51100000000E-03 0. -1.
    9000002    1    1    2    0    0  0.25355191748E+00 -0.93546965463E-02  0.42776850080E-01  0.97265098782E+00  0.93800000000E+00 0.  1.
         22    1    1    2    0    0 -0.21768504350E+00  0.80703912159E-02  0.33985689177E+01  0.34055429227E+01  0.00000000000E+00 0.  1.
</event>
<event>
 5    1  0.2173147E+002  0.1599677E+01  0.7818608E-02  0.3353714E+00
         11   -1    0    0    0    0  0.00000000000E+00  0.00000000000E+00  0.39999999674E+01  0.40000000000E+01  0.51100000000E-03 0. -1.
    9000002   -1    0    0    0    0 -0.00000000000E+00 -0.00000000000E+00  0.00000000000E+00  0.93800000000E+00  0.93800000000E+00 0. -1.
         11    1    1    2    0    0 -0.20170814438E+00 -0.87997364085E-01  0.19446899201E+01  0.19571021583E+01  0.51100000000E-03 0. -1.
    9000002    1    1    2    0    0  0.40106199138E+00  0.17536275671E+00  0.12990207353E+00  0.10432264213E+01  0.93800000000E+00 0. -1.
         22    1    1    2    0    0 -0.19935384700E+00 -0.87365392622E-01  0.19254079737E+01  0.19376714204E+01  0.00000000000E+00 0. -1.
</event>
<event>
 5    1  0.2173147E+002  0.1518440E+01  0.7818608E-02  0.3446939E+00
         11   -1    0    0    0    0  0.00000000000E+00  0.00000000000E+00  0.39999999674E+01  0.40000000000E+01  0.51100000000E-03 0. -1.
    9000002   -1    0    0    0    0 -0.00000000000E+00 -0.00000000000E+00  0.00000000000E+00  0.93800000000E+00  0.93800000000E+00 0. -1.
         11    1    1    2    0    0 -0.62679825077E-01  0.20034962507E+00  0.95204149120E+00  0.97491127536E+00  0.51100000000E-03 0. -1.
    9000002    1    1    2    0    0  0.94788572811E-01  0.37617899403E+00  0.17174067674E+00  0.10294825735E+01  0.93800000000E+00 0. -1.
         22    1    1    2    0    0 -0.32108747734E-01 -0.57652861910E+00  0.28762177994E+01  0.29336061511E+01  0.00000000000E+00 0. -1.
</event>
<event>
 5    1  0.2173147E+002  0.1599640E+01  0.7818608E-02  0.3353754E+00
         11   -1    0    0    0    0  0.00000000000E+00  0.00000000000E+00  0.39999999674E+01  0.40000000000E+01  0.51100000000E-03 0. -1.
    9000002   -1    0    0    0    0 -0.00000000000E+00 -0.00000000000E+00  0.00000000000E+00  0.93800000000E+00  0.93800000000E+00 0.  1.
         11    1    1    2    0    0  0.78142033881E-01 -0.11752887508E+00  0.16725645173E+01  0.16785087249E+01  0.51100000000E-03 0. -1.
    9000002    1    1    2    0    0 -0.18908812530E+00  0.29126292170E+00  0.80860937467E-01  0.10034793968E+01  0.93800000000E+00 0.  1.
         22    1    1    2    0    0  0.11094609142E+00 -0.17373404662E+00  0.22465745126E+01  0.22560118782E+01  0.00000000000E+00 0. -1.
</event>
<event>
 5    1  0.2173147E+002  0.1599676E+01  0.7818608E-02  0.3353715E+00
         11   -1    0    0    0    0  0.00000000000E+00  0.00000000000E+00  0.39999999674E+01  0.40000000000E+01  0.51100000000E-03 0.  1.
    9000002   -1    0    0    0    0 -0.00000000000E+00 -0.00000000000E+00  0.00000000000E+00  0.93800000000E+00  0.93800000000E+00 0. -1.
         11    1    1    2    0    0 -0.22761574211E-01  0.44537890249E-01  0.75456177586E+00  0.75621785726E+00  0.51100000000E-03 0.  1.
    9000002    1    1    2    0    0  0.11823705380E+00 -0.22940556227E+00  0.44274822331E-01  0.97386404225E+00  0.93800000000E+00 0. -1.
         22    1    1    2    0    0 -0.95475479588E-01  0.18486767202E+00  0.32011633692E+01  0.32079181005E+01  0.00000000000E+00 0.  1.
</event>
<event>
 5    1  0.2173147E+002  0.1599666E+01  0.7818608E-02  0.3353727E+00
         11   -1    0    0    0    0  0.00000000000E+00  0.00000000000E+00  0.39999999674E+01  0.40000000000E+01  0.51100000000E-03 0.  1.
    9000002   -1    0    0    0    0 -0.00000000000E+00 -0.00000000000E+00  0.00000000000E+00  0.93800000000E+00  0.93800000000E+00 0.  1.
         11    1    1    2    0    0 -0.55011017253E-01 -0.54227888672E-02  0.90064568923E+00  0.90234058830E+00  0.51100000000E-03 0.  1.
    9000002    1    1    2    0    0  0.25651829303E+00  0.21972658559E-01  0.44066456911E-01  0.97368900836E+00  0.93800000000E+00 0.  1.
         22    1    1    2    0    0 -0.20150727577E+00 -0.16549869691E-01  0.30552878212E+01  0.30619704033E+01  0.00000000000E+00 0.  1.
</event>
<event>
 5    1  0.2173147E+002  0.1586991E+01  0.7818608E-02  0.3367605E+00
         11   -1    0    0    0    0  0.00000000000E+00  0.00000000000E+00  0.39999999674E+01  0.40000000000E+01  0.51100000000E-03 0. -1.
    9000002   -1    0    0    0    0 -0.00000000000E+00 -0.00000000000E+00  0.00000000000E+00  0.93800000000E+00  0.93800000000E+00 0. -1.
         11    1    1    2    0    0  0.43462149005E+00 -0.30831796681E+00  0.18651189255E+01  0.19397486115E+01  0.51100000000E-03 0. -1.
    9000002    1    1    2    0    0 -0.55919304740E+00  0.58339005867E+00  0.49922770509E+00  0.13349580991E+01  0.93800000000E+00 0. -1.
         22    1    1    2    0    0  0.12457155735E+00 -0.27507209186E+00  0.16356533367E+01  0.16632932894E+01  0.00000000000E+00 0. -1.
</event>
<event>
 5    1  0.2173147E+002  0.1599659E+01  0.7818608E-02  0.3353734E+00
         11   -1    0    0    0    0  0.00000000000E+00  0.00000000000E+00  0.39999999674E+01  0.40000000000E+01  0.51100000000E-03 0. -1.
    9000002   -1    0    0    0    0 -0.00000000000E+00 -0.00000000000E+00  0.00000000000E+00  0.93800000000E+00  0.93800000000E+00 0. -1.
         11    1    1    2    0    0  0.12174858719E-01 -0.10632767664E-01  0.32950884273E+00  0.32990547357E+00  0.51100000000E-03 0. -1.
    9000002    1    1    2    0    0 -0.16871074973E+00  0.15350716446E+00  0.34520129442E-01  0.96595207229E+00  0.93800000000E+00 0. -1.
         22    1    1    2    0    0  0.15653589101E+00 -0.14287439680E+00  0.36359709952E+01  0.36421424541E+01  0.00000000000E+00 0. -1.
</event>
<event>
 5    1  0.2173147E+002  0.1534037E+01  0.7818608E-02  0.3428223E+00
         11   -1    0    0    0    0  0.00000000000E+00  0.00000000000E+00  0.39999999674E+01  0.40000000000E+01  0.51100000000E-03 0.  1.
    9000002   -1    0    0    0    0 -0.00000000000E+00 -0.00000000000E+00  0.00000000000E+00  0.93800000000E+00  0.93800000000E+00 0.  1.
         11    1    1    2    0    0 -0.28644860925E+00 -0.99527973616E-01  0.52952190258E+00  0.61020679258E+00  0.51100000000E-03 0.  1.
    9000002    1    1    2    0    0  0.50085267038E+00  0.22409111927E+00  0.27266913721E+00  0.11203850613E+01  0.93800000000E+00 0.  1.
         22    1    1    2    0    0 -0.21440406113E+00 -0.12456314565E+00  0.31978089276E+01  0.32074081461E+01  0.00000000000E+00 0.  1.
</event>
<event>
 5    1  0.2173147E+002  0.1599649E+01  0.7818608E-02  0.3353744E+00
         11   -1    0    0    0    0  0.00000000000E+00  0.00000000000E+00  0.39999999674E+01  0.40000000000E+01  0.51100000000E-03 0.  1.
    9000002   -1    0    0    0    0 -0.00000000000E+00 -0.00000000000E+00  0.00000000000E+00  0.93800000000E+00  0.93800000000E+00 0.  1.
         11    1    1    2    0    0 -0.45805407274E-02  0.10538238269E-01  0.12572518597E+00  0.12625022505E+00  0.51100000000E-03 0.  1.
    9000002    1    1    2    0    0  0.19011049831E+00 -0.37293512799E+00  0.11850473877E+00  0.10339777485E+01  0.93800000000E+00 0.  1.
         22    1    1    2    0    0 -0.18552995758E+00  0.36239688972E+00  0.37557700426E+01  0.37777720265E+01  0.00000000000E+00 0.  1.
</event>
<event>
 5    1  0.2173147E+002  0.1599642E+01  0.7818608E-02  0.3353752E+00
         11   -1    0    0    0    0  0.00000000000E+00  0.00000000000E+00  0.39999999674E+01  0.40000000000E+01  0.51100000000E-03 0. -1.
    9000002   -1    0    0    0    0 -0.00000000000E+00 -0.00000000000E+00  0.00000000000E+00  0.93800000000E+00  0.93800000000E+00 0. -1.
         11    1    1    2    0    0  0.77440248724E-03 -0.56395037106E-03  0.19170048739E-01  0.19200771570E-01  0.51100000000E-03 0. -1.
    9000002    1    1    2    0    0 -0.19854509662E+00 -0.55604998778E-01  0.28180974563E-01  0.96080707669E+00  0.93800000000E+00 0. -1.
         22    1    1    2    0    0  0.19777069413E+00  0.56168949149E-01  0.39526489441E+01  0.39579921517E+01  0.00000000000E+00 0. -1.
</event>
<event>
 5    1  0.2173147E+002  0.1599584E+01  0.7818608E-02  0.3353815E+00
         11   -1    0    0    0    0  0.00000000000E+00  0.00000000000E+00  0.39999999674E+01  0.40000000000E+01  0.51100000000E-03 0.  1.
    9000002   -1    0    0    0    0 -0.00000000000E+00 -0.00000000000E+00  0.00000000000E+00  0.93800000000E+00  0.93800000000E+00 0.  1.
         11    1    1    2    0    0 -0.56303358937E+00  0.33888454405E+00  0.23798577161E+01  0.24689213367E+01  0.51100000000E-03 0.  1.
    9000002    1    1    2    0    0  0.78381989342E+00 -0.46739242150E+00  0.64115639794E+00  0.14573108205E+01  0.93800000000E+00 0.  1.
         22    1    1    2    0    0 -0.22078630405E+00  0.12850787744E+00  0.97898585331E+00  0.10117678427E+01  0.00000000000E+00 0.  1.
</event>
<event>
 5    1  0.2173147E+002  0.1588050E+01  0.7818608E-02  0.3366437E+00
         11   -1    0    0    0    0  0.00000000000E+00  0.00000000000E+00  0.39999999674E+01  0.40000000000E+01  0.51100000000E-03 0.  1.
    9000002   -1    0    0    0    0 -0.00000000000E+00 -0.00000000000E+00  0.00000000000E+00  0.93800000000E+00  0.93800000000E+00 0.  1.
         11    1    1    2    0    0  0.37330427064E-01  0.13780075617E-01  0.27148105950E+00  0.27438235741E+00  0.51100000000E-03 0.  1.
    9000002    1    1    2    0    0  0.39509435566E+00 -0.37429214437E+00  0.21535483227E+00  0.11056291707E+01  0.93800000000E+00 0.  1.
         22    1    1    2    0    0 -0.43242478272E+00  0.36051206876E+00  0.35131640756E+01  0.35579884719E+01  0.00000000000E+00 0.  1.
</event>
<event>
 5    1  0.2173147E+002  0.1540944E+01  0.7818608E-02  0.3420065E+00
         11   -1    0    0    0    0  0.00000000000E+00  0.00000000000E+00  0.39999999674E+01  0.40000000000E+01  0.51100000000E-03 0.  1.
    9000002   -1    0    0    0    0 -0.00000000000E+00 -0.00000000000E+00  0.00000000000E+00  0.93800000000E+00  0.93800000000E+00 0.  1.
         11    1    1    2    0    0  0.29540841889E+00 -0.55517741182E-01  0.27172064798E+01  0.27337812035E+01  0.51100000000E-03 0.  1.
    9000002    1    1    2    0    0 -0.46638013080E-01 -0.10477960563E-01  0.45369807596E-01  0.94031234777E+00  0.93800000000E+00 0.  1.
         22    1    1    2    0    0 -0.24877040581E+00  0.65995701745E-01  0.12374236800E+01  0.12639064488E+01  0.00000000000E+00 0. -1.
</event>
<event>
 5    1  0.2173147E+002  0.1595435E+01  0.7818608E-02  0.3358333E+00
         11   -1    0    0    0    0  0.00000000000E+00  0.00000000000E+00  0.39999999674E+01  0.40000000000E+01  0.51100000000E-03 0.  1.
    9000002   -1    0    0    0    0 -0.00000000000E+00 -0.00000000000E+00  0.00000000000E+00  0.93800000000E+00  0.93800000000E+00 0. -1.
         11    1    1    2    0    0 -0.13392559235E+00 -0.76133751784E-01  0.10091446386E+01  0.10208357239E+01  0.51100000000E-03 0.  1.
    9000002    1    1    2    0    0  0.46372554308E+00  0.31368492009E-01  0.15076459375E+00  0.10576385603E+01  0.93800000000E+00 0. -1.
         22    1    1    2    0    0 -0.32979995073E+00  0.44765259775E-01  0.28400907351E+01  0.28595257158E+01  0.00000000000E+00 0. -1.
</event>
<event>
 5    1  0.2173147E+002  0.1509695E+01  0.7818608E-02  0.3457614E+00
         11   -1    0    0    0    0  0.00000000000E+00  0.00000000000E+00  0.39999999674E+01  0.40000000000E+01  0.51100000000E-03 0.  1.
    9000002   -1    0    0    0    0 -0.00000000000E+00 -0.00000000000E+00  0.00000000000E+00  0.93800000000E+00  0.93800000000E+00 0.  1.
         11    1    1    2    0    0  0.41138774781E+00 -0.17862612055E+00  0.10766172607E+01  0.11662984855E+01  0.51100000000E-03 0.  1.
    9000002    1    1    2    0    0 -0.49466219922E+00 -0.56420206148E-01  0.25557103940E+00  0.10922611808E+01  0.93800000000E+00 0.  1.
         22    1    1    2    0    0  0.83274451410E-01  0.23504632670E+00  0.26678116672E+01  0.26794403337E+01  0.00000000000E+00 0.  1.
</event>
<event>
 5    1  0.2173147E+002  0.1599672E+01  0.7818608E-02  0.3353719E+00
         11   -1    0    0    0    0  0.00000000000E+00  0.00000000000E+00  0.39999999674E+01  0.40000000000E+01  0.51100000000E-03 0. -1.
    9000002   -1    0    0    0    0 -0.00000000000E+00 -0.00000000000E+00  0.00000000000E+00  0.93800000000E+00  0.93800000000E+00 0.  1.
         11    1    1    2    0    0  0.83979190264E-01  0.15484417159E-01  0.96669587582E+00  0.97046043146E+00  0.51100000000E-03 0. -1.
    9000002    1    1    2    0    0 -0.34651996082E+00 -0.69227129193E-01  0.83760647010E-01  0.10058470682E+01  0.93800000000E+00 0.  1.
         22    1    1    2    0    0  0.26254077056E+00  0.53742712034E-01  0.29495434445E+01  0.29616925003E+01  0.00000000000E+00 0. -1.
</event>
<event>
 5    1  0.2173147E+002  0.1599677E+01  0.7818608E-02  0.3353714E+00
         11   -1    0    0    0    0  0.00000000000E+00  0.00000000000E+00  0.39999999674E+01  0.40000000000E+01  0.51100000000E-03 0.  1.
    9000002   -1    0    0    0    0 -0.00000000000E+00 -0.00000000000E+00  0.00000000000E+00  0.93800000000E+00  0.93800000000E+00 0. -1.
         11    1    1    2    0    0  0.57753818952E-01 -0.12579660354E+00  0.15798002295E+01  0.15858528668E+01  0.51100000000E-03 0.  1.
    9000002    1    1    2    0    0 -0.14271017886E+00  0.31237016624E+00  0.79024185832E-01  0.10020130428E+01  0.93800000000E+00 0. -1.
         22    1    1    2    0    0  0.84956359910E-01 -0.18657356270E+00  0.23411755521E+01  0.23501340904E+01  0.00000000000E+00 0. -1.
</event>
<event>
 5    1  0.2173147E+002  0.1472371E+01  0.7818608E-02  0.3504713E+00
         11   -1    0    0    0    0  0.00000000000E+00  0.00000000000E+00  0.39999999674E+01  0.40000000000E+01  0.51100000000E-03 0. -1.
    9000002   -1    0    0    0    0 -0.00000000000E+00 -0.00000000000E+00  0.00000000000E+00  0.93800000000E+00  0.93800000000E+00 0.  1.
         11    1    1    2    0    0 -0.20626617211E-01 -0.36278924472E+00  0.80870043533E+00  0.88658792494E+00  0.51100000000E-03 0. -1.
    9000002    1    1    2    0    0  0.17127737352E+00  0.45914146712E-01  0.12229427588E+00  0.96241567810E+00  0.93800000000E+00 0.  1.
         22    1    1    2    0    0 -0.15065075631E+00  0.31687509801E+00  0.30690052562E+01  0.30889963970E+01  0.00000000000E+00 0. -1.
</event>
<event>
 5    1  0.2173147E+002  0.1598086E+01  0.7818608E-02  0.3355444E+00
         11   -1    0    0    0    0  0.00000000000E+00  0.00000000000E+00  0.39999999674E+01  0.40000000000E+01  0.51100000000E-03 0.  1.
    9000002   -1    0    0    0    0 -0.00000000000E+00 -0.00000000000E+00  0.00000000000E+00  0.93800000000E+00  0.93800000000E+00 0. -1.
         11    1    1    2    0    0  0.15674624831E-01 -0.48286494086E-01  0.43990017122E+00  0.44282016794E+00  0.51100000000E-03 0.  1.
    9000002    1    1    2    0    0  0.74268667280E-01  0.26745261907E+00  0.52528470731E-01  0.97961726129E+00  0.93800000000E+00 0. -1.
         22    1    1    2    0    0 -0.89943292111E-01 -0.21916612499E+00  0.35075713254E+01  0.35155625708E+01  0.00000000000E+00 0.  1.
</event>
<event>
 5    1  0.2173147E+002  0.1599579E+01  0.7818608E-02  0.3353821E+00
         11   -1    0    0    0    0  0.00000000000E+00  0.00000000000E+00  0.39999999674E+01  0.40000000000E+01  0.51100000000E-03 0.  1.
    9000002   -1    0    0    0    0 -0.00000000000E+00 -0.00000000000E+00  0.00000000000E+00  0.93800000000E+00  0.93800000000E+00 0.  1.
         11    1    1    2    0    0  0.19904586853E-01  0.72782941570E-01  0.93620655052E+00  0.93924252221E+00  0.51100000000E-03 0.  1.
    9000002    1    1    2    0    0 -0.63517069089E-01 -0.26930984187E+00  0.51045521297E-01  0.97929150626E+00  0.93800000000E+00 0.  1.
         22    1    1    2    0    0  0.43612482236E-01  0.19652690030E+00  0.30127478955E+01  0.30194659715E+01  0.00000000000E+00 0.  1.
</event>
<event>
 5    1  0.2173147E+002  0.1599515E+01  0.7818608E-02  0.3353890E+00
         11   -1    0    0    0    0  0.00000000000E+00  0.00000000000E+00  0.39999999674E+01  0.40000000000E+01  0.51100000000E-03 0.  1.
    9000002   -1    0    0    0    0 -0.00000000000E+00 -0.00000000000E+00  0.00000000000E+00  0.93800000000E+00  0.93800000000E+00 0. -1.
         11    1    1    2    0    0 -0.40328541686E-01 -0.19299080271E-01  0.59835274458E+00  0.60002092784E+00  0.51100000000E-03 0.  1.
    9000002    1    1    2    0    0  0.24996702138E+00  0.56904377271E-01  0.43804188455E-01  0.97338811728E+00  0.93800000000E+00 0. -1.
         22    1    1    2    0    0 -0.20963847970E+00 -0.37605297000E-01  0.33578430343E+01  0.33645909549E+01  0.00000000000E+00 0.  1.
</event>
<event>
 5    1  0.2173147E+002  0.1599658E+01  0.7818608E-02  0.3353734E+00
         11   -1    0    0    0    0  0.00000000000E+00  0.00000000000E+00  0.39999999674E+01  0.40000000000E+01  0.51100000000E-03 0. -1.
    9000002   -1    0    0    0    0 -0.00000000000E+00 -0.00000000000E+00  0.00000000000E+00  0.93800000000E+00  0.93800000000E+00 0.  1.
         11    1    1    2    0    0 -0.12557411372E-02 -0.18834142134E-02  0.59525273285E-01  0.59570491147E-01  0.51100000000E-03 0.  1.
    9000002    1    1    2    0    0  0.15682703634E+00  0.15078006662E+00  0.31381726871E-01  0.96340965357E+00  0.93800000000E+00 0.  1.
         22    1    1    2    0    0 -0.15557129520E+00 -0.14889665241E+00  0.39090929672E+01  0.39150198553E+01  0.00000000000E+00 0. -1.
</event>
<event>
 5    1  0.2173147E+002  0.1599675E+01  0.7818608E-02  0.3353716E+00
         11   -1    0    0    0    0  0.00000000000E+00  0.00000000000E+00  0.39999999674E+01  0.40000000000E+01  0.51100000000E-03 0. -1.
    9000002   -1    0    0    0    0 -0.00000000000E+00 -0.00000000000E+00  0.00000000000E+00  0.93800000000E+00  0.93800000000E+00 0. -1.
         11    1    1    2    0    0  0.13973348033E+00 -0.64142495413E-01  0.15246663737E+01  0.15323992683E+01  0.51100000000E-03 0. -1.
    9000002    1    1    2    0    0 -0.35559159971E+00  0.16048477269E+00  0.10253564086E+00  0.10210574449E+01  0.93800000000E+00 0. -1.
         22    1    1    2    0    0  0.21585811938E+00 -0.96342277274E-01  0.23727979528E+01  0.23845432868E+01  0.00000000000E+00 0. -1.
</event>
<event>
 5    1  0.2173147E+002  0.1599113E+01  0.7818608E-02  0.3354326E+00
         11   -1    0    0    0    0  0.00000000000E+00  0.00000000000E+00  0.39999999674E+01  0.40000000000E+01  0.51100000000E-03 0.  1.
    9000002   -1    0    0    0    0 -0.00000000000E+00 -0.00000000000E+00  0.00000000000E+00  0.93800000000E+00  0.93800000000E+00 0. -1.
         11    1    1    2    0    0  0.55461390189E-01  0.37260469922E+00  0.24050374928E+01  0.24343614831E+01  0.51100000000E-03 0.  1.
    9000002    1    1    2    0    0 -0.12160402955E+00 -0.60257838719E+00  0.26506724717E+00  0.11523857419E+01  0.93800000000E+00 0. -1.
         22    1    1    2    0    0  0.66142639357E-01  0.22997368797E+00  0.13298952274E+01  0.13512527749E+01  0.00000000000E+00 0.  1.
</event>
<event>
 5    1  0.2173147E+002  0.1599658E+01  0.7818608E-02  0.3353734E+00
         11   -1    0    0    0    0  0.00000000000E+00  0.00000000000E+00  0.39999999674E+01  0.40000000000E+01  0.51100000000E-03 0.  1.
    9000002   -1    0    0    0    0 -0.00000000000E+00 -0.00000000000E+00  0.00000000000E+00  0.93800000000E+00  0.93800000000E+00 0. -1.
         11    1    1    2    0    0 -0.12994019032E+00  0.32025197339E-01  0.66353751249E+00  0.67689907514E+00  0.51100000000E-03 0.  1.
    9000002    1    1    2    0    0  0.69786821750E+00 -0.19348591759E+00  0.37735428498E+00  0.12436627781E+01  0.93800000000E+00 0. -1.
         22    1    1    2    0    0 -0.56792802718E+00  0.16146072025E+00  0.29591081699E+01  0.30174381467E+01  0.00000000000E+00 0.  1.
</event>
<event>
 5    1  0.2173147E+002  0.1599369E+01  0.7818608E-02  0.3354049E+00
         11   -1    0    0    0    0  0.00000000000E+00  0.00000000000E+00  0.39999999674E+01  0.40000000000E+01  0.51100000000E-03 0.  1.
    9000002   -1    0    0    0    0 -0.00000000000E+00 -0.00000000000E+00  0.00000000000E+00  0.93800000000E+00  0.93800000000E+00 0.  1.
         11    1    1    2    0    0 -0.24112134699E+00 -0.28446830357E+00  0.23778381512E+01  0.24069017957E+01  0.51100000000E-03 0.  1.
    9000002    1    1    2    0    0  0.40121301086E+00  0.46953539251E+00  0.26746325775E+00  0.11544764870E+01  0.93800000000E+00 0.  1.
         22    1    1    2    0    0 -0.16009166386E+00 -0.18506708894E+00  0.13546985584E+01  0.13766217173E+01  0.00000000000E+00 0.  1.
</event>
<event>
 5    1  0.2173147E+002  0.1597096E+01  0.7818608E-02  0.3356521E+00
         11   -1    0    0    0    0  0.00000000000E+00  0.00000000000E+00  0.39999999674E+01  0.40000000000E+01  0.51100000000E-03 0. -1.
    9000002   -1    0    0    0    0 -0.00000000000E+00 -0.00000000000E+00  0.00000000000E+00  0.93800000000E+00  0.93800000000E+00 0.  1.
         11    1    1    2    0    0  0.23158991990E+00 -0.35155518789E+00  0.13914848567E+01  0.14537727844E+01  0.51100000000E-03 0. -1.
    9000002    1    1    2    0    0 -0.43739578867E+00  0.77590348762E+00  0.60875143603E+00  0.14296026052E+01  0.93800000000E+00 0.  1.
         22    1    1    2    0    0  0.20580586876E+00 -0.42434829973E+00  0.19997636746E+01  0.20546246103E+01  0.00000000000E+00 0.  1.
</event>
<event>
 5    1  0.2173147E+002  0.1599677E+01  0.7818608E-02  0.3353714E+00
         11   -1    0    0    0    0  0.00000000000E+00  0.00000000000E+00  0.39999999674E+01  0.40000000000E+01  0.51100000000E-03 0.  1.
    9000002   -1    0    0    0    0 -0.00000000000E+00 -0.00000000000E+00  0.00000000000E+00  0.93800000000E+00  0.93800000000E+00 0. -1.
         11    1    1    2    0    0  0.31036820393E-01  0.40387220043E-02  0.45664478025E+00  0.45771640996E+00  0.51100000000E-03 0. -1.
    9000002    1    1    2    0    0 -0.26892146352E+00 -0.34819364655E-01  0.48929027777E-01  0.97763448766E+00  0.93800000000E+00 0. -1.
         22    1    1    2    0    0  0.23788464313E+00  0.30780642651E-01  0.34944261593E+01  0.35026491024E+01  0.00000000000E+00 0.  1.
</event>
<event>
 5    1  0.2173147E+002  0.1590811E+01  0.7818608E-02  0.3363398E+00
         11   -1    0    0    0    0  0.00000000000E+00  0.00000000000E+00  0.39999999674E+01  0.40000000000E+01  0.51100000000E-03 0.  1.
    9000002   -1    0    0    0    0 -0.00000000000E+00 -0.00000000000E+00  0.00000000000E+00  0.93800000000E+00  0.93800000000E+00 0. -1.
         11    1    1    2    0    0 -0.24343019643E-01 -0.27428409877E-01  0.19920347921E+00  0.20255169099E+00  0.51100000000E-03 0.  1.
    9000002    1    1    2    0    0 -0.38478814266E+00  0.74160767861E-01  0.11084572865E+00  0.10225910765E+01  0.93800000000E+00 0. -1.
         22    1    1    2    0    0  0.40913116231E+00 -0.46732357984E-01  0.36899507595E+01  0.37128572325E+01  0.00000000000E+00 0.  1.
</event>
<event>
 5    1  0.2173147E+002  0.1599660E+01  0.7818608E-02  0.3353733E+00
         11   -1    0    0    0    0  0.00000000000E+00  0.00000000000E+00  0.39999999674E+01  0.40000000000E+01  0.51100000000E-03 0.  1.
    9000002   -1    0    0    0    0 -0.00000000000E+00 -0.00000000000E+00  0.00000000000E+00  0.93800000000E+00  0.93800000000E+00 0. -1.
         11    1    1    2    0    0 -0.11072589096E-01 -0.23046861466E-02  0.63238811834E-01  0.64244239046E-01  0.51100000000E-03 0.  1.
    9000002    1    1    2    0    0  0.65872257669E+00  0.65627205422E-01  0.31015224533E+00  0.11892269667E+01  0.93800000000E+00 0. -1.
         22    1    1    2    0    0 -0.64764998759E+00 -0.63322519276E-01  0.36266089102E+01  0.36845287942E+01  0.00000000000E+00 0.  1.
</event>
<event>
 5    1  0.2173147E+002  0.1527347E+01  0.7818608E-02  0.3436201E+00
         11   -1    0    0    0    0  0.00000000000E+00  0.00000000000E+00  0.39999999674E+01  0.40000000000E+01  0.51100000000E-03 0. -1.
    9000002   -1    0    0    0    0 -0.00000000000E+00 -0.00000000000E+00  0.00000000000E+00  0.93800000000E+00  0.93800000000E+00 0.  1.
         11    1    1    2    0    0  0.70017976401E-01  0.24279115130E+00  0.73288321824E+00  0.77522134443E+00  0.51100000000E-03 0. -1.
    9000002    1    1    2    0    0 -0.24010745259E+00  0.56631594141E-01  0.97809042188E-01  0.97481759062E+00  0.93800000000E+00 0.  1.
         22    1    1    2    0    0  0.17008947619E+00 -0.29942274544E+00  0.31693077069E+01  0.31879610649E+01  0.00000000000E+00 0. -1.
</event>
<event>
 5    1  0.2173147E+002  0.1598777E+01  0.7818608E-02  0.3354691E+00
         11   -1    0    0    0    0  0.00000000000E+00  0.00000000000E+00  0.39999999674E+01  0.40000000000E+01  0.51100000000E-03 0.  1.
    9000002   -1    0    0    0    0 -0.00000000000E+00 -0.00000000000E+00  0.00000000000E+00  0.93800000000E+00  0.93800000000E+00 0.  1.
         11    1    1    2    0    0 -0.75263886253E-01 -0.72443974721E-01  0.97988833474E+00  0.98544111530E+00  0.51100000000E-03 0.  1.
    9000002    1    1    2    0    0  0.18638643528E+00  0.24247111034E+00  0.63137268115E-01  0.98861643585E+00  0.93800000000E+00 0.  1.
         22    1    1    2    0    0 -0.11112254903E+00 -0.17002713561E+00  0.29569743645E+01  0.29639424488E+01  0.00000000000E+00 0.  1.
</event>
<event>
 5    1  0.2173147E+002  0.1599661E+01  0.7818608E-02  0.3353731E+00
         11   -1    0    0    0    0  0.00000000000E+00  0.00000000000E+00  0.39999999674E+01  0.40000000000E+01  0.51100000000E-03 0. -1.
    9000002   -1    0    0    0    0 -0.00000000000E+00 -0.00000000000E+00  0.00000000000E+00  0.93800000000E+00  0.93800000000E+00 0. -1.
         11    1    1    2    0    0 -0.35367317902E-02 -0.19367259186E-01  0.26731893507E+00  0.26804341694E+00  0.51100000000E-03 0. -1.
    9000002    1    1    2    0    0  0.55928506900E-01  0.31965180445E+00  0.70430751734E-01  0.99504259445E+00  0.93800000000E+00 0. -1.
         22    1    1    2    0    0 -0.52391775110E-01 -0.30028454527E+00  0.36622502806E+01  0.36749139886E+01  0.00000000000E+00 0. -1.
</event>
<event>
 5    1  0.2173147E+002  0.1599629E+01  0.7818608E-02  0.3353767E+00
         11   -1    0    0    0    0  0.00000000000E+00  0.00000000000E+00  0.39999999674E+01  0.40000000000E+01  0.51100000000E-03 0. -1.
    9000002   -1    0    0    0    0 -0.00000000000E+00 -0.00000000000E+00  0.00000000000E+00  0.93800000000E+00  0.93800000000E+00 0.  1.
         11    1    1    2    0    0  0.27012083577E-01 -0.62508198191E-01  0.78092410358E+00  0.78388752010E+00  0.51100000000E-03 0. -1.
    9000002    1    1    2    0    0 -0.10271596876E+00  0.32013251149E+00  0.75717398586E-01  0.99930601900E+00  0.93800000000E+00 0.  1.
         22    1    1    2    0    0  0.75703885187E-01 -0.25762431330E+00  0.31433584652E+01  0.31548064609E+01  0.00000000000E+00 0. -1.
</event>
<event>
 5    1  0.2173147E+002  0.1577103E+01  0.7818608E-02  0.3378596E+00
         11   -1    0    0    0    0  0.00000000000E+00  0.00000000000E+00  0.39999999674E+01  0.40000000000E+01  0.51100000000E-03 0. -1.
    9000002   -1    0    0    0    0 -0.00000000000E+00 -0.00000000000E+00  0.00000000000E+00  0.93800000000E+00  0.93800000000E+00 0. -1.
         11    1    1    2    0    0  0.13992047781E+00  0.89879580557E-03  0.28631363800E+01  0.28665534600E+01  0.51100000000E-03 0. -1.
    9000002    1    1    2    0    0 -0.16391508801E+00  0.21895945719E+00  0.67435653347E-01  0.97938907862E+00  0.93800000000E+00 0. -1.
         22    1    1    2    0    0  0.23994610210E-01 -0.21985825299E+00  0.10694279341E+01  0.10920574613E+01  0.00000000000E+00 0. -1.
</event>
<event>
 5    1  0.2173147E+002  0.1594913E+01  0.7818608E-02  0.3358903E+00
         11   -1    0    0    0    0  0.00000000000E+00  0.00000000000E+00  0.39999999674E+01  0.40000000000E+01  0.51100000000E-03 0.  1.
    9000002   -1    0    0    0    0 -0.00000000000E+00 -0.00000000000E+00  0.00000000000E+00  0.93800000000E+00  0.93800000000E+00 0. -1.
         11    1    1    2    0    0  0.11421509520E+00  0.35877046204E-01  0.17147076653E+01  0.17188818718E+01  0.51100000000E-03 0.  1.
    9000002    1    1    2    0    0 -0.27382838693E+00  0.10646346370E+00  0.61275803367E-01  0.98484271773E+00  0.93800000000E+00 0. -1.
         22    1    1    2    0    0  0.15961329173E+00 -0.14234050991E+00  0.22240164987E+01  0.22342754105E+01  0.00000000000E+00 0.  1.
</event>
<event>
 5    1  0.2173147E+002  0.1597995E+01  0.7818608E-02  0.3355542E+00
         11   -1    0    0    0    0  0.00000000000E+00  0.00000000000E+00  0.39999999674E+01  0.40000000000E+01  0.51100000000E-03 0.  1.
    9000002   -1    0    0    0    0 -0.00000000000E+00 -0.00000000000E+00  0.00000000000E+00  0.93800000000E+00  0.93800000000E+00 0.  1.
         11    1    1    2    0    0 -0.72662097281E-02  0.74897251337E-01  0.11385896714E+01  0.11410736598E+01  0.51100000000E-03 0.  1.
    9000002    1    1    2    0    0 -0.60286135032E-01 -0.38469874393E+00  0.10352888722E+00  0.10208769623E+01  0.93800000000E+00 0.  1.
         22    1    1    2    0    0  0.67552344760E-01  0.30980149259E+00  0.27578814087E+01  0.27760493779E+01  0.00000000000E+00 0.  1.
</event>
<event>
 5    1  0.2173147E+002  0.1599084E+01  0.7818608E-02  0.3354359E+00
         11   -1    0    0    0    0  0.00000000000E+00  0.00000000000E+00  0.39999999674E+01  0.40000000000E+01  0.51100000000E-03 0.  1.
    9000002   -1    0    0    0    0 -0.00000000000E+00 -0.00000000000E+00  0.00000000000E+00  0.93800000000E+00  0.93800000000E+00 0. -1.
         11    1    1    2    0    0 -0.10979827548E+00  0.89652958217E-01  0.11118420017E+01  0.11208417427E+01  0.51100000000E-03 0.  1.
    9000002    1    1    2    0    0  0.42671035844E+00 -0.23104331164E+00  0.16132386714E+00  0.10683314710E+01  0.93800000000E+00 0. -1.
         22    1    1    2    0    0 -0.31691208296E+00  0.14139035342E+00  0.27268340985E+01  0.27488267863E+01  0.00000000000E+00 0.  1.
</event>
<event>
 5    1  0.2173147E+002  0.1599676E+01  0.7818608E-02  0.3353716E+00
         11   -1    0    0    0    0  0.00000000000E+00  0.00000000000E+00  0.39999999674E+01  0.40000000000E+01  0.51100000000E-03 0.  1.
    9000002   -1    0    0    0    0 -0.00000000000E+00 -0.00000000000E+00  0.00000000000E+00  0.93800000000E+00  0.93800000000E+00 0.  1.
         11    1    1    2    0    0 -0.24691054842E+00 -0.45976439751E+00  0.25909201490E+01  0.26429558452E+01  0.51100000000E-03 0.  1.
    9000002    1    1    2    0    0  0.34327965165E+00  0.64307530815E+00  0.38284183693E+00  0.12481180406E+01  0.93800000000E+00 0.  1.
         22    1    1    2    0    0 -0.96369103229E-01 -0.18331091063E+00  0.10262379815E+01  0.10469261142E+01  0.00000000000E+00 0. -1.
</event>
<event>
 5    1  0.2173147E+002  0.1599670E+01  0.7818608E-02  0.3353722E+00
         11   -1    0    0    0    0  0.00000000000E+00  0.00000000000E+00  0.39999999674E+01  0.40000000000E+01  0.51100000000E-03 0.  1.
    9000002   -1    0    0    0    0 -0.00000000000E+00 -0.00000000000E+00  0.00000000000E+00  0.93800000000E+00  0.93800000000E+00 0. -1.
         11    1    1    2    0    0  0.34410978296E-01  0.18727168639E-02  0.55507889677E+00  0.55614788074E+00  0.51100000000E-03 0.  1.
    9000002    1    1    2    0    0 -0.23900523239E+00  0.68380995825E-03  0.37921005323E-01  0.96871356517E+00  0.93800000000E+00 0. -1.
         22    1    1    2    0    0  0.20459425409E+00 -0.25565268222E-02  0.34070000653E+01  0.34131385541E+01  0.00000000000E+00 0.  1.
</event>
<event>
 5    1  0.2173147E+002  0.1589377E+01  0.7818608E-02  0.3364975E+00
         11   -1    0    0    0    0  0.00000000000E+00  0.00000000000E+00  0.39999999674E+01  0.40000000000E+01  0.51100000000E-03 0.  1.
    9000002   -1    0    0    0    0 -0.00000000000E+00 -0.00000000000E+00  0.00000000000E+00  0.93800000000E+00  0.93800000000E+00 0. -1.
         11    1    1    2    0    0 -0.67685343381E-01  0.16898680423E+00  0.16604175041E+01  0.16703665450E+01  0.51100000000E-03 0.  1.
    9000002    1    1    2    0    0 -0.12374442397E+00 -0.37662334046E+00  0.11455647109E+00  0.10247560725E+01  0.93800000000E+00 0. -1.
         22    1    1    2    0    0  0.19142976735E+00  0.20763653623E+00  0.22250259922E+01  0.22428773825E+01  0.00000000000E+00 0.  1.
</event>
<event>
 5    1  0.2173147E+002  0.1544890E+01  0.7818608E-02  0.3415440E+00
         11   -1    0    0    0    0  0.00000000000E+00  0.00000000000E+00  0.39999999674E+01  0.40000000000E+01  0.51100000000E-03 0.  1.
    9000002   -1    0    0    0    0 -0.00000000000E+00 -0.00000000000E+00  0.00000000000E+00  0.93800000000E+00  0.93800000000E+00 0.  1.
         11    1    1    2    0    0 -0.40962207296E-01 -0.13650191321E+00  0.28872945822E+00  0.32198701200E+00  0.51100000000E-03 0.  1.
    9000002    1    1    2    0    0 -0.73176565298E-01 -0.79852986643E-01  0.48916525566E-01  0.94549888189E+00  0.93800000000E+00 0.  1.
         22    1    1    2    0    0  0.11413877259E+00  0.21635489985E+00  0.36623539836E+01  0.36705141061E+01  0.00000000000E+00 0.  1.
</event>
<event>
 5    1  0.2173147E+002  0.1599677E+01  0.7818608E-02  0.3353714E+00
         11   -1    0    0    0    0  0.00000000000E+00  0.00000000000E+00  0.39999999674E+01  0.40000000000E+01  0.51100000000E-03 0. -1.
    9000002   -1    0    0    0    0 -0.00000000000E+00 -0.00000000000E+00  0.00000000000E+00  0.93800000000E+00  0.93800000000E+00 0.  1.
         11    1    1    2    0    0 -0.10545927230E+00  0.54757424638E-01  0.14451963715E+01  0.14500733936E+01  0.51100000000E-03 0.  1.
    9000002    1    1    2    0    0  0.28721185036E+00 -0.14855047805E+00  0.69910110829E-01  0.99463024040E+00  0.93800000000E+00 0.  1.
         22    1    1    2    0    0 -0.18175257806E+00  0.93793053412E-01  0.24848934851E+01  0.24932963660E+01  0.00000000000E+00 0. -1.
</event>
<event>
 5    1  0.2173147E+002  0.1596009E+01  0.7818608E-02  0.3357706E+00
         11   -1    0    0    0    0  0.00000000000E+00  0.00000000000E+00  0.39999999674E+01  0.40000000000E+01  0.51100000000E-03 0.  1.
    9000002   -1    0    0    0    0 -0.00000000000E+00 -0.00000000000E+00  0.00000000000E+00  0.93800000000E+00  0.93800000000E+00 0. -1.
         11    1    1    2    0    0 -0.26220282901E-01  0.62021294792E-01  0.16863064840E+01  0.16876504269E+01  0.51100000000E-03 0.  1.
    9000002    1    1    2    0    0 -0.82530587813E-01 -0.23435903560E+00  0.43811681020E-01  0.97133872510E+00  0.93800000000E+00 0. -1.
         22    1    1    2    0    0  0.10875087071E+00  0.17233774081E+00  0.22698818023E+01  0.22790108480E+01  0.00000000000E+00 0.  1.
</event>
<event>
 5    1  0.2173147E+002  0.1599587E+01  0.7818608E-02  0.3353812E+00
         11   -1    0    0    0    0  0.00000000000E+00  0.00000000000E+00  0.39999999674E+01  0.40000000000E+01  0.51100000000E-03 0. -1.
    9000002   -1    0    0    0    0 -0.00000000000E+00 -0.00000000000E+00  0.00000000000E+00  0.93800000000E+00  0.93800000000E+00 0. -1.
         11    1    1    2    0    0 -0.72220651087E-01  0.13784258001E-01  0.10290372523E+01  0.10316606787E+01  0.51100000000E-03 0. -1.
    9000002    1    1    2    0    0  0.27316097627E+00 -0.14582399043E-01  0.49872610800E-01  0.97834597287E+00  0.93800000000E+00 0. -1.
         22    1    1    2    0    0 -0.20094032519E+00  0.79814104200E-03  0.29210901042E+01  0.29279933484E+01  0.00000000000E+00 0. -1.
</event>
<event>
 5    1  0.2173147E+002  0.1599676E+01  0.7818608E-02  0.3353715E+00
         11   -1    0    0    0    0  0.00000000000E+00  0.00000000000E+00  0.39999999674E+01  0.40000000000E+01  0.51100000000E-03 0. -1.
    9000002   -1    0    0    0    0 -0.00000000000E+00 -0.00000000000E+00  0.00000000000E+00  0.93800000000E+00  0.93800000000E+00 0.  1.
         11    1    1    2    0    0  0.13795507882E-01  0.64496780296E-01  0.99310790777E+00  0.99529579940E+00  0.51100000000E-03 0. -1.
    9000002    1    1    2    0    0 -0.55259322036E-01 -0.26059249311E+00  0.47201353932E-01  0.97623460702E+00  0.93800000000E+00 0.  1.
         22    1    1    2    0    0  0.41463814154E-01  0.19609571281E+00  0.29596907057E+01  0.29664695936E+01  0.00000000000E+00 0. -1.
</event>
<event>
 5    1  0.2173147E+002  0.1599675E+01  0.7818608E-02  0.3353716E+00
         11   -1    0    0    0    0  0.00000000000E+00  0.00000000000E+00  0.39999999674E+01  0.40000000000E+01  0.51100000000E-03 0. -1.
    9000002   -1    0    0    0    0 -0.00000000000E+00 -0.00000000000E+00  0.00000000000E+00  0.93800000000E+00  0.93800000000E+00 0. -1.
         11    1    1    2    0    0  0.86574175917E-01 -0.38867643294E-01  0.12210713711E+01  0.12247535818E+01  0.51100000000E-03 0. -1.
    9000002    1    1    2    0    0 -0.27772294651E+00  0.12034595378E+00  0.61133257277E-01  0.98751934602E+00  0.93800000000E+00 0. -1.
         22    1    1    2    0    0  0.19114877059E+00 -0.81478310490E-01  0.27177953390E+01  0.27257270722E+01  0.00000000000E+00 0. -1.
</event>
<event>
 5    1  0.2173147E+002  0.1521646E+01  0.7818608E-02  0.3443058E+00
         11   -1    0    0    0    0  0.00000000000E+00  0.00000000000E+00  0.39999999674E+01  0.40000000000E+01  0.51100000000E-03 0. -1.
    9000002   -1    0    0    0    0 -0.00000000000E+00 -0.00000000000E+00  0.00000000000E+00  0.93800000000E+00  0.93800000000E+00 0.  1.
         11    1    1    2    0    0  0.40361871698E-01 -0.20785915039E+00  0.48289401728E+00  0.52727734650E+00  0.51100000000E-03 0. -1.
    9000002    1    1    2    0    0 -0.60575561716E-01 -0.10978670440E+00  0.69973777589E-01  0.94892720937E+00  0.93800000000E+00 0.  1.
         22    1    1    2    0    0  0.20213690017E-01  0.31764585480E+00  0.34471321725E+01  0.34617954441E+01  0.00000000000E+00 0. -1.
</event>
<event>
 5    1  0.2173147E+002  0.1599677E+01  0.7818608E-02  0.3353714E+00
         11   -1    0    0    0    0  0.00000000000E+00  0.00000000000E+00  0.39999999674E+01  0.40000000000E+01  0.51100000000E-03 0.  1.
    9000002   -1    0    0    0    0 -0.00000000000E+00 -0.00000000000E+00  0.00000000000E+00  0.93800000000E+00  0.93800000000E+00 0.  1.
         11    1    1    2    0    0  0.17019833691E-01 -0.42469284462E-01  0.70885879043E+00  0.71033397832E+00  0.51100000000E-03 0. -1.
    9000002    1    1    2    0    0 -0.95746150629E-01  0.23637303461E+00  0.43222067961E-01  0.97301165667E+00  0.93800000000E+00 0.  1.
         22    1    1    2    0    0  0.78726316938E-01 -0.19390375015E+00  0.32479191090E+01  0.32546543650E+01  0.00000000000E+00 0.  1.
</event>
<event>
 5    1  0.2173147E+002  0.1599550E+01  0.7818608E-02  0.3353851E+00
         11   -1    0    0    0    0  0.00000000000E+00  0.00000000000E+00  0.39999999674E+01  0.40000000000E+01  0.51100000000E-03 0.  1.
    9000002   -1    0    0    0    0 -0.00000000000E+00 -0.00000000000E+00  0.00000000000E+00  0.93800000000E+00  0.93800000000E+00 0.  1.
         11    1    1    2    0    0 -0.11171353450E+00 -0.85598190040E-01  0.84952838908E+00  0.86110725749E+00  0.51100000000E-03 0.  1.
    9000002    1    1    2    0    0  0.46390451736E+00  0.34036986283E+00  0.22992392745E+00  0.11241743891E+01  0.93800000000E+00 0.  1.
         22    1    1    2    0    0 -0.35219098286E+00 -0.25477167279E+00  0.29205476508E+01  0.29527183534E+01  0.00000000000E+00 0.  1.
</event>
<event>
 5    1  0.2173147E+002  0.1578828E+01  0.7818608E-02  0.3376668E+00
         11   -1    0    0    0    0  0.00000000000E+00  0.00000000000E+00  0.39999999674E+01  0.40000000000E+01  0.51100000000E-03 0.  1.
    9000002   -1    0    0    0    0 -0.00000000000E+00 -0.00000000000E+00  0.00000000000E+00  0.93800000000E+00  0.93800000000E+00 0. -1.
         11    1    1    2    0    0  0.75422955142E-01 -0.59154668311E-02  0.23904457178E+01  0.23916426585E+01  0.51100000000E-03 0.  1.
    9000002    1    1    2    0    0  0.12543604582E+00 -0.12066566531E+00  0.35682131025E-01  0.95467880402E+00  0.93800000000E+00 0. -1.
         22    1    1    2    0    0 -0.20085900096E+00  0.12658113215E+00  0.15738721185E+01  0.15916785375E+01  0.00000000000E+00 0.  1.
</event>
<event>
 5    1  0.2173147E+002  0.1599662E+01  0.7818608E-02  0.3353730E+00
         11   -1    0    0    0    0  0.00000000000E+00  0.00000000000E+00  0.39999999674E+01  0.40000000000E+01  0.51100000000E-03 0.  1.
    9000002   -1    0    0    0    0 -0.00000000000E+00 -0.00000000000E+00  0.00000000000E+00  0.93800000000E+00  0.93800000000E+00 0. -1.
         11    1    1    2    0    0 -0.10761934433E+00  0.15467477913E+00  0.14941770380E+01  0.15060117836E+01  0.51100000000E-03 0.  1.
    9000002    1    1    2    0    0  0.26567317591E+00 -0.39537337429E+00  0.15474270176E+00  0.10633398541E+01  0.93800000000E+00 0. -1.
         22    1    1    2    0    0 -0.15805383158E+00  0.24069859517E+00  0.23510802277E+01  0.23686483623E+01  0.00000000000E+00 0.  1.
</event>
<event>
 5    1  0.2173147E+002  0.1597636E+01  0.7818608E-02  0.3355933E+00
         11   -1    0    0    0    0  0.00000000000E+00  0.00000000000E+00  0.39999999674E+01  0.40000000000E+01  0.51100000000E-03 0.  1.
    9000002   -1    0    0    0    0 -0.00000000000E+00 -0.00000000000E+00  0.00000000000E+00  0.93800000000E+00  0.93800000000E+00 0.  1.
         11    1    1    2    0    0  0.24364980742E-01  0.11098431876E+00  0.11050703007E+01  0.11108968457E+01  0.51100000000E-03 0.  1.
    9000002    1    1    2    0    0  0.84803692680E-01 -0.36505616693E+00  0.96117129606E-01  0.10146625912E+01  0.93800000000E+00 0.  1.
         22    1    1    2    0    0 -0.10916867342E+00  0.25407184817E+00  0.27988125371E+01  0.28124405631E+01  0.00000000000E+00 0.  1.
</event>
<event>
 5    1  0.5232909E+002  0.1554066E+01  0.7818608E-02  0.3404779E+00
         11   -1    0    0    0    0  0.00000000000E+00  0.00000000000E+00  0.39999999674E+01  0.40000000000E+01  0.51100000000E-03 0. -1.
    9000002   -1    0    0    0    0 -0.00000000000E+00 -0.00000000000E+00  0.00000000000E+00  0.93800000000E+00  0.93800000000E+00 0. -1.
         11    1    1    2    0    0  0.17912070521E+00  0.45729942132E-01  0.63263224762E+00  0.65908973326E+00  0.51100000000E-03 0. -1.
    9000002    1    1    2    0    0  0.35622392457E-01 -0.27163487701E-01  0.35148062230E-01  0.93972666036E+00  0.93800000000E+00 0. -1.
         22    1    1    2    0    0 -0.21474309767E+00 -0.18566454430E-01  0.33322196575E+01  0.33391836064E+01  0.00000000000E+00 0. -1.
</event>
<event>
 5    1  0.2173147E+002  0.1599559E+01  0.7818608E-02  0.3353842E+00
         11   -1    0    0    0    0  0.00000000000E+00  0.00000000000E+00  0.39999999674E+01  0.40000000000E+01  0.51100000000E-03 0.  1.
    9000002   -1    0    0    0    0 -0.00000000000E+00 -0.00000000000E+00  0.00000000000E+00  0.93800000000E+00  0.93800000000E+00 0. -1.
         11    1    1    2    0    0 -0.49879244987E-01  0.37521018893E-01  0.66285343347E+00  0.66578577735E+00  0.51100000000E-03 0.  1.
    9000002    1    1    2    0    0  0.24529537557E+00 -0.19421144290E+00  0.65475249481E-01  0.99096867464E+00  0.93800000000E+00 0. -1.
         22    1    1    2    0    0 -0.19541613059E+00  0.15669042401E+00  0.32716712844E+01  0.32812455480E+01  0.00000000000E+00 0.  1.
</event>
<event>
 5    1  0.2173147E+002  0.1577757E+01  0.7818608E-02  0.3377865E+00
         11   -1    0    0    0    0  0.00000000000E+00  0.00000000000E+00  0.39999999674E+01  0.40000000000E+01  0.51100000000E-03 0.  1.
    9000002   -1    0    0    0    0 -0.00000000000E+00 -0.00000000000E+00  0.00000000000E+00  0.93800000000E+00  0.93800000000E+00 0. -1.
         11    1    1    2    0    0  0.15148130333E-01 -0.14874472496E+00  0.57190537810E+00  0.59112645151E+00  0.51100000000E-03 0.  1.
    9000002    1    1    2    0    0 -0.37447245138E+00  0.18935677238E+00  0.13781764913E+00  0.10367850831E+01  0.93800000000E+00 0. -1.
         22    1    1    2    0    0  0.35932432105E+00 -0.40612047418E-01  0.32902769401E+01  0.33100884654E+01  0.00000000000E+00 0.  1.
</event>
<event>
 5    1  0.2173147E+002  0.1578269E+01  0.7818608E-02  0.3377292E+00
         11   -1    0    0    0    0  0.00000000000E+00  0.00000000000E+00  0.39999999674E+01  0.40000000000E+01  0.51100000000E-03 0.  1.
    9000002   -1    0    0    0    0 -0.00000000000E+00 -0.00000000000E+00  0.00000000000E+00  0.93800000000E+00  0.93800000000E+00 0.  1.
         11    1    1    2    0    0  0.45095783819E-01 -0.24554612345E-01  0.23673059586E+01  0.23678628172E+01  0.51100000000E-03 0.  1.
    9000002    1    1    2    0    0  0.20982341257E+00 -0.60713826718E-02  0.45464307338E-01  0.96227528774E+00  0.93800000000E+00 0.  1.
         22    1    1    2    0    0 -0.25491919639E+00  0.30625995017E-01  0.15872297015E+01  0.16078618950E+01  0.00000000000E+00 0.  1.
</event>
<event>
 5    1  0.2173147E+002  0.1597868E+01  0.7818608E-02  0.3355681E+00
         11   -1    0    0    0    0  0.00000000000E+00  0.00000000000E+00  0.39999999674E+01  0.40000000000E+01  0.51100000000E-03 0. -1.
    9000002   -1    0    0    0    0 -0.00000000000E+00 -0.00000000000E+00  0.00000000000E+00  0.93800000000E+00  0.93800000000E+00 0.  1.
         11    1    1    2    0    0  0.10979866587E+00 -0.86464720021E-02  0.97697612770E+00  0.98316485073E+00  0.51100000000E-03 0. -1.
    9000002    1    1    2    0    0 -0.28879931496E+00  0.12622203460E+00  0.67793904012E-01  0.99185536232E+00  0.93800000000E+00 0.  1.
         22    1    1    2    0    0  0.17900064910E+00 -0.11757556259E+00  0.29552299356E+01  0.29629797869E+01  0.00000000000E+00 0. -1.
</event>
<event>
 5    1  0.2173147E+002  0.1599655E+01  0.7818608E-02  0.3353737E+00
         11   -1    0    0    0    0  0.00000000000E+00  0.00000000000E+00  0.39999999674E+01  0.40000000000E+01  0.51100000000E-03 0. -1.
    9000002   -1    0    0    0    0 -0.00000000000E+00 -0.00000000000E+00  0.00000000000E+00  0.93800000000E+00  0.93800000000E+00 0.  1.
         11    1    1    2    0    0 -0.56818268241E-01 -0.11493034278E-02  0.78161197158E+00  0.78367542500E+00  0.51100000000E-03 0. -1.
    9000002    1    1    2    0    0  0.30396813199E+00  0.19583982259E-01  0.61938384510E-01  0.98816016976E+00  0.93800000000E+00 0.  1.
         22    1    1    2    0    0 -0.24714986375E+00 -0.18434678831E-01  0.31564496113E+01  0.31661644052E+01  0.00000000000E+00 0. -1.
</event>
<event>
 5    1  0.2173147E+002  0.1572563E+01  0.7818608E-02  0.3383692E+00
         11   -1    0    0    0    0  0.00000000000E+00  0.00000000000E+00  0.39999999674E+01  0.40000000000E+01  0.51100000000E-03 0.  1.
    9000002   -1    0    0    0    0 -0.00000000000E+00 -0.00000000000E+00  0.00000000000E+00  0.93800000000E+00  0.93800000000E+00 0. -1.
         11    1    1    2    0    0  0.22730486995E-01 -0.19439688184E+00  0.16112445667E+01  0.16230884565E+01  0.51100000000E-03 0.  1.
    9000002    1    1    2    0    0 -0.20068189769E+00  0.21706363960E-01  0.47591897415E-01  0.96065257976E+00  0.93800000000E+00 0. -1.
         22    1    1    2    0    0  0.17795141070E+00  0.17269051788E+00  0.23411635033E+01  0.23542589638E+01  0.00000000000E+00 0.  1.
</event>
<event>
 5    1  0.2173147E+002  0.1599672E+01  0.7818608E-02  0.3353720E+00
         11   -1    0    0    0    0  0.00000000000E+00  0.00000000000E+00  0.39999999674E+01  0.40000000000E+01  0.51100000000E-03 0.  1.
    9000002   -1    0    0    0    0 -0.00000000000E+00 -0.00000000000E+00  0.00000000000E+00  0.93800000000E+00  0.93800000000E+00 0. -1.
         11    1    1    2    0    0  0.73962539952E-01 -0.25263066831E-01  0.67728798266E+00  0.68178292178E+00  0.51100000000E-03 0.  1.
    9000002    1    1    2    0    0 -0.42353833969E+00  0.15587914017E+00  0.13836978942E+00  0.10500824873E+01  0.93800000000E+00 0. -1.
         22    1    1    2    0    0  0.34957579974E+00 -0.13061607334E+00  0.31843421953E+01  0.32061345909E+01  0.00000000000E+00 0.  1.
</event>
<event>
 5    1  0.2173147E+002  0.1599676E+01  0.7818608E-02  0.3353715E+00
         11   -1    0    0    0    0  0.00000000000E+00  0.00000000000E+00  0.39999999674E+01  0.40000000000E+01  0.51100000000E-03 0.  1.
    9000002   -1    0    0    0    0 -0.00000000000E+00 -0.00000000000E+00  0.00000000000E+00  0.93800000000E+00  0.93800000000E+00 0. -1.
         11    1    1    2    0    0  0.11639474657E-01  0.15317041046E-01  0.29826727477E+00  0.29888746618E+00  0.51100000000E-03 0. -1.
    9000002    1    1    2    0    0 -0.15637359372E+00 -0.21050940834E+00  0.45726119655E-01  0.97503937860E+00  0.93800000000E+00 0. -1.
         22    1    1    2    0    0  0.14473411906E+00  0.19519236729E+00  0.36560065729E+01  0.36640731552E+01  0.00000000000E+00 0.  1.
</event>
<event>
 5    1  0.2173147E+002  0.1592629E+01  0.7818608E-02  0.3361402E+00
         11   -1    0    0    0    0  0.00000000000E+00  0.00000000000E+00  0.39999999674E+01  0.40000000000E+01  0.51100000000E-03 0. -1.
    9000002   -1    0    0    0    0 -0.00000000000E+00 -0.00000000000E+00  0.00000000000E+00  0.93800000000E+00  0.93800000000E+00 0. -1.
         11    1    1    2    0    0  0.33721131484E-03 -0.23795562496E-01  0.66936762452E-01  0.71043182604E-01  0.51100000000E-03 0. -1.
    9000002    1    1    2    0    0 -0.12154696968E+00 -0.14523709477E+00  0.29011162759E-01  0.95736781182E+00  0.93800000000E+00 0. -1.
         22    1    1    2    0    0  0.12120975836E+00  0.16903265727E+00  0.39040520421E+01  0.39095890056E+01  0.00000000000E+00 0. -1.
</event>
<event>
 5    1  0.2173147E+002  0.1599675E+01  0.7818608E-02  0.3353716E+00
         11   -1    0    0    0    0  0.00000000000E+00  0.00000000000E+00  0.39999999674E+01  0.40000000000E+01  0.51100000000E-03 0. -1.
    9000002   -1    0    0    0    0 -0.00000000000E+00 -0.00000000000E+00  0.00000000000E+00  0.93800000000E+00  0.93800000000E+00 0.  1.
         11    1    1    2    0    0  0.10566596239E+00 -0.12519629924E+00  0.14589367830E+01  0.14681063337E+01  0.51100000000E-03 0. -1.
    9000002    1    1    2    0    0 -0.27850177384E+00  0.33555817462E+00  0.12889666175E+00  0.10424110878E+01  0.93800000000E+00 0.  1.
         22    1    1    2    0    0  0.17283581145E+00 -0.21036187538E+00  0.24121665226E+01  0.24274825785E+01  0.00000000000E+00 0. -1.
</event>
<event>
 5    1  0.2173147E+002  0.1599604E+01  0.7818608E-02  0.3353794E+00
         11   -1    0    0    0    0  0.00000000000E+00  0.00000000000E+00  0.39999999674E+01  0.40000000000E+01  0.51100000000E-03 0. -1.
    9000002   -1    0    0    0    0 -0.00000000000E+00 -0.00000000000E+00  0.00000000000E+00  0.93800000000E+00  0.93800000000E+00 0.  1.
         11    1    1    2    0    0 -0.28294413015E-01  0.67952578261E-01  0.99452567383E+00  0.99724605977E+00  0.51100000000E-03 0. -1.
    9000002    1    1    2    0    0  0.10239121357E+00 -0.30285084214E+00  0.68368247821E-01  0.99333821557E+00  0.93800000000E+00 0.  1.
         22    1    1    2    0    0 -0.74096800560E-01  0.23489826388E+00  0.29371060457E+01  0.29474157247E+01  0.00000000000E+00 0. -1.
</event>
<event>
 5    1  0.2173147E+002  0.1554977E+01  0.7818608E-02  0.3403728E+00
         11   -1    0    0    0    0  0.00000000000E+00  0.00000000000E+00  0.39999999674E+01  0.40000000000E+01  0.51100000000E-03 0. -1.
    9000002   -1    0    0    0    0 -0.00000000000E+00 -0.00000000000E+00  0.00000000000E+00  0.93800000000E+00  0.93800000000E+00 0.  1.
         11    1    1    2    0    0  0.27227337833E+00  0.16474248085E+00  0.19825878755E+01  0.20079660910E+01  0.51100000000E-03 0. -1.
    9000002    1    1    2    0    0 -0.17605110366E+00  0.22416118135E-01  0.54844540194E-01  0.95621566450E+00  0.93800000000E+00 0.  1.
         22    1    1    2    0    0 -0.96222274670E-01 -0.18715859899E+00  0.19625675517E+01  0.19738182445E+01  0.00000000000E+00 0.  1.
</event>
<event>
 5    1  0.2173147E+002  0.1599677E+01  0.7818608E-02  0.3353714E+00
         11   -1    0    0    0    0  0.00000000000E+00  0.00000000000E+00  0.39999999674E+01  0.40000000000E+01  0.51100000000E-03 0. -1.
    9000002   -1    0    0    0    0 -0.00000000000E+00 -0.00000000000E+00  0.00000000000E+00  0.93800000000E+00  0.93800000000E+00 0. -1.
         11    1    1    2    0    0 -0.32886753522E-01  0.45263402636E-01  0.74944327254E+00  0.75152897086E+00  0.51100000000E-03 0.  1.
    9000002    1    1    2    0    0  0.17283956729E+00 -0.23888262424E+00  0.57970256704E-01  0.98495836199E+00  0.93800000000E+00 0. -1.
         22    1    1    2    0    0 -0.13995281377E+00  0.19361922160E+00  0.31925864381E+01  0.32015126671E+01  0.00000000000E+00 0. -1.
</event>
<event>
 5    1  0.2173147E+002  0.1576874E+01  0.7818608E-02  0.3378853E+00
         11   -1    0    0    0    0  0.00000000000E+00  0.00000000000E+00  0.39999999674E+01  0.40000000000E+01  0.51100000000E-03 0.  1.
    9000002   -1    0    0    0    0 -0.00000000000E+00 -0.00000000000E+00  0.00000000000E+00  0.93800000000E+00  0.93800000000E+00 0. -1.
         11    1    1    2    0    0 -0.75423166402E-01  0.65612983706E-01  0.20582221460E+01  0.20606485341E+01  0.51100000000E-03 0.  1.
    9000002    1    1    2    0    0 -0.13250942189E+00  0.86746474913E-01  0.33630816213E-01  0.95187117280E+00  0.93800000000E+00 0. -1.
         22    1    1    2    0    0  0.20793258829E+00 -0.15235945862E+00  0.19081470052E+01  0.19254802931E+01  0.00000000000E+00 0.  1.
</event>
<event>
 5    1  0.2173147E+002  0.1599675E+01  0.7818608E-02  0.3353716E+00
         11   -1    0    0    0    0  0.00000000000E+00  0.00000000000E+00  0.39999999674E+01  0.40000000000E+01  0.51100000000E-03 0.  1.
    9000002   -1    0    0    0    0 -0.00000000000E+00 -0.00000000000E+00  0.00000000000E+00  0.93800000000E+00  0.93800000000E+00 0. -1.
         11    1    1    2    0    0 -0.19291403929E-01  0.45644889223E-02  0.34349953300E+00  0.34407147966E+00  0.51100000000E-03 0.  1.
    9000002    1    1    2    0    0  0.22585732625E+00 -0.60531877410E-01  0.36278269397E-01  0.96738604126E+00  0.93800000000E+00 0. -1.
         22    1    1    2    0    0 -0.20656592232E+00  0.55967388487E-01  0.36202221650E+01  0.36265424791E+01  0.00000000000E+00 0.  1.
</event>
<event>
 5    1  0.2173147E+002  0.1599659E+01  0.7818608E-02  0.3353734E+00
         11   -1    0    0    0    0  0.00000000000E+00  0.00000000000E+00  0.39999999674E+01  0.40000000000E+01  0.51100000000E-03 0. -1.
    9000002   -1    0    0    0    0 -0.00000000000E+00 -0.00000000000E+00  0.00000000000E+00  0.93800000000E+00  0.93800000000E+00 0.  1.
         11    1    1    2    0    0 -0.54162780710E-01  0.40116185456E-01  0.76984775530E+00  0.77279281998E+00  0.51100000000E-03 0. -1.
    9000002    1    1    2    0    0  0.25569479743E+00 -0.20596591915E+00  0.72129956275E-01  0.99641784402E+00  0.93800000000E+00 0.  1.
         22    1    1    2    0    0 -0.20153201673E+00  0.16584973369E+00  0.31580222558E+01  0.31687893360E+01  0.00000000000E+00 0.  1.
</event>
<event>
 5    1  0.2173147E+002  0.1599481E+01  0.7818608E-02  0.3353927E+00
         11   -1    0    0    0    0  0.00000000000E+00  0.00000000000E+00  0.39999999674E+01  0.40000000000E+01  0.51100000000E-03 0. -1.
    9000002   -1    0    0    0    0 -0.00000000000E+00 -0.00000000000E+00  0.00000000000E+00  0.93800000000E+00  0.93800000000E+00 0. -1.
         11    1    1    2    0    0 -0.60820296891E-02 -0.42387597804E-01  0.76700178362E+00  0.76819639203E+00  0.51100000000E-03 0. -1.
    9000002    1    1    2    0    0  0.25241159135E-01  0.28641880754E+00  0.55241858491E-01  0.98263345778E+00  0.93800000000E+00 0. -1.
         22    1    1    2    0    0 -0.19159129446E-01 -0.24403120974E+00  0.31777563252E+01  0.31871701502E+01  0.00000000000E+00 0. -1.
</event>
<event>
 5    1  0.2173147E+002  0.1595360E+01  0.7818608E-02  0.3358415E+00
         11   -1    0    0    0    0  0.00000000000E+00  0.00000000000E+00  0.39999999674E+01  0.40000000000E+01  0.51100000000E-03 0. -1.
    9000002   -1    0    0    0    0 -0.00000000000E+00 -0.00000000000E+00  0.00000000000E+00  0.93800000000E+00  0.93800000000E+00 0. -1.
         11    1    1    2    0    0  0.26715840703E-01 -0.59339072155E-01  0.87332665282E+00  0.87574800330E+00  0.51100000000E-03 0. -1.
    9000002    1    1    2    0    0 -0.23760500528E+00 -0.44231838162E-02  0.40770784915E-01  0.96849468764E+00  0.93800000000E+00 0. -1.
         22    1    1    2    0    0  0.21088916458E+00  0.63762255972E-01  0.30859025296E+01  0.30937573091E+01  0.00000000000E+00 0. -1.
</event>
<event>
 5    1  0.2173147E+002  0.1599675E+01  0.7818608E-02  0.3353717E+00
         11   -1    0    0    0    0  0.00000000000E+00  0.00000000000E+00  0.39999999674E+01  0.40000000000E+01  0.51100000000E-03 0.  1.
    9000002   -1    0    0    0    0 -0.00000000000E+00 -0.00000000000E+00  0.00000000000E+00  0.93800000000E+00  0.93800000000E+00 0.  1.
         11    1    1    2    0    0 -0.66991863113E-01 -0.11249943886E+00  0.91661558143E+00  0.92592030905E+00  0.51100000000E-03 0.  1.
    9000002    1    1    2    0    0  0.27892215990E+00  0.47178035803E+00  0.20739495147E+00  0.11059977140E+01  0.93800000000E+00 0.  1.
         22    1    1    2    0    0 -0.21193029679E+00 -0.35928091918E+00  0.28759894345E+01  0.29060819769E+01  0.00000000000E+00 0.  1.
</event>
<event>
 5    1  0.2173147E+002  0.1599676E+01  0.7818608E-02  0.3353715E+00
         11   -1    0    0    0    0  0.00000000000E+00  0.00000000000E+00  0.39999999674E+01  0.40000000000E+01  0.51100000000E-03 0.  1.
    9000002   -1    0    0    0    0 -0.00000000000E+00 -0.00000000000E+00  0.00000000000E+00  0.93800000000E+00  0.93800000000E+00 0. -1.
         11    1    1    2    0    0 -0.33230955781E+00 -0.11869327351E+00  0.18502002965E+01  0.18835496101E+01  0.51100000000E-03 0.  1.
    9000002    1    1    2    0    0  0.65801387482E+00  0.23264053508E+00  0.34792866603E+00  0.12198369705E+01  0.93800000000E+00 0. -1.
         22    1    1    2    0    0 -0.32570431701E+00 -0.11394726156E+00  0.18018710049E+01  0.18346134194E+01  0.00000000000E+00 0. -1.
</event>
<event>
 5    1  0.2173147E+002  0.1599676E+01  0.7818608E-02  0.3353715E+00
         11   -1    0    0    0    0  0.00000000000E+00  0.00000000000E+00  0.39999999674E+01  0.40000000000E+01  0.51100000000E-03 0.  1.
    9000002   -1    0    0    0    0 -0.00000000000E+00 -0.00000000000E+00  0.00000000000E+00  0.93800000000E+00  0.93800000000E+00 0.  1.
         11    1    1    2    0    0  0.11223229425E-02 -0.18255853178E-01  0.29756701303E+00  0.29812903943E+00  0.51100000000E-03 0.  1.
    9000002    1    1    2    0    0 -0.20951151352E-01  0.24795135154E+00  0.41129430068E-01  0.97131583612E+00  0.93800000000E+00 0.  1.
         22    1    1    2    0    0  0.19828828410E-01 -0.22969549837E+00  0.36613035243E+01  0.36685551245E+01  0.00000000000E+00 0.  1.
</event>
<event>
 5    1  0.2173147E+002  0.1589450E+01  0.7818608E-02  0.3364894E+00
         11   -1    0    0    0    0  0.00000000000E+00  0.00000000000E+00  0.39999999674E+01  0.40000000000E+01  0.51100000000E-03 0. -1.
    9000002   -1    0    0    0    0 -0.00000000000E+00 -0.00000000000E+00  0.00000000000E+00  0.93800000000E+00  0.93800000000E+00 0. -1.
         11    1    1    2    0    0 -0.99490672881E-01  0.26061772355E-01  0.11022208654E+01  0.11070089011E+01  0.51100000000E-03 0. -1.
    9000002    1    1    2    0    0  0.31713223096E+00  0.29287559267E+00  0.13499200554E+00  0.10413528731E+01  0.93800000000E+00 0. -1.
         22    1    1    2    0    0 -0.21764155808E+00 -0.31893736502E+00  0.27627870964E+01  0.27896382258E+01  0.00000000000E+00 0. -1.
</event>
<event>
 5    1  0.2173147E+002  0.1599659E+01  0.7818608E-02  0.3353734E+00
         11   -1    0    0    0    0  0.00000000000E+00  0.00000000000E+00  0.39999999674E+01  0.40000000000E+01  0.51100000000E-03 0.  1.
    9000002   -1    0    0    0    0 -0.00000000000E+00 -0.00000000000E+00  0.00000000000E+00  0.93800000000E+00  0.93800000000E+00 0. -1.
         11    1    1    2    0    0  0.25091609041E-01  0.15138887532E-01  0.40290348049E+00  0.40396813052E+00  0.51100000000E-03 0.  1.
    9000002    1    1    2    0    0 -0.21609546475E+00 -0.14696971853E+00  0.45423552520E-01  0.97478441061E+00  0.93800000000E+00 0. -1.
         22    1    1    2    0    0  0.19100385571E+00  0.13183083099E+00  0.35516729343E+01  0.35592474589E+01  0.00000000000E+00 0.  1.
</event>
<event>
 5    1  0.2173147E+002  0.1599671E+01  0.7818608E-02  0.3353720E+00
         11   -1    0    0    0    0  0.00000000000E+00  0.00000000000E+00  0.39999999674E+01  0.40000000000E+01  0.51100000000E-03 0. -1.
    9000002   -1    0    0    0    0 -0.00000000000E+00 -0.00000000000E+00  0.00000000000E+00  0.93800000000E+00  0.93800000000E+00 0. -1.
         11    1    1    2    0    0 -0.80775230634E-02  0.23851120537E-01  0.33934765918E+00  0.34028108564E+00  0.51100000000E-03 0.  1.
    9000002    1    1    2    0    0  0.98073550878E-01 -0.25993558258E+00  0.51393425504E-01  0.97962758876E+00  0.93800000000E+00 0. -1.
         22    1    1    2    0    0 -0.89996027815E-01  0.23608446204E+00  0.36092588827E+01  0.36180913256E+01  0.00000000000E+00 0. -1.
</event>
<event>
 5    1  0.2173147E+002  0.1599656E+01  0.7818608E-02  0.3353737E+00
         11   -1    0    0    0    0  0.00000000000E+00  0.00000000000E+00  0.39999999674E+01  0.40000000000E+01  0.51100000000E-03 0. -1.
    9000002   -1    0    0    0    0 -0.00000000000E+00 -0.00000000000E+00  0.00000000000E+00  0.93800000000E+00  0.93800000000E+00 0. -1.
         11    1    1    2    0    0  0.19008921842E+00 -0.40519681826E-01  0.14874041342E+01  0.15000490242E+01  0.51100000000E-03 0. -1.
    9000002    1    1    2    0    0 -0.49047652699E+00  0.11798105965E+00  0.17436090467E+00  0.10792277234E+01  0.93800000000E+00 0. -1.
         22    1    1    2    0    0  0.30038730857E+00 -0.77461377829E-01  0.23382349285E+01  0.23587232524E+01  0.00000000000E+00 0. -1.
</event>
<event>
 5    1  0.2173147E+002  0.1477573E+01  0.7818608E-02  0.3497994E+00
         11   -1    0    0    0    0  0.00000000000E+00  0.00000000000E+00  0.39999999674E+01  0.40000000000E+01  0.51100000000E-03 0.  1.
    9000002   -1    0    0    0    0 -0.00000000000E+00 -0.00000000000E+00  0.00000000000E+00  0.93800000000E+00  0.93800000000E+00 0. -1.
         11    1    1    2    0    0  0.18315722179E+00 -0.14718955846E-01  0.15719847223E+00  0.24181570741E+00  0.51100000000E-03 0.  1.
    9000002    1    1    2    0    0 -0.18874891441E-02 -0.19335354809E+00  0.12234306395E+00  0.96550555797E+00  0.93800000000E+00 0. -1.
         22    1    1    2    0    0 -0.18126973265E+00  0.20807250393E+00  0.37204584312E+01  0.37306787346E+01  0.00000000000E+00 0.  1.
</event>
<event>
 5    1  0.2173147E+002  0.1599554E+01  0.7818608E-02  0.3353848E+00
         11   -1    0    0    0    0  0.00000000000E+00  0.00000000000E+00  0.39999999674E+01  0.40000000000E+01  0.51100000000E-03 0. -1.
    9000002   -1    0    0    0    0 -0.00000000000E+00 -0.00000000000E+00  0.00000000000E+00  0.93800000000E+00  0.93800000000E+00 0.  1.
         11    1    1    2    0    0  0.12628496430E+00 -0.76468698183E-02  0.75514700871E+00  0.76567201380E+00  0.51100000000E-03 0. -1.
    9000002    1    1    2    0    0 -0.61485617519E+00  0.89980622344E-01  0.27080452869E+00  0.11572915455E+01  0.93800000000E+00 0.  1.
         22    1    1    2    0    0  0.48857121089E+00 -0.82333752525E-01  0.29740484300E+01  0.30150364407E+01  0.00000000000E+00 0. -1.
</event>
<event>
 5    1  0.2173147E+002  0.1599671E+01  0.7818608E-02  0.3353720E+00
         11   -1    0    0    0    0  0.00000000000E+00  0.00000000000E+00  0.39999999674E+01  0.40000000000E+01  0.51100000000E-03 0. -1.
    9000002   -1    0    0    0    0 -0.00000000000E+00 -0.00000000000E+00  0.00000000000E+00  0.93800000000E+00  0.93800000000E+00 0. -1.
         11    1    1    2    0    0 -0.31715946809E-01 -0.42779267750E-01  0.61712084505E+00  0.61941453450E+00  0.51100000000E-03 0. -1.
    9000002    1    1    2    0    0  0.20711020942E+00  0.25995781893E+00  0.73937933499E-01  0.99788953521E+00  0.93800000000E+00 0. -1.
         22    1    1    2    0    0 -0.17539426261E+00 -0.21717855118E+00  0.33089411888E+01  0.33206959303E+01  0.00000000000E+00 0. -1.
</event>
<event>
 5    1  0.2173147E+002  0.1599647E+01  0.7818608E-02  0.3353747E+00
         11   -1    0    0    0    0  0.00000000000E+00  0.00000000000E+00  0.39999999674E+01  0.40000000000E+01  0.51100000000E-03 0. -1.
    9000002   -1    0    0    0    0 -0.00000000000E+00 -0.00000000000E+00  0.00000000000E+00  0.93800000000E+00  0.93800000000E+00 0. -1.
         11    1    1    2    0    0  0.48487684200E-01 -0.15325744123E+00  0.10733869351E+01  0.10853564725E+01  0.51100000000E-03 0. -1.
    9000002    1    1    2    0    0 -0.17992308805E+00  0.52185028808E+00  0.21056500165E+00  0.11085493497E+01  0.93800000000E+00 0. -1.
         22    1    1    2    0    0  0.13143540385E+00 -0.36859284685E+00  0.27160480306E+01  0.27440941778E+01  0.00000000000E+00 0. -1.
</event>
<event>
 5    1  0.2173147E+002  0.1599354E+01  0.7818608E-02  0.3354065E+00
         11   -1    0    0    0    0  0.00000000000E+00  0.00000000000E+00  0.39999999674E+01  0.40000000000E+01  0.51100000000E-03 0.  1.
    9000002   -1    0    0    0    0 -0.00000000000E+00 -0.00000000000E+00  0.00000000000E+00  0.93800000000E+00  0.93800000000E+00 0. -1.
         11    1    1    2    0    0 -0.19625538203E-01  0.13928286074E-01  0.45904031897E+00  0.45967100677E+00  0.51100000000E-03 0.  1.
    9000002    1    1    2    0    0  0.27289192796E+00 -0.61437179168E-01  0.52353615877E-01  0.98021907369E+00  0.93800000000E+00 0. -1.
         22    1    1    2    0    0 -0.25326638976E+00  0.47508893094E-01  0.34886060325E+01  0.34981099195E+01  0.00000000000E+00 0.  1.
</event>
<event>
 5    1  0.2173147E+002  0.1599647E+01  0.7818608E-02  0.3353747E+00
         11   -1    0    0    0    0  0.00000000000E+00  0.00000000000E+00  0.39999999674E+01  0.40000000000E+01  0.51100000000E-03 0.  1.
    9000002   -1    0    0    0    0 -0.00000000000E+00 -0.00000000000E+00  0.00000000000E+00  0.93800000000E+00  0.93800000000E+00 0. -1.
         11    1    1    2    0    0  0.10194853898E-01  0.16521553236E-01  0.24734802806E+00  0.24810925995E+00  0.51100000000E-03 0.  1.
    9000002    1    1    2    0    0 -0.11596907260E+00 -0.24433774614E+00  0.48695539035E-01  0.97742775462E+00  0.93800000000E+00 0. -1.
         22    1    1    2    0    0  0.10577421870E+00  0.22781619290E+00  0.37039564003E+01  0.37124629854E+01  0.00000000000E+00 0.  1.
</event>
<event>
 5    1  0.2173147E+002  0.1599178E+01  0.7818608E-02  0.3354256E+00
         11   -1    0    0    0    0  0.00000000000E+00  0.00000000000E+00  0.39999999674E+01  0.40000000000E+01  0.51100000000E-03 0. -1.
    9000002   -1    0    0    0    0 -0.00000000000E+00 -0.00000000000E+00  0.00000000000E+00  0.93800000000E+00  0.93800000000E+00 0.  1.
         11    1    1    2    0    0  0.25930946336E+00 -0.41108426450E-03  0.22758325582E+01  0.22905579366E+01  0.51100000000E-03 0. -1.
    9000002    1    1    2    0    0 -0.45576228956E+00  0.42534202611E-01  0.14290672409E+00  0.10534679657E+01  0.93800000000E+00 0.  1.
         22    1    1    2    0    0  0.19645282620E+00 -0.42123118347E-01  0.15812606850E+01  0.15939740977E+01  0.00000000000E+00 0. -1.
</event>
<event>
 5    1  0.2173147E+002  0.1599667E+01  0.7818608E-02  0.3353725E+00
         11   -1    0    0    0    0  0.00000000000E+00  0.00000000000E+00  0.39999999674E+01  0.40000000000E+01  0.51100000000E-03 0. -1.
    9000002   -1    0    0    0    0 -0.00000000000E+00 -0.00000000000E+00  0.00000000000E+00  0.93800000000E+00  0.93800000000E+00 0. -1.
         11    1    1    2    0    0  0.19686226099E+00 -0.13805288976E-01  0.15432141527E+01  0.15557813207E+01  0.51100000000E-03 0. -1.
    9000002    1    1    2    0    0 -0.49532751880E+00  0.41090413209E-01  0.16903656174E+00  0.10749209888E+01  0.93800000000E+00 0. -1.
         22    1    1    2    0    0  0.29846525781E+00 -0.27285124233E-01  0.22877492529E+01  0.23072976905E+01  0.00000000000E+00 0. -1.
</event>
<event>
 5    1  0.2173147E+002  0.1599198E+01  0.7818608E-02  0.3354234E+00
         11   -1    0    0    0    0  0.00000000000E+00  0.00000000000E+00  0.39999999674E+01  0.40000000000E+01  0.51100000000E-03 0.  1.
    9000002   -1    0    0    0    0 -0.00000000000E+00 -0.00000000000E+00  0.00000000000E+00  0.93800000000E+00  0.93800000000E+00 0. -1.
         11    1    1    2    0    0 -0.89830246810E-01 -0.56844439023E-01  0.13051648795E+01  0.13094870703E+01  0.51100000000E-03 0.  1.
    9000002    1    1    2    0    0  0.24003543612E+00  0.23916426874E+00  0.77275730205E-01  0.10003159983E+01  0.93800000000E+00 0. -1.
         22    1    1    2    0    0 -0.15020518931E+00 -0.18231982972E+00  0.26175593577E+01  0.26281969314E+01  0.00000000000E+00 0.  1.
</event>
<event>
 5    1  0.2173147E+002  0.1599676E+01  0.7818608E-02  0.3353715E+00
         11   -1    0    0    0    0  0.00000000000E+00  0.00000000000E+00  0.39999999674E+01  0.40000000000E+01  0.51100000000E-03 0.  1.
    9000002   -1    0    0    0    0 -0.00000000000E+00 -0.00000000000E+00  0.00000000000E+00  0.93800000000E+00  0.93800000000E+00 0.  1.
         11    1    1    2    0    0 -0.12847082199E+00  0.37464087991E-01  0.13204266489E+01  0.13271906820E+01  0.51100000000E-03 0.  1.
    9000002    1    1    2    0    0  0.38140879522E+00 -0.10851024473E+00  0.10602030614E+00  0.10238805827E+01  0.93800000000E+00 0.  1.
         22    1    1    2    0    0 -0.25293797323E+00  0.71046156735E-01  0.25735530123E+01  0.25869287353E+01  0.00000000000E+00 0.  1.
</event>
<event>
 5    1  0.2173147E+002  0.1510963E+01  0.7818608E-02  0.3456058E+00
         11   -1    0    0    0    0  0.00000000000E+00  0.00000000000E+00  0.39999999674E+01  0.40000000000E+01  0.51100000000E-03 0.  1.
    9000002   -1    0    0    0    0 -0.00000000000E+00 -0.00000000000E+00  0.00000000000E+00  0.93800000000E+00  0.93800000000E+00 0.  1.
         11    1    1    2    0    0 -0.41409284707E-01 -0.18267567873E+00  0.16443581457E+00  0.24924793017E+00  0.51100000000E-03 0.  1.
    9000002    1    1    2    0    0  0.15426597538E+00  0.43977028791E+00  0.23010271869E+00  0.10723745420E+01  0.93800000000E+00 0.  1.
         22    1    1    2    0    0 -0.11285669068E+00 -0.25709460918E+00  0.36054614341E+01  0.36163775278E+01  0.00000000000E+00 0.  1.
</event>
<event>
 5    1  0.2173147E+002  0.1598632E+01  0.7818608E-02  0.3354850E+00
         11   -1    0    0    0    0  0.00000000000E+00  0.00000000000E+00  0.39999999674E+01  0.40000000000E+01  0.51100000000E-03 0. -1.
    9000002   -1    0    0    0    0 -0.00000000000E+00 -0.00000000000E+00  0.00000000000E+00  0.93800000000E+00  0.93800000000E+00 0.  1.
         11    1    1    2    0    0  0.34001953663E-03  0.21784812881E-01  0.77900235351E+00  0.77930714200E+00  0.51100000000E-03 0. -1.
    9000002    1    1    2    0    0 -0.12127788802E+00 -0.21303693310E+00  0.40702212729E-01  0.97035752746E+00  0.93800000000E+00 0.  1.
         22    1    1    2    0    0  0.12093786848E+00  0.19125212021E+00  0.31802954011E+01  0.31883353305E+01  0.00000000000E+00 0. -1.
</event>
<event>
 5    1  0.2173147E+002  0.1599676E+01  0.7818608E-02  0.3353715E+00
         11   -1    0    0    0    0  0.00000000000E+00  0.00000000000E+00  0.39999999674E+01  0.40000000000E+01  0.51100000000E-03 0.  1.
    9000002   -1    0    0    0    0 -0.00000000000E+00 -0.00000000000E+00  0.00000000000E+00  0.93800000000E+00  0.93800000000E+00 0. -1.
         11    1    1    2    0    0  0.14487515047E-01 -0.31863210264E-01  0.56636874072E+00  0.56744952537E+00  0.51100000000E-03 0.  1.
    9000002    1    1    2    0    0 -0.10135530754E+00  0.22774684111E+00  0.41278436841E-01  0.97143678711E+00  0.93800000000E+00 0. -1.
         22    1    1    2    0    0  0.86867792493E-01 -0.19588363085E+00  0.33923527898E+01  0.33991136875E+01  0.00000000000E+00 0.  1.
</event>
<event>
 5    1  0.2173147E+002  0.1578472E+01  0.7818608E-02  0.3377065E+00
         11   -1    0    0    0    0  0.00000000000E+00  0.00000000000E+00  0.39999999674E+01  0.40000000000E+01  0.51100000000E-03 0. -1.
    9000002   -1    0    0    0    0 -0.00000000000E+00 -0.00000000000E+00  0.00000000000E+00  0.93800000000E+00  0.93800000000E+00 0. -1.
         11    1    1    2    0    0 -0.15787381648E+00 -0.98479326004E-01  0.30027161819E+01  0.30084758682E+01  0.51100000000E-03 0. -1.
    9000002    1    1    2    0    0  0.97458508176E-01  0.29021933032E+00  0.79402716399E-01  0.98988595903E+00  0.93800000000E+00 0. -1.
         22    1    1    2    0    0  0.60415308302E-01 -0.19174000431E+00  0.91788106905E+00  0.93963817273E+00  0.00000000000E+00 0. -1.
</event>
<event>
 5    1  0.2173147E+002  0.1598219E+01  0.7818608E-02  0.3355298E+00
         11   -1    0    0    0    0  0.00000000000E+00  0.00000000000E+00  0.39999999674E+01  0.40000000000E+01  0.51100000000E-03 0.  1.
    9000002   -1    0    0    0    0 -0.00000000000E+00 -0.00000000000E+00  0.00000000000E+00  0.93800000000E+00  0.93800000000E+00 0. -1.
         11    1    1    2    0    0  0.17396520611E+00 -0.75034355272E-01  0.11603521622E+01  0.11757174188E+01  0.51100000000E-03 0.  1.
    9000002    1    1    2    0    0 -0.44947432946E+00  0.18489617109E+00  0.16262699416E+00  0.10688803984E+01  0.93800000000E+00 0. -1.
         22    1    1    2    0    0  0.27550912335E+00 -0.10986181582E+00  0.26770208110E+01  0.26934021827E+01  0.00000000000E+00 0.  1.
</event>
<event>
 5    1  0.2173147E+002  0.1599677E+01  0.7818608E-02  0.3353715E+00
         11   -1    0    0    0    0  0.00000000000E+00  0.00000000000E+00  0.39999999674E+01  0.40000000000E+01  0.51100000000E-03 0. -1.
    9000002   -1    0    0    0    0 -0.00000000000E+00 -0.00000000000E+00  0.00000000000E+00  0.93800000000E+00  0.93800000000E+00 0.  1.
         11    1    1    2    0    0 -0.20735790022E-01  0.11887064042E+00  0.50054812795E+00  0.51488726111E+00  0.51100000000E-03 0.  1.
    9000002    1    1    2    0    0  0.14682970807E+00 -0.82604559296E+00  0.52574744679E+00  0.13638785366E+01  0.93800000000E+00 0.  1.
         22    1    1    2    0    0 -0.12609391805E+00  0.70717495254E+00  0.29737043926E+01  0.30592342023E+01  0.00000000000E+00 0. -1.
</event>
<event>
 5    1  0.2173147E+002  0.1599677E+01  0.7818608E-02  0.3353714E+00
         11   -1    0    0    0    0  0.00000000000E+00  0.00000000000E+00  0.39999999674E+01  0.40000000000E+01  0.51100000000E-03 0.  1.
    9000002   -1    0    0    0    0 -0.00000000000E+00 -0.00000000000E+00  0.00000000000E+00  0.93800000000E+00  0.93800000000E+00 0. -1.
         11    1    1    2    0    0  0.46036103767E-02  0.67281533355E-01  0.71021184608E+00  0.71340670405E+00  0.51100000000E-03 0. -1.
    9000002    1    1    2    0    0 -0.25606657648E-01 -0.36978484315E+00  0.92343162115E-01  0.10128019504E+01  0.93800000000E+00 0. -1.
         22    1    1    2    0    0  0.21003047271E-01  0.30250330980E+00  0.31974449592E+01  0.32117913455E+01  0.00000000000E+00 0.  1.
</event>
<event>
 5    1  0.2173147E+002  0.1599579E+01  0.7818608E-02  0.3353821E+00
         11   -1    0    0    0    0  0.00000000000E+00  0.00000000000E+00  0.39999999674E+01  0.40000000000E+01  0.51100000000E-03 0. -1.
    9000002   -1    0    0    0    0 -0.00000000000E+00 -0.00000000000E+00  0.00000000000E+00  0.93800000000E+00  0.93800000000E+00 0.  1.
         11    1    1    2    0    0 -0.18293835541E-02  0.62642504227E-02  0.20655920042E+00  0.20666289430E+00  0.51100000000E-03 0. -1.
    9000002    1    1    2    0    0  0.11841191470E+00 -0.17846424038E+00  0.30468390914E-01  0.96262307758E+00  0.93800000000E+00 0.  1.
         22    1    1    2    0    0 -0.11658253115E+00  0.17219998996E+00  0.37629723760E+01  0.37687140281E+01  0.00000000000E+00 0. -1.
</event>
<event>
 5    1  0.2173147E+002  0.1599673E+01  0.7818608E-02  0.3353719E+00
         11   -1    0    0    0    0  0.00000000000E+00  0.00000000000E+00  0.39999999674E+01  0.40000000000E+01  0.51100000000E-03 0. -1.
    9000002   -1    0    0    0    0 -0.00000000000E+00 -0.00000000000E+00  0.00000000000E+00  0.93800000000E+00  0.93800000000E+00 0.  1.
         11    1    1    2    0    0 -0.26817371211E-01 -0.21633702439E-01  0.49799846625E+00  0.49918926469E+00  0.51100000000E-03 0. -1.
    9000002    1    1    2    0    0  0.22393476131E+00  0.17683679286E+00  0.54246103814E-01  0.98193923866E+00  0.93800000000E+00 0.  1.
         22    1    1    2    0    0 -0.19711739010E+00 -0.15520309042E+00  0.34477553973E+01  0.34568714967E+01  0.00000000000E+00 0. -1.
</event>
<event>
 5    1  0.2173147E+002  0.1599256E+01  0.7818608E-02  0.3354171E+00
         11   -1    0    0    0    0  0.00000000000E+00  0.00000000000E+00  0.39999999674E+01  0.40000000000E+01  0.51100000000E-03 0.  1.
    9000002   -1    0    0    0    0 -0.00000000000E+00 -0.00000000000E+00  0.00000000000E+00  0.93800000000E+00  0.93800000000E+00 0. -1.
         11    1    1    2    0    0 -0.11107574652E+00 -0.88095456939E-01  0.85876622212E+00  0.87038974970E+00  0.51100000000E-03 0.  1.
    9000002    1    1    2    0    0  0.43118789386E+00  0.45674333103E+00  0.27741525314E+00  0.11624718031E+01  0.93800000000E+00 0. -1.
         22    1    1    2    0    0 -0.32011214734E+00 -0.36864787409E+00  0.28638184921E+01  0.29051384472E+01  0.00000000000E+00 0.  1.
</event>
<event>
 5    1  0.2173147E+002  0.1598300E+01  0.7818608E-02  0.3355211E+00
         11   -1    0    0    0    0  0.00000000000E+00  0.00000000000E+00  0.39999999674E+01  0.40000000000E+01  0.51100000000E-03 0.  1.
    9000002   -1    0    0    0    0 -0.00000000000E+00 -0.00000000000E+00  0.00000000000E+00  0.93800000000E+00  0.93800000000E+00 0.  1.
         11    1    1    2    0    0  0.15506605520E-01 -0.72781657895E-02  0.29214047183E+00  0.29264268812E+00  0.51100000000E-03 0.  1.
    9000002    1    1    2    0    0 -0.57059146961E-01  0.37322454215E+00  0.97016078116E-01  0.10157797126E+01  0.93800000000E+00 0.  1.
         22    1    1    2    0    0  0.41552541441E-01 -0.36594637636E+00  0.36108434174E+01  0.36295775993E+01  0.00000000000E+00 0.  1.
</event>
<event>
 5    1  0.2173147E+002  0.1599674E+01  0.7818608E-02  0.3353717E+00
         11   -1    0    0    0    0  0.00000000000E+00  0.00000000000E+00  0.39999999674E+01  0.40000000000E+01  0.51100000000E-03 0. -1.
    9000002   -1    0    0    0    0 -0.00000000000E+00 -0.00000000000E+00  0.00000000000E+00  0.93800000000E+00  0.93800000000E+00 0. -1.
         11    1    1    2    0    0  0.57110619016E-01  0.26558147767E-01  0.67573031414E+00  0.67865947027E+00  0.51100000000E-03 0. -1.
    9000002    1    1    2    0    0 -0.32279746821E+00 -0.15532162952E+00  0.86123024346E-01  0.10077619706E+01  0.93800000000E+00 0. -1.
         22    1    1    2    0    0  0.26568684919E+00  0.12876348175E+00  0.32381466289E+01  0.32515785591E+01  0.00000000000E+00 0. -1.
</event>
<event>
 5    1  0.2173147E+002  0.1595532E+01  0.7818608E-02  0.3358228E+00
         11   -1    0    0    0    0  0.00000000000E+00  0.00000000000E+00  0.39999999674E+01  0.40000000000E+01  0.51100000000E-03 0. -1.
    9000002   -1    0    0    0    0 -0.00000000000E+00 -0.00000000000E+00  0.00000000000E+00  0.93800000000E+00  0.93800000000E+00 0. -1.
         11    1    1    2    0    0 -0.87065590397E-01 -0.84693575813E-01  0.10135187841E+01  0.10207712798E+01  0.51100000000E-03 0. -1.
    9000002    1    1    2    0    0  0.41525053052E+00  0.53942934615E+00  0.33406355831E+00  0.12061755608E+01  0.93800000000E+00 0. -1.
         22    1    1    2    0    0 -0.32818494012E+00 -0.45473577033E+00  0.26524176249E+01  0.27110531593E+01  0.00000000000E+00 0. -1.
</event>
<event>
 5    1  0.2173147E+002  0.1599510E+01  0.7818608E-02  0.3353896E+00
         11   -1    0    0    0    0  0.00000000000E+00  0.00000000000E+00  0.39999999674E+01  0.40000000000E+01  0.51100000000E-03 0. -1.
    9000002   -1    0    0    0    0 -0.00000000000E+00 -0.00000000000E+00  0.00000000000E+00  0.93800000000E+00  0.93800000000E+00 0. -1.
         11    1    1    2    0    0 -0.24458725869E-02 -0.22103807436E-01  0.45361182205E+00  0.45415691872E+00  0.51100000000E-03 0. -1.
    9000002    1    1    2    0    0 -0.62838539620E-01  0.21329137600E+00  0.32904747763E-01  0.96455617543E+00  0.93800000000E+00 0. -1.
         22    1    1    2    0    0  0.65284412207E-01 -0.19118756856E+00  0.35134833975E+01  0.35192869058E+01  0.00000000000E+00 0. -1.
</event>
<event>
 5    1  0.2173147E+002  0.1599677E+01  0.7818608E-02  0.3353714E+00
         11   -1    0    0    0    0  0.00000000000E+00  0.00000000000E+00  0.39999999674E+01  0.40000000000E+01  0.51100000000E-03 0. -1.
    9000002   -1    0    0    0    0 -0.00000000000E+00 -0.00000000000E+00  0.00000000000E+00  0.93800000000E+00  0.93800000000E+00 0.  1.
         11    1    1    2    0    0  0.13603910089E+00  0.94387029990E-01  0.15652088258E+01  0.15739423363E+01  0.51100000000E-03 0.  1.
    9000002    1    1    2    0    0 -0.33794145603E+00 -0.23398689091E+00  0.11412726541E+00  0.10304481188E+01  0.93800000000E+00 0.  1.
         22    1    1    2    0    0  0.20190235514E+00  0.13959986092E+00  0.23206638761E+01  0.23336095449E+01  0.00000000000E+00 0. -1.
</event>
<event>
 5    1  0.2173147E+002  0.1580128E+01  0.7818608E-02  0.3375218E+00
         11   -1    0    0    0    0  0.00000000000E+00  0.00000000000E+00  0.39999999674E+01  0.40000000000E+01  0.51100000000E-03 0. -1.
    9000002   -1    0    0    0    0 -0.00000000000E+00 -0.00000000000E+00  0.00000000000E+00  0.93800000000E+00  0.93800000000E+00 0. -1.
         11    1    1    2    0    0  0.95258463226E-01 -0.41494761496E-01  0.17648876517E+01  0.17679436287E+01  0.51100000000E-03 0. -1.
    9000002    1    1    2    0    0  0.94870338397E-01 -0.12107629206E+00  0.30209415291E-01  0.95100812740E+00  0.93800000000E+00 0. -1.
         22    1    1    2    0    0 -0.19012880162E+00  0.16257105356E+00  0.22049029004E+01  0.22190482439E+01  0.00000000000E+00 0. -1.
</event>
<event>
 5    1  0.2173147E+002  0.1574689E+01  0.7818608E-02  0.3381302E+00
         11   -1    0    0    0    0  0.00000000000E+00  0.00000000000E+00  0.39999999674E+01  0.40000000000E+01  0.51100000000E-03 0.  1.
    9000002   -1    0    0    0    0 -0.00000000000E+00 -0.00000000000E+00  0.00000000000E+00  0.93800000000E+00  0.93800000000E+00 0. -1.
         11    1    1    2    0    0  0.20057075726E-01 -0.38213171345E+00  0.22815836264E+01  0.23134500293E+01  0.51100000000E-03 0.  1.
    9000002    1    1    2    0    0 -0.25291394436E+00  0.41727565226E+00  0.18527949868E+00  0.10734323108E+01  0.93800000000E+00 0. -1.
         22    1    1    2    0    0  0.23285686863E+00 -0.35143938811E-01  0.15331368423E+01  0.15511176599E+01  0.00000000000E+00 0.  1.
</event>
<event>
 5    1  0.2173147E+002  0.1599291E+01  0.7818608E-02  0.3354133E+00
         11   -1    0    0    0    0  0.00000000000E+00  0.00000000000E+00  0.39999999674E+01  0.40000000000E+01  0.51100000000E-03 0. -1.
    9000002   -1    0    0    0    0 -0.00000000000E+00 -0.00000000000E+00  0.00000000000E+00  0.93800000000E+00  0.93800000000E+00 0. -1.
         11    1    1    2    0    0  0.13121750711E-01  0.11133150889E-01  0.26718325350E+00  0.26773733296E+00  0.51100000000E-03 0. -1.
    9000002    1    1    2    0    0 -0.24034325830E+00  0.44586120872E-02  0.38651728250E-01  0.96908344178E+00  0.93800000000E+00 0. -1.
         22    1    1    2    0    0  0.22722150759E+00 -0.15591762976E-01  0.36941649856E+01  0.37011792253E+01  0.00000000000E+00 0. -1.
</event>
<event>
 5    1  0.2173147E+002  0.1599676E+01  0.7818608E-02  0.3353715E+00
         11   -1    0    0    0    0  0.00000000000E+00  0.00000000000E+00  0.39999999674E+01  0.40000000000E+01  0.51100000000E-03 0.  1.
    9000002   -1    0    0    0    0 -0.00000000000E+00 -0.00000000000E+00  0.00000000000E+00  0.93800000000E+00  0.93800000000E+00 0.  1.
         11    1    1    2    0    0  0.70632437538E-01 -0.11106925350E+00  0.11376216257E+01  0.11452111354E+01  0.51100000000E-03 0.  1.
    9000002    1    1    2    0    0 -0.24049520483E+00  0.37466560140E+00  0.13452868486E+00  0.10469738409E+01  0.93800000000E+00 0.  1.
         22    1    1    2    0    0  0.16986276729E+00 -0.26359634789E+00  0.27278496568E+01  0.27458150237E+01  0.00000000000E+00 0.  1.
</event>
<event>
 5    1  0.2173147E+002  0.1593682E+01  0.7818608E-02  0.3360250E+00
         11   -1    0    0    0    0  0.00000000000E+00  0.00000000000E+00  0.39999999674E+01  0.40000000000E+01  0.51100000000E-03 0. -1.
    9000002   -1    0    0    0    0 -0.00000000000E+00 -0.00000000000E+00  0.00000000000E+00  0.93800000000E+00  0.93800000000E+00 0. -1.
         11    1    1    2    0    0  0.71235253314E-01  0.37064269813E-01  0.11144604650E+01  0.11173498157E+01  0.51100000000E-03 0. -1.
    9000002    1    1    2    0    0 -0.20634600309E+00  0.16225205289E+00  0.50438906733E-01  0.97534223992E+00  0.93800000000E+00 0. -1.
         22    1    1    2    0    0  0.13511074978E+00 -0.19931632270E+00  0.28351005956E+01  0.28453079444E+01  0.00000000000E+00 0. -1.
</event>
<event>
 5    1  0.2173147E+002  0.1599665E+01  0.7818608E-02  0.3353727E+00
         11   -1    0    0    0    0  0.00000000000E+00  0.00000000000E+00  0.39999999674E+01  0.40000000000E+01  0.51100000000E-03 0.  1.
    9000002   -1    0    0    0    0 -0.00000000000E+00 -0.00000000000E+00  0.00000000000E+00  0.93800000000E+00  0.93800000000E+00 0.  1.
         11    1    1    2    0    0  0.85162401309E-01 -0.40055725905E+00  0.15689904841E+01  0.16215517730E+01  0.51100000000E-03 0.  1.
    9000002    1    1    2    0    0 -0.18180114251E+00  0.87472024622E+00  0.60924000118E+00  0.14315042940E+01  0.93800000000E+00 0.  1.
         22    1    1    2    0    0  0.96638741200E-01 -0.47416298717E+00  0.18217694821E+01  0.18849439330E+01  0.00000000000E+00 0.  1.
</event>
<event>
 5    1  0.2173147E+002  0.1598777E+01  0.7818608E-02  0.3354692E+00
         11   -1    0    0    0    0  0.00000000000E+00  0.00000000000E+00  0.39999999674E+01  0.40000000000E+01  0.51100000000E-03 0. -1.
    9000002   -1    0    0    0    0 -0.00000000000E+00 -0.00000000000E+00  0.00000000000E+00  0.93800000000E+00  0.93800000000E+00 0.  1.
         11    1    1    2    0    0  0.14279840019E-01 -0.14384954872E-01  0.38229809440E+00  0.38283538873E+00  0.51100000000E-03 0. -1.
    9000002    1    1    2    0    0 -0.26208290620E+00 -0.39896795758E-01  0.47434359469E-01  0.97589611255E+00  0.93800000000E+00 0.  1.
         22    1    1    2    0    0  0.24780306618E+00  0.54281750630E-01  0.35702675135E+01  0.35792684987E+01  0.00000000000E+00 0. -1.
</event>
<event>
 5    1  0.2173147E+002  0.1599642E+01  0.7818608E-02  0.3353752E+00
         11   -1    0    0    0    0  0.00000000000E+00  0.00000000000E+00  0.39999999674E+01  0.40000000000E+01  0.51100000000E-03 0.  1.
    9000002   -1    0    0    0    0 -0.00000000000E+00 -0.00000000000E+00  0.00000000000E+00  0.93800000000E+00  0.93800000000E+00 0. -1.
         11    1    1    2    0    0 -0.57582514870E-01 -0.19924665223E-01  0.79397719211E+00  0.79631198723E+00  0.51100000000E-03 0.  1.
    9000002    1    1    2    0    0  0.26634560729E+00  0.78877424869E-01  0.51400529570E-01  0.97961607026E+00  0.93800000000E+00 0. -1.
         22    1    1    2    0    0 -0.20876309242E+00 -0.58952759647E-01  0.31546222457E+01  0.31620719425E+01  0.00000000000E+00 0.  1.
</event>
<event>
 5    1  0.2173147E+002  0.1599677E+01  0.7818608E-02  0.3353714E+00
         11   -1    0    0    0    0  0.00000000000E+00  0.00000000000E+00  0.39999999674E+01  0.40000000000E+01  0.51100000000E-03 0. -1.
    9000002   -1    0    0    0    0 -0.00000000000E+00 -0.00000000000E+00  0.00000000000E+00  0.93800000000E+00  0.93800000000E+00 0. -1.
         11    1    1    2    0    0 -0.12027906980E+00 -0.45553625308E-01  0.12630340777E+01  0.12695658825E+01  0.51100000000E-03 0. -1.
    9000002    1    1    2    0    0  0.36982457883E+00  0.14200869364E+00  0.10580521211E+00  0.10237067115E+01  0.93800000000E+00 0. -1.
         22    1    1    2    0    0 -0.24954550903E+00 -0.96455068335E-01  0.26311606776E+01  0.26447274061E+01  0.00000000000E+00 0. -1.
</event>
<event>
 5    1  0.2173147E+002  0.1599435E+01  0.7818608E-02  0.3353977E+00
         11   -1    0    0    0    0  0.00000000000E+00  0.00000000000E+00  0.39999999674E+01  0.40000000000E+01  0.51100000000E-03 0.  1.
    9000002   -1    0    0    0    0 -0.00000000000E+00 -0.00000000000E+00  0.00000000000E+00  0.93800000000E+00  0.93800000000E+00 0. -1.
         11    1    1    2    0    0 -0.28252540527E-02  0.11023838774E+00  0.14046081924E+01  0.14089304169E+01  0.51100000000E-03 0.  1.
    9000002    1    1    2    0    0 -0.42001453087E-01 -0.31462481613E+00  0.67517503952E-01  0.99255000394E+00  0.93800000000E+00 0. -1.
         22    1    1    2    0    0  0.44826707139E-01  0.20438642839E+00  0.25278742710E+01  0.25365195792E+01  0.00000000000E+00 0.  1.
</event>
<event>
 5    1  0.2173147E+002  0.1598584E+01  0.7818608E-02  0.3354902E+00
         11   -1    0    0    0    0  0.00000000000E+00  0.00000000000E+00  0.39999999674E+01  0.40000000000E+01  0.51100000000E-03 0. -1.
    9000002   -1    0    0    0    0 -0.00000000000E+00 -0.00000000000E+00  0.00000000000E+00  0.93800000000E+00  0.93800000000E+00 0.  1.
         11    1    1    2    0    0  0.11492545369E+00 -0.54949099082E-01  0.19115762969E+01  0.19158161351E+01  0.51100000000E-03 0. -1.
    9000002    1    1    2    0    0 -0.31551165133E+00  0.13109773827E+00  0.79076848957E-01  0.10014146829E+01  0.93800000000E+00 0.  1.
         22    1    1    2    0    0  0.20058619764E+00 -0.76148639185E-01  0.20093468215E+01  0.20207691820E+01  0.00000000000E+00 0. -1.
</event>
<event>
 5    1  0.2173147E+002  0.1599671E+01  0.7818608E-02  0.3353720E+00
         11   -1    0    0    0    0  0.00000000000E+00  0.00000000000E+00  0.39999999674E+01  0.40000000000E+01  0.51100000000E-03 0. -1.
    9000002   -1    0    0    0    0 -0.00000000000E+00 -0.00000000000E+00  0.00000000000E+00  0.93800000000E+00  0.93800000000E+00 0.  1.
         11    1    1    2    0    0  0.17931021976E-01 -0.24066583913E-01  0.46486158995E+00  0.46582966945E+00  0.51100000000E-03 0. -1.
    9000002    1    1    2    0    0 -0.15704375714E+00  0.21943647801E+00  0.48451501954E-01  0.97724442059E+00  0.93800000000E+00 0.  1.
         22    1    1    2    0    0  0.13911273516E+00 -0.19536989409E+00  0.34866868755E+01  0.34949259100E+01  0.00000000000E+00 0. -1.
</event>
<event>
 5    1  0.2173147E+002  0.1508776E+01  0.7818608E-02  0.3458744E+00
         11   -1    0    0    0    0  0.00000000000E+00  0.00000000000E+00  0.39999999674E+01  0.40000000000E+01  0.51100000000E-03 0. -1.
    9000002   -1    0    0    0    0 -0.00000000000E+00 -0.00000000000E+00  0.00000000000E+00  0.93800000000E+00  0.93800000000E+00 0.  1.
         11    1    1    2    0    0  0.29320133523E+00 -0.50460632769E-01  0.55635670441E+00  0.63090913934E+00  0.51100000000E-03 0. -1.
    9000002    1    1    2    0    0 -0.21468224198E+00  0.24454540768E+00  0.14683473111E+00  0.10036410512E+01  0.93800000000E+00 0.  1.
         22    1    1    2    0    0 -0.78519093248E-01 -0.19408477491E+00  0.32968085318E+01  0.33034498094E+01  0.00000000000E+00 0. -1.
</event>
<event>
 5    1  0.2173147E+002  0.1565647E+01  0.7818608E-02  0.3391514E+00
         11   -1    0    0    0    0  0.00000000000E+00  0.00000000000E+00  0.39999999674E+01  0.40000000000E+01  0.51100000000E-03 0. -1.
    9000002   -1    0    0    0    0 -0.00000000000E+00 -0.00000000000E+00  0.00000000000E+00  0.93800000000E+00  0.93800000000E+00 0. -1.
         11    1    1    2    0    0 -0.82961738153E-01 -0.15392714113E+00  0.99117866903E+00  0.10064847887E+01  0.51100000000E-03 0. -1.
    9000002    1    1    2    0    0 -0.75397564856E-01 -0.37151263800E-01  0.29857104516E-01  0.94223163600E+00  0.93800000000E+00 0. -1.
         22    1    1    2    0    0  0.15835930301E+00  0.19107840493E+00  0.29789641938E+01  0.29892835753E+01  0.00000000000E+00 0. -1.
</event>
<event>
 5    1  0.2173147E+002  0.1599676E+01  0.7818608E-02  0.3353715E+00
         11   -1    0    0    0    0  0.00000000000E+00  0.00000000000E+00  0.39999999674E+01  0.40000000000E+01  0.51100000000E-03 0. -1.
    9000002   -1    0    0    0    0 -0.00000000000E+00 -0.00000000000E+00  0.00000000000E+00  0.93800000000E+00  0.93800000000E+00 0.  1.
         11    1    1    2    0    0  0.32005306280E+00  0.89477739779E-01  0.22904090676E+01  0.23143928334E+01  0.51100000000E-03 0. -1.
    9000002    1    1    2    0    0 -0.52990882949E+00 -0.14986516738E+00  0.20949232501E+00  0.11076975987E+01  0.93800000000E+00 0.  1.
         22    1    1    2    0    0  0.20985576669E+00  0.60387427604E-01  0.15000985747E+01  0.15159095679E+01  0.00000000000E+00 0. -1.
</event>
<event>
 5    1  0.2173147E+002  0.1599677E+01  0.7818608E-02  0.3353714E+00
         11   -1    0    0    0    0  0.00000000000E+00  0.00000000000E+00  0.39999999674E+01  0.40000000000E+01  0.51100000000E-03 0.  1.
    9000002   -1    0    0    0    0 -0.00000000000E+00 -0.00000000000E+00  0.00000000000E+00  0.93800000000E+00  0.93800000000E+00 0.  1.
         11    1    1    2    0    0 -0.24072999001E+00 -0.18916011378E+00  0.15754667393E+01  0.16049386856E+01  0.51100000000E-03 0.  1.
    9000002    1    1    2    0    0  0.55750520543E+00  0.43665348088E+00  0.35918821827E+00  0.12289582957E+01  0.93800000000E+00 0.  1.
         22    1    1    2    0    0 -0.31677521542E+00 -0.24749336710E+00  0.20653450098E+01  0.21041030187E+01  0.00000000000E+00 0.  1.
</event>
<event>
 5    1  0.2173147E+002  0.1599673E+01  0.7818608E-02  0.3353719E+00
         11   -1    0    0    0    0  0.00000000000E+00  0.00000000000E+00  0.39999999674E+01  0.40000000000E+01  0.51100000000E-03 0. -1.
    9000002   -1    0    0    0    0 -0.00000000000E+00 -0.00000000000E+00  0.00000000000E+00  0.93800000000E+00  0.93800000000E+00 0.  1.
         11    1    1    2    0    0  0.15406728682E-01 -0.36802346133E-02  0.21979503746E+00  0.22036567570E+00  0.51100000000E-03 0.  1.
    9000002    1    1    2    0    0 -0.26829644720E+00  0.49744873190E-01  0.49555546006E-01  0.97813970788E+00  0.93800000000E+00 0.  1.
         22    1    1    2    0    0  0.25288971852E+00 -0.46064638576E-01  0.37306493839E+01  0.37394946164E+01  0.00000000000E+00 0. -1.
</event>
<event>
 5    1  0.2173147E+002  0.1544446E+01  0.7818608E-02  0.3415959E+00
         11   -1    0    0    0    0  0.00000000000E+00  0.00000000000E+00  0.39999999674E+01  0.40000000000E+01  0.51100000000E-03 0. -1.
    9000002   -1    0    0    0    0 -0.00000000000E+00 -0.00000000000E+00  0.00000000000E+00  0.93800000000E+00  0.93800000000E+00 0. -1.
         11    1    1    2    0    0  0.36889108015E+00 -0.11458999220E+00  0.32699652336E+01  0.32927016849E+01  0.51100000000E-03 0. -1.
    9000002    1    1    2    0    0 -0.24756047799E+00  0.28772118720E+00  0.14373163849E+00  0.10220432749E+01  0.93800000000E+00 0. -1.
         22    1    1    2    0    0 -0.12133060216E+00 -0.17313119500E+00  0.58630309526E+00  0.62325504027E+00  0.00000000000E+00 0. -1.
</event>
<event>
 5    1  0.2173147E+002  0.1588805E+01  0.7818608E-02  0.3365605E+00
         11   -1    0    0    0    0  0.00000000000E+00  0.00000000000E+00  0.39999999674E+01  0.40000000000E+01  0.51100000000E-03 0.  1.
    9000002   -1    0    0    0    0 -0.00000000000E+00 -0.00000000000E+00  0.00000000000E+00  0.93800000000E+00  0.93800000000E+00 0.  1.
         11    1    1    2    0    0 -0.80760442081E-01  0.36364830860E-01  0.62918911515E+00  0.63539267676E+00  0.51100000000E-03 0.  1.
    9000002    1    1    2    0    0 -0.67324976242E-01 -0.28742326616E+00  0.66646846087E-01  0.98561178384E+00  0.93800000000E+00 0.  1.
         22    1    1    2    0    0  0.14808541832E+00  0.25105843530E+00  0.33041640061E+01  0.33169955394E+01  0.00000000000E+00 0.  1.
</event>
<event>
 5    1  0.2173147E+002  0.1599640E+01  0.7818608E-02  0.3353754E+00
         11   -1    0    0    0    0  0.00000000000E+00  0.00000000000E+00  0.39999999674E+01  0.40000000000E+01  0.51100000000E-03 0. -1.
    9000002   -1    0    0    0    0 -0.00000000000E+00 -0.00000000000E+00  0.00000000000E+00  0.93800000000E+00  0.93800000000E+00 0. -1.
         11    1    1    2    0    0 -0.12865696999E+00  0.13354724505E+00  0.17589575071E+01  0.17687055310E+01  0.51100000000E-03 0. -1.
    9000002    1    1    2    0    0  0.28041334362E+00 -0.28002139209E+00  0.10590975994E+00  0.10237697498E+01  0.93800000000E+00 0. -1.
         22    1    1    2    0    0 -0.15175637363E+00  0.14647414704E+00  0.21351327004E+01  0.21455247192E+01  0.00000000000E+00 0. -1.
</event>
<event>
 5    1  0.2173147E+002  0.1522134E+01  0.7818608E-02  0.3442470E+00
         11   -1    0    0    0    0  0.00000000000E+00  0.00000000000E+00  0.39999999674E+01  0.40000000000E+01  0.51100000000E-03 0. -1.
    9000002   -1    0    0    0    0 -0.00000000000E+00 -0.00000000000E+00  0.00000000000E+00  0.93800000000E+00  0.93800000000E+00 0.  1.
         11    1    1    2    0    0 -0.10307349424E+00 -0.30166987810E+00  0.19771568256E+01  0.20026927459E+01  0.51100000000E-03 0. -1.
    9000002    1    1    2    0    0 -0.59209627741E-01 -0.11875823384E-01  0.60967092251E-01  0.94191708846E+00  0.93800000000E+00 0.  1.
         22    1    1    2    0    0  0.16228312198E+00  0.31354570149E+00  0.19618760495E+01  0.19933901656E+01  0.00000000000E+00 0. -1.
</event>
<event>
 5    1  0.2173147E+002  0.1599677E+01  0.7818608E-02  0.3353714E+00
         11   -1    0    0    0    0  0.00000000000E+00  0.00000000000E+00  0.39999999674E+01  0.40000000000E+01  0.51100000000E-03 0.  1.
    9000002   -1    0    0    0    0 -0.00000000000E+00 -0.00000000000E+00  0.00000000000E+00  0.93800000000E+00  0.93800000000E+00 0. -1.
         11    1    1    2    0    0 -0.89288895383E-01  0.19607197944E+00  0.17756488805E+01  0.17886715561E+01  0.51100000000E-03 0.  1.
    9000002    1    1    2    0    0  0.19343131308E+00 -0.42596113326E+00  0.14904597931E+00  0.10587338022E+01  0.93800000000E+00 0. -1.
         22    1    1    2    0    0 -0.10414241770E+00  0.22988915383E+00  0.20753051076E+01  0.20905946417E+01  0.00000000000E+00 0.  1.
</event>
<event>
 5    1  0.2173147E+002  0.1595158E+01  0.7818608E-02  0.3358636E+00
         11   -1    0    0    0    0  0.00000000000E+00  0.00000000000E+00  0.39999999674E+01  0.40000000000E+01  0.51100000000E-03 0. -1.
    9000002   -1    0    0    0    0 -0.00000000000E+00 -0.00000000000E+00  0.00000000000E+00  0.93800000000E+00  0.93800000000E+00 0.  1.
         11    1    1    2    0    0  0.10448447376E+00  0.24466497484E+00  0.16611143559E+01  0.16822838998E+01  0.51100000000E-03 0. -1.
    9000002    1    1    2    0    0 -0.30928644854E+00 -0.39154822913E+00  0.17448093236E+00  0.10766873821E+01  0.93800000000E+00 0.  1.
         22    1    1    2    0    0  0.20480197478E+00  0.14688325429E+00  0.21644046791E+01  0.21790287181E+01  0.00000000000E+00 0. -1.
</event>
<event>
 5    1  0.2173147E+002  0.1596154E+01  0.7818608E-02  0.3357548E+00
         11   -1    0    0    0    0  0.00000000000E+00  0.00000000000E+00  0.39999999674E+01  0.40000000000E+01  0.51100000000E-03 0.  1.
    9000002   -1    0    0    0    0 -0.00000000000E+00 -0.00000000000E+00  0.00000000000E+00  0.93800000000E+00  0.93800000000E+00 0.  1.
         11    1    1    2    0    0  0.14500323298E-01 -0.52345325522E-02  0.19365828270E+00  0.19427159156E+00  0.51100000000E-03 0.  1.
    9000002    1    1    2    0    0  0.22812304154E+00 -0.24104371745E+00  0.76519659304E-01  0.99791856084E+00  0.93800000000E+00 0.  1.
         22    1    1    2    0    0 -0.24262336484E+00  0.24627825000E+00  0.37298220254E+01  0.37458098476E+01  0.00000000000E+00 0.  1.
</event>
<event>
 5    1  0.2173147E+002  0.1506679E+01  0.7818608E-02  0.3461326E+00
         11   -1    0    0    0    0  0.00000000000E+00  0.00000000000E+00  0.39999999674E+01  0.40000000000E+01  0.51100000000E-03 0. -1.
    9000002   -1    0    0    0    0 -0.00000000000E+00 -0.00000000000E+00  0.00000000000E+00  0.93800000000E+00  0.93800000000E+00 0.  1.
         11    1    1    2    0    0 -0.37721393502E-01 -0.31545920885E+00  0.26242532829E+01  0.26434150204E+01  0.51100000000E-03 0. -1.
    9000002    1    1    2    0    0  0.26486116332E+00  0.14096151862E-02  0.12198438287E+00  0.98228183965E+00  0.93800000000E+00 0.  1.
         22    1    1    2    0    0 -0.22713976982E+00  0.31404959366E+00  0.12537623015E+01  0.13123031399E+01  0.00000000000E+00 0. -1.
</event>
<event>
 5    1  0.2173147E+002  0.1599677E+01  0.7818608E-02  0.3353714E+00
         11   -1    0    0    0    0  0.00000000000E+00  0.00000000000E+00  0.39999999674E+01  0.40000000000E+01  0.51100000000E-03 0. -1.
    9000002   -1    0    0    0    0 -0.00000000000E+00 -0.00000000000E+00  0.00000000000E+00  0.93800000000E+00  0.93800000000E+00 0.  1.
         11    1    1    2    0    0 -0.32693866284E-01  0.78290886765E-02  0.56043834520E+00  0.56144597550E+00  0.51100000000E-03 0.  1.
    9000002    1    1    2    0    0  0.23036235516E+00 -0.52574235096E-01  0.37050419648E-01  0.96801218921E+00  0.93800000000E+00 0.  1.
         22    1    1    2    0    0 -0.19766848888E+00  0.44745146419E-01  0.34025112025E+01  0.34085418353E+01  0.00000000000E+00 0. -1.
</event>
<event>
 5    1  0.2173147E+002  0.1599677E+01  0.7818608E-02  0.3353714E+00
         11   -1    0    0    0    0  0.00000000000E+00  0.00000000000E+00  0.39999999674E+01  0.40000000000E+01  0.51100000000E-03 0. -1.
    9000002   -1    0    0    0    0 -0.00000000000E+00 -0.00000000000E+00  0.00000000000E+00  0.93800000000E+00  0.93800000000E+00 0. -1.
         11    1    1    2    0    0 -0.14725321687E+00  0.30214673342E+00  0.11659835977E+01  0.12134637076E+01  0.51100000000E-03 0.  1.
    9000002    1    1    2    0    0  0.41596813361E+00 -0.85346513150E+00  0.70594215602E+00  0.15098445438E+01  0.93800000000E+00 0. -1.
         22    1    1    2    0    0 -0.26871491674E+00  0.55131839808E+00  0.21280742137E+01  0.22146917486E+01  0.00000000000E+00 0. -1.
</event>
<event>
 5    1  0.2173147E+002  0.1591272E+01  0.7818608E-02  0.3362891E+00
         11   -1    0    0    0    0  0.00000000000E+00  0.00000000000E+00  0.39999999674E+01  0.40000000000E+01  0.51100000000E-03 0.  1.
    9000002   -1    0    0    0    0 -0.00000000000E+00 -0.00000000000E+00  0.00000000000E+00  0.93800000000E+00  0.93800000000E+00 0. -1.
         11    1    1    2    0    0  0.69964730735E-01 -0.94707227429E-02  0.85830514484E+00  0.86120423879E+00  0.51100000000E-03 0.  1.
    9000002    1    1    2    0    0  0.68855125108E-01  0.19361249542E+00  0.34301847068E-01  0.96085766030E+00  0.93800000000E+00 0. -1.
         22    1    1    2    0    0 -0.13881985584E+00 -0.18414177268E+00  0.31073929755E+01  0.31159381009E+01  0.00000000000E+00 0.  1.
</event>
<event>
 5    1  0.2173147E+002  0.1599596E+01  0.7818608E-02  0.3353802E+00
         11   -1    0    0    0    0  0.00000000000E+00  0.00000000000E+00  0.39999999674E+01  0.40000000000E+01  0.51100000000E-03 0. -1.
    9000002   -1    0    0    0    0 -0.00000000000E+00 -0.00000000000E+00  0.00000000000E+00  0.93800000000E+00  0.93800000000E+00 0.  1.
         11    1    1    2    0    0 -0.37114088846E-01  0.84205985493E-01  0.11155951259E+01  0.11193841386E+01  0.51100000000E-03 0. -1.
    9000002    1    1    2    0    0  0.98149031140E-01 -0.28666823804E+00  0.61329822519E-01  0.98763214718E+00  0.93800000000E+00 0.  1.
         22    1    1    2    0    0 -0.61034942294E-01  0.20246225255E+00  0.28230750189E+01  0.28309837142E+01  0.00000000000E+00 0. -1.
</event>
<event>
 5    1  0.2173147E+002  0.1599674E+01  0.7818608E-02  0.3353717E+00
         11   -1    0    0    0    0  0.00000000000E+00  0.00000000000E+00  0.39999999674E+01  0.40000000000E+01  0.51100000000E-03 0. -1.
    9000002   -1    0    0    0    0 -0.00000000000E+00 -0.00000000000E+00  0.00000000000E+00  0.93800000000E+00  0.93800000000E+00 0.  1.
         11    1    1    2    0    0  0.68397337799E-01 -0.26425927962E-01  0.70353048982E+00  0.70734145695E+00  0.51100000000E-03 0. -1.
    9000002    1    1    2    0    0 -0.37215151745E+00  0.15227804983E+00  0.10909200050E+00  0.10263675857E+01  0.93800000000E+00 0.  1.
         22    1    1    2    0    0  0.30375417965E+00 -0.12585212187E+00  0.31873774770E+01  0.32042909574E+01  0.00000000000E+00 0.  1.
</event>
<event>
 5    1  0.2173147E+002  0.1599675E+01  0.7818608E-02  0.3353717E+00
         11   -1    0    0    0    0  0.00000000000E+00  0.00000000000E+00  0.39999999674E+01  0.40000000000E+01  0.51100000000E-03 0. -1.
    9000002   -1    0    0    0    0 -0.00000000000E+00 -0.00000000000E+00  0.00000000000E+00  0.93800000000E+00  0.93800000000E+00 0.  1.
         11    1    1    2    0    0  0.66505804929E-01  0.47507486343E-02  0.74467431547E+00  0.74765345511E+00  0.51100000000E-03 0. -1.
    9000002    1    1    2    0    0 -0.34581492767E+00 -0.18895918208E-01  0.80393914328E-01  0.10031212297E+01  0.93800000000E+00 0.  1.
         22    1    1    2    0    0  0.27930912274E+00  0.14145169574E-01  0.31749317376E+01  0.31872253152E+01  0.00000000000E+00 0. -1.
</event>
<event>
 5    1  0.2173147E+002  0.1599671E+01  0.7818608E-02  0.3353721E+00
         11   -1    0    0    0    0  0.00000000000E+00  0.00000000000E+00  0.39999999674E+01  0.40000000000E+01  0.51100000000E-03 0.  1.
    9000002   -1    0    0    0    0 -0.00000000000E+00 -0.00000000000E+00  0.00000000000E+00  0.93800000000E+00  0.93800000000E+00 0. -1.
         11    1    1    2    0    0 -0.39971207731E+00  0.79421478169E-01  0.21006105066E+01  0.21397762214E+01  0.51100000000E-03 0.  1.
    9000002    1    1    2    0    0  0.69052938068E+00 -0.14196500790E+00  0.35566738641E+00  0.12261028419E+01  0.93800000000E+00 0. -1.
         22    1    1    2    0    0 -0.29081730336E+00  0.62543529734E-01  0.15437220743E+01  0.15721209368E+01  0.00000000000E+00 0.  1.
</event>
<event>
 5    1  0.2173147E+002  0.1598570E+01  0.7818608E-02  0.3354917E+00
         11   -1    0    0    0    0  0.00000000000E+00  0.00000000000E+00  0.39999999674E+01  0.40000000000E+01  0.51100000000E-03 0.  1.
    9000002   -1    0    0    0    0 -0.00000000000E+00 -0.00000000000E+00  0.00000000000E+00  0.93800000000E+00  0.93800000000E+00 0. -1.
         11    1    1    2    0    0 -0.82577287926E-03  0.11622242209E-01  0.80541951911E-01  0.81381973148E-01  0.51100000000E-03 0.  1.
    9000002    1    1    2    0    0  0.52516981488E+00 -0.30732513251E+00  0.25990963737E+00  0.11478889716E+01  0.93800000000E+00 0. -1.
         22    1    1    2    0    0 -0.52434404200E+00  0.29570289030E+00  0.36595483781E+01  0.37087290552E+01  0.00000000000E+00 0.  1.
</event>
<event>
 5    1  0.2173147E+002  0.1599673E+01  0.7818608E-02  0.3353719E+00
         11   -1    0    0    0    0  0.00000000000E+00  0.00000000000E+00  0.39999999674E+01  0.40000000000E+01  0.51100000000E-03 0.  1.
    9000002   -1    0    0    0    0 -0.00000000000E+00 -0.00000000000E+00  0.00000000000E+00  0.93800000000E+00  0.93800000000E+00 0. -1.
         11    1    1    2    0    0  0.17542525279E-01  0.60613517265E-02  0.29274634906E+00  0.29333456358E+00  0.51100000000E-03 0.  1.
    9000002    1    1    2    0    0 -0.23186815568E+00 -0.66504858592E-01  0.38629917203E-01  0.96928943476E+00  0.93800000000E+00 0. -1.
         22    1    1    2    0    0  0.21432563040E+00  0.60443506866E-01  0.36686237011E+01  0.36753760017E+01  0.00000000000E+00 0.  1.
</event>
<event>
 5    1  0.2173147E+002  0.1598757E+01  0.7818608E-02  0.3354714E+00
         11   -1    0    0    0    0  0.00000000000E+00  0.00000000000E+00  0.39999999674E+01  0.40000000000E+01  0.51100000000E-03 0. -1.
    9000002   -1    0    0    0    0 -0.00000000000E+00 -0.00000000000E+00  0.00000000000E+00  0.93800000000E+00  0.93800000000E+00 0. -1.
         11    1    1    2    0    0  0.32861060185E-01 -0.58658697489E-01  0.12969597756E+01  0.12987015103E+01  0.51100000000E-03 0. -1.
    9000002    1    1    2    0    0 -0.15528580411E+00  0.26637270520E+00  0.64194639624E-01  0.98946099003E+00  0.93800000000E+00 0. -1.
         22    1    1    2    0    0  0.12242474393E+00 -0.20771400771E+00  0.26388455521E+01  0.26498374997E+01  0.00000000000E+00 0. -1.
</event>
<event>
 5    1  0.2173147E+002  0.1582176E+01  0.7818608E-02  0.3372939E+00
         11   -1    0    0    0    0  0.00000000000E+00  0.00000000000E+00  0.39999999674E+01  0.40000000000E+01  0.51100000000E-03 0. -1.
    9000002   -1    0    0    0    0 -0.00000000000E+00 -0.00000000000E+00  0.00000000000E+00  0.93800000000E+00  0.93800000000E+00 0.  1.
         11    1    1    2    0    0 -0.36657187811E+00 -0.24264977037E+00  0.22001946855E+01  0.22436824125E+01  0.51100000000E-03 0. -1.
    9000002    1    1    2    0    0  0.37056528662E+00  0.50041010263E+00  0.28993551197E+00  0.11625985995E+01  0.93800000000E+00 0.  1.
         22    1    1    2    0    0 -0.39934085143E-02 -0.25776033226E+00  0.15098697699E+01  0.15317189880E+01  0.00000000000E+00 0. -1.
</event>
<event>
 5    1  0.2173147E+002  0.1532807E+01  0.7818608E-02  0.3429685E+00
         11   -1    0    0    0    0  0.00000000000E+00  0.00000000000E+00  0.39999999674E+01  0.40000000000E+01  0.51100000000E-03 0. -1.
    9000002   -1    0    0    0    0 -0.00000000000E+00 -0.00000000000E+00  0.00000000000E+00  0.93800000000E+00  0.93800000000E+00 0. -1.
         11    1    1    2    0    0 -0.66168259237E-01  0.19763106756E+00  0.33722854916E+01  0.33787195763E+01  0.51100000000E-03 0. -1.
    9000002    1    1    2    0    0 -0.30953581796E-01  0.56229086425E-02  0.50749029070E-01  0.93989850797E+00  0.93800000000E+00 0. -1.
         22    1    1    2    0    0  0.97121841032E-01 -0.20325397620E+00  0.57696544674E+00  0.61938191576E+00  0.00000000000E+00 0.  1.
</event>
<event>
 5    1  0.2173147E+002  0.1599561E+01  0.7818608E-02  0.3353840E+00
         11   -1    0    0    0    0  0.00000000000E+00  0.00000000000E+00  0.39999999674E+01  0.40000000000E+01  0.51100000000E-03 0.  1.
    9000002   -1    0    0    0    0 -0.00000000000E+00 -0.00000000000E+00  0.00000000000E+00  0.93800000000E+00  0.93800000000E+00 0.  1.
         11    1    1    2    0    0 -0.60229728524E-01  0.36172330472E-01  0.38067468131E+00  0.38710403228E+00  0.51100000000E-03 0.  1.
    9000002    1    1    2    0    0  0.51240246384E+00 -0.36525735621E+00  0.27817999269E+00  0.11632701017E+01  0.93800000000E+00 0.  1.
         22    1    1    2    0    0 -0.45217273532E+00  0.32908502574E+00  0.33411452934E+01  0.33876258660E+01  0.00000000000E+00 0.  1.
</event>
<event>
 5    1  0.2173147E+002  0.1599607E+01  0.7818608E-02  0.3353790E+00
         11   -1    0    0    0    0  0.00000000000E+00  0.00000000000E+00  0.39999999674E+01  0.40000000000E+01  0.51100000000E-03 0. -1.
    9000002   -1    0    0    0    0 -0.00000000000E+00 -0.00000000000E+00  0.00000000000E+00  0.93800000000E+00  0.93800000000E+00 0. -1.
         11    1    1    2    0    0  0.10521344811E+00 -0.14979611128E+00  0.18976068118E+01  0.19064156467E+01  0.51100000000E-03 0. -1.
    9000002    1    1    2    0    0 -0.21294397824E+00  0.32815817633E+00  0.10316681772E+00  0.10215284229E+01  0.93800000000E+00 0. -1.
         22    1    1    2    0    0  0.10773053012E+00 -0.17836206505E+00  0.19992263378E+01  0.20100559304E+01  0.00000000000E+00 0.  1.
</event>
<event>
 5    1  0.2173147E+002  0.1574243E+01  0.7818608E-02  0.3381803E+00
         11   -1    0    0    0    0  0.00000000000E+00  0.00000000000E+00  0.39999999674E+01  0.40000000000E+01  0.51100000000E-03 0.  1.
    9000002   -1    0    0    0    0 -0.00000000000E+00 -0.00000000000E+00  0.00000000000E+00  0.93800000000E+00  0.93800000000E+00 0.  1.
         11    1    1    2    0    0  0.43389489922E-01  0.19576564707E-01  0.30669457162E+01  0.30673151414E+01  0.51100000000E-03 0.  1.
    9000002    1    1    2    0    0 -0.24898325500E+00 -0.95410120852E-01  0.67136375912E-01  0.97746971585E+00  0.93800000000E+00 0.  1.
         22    1    1    2    0    0  0.20559376508E+00  0.75833556144E-01  0.86591787525E+00  0.89321514271E+00  0.00000000000E+00 0.  1.
</event>
<event>
 5    1  0.2173147E+002  0.1599504E+01  0.7818608E-02  0.3353902E+00
         11   -1    0    0    0    0  0.00000000000E+00  0.00000000000E+00  0.39999999674E+01  0.40000000000E+01  0.51100000000E-03 0.  1.
    9000002   -1    0    0    0    0 -0.00000000000E+00 -0.00000000000E+00  0.00000000000E+00  0.93800000000E+00  0.93800000000E+00 0. -1.
         11    1    1    2    0    0  0.32602917940E-01  0.16407187229E-01  0.56934816117E+00  0.57051707758E+00  0.51100000000E-03 0.  1.
    9000002    1    1    2    0    0 -0.27535656461E+00 -0.54366469993E-01  0.52596355305E-01  0.98050360903E+00  0.93800000000E+00 0. -1.
         22    1    1    2    0    0  0.24275364667E+00  0.37959282765E-01  0.33780554509E+01  0.33869793134E+01  0.00000000000E+00 0.  1.
</event>
<event>
 5    1  0.2173147E+002  0.1492296E+01  0.7818608E-02  0.3479254E+00
         11   -1    0    0    0    0  0.00000000000E+00  0.00000000000E+00  0.39999999674E+01  0.40000000000E+01  0.51100000000E-03 0. -1.
    9000002   -1    0    0    0    0 -0.00000000000E+00 -0.00000000000E+00  0.00000000000E+00  0.93800000000E+00  0.93800000000E+00 0. -1.
         11    1    1    2    0    0 -0.19957135289E+00  0.13252472140E+00  0.22590573516E+00  0.32927980347E+00  0.51100000000E-03 0. -1.
    9000002    1    1    2    0    0  0.33255753464E+00 -0.34921029733E+00  0.26109661184E+00  0.10865347608E+01  0.93800000000E+00 0. -1.
         22    1    1    2    0    0 -0.13298618176E+00  0.21668557593E+00  0.35129976204E+01  0.35221854358E+01  0.00000000000E+00 0. -1.
</event>
<event>
 5    1  0.2173147E+002  0.1595176E+01  0.7818608E-02  0.3358616E+00
         11   -1    0    0    0    0  0.00000000000E+00  0.00000000000E+00  0.39999999674E+01  0.40000000000E+01  0.51100000000E-03 0.  1.
    9000002   -1    0    0    0    0 -0.00000000000E+00 -0.00000000000E+00  0.00000000000E+00  0.93800000000E+00  0.93800000000E+00 0. -1.
         11    1    1    2    0    0  0.11400968732E-02 -0.14527911921E+00  0.11809700193E+01  0.11898730058E+01  0.51100000000E-03 0.  1.
    9000002    1    1    2    0    0 -0.15056963361E+00  0.28499636515E+00  0.73033629590E-01  0.99452101726E+00  0.93800000000E+00 0. -1.
         22    1    1    2    0    0  0.14942953674E+00 -0.13971724593E+00  0.27459963185E+01  0.27536059770E+01  0.00000000000E+00 0.  1.
</event>
<event>
 5    1  0.2173147E+002  0.1599676E+01  0.7818608E-02  0.3353715E+00
         11   -1    0    0    0    0  0.00000000000E+00  0.00000000000E+00  0.39999999674E+01  0.40000000000E+01  0.51100000000E-03 0.  1.
    9000002   -1    0    0    0    0 -0.00000000000E+00 -0.00000000000E+00  0.00000000000E+00  0.93800000000E+00  0.93800000000E+00 0. -1.
         11    1    1    2    0    0  0.19187503877E+00  0.17065190635E-01  0.15889050573E+01  0.16005395320E+01  0.51100000000E-03 0.  1.
    9000002    1    1    2    0    0 -0.46406718031E+00 -0.39097910356E-01  0.14765585187E+00  0.10576073208E+01  0.93800000000E+00 0. -1.
         22    1    1    2    0    0  0.27219214154E+00  0.22032719721E-01  0.22634390582E+01  0.22798531472E+01  0.00000000000E+00 0.  1.
</event>
<event>
 5    1  0.2173147E+002  0.1586797E+01  0.7818608E-02  0.3367820E+00
         11   -1    0    0    0    0  0.00000000000E+00  0.00000000000E+00  0.39999999674E+01  0.40000000000E+01  0.51100000000E-03 0.  1.
    9000002   -1    0    0    0    0 -0.00000000000E+00 -0.00000000000E+00  0.00000000000E+00  0.93800000000E+00  0.93800000000E+00 0.  1.
         11    1    1    2    0    0 -0.96883391090E-01 -0.11520825607E+00  0.83792811152E+00  0.85134194947E+00  0.51100000000E-03 0.  1.
    9000002    1    1    2    0    0 -0.59225020686E-01  0.64115782977E+00  0.30571514342E+00  0.11780902829E+01  0.93800000000E+00 0.  1.
         22    1    1    2    0    0  0.15610841178E+00 -0.52594957371E+00  0.28563567124E+01  0.29085677676E+01  0.00000000000E+00 0.  1.
</event>
<event>
 5    1  0.2173147E+002  0.1599675E+01  0.7818608E-02  0.3353716E+00
         11   -1    0    0    0    0  0.00000000000E+00  0.00000000000E+00  0.39999999674E+01  0.40000000000E+01  0.51100000000E-03 0.  1.
    9000002   -1    0    0    0    0 -0.00000000000E+00 -0.00000000000E+00  0.00000000000E+00  0.93800000000E+00  0.93800000000E+00 0.  1.
         11    1    1    2    0    0 -0.10136195215E+00  0.21554325805E-01  0.13199759027E+01  0.13240375671E+01  0.51100000000E-03 0.  1.
    9000002    1    1    2    0    0  0.30440056880E+00 -0.68429851370E-01  0.65013937748E-01  0.99066299161E+00  0.93800000000E+00 0.  1.
         22    1    1    2    0    0 -0.20303861664E+00  0.46875525565E-01  0.26150101269E+01  0.26232994413E+01  0.00000000000E+00 0.  1.
</event>
<event>
 5    1  0.2173147E+002  0.1598283E+01  0.7818608E-02  0.3355229E+00
         11   -1    0    0    0    0  0.00000000000E+00  0.00000000000E+00  0.39999999674E+01  0.40000000000E+01  0.51100000000E-03 0.  1.
    9000002   -1    0    0    0    0 -0.00000000000E+00 -0.00000000000E+00  0.00000000000E+00  0.93800000000E+00  0.93800000000E+00 0. -1.
         11    1    1    2    0    0  0.13567436088E+00  0.18628383204E-02  0.14890317816E+01  0.14952012942E+01  0.51100000000E-03 0.  1.
    9000002    1    1    2    0    0 -0.39635153972E+00 -0.11082791818E+00  0.11559092115E+00  0.10308164878E+01  0.93800000000E+00 0. -1.
         22    1    1    2    0    0  0.26067717885E+00  0.10896507986E+00  0.23953772646E+01  0.24119822180E+01  0.00000000000E+00 0.  1.
</event>
<event>
 5    1  0.2173147E+002  0.1599677E+01  0.7818608E-02  0.3353715E+00
         11   -1    0    0    0    0  0.00000000000E+00  0.00000000000E+00  0.39999999674E+01  0.40000000000E+01  0.51100000000E-03 0.  1.
    9000002   -1    0    0    0    0 -0.00000000000E+00 -0.00000000000E+00  0.00000000000E+00  0.93800000000E+00  0.93800000000E+00 0. -1.
         11    1    1    2    0    0  0.40508961591E-01  0.22246255899E-01  0.47444596065E+00  0.47669183187E+00  0.51100000000E-03 0. -1.
    9000002    1    1    2    0    0 -0.33457502331E+00 -0.18549922432E+00  0.98501415876E-01  0.10177902227E+01  0.93800000000E+00 0. -1.
         22    1    1    2    0    0  0.29406606172E+00  0.16325296842E+00  0.34270525908E+01  0.34435179455E+01  0.00000000000E+00 0.  1.
</event>
<event>
 5    1  0.2173147E+002  0.1599675E+01  0.7818608E-02  0.3353716E+00
         11   -1    0    0    0    0  0.00000000000E+00  0.00000000000E+00  0.39999999674E+01  0.40000000000E+01  0.51100000000E-03 0. -1.
    9000002   -1    0    0    0    0 -0.00000000000E+00 -0.00000000000E+00  0.00000000000E+00  0.93800000000E+00  0.93800000000E+00 0. -1.
         11    1    1    2    0    0 -0.18836779321E-01  0.12013496808E-01  0.34028563809E+00  0.34101865781E+00  0.51100000000E-03 0. -1.
    9000002    1    1    2    0    0  0.22676857652E+00 -0.14569700518E+00  0.48338607081E-01  0.97715516964E+00  0.93800000000E+00 0. -1.
         22    1    1    2    0    0 -0.20793179720E+00  0.13368350837E+00  0.36113757222E+01  0.36198261725E+01  0.00000000000E+00 0. -1.
</event>
<event>
 5    1  0.2173147E+002  0.1598729E+01  0.7818608E-02  0.3354744E+00
         11   -1    0    0    0    0  0.00000000000E+00  0.00000000000E+00  0.39999999674E+01  0.40000000000E+01  0.51100000000E-03 0.  1.
    9000002   -1    0    0    0    0 -0.00000000000E+00 -0.00000000000E+00  0.00000000000E+00  0.93800000000E+00  0.93800000000E+00 0. -1.
         11    1    1    2    0    0 -0.90063396431E-01  0.16115420707E-01  0.44071704747E+00  0.45011431794E+00  0.51100000000E-03 0.  1.
    9000002    1    1    2    0    0  0.56341185888E+00 -0.15761192889E+00  0.23898277147E+00  0.11310310376E+01  0.93800000000E+00 0. -1.
         22    1    1    2    0    0 -0.47334846245E+00  0.14149650818E+00  0.33203001484E+01  0.33568546445E+01  0.00000000000E+00 0.  1.
</event>
<event>
 5    1  0.2173147E+002  0.1599662E+01  0.7818608E-02  0.3353730E+00
         11   -1    0    0    0    0  0.00000000000E+00  0.00000000000E+00  0.39999999674E+01  0.40000000000E+01  0.51100000000E-03 0. -1.
    9000002   -1    0    0    0    0 -0.00000000000E+00 -0.00000000000E+00  0.00000000000E+00  0.93800000000E+00  0.93800000000E+00 0.  1.
         11    1    1    2    0    0  0.21835558168E-01 -0.36188722237E-02  0.33896997695E+00  0.33969220514E+00  0.51100000000E-03 0. -1.
    9000002    1    1    2    0    0 -0.24153205880E+00  0.15921625749E-01  0.38909443834E-01  0.96950976190E+00  0.93800000000E+00 0.  1.
         22    1    1    2    0    0  0.21969650063E+00 -0.12302753525E-01  0.36221205466E+01  0.36287980330E+01  0.00000000000E+00 0. -1.
</event>
<event>
 5    1  0.2173147E+002  0.1594690E+01  0.7818608E-02  0.3359146E+00
         11   -1    0    0    0    0  0.00000000000E+00  0.00000000000E+00  0.39999999674E+01  0.40000000000E+01  0.51100000000E-03 0. -1.
    9000002   -1    0    0    0    0 -0.00000000000E+00 -0.00000000000E+00  0.00000000000E+00  0.93800000000E+00  0.93800000000E+00 0.  1.
         11    1    1    2    0    0  0.39616178488E+00  0.20679112758E-01  0.15396165597E+01  0.15899028894E+01  0.51100000000E-03 0. -1.
    9000002    1    1    2    0    0 -0.73983671631E+00 -0.12712867547E+00  0.41461497342E+00  0.12709325879E+01  0.93800000000E+00 0.  1.
         22    1    1    2    0    0  0.34367493143E+00  0.10644956271E+00  0.20457684342E+01  0.20771645227E+01  0.00000000000E+00 0. -1.
</event>
<event>
 5    1  0.2173147E+002  0.1548946E+01  0.7818608E-02  0.3410711E+00
         11   -1    0    0    0    0  0.00000000000E+00  0.00000000000E+00  0.39999999674E+01  0.40000000000E+01  0.51100000000E-03 0. -1.
    9000002   -1    0    0    0    0 -0.00000000000E+00 -0.00000000000E+00  0.00000000000E+00  0.93800000000E+00  0.93800000000E+00 0. -1.
         11    1    1    2    0    0  0.17940314661E+00  0.11558598498E+00  0.10148639154E+01  0.10370605753E+01  0.51100000000E-03 0. -1.
    9000002    1    1    2    0    0 -0.75682662771E-01  0.23293481111E+00  0.79570482050E-01  0.97270856544E+00  0.93800000000E+00 0. -1.
         22    1    1    2    0    0 -0.10372048384E+00 -0.34852079609E+00  0.29055655699E+01  0.29282308592E+01  0.00000000000E+00 0. -1.
</event>
<event>
 5    1  0.2173147E+002  0.1599620E+01  0.7818608E-02  0.3353776E+00
         11   -1    0    0    0    0  0.00000000000E+00  0.00000000000E+00  0.39999999674E+01  0.40000000000E+01  0.51100000000E-03 0. -1.
    9000002   -1    0    0    0    0 -0.00000000000E+00 -0.00000000000E+00  0.00000000000E+00  0.93800000000E+00  0.93800000000E+00 0. -1.
         11    1    1    2    0    0  0.20769583709E-01  0.22281080333E-01  0.47279590710E+00  0.47377637450E+00  0.51100000000E-03 0. -1.
    9000002    1    1    2    0    0 -0.22058800345E+00 -0.17254591738E+00  0.52272757024E-01  0.98030995200E+00  0.93800000000E+00 0. -1.
         22    1    1    2    0    0  0.19981841974E+00  0.15026483705E+00  0.34749313032E+01  0.34839136735E+01  0.00000000000E+00 0. -1.
</event>
<event>
 5    1  0.2173147E+002  0.1599671E+01  0.7818608E-02  0.3353721E+00
         11   -1    0    0    0    0  0.00000000000E+00  0.00000000000E+00  0.39999999674E+01  0.40000000000E+01  0.51100000000E-03 0.  1.
    9000002   -1    0    0    0    0 -0.00000000000E+00 -0.00000000000E+00  0.00000000000E+00  0.93800000000E+00  0.93800000000E+00 0. -1.
         11    1    1    2    0    0 -0.55587880271E-02 -0.68365969953E-02  0.12243193321E+00  0.12274965814E+00  0.51100000000E-03 0.  1.
    9000002    1    1    2    0    0  0.14916054361E+00  0.21769799172E+00  0.46317691664E-01  0.97551556211E+00  0.93800000000E+00 0. -1.
         22    1    1    2    0    0 -0.14360175558E+00 -0.21086139472E+00  0.38312503425E+01  0.38397347797E+01  0.00000000000E+00 0.  1.
</event>
<event>
 5    1  0.2173147E+002  0.1599246E+01  0.7818608E-02  0.3354182E+00
         11   -1    0    0    0    0  0.00000000000E+00  0.00000000000E+00  0.39999999674E+01  0.40000000000E+01  0.51100000000E-03 0.  1.
    9000002   -1    0    0    0    0 -0.00000000000E+00 -0.00000000000E+00  0.00000000000E+00  0.93800000000E+00  0.93800000000E+00 0. -1.
         11    1    1    2    0    0  0.18205021208E-01  0.18962473925E-01  0.22201687983E+00  0.22356823179E+00  0.51100000000E-03 0.  1.
    9000002    1    1    2    0    0 -0.28143252062E+00 -0.13556673745E+00  0.65514924629E-01  0.99081724315E+00  0.93800000000E+00 0. -1.
         22    1    1    2    0    0  0.26322749942E+00  0.11660426353E+00  0.37124681629E+01  0.37236145251E+01  0.00000000000E+00 0.  1.
</event>
<event>
 5    1  0.2173147E+002  0.1599672E+01  0.7818608E-02  0.3353720E+00
         11   -1    0    0    0    0  0.00000000000E+00  0.00000000000E+00  0.39999999674E+01  0.40000000000E+01  0.51100000000E-03 0.  1.
    9000002   -1    0    0    0    0 -0.00000000000E+00 -0.00000000000E+00  0.00000000000E+00  0.93800000000E+00  0.93800000000E+00 0. -1.
         11    1    1    2    0    0 -0.44826920482E-01  0.25020864241E+00  0.19171263441E+01  0.19339047282E+01  0.51100000000E-03 0.  1.
    9000002    1    1    2    0    0  0.84313895292E-01 -0.50095052628E+00  0.17690109811E+00  0.10812947153E+01  0.93800000000E+00 0. -1.
         22    1    1    2    0    0 -0.39486974810E-01  0.25074188387E+00  0.19059725252E+01  0.19228005565E+01  0.00000000000E+00 0.  1.
</event>
<event>
 5    1  0.2173147E+002  0.1599677E+01  0.7818608E-02  0.3353714E+00
         11   -1    0    0    0    0  0.00000000000E+00  0.00000000000E+00  0.39999999674E+01  0.40000000000E+01  0.51100000000E-03 0. -1.
    9000002   -1    0    0    0    0 -0.00000000000E+00 -0.00000000000E+00  0.00000000000E+00  0.93800000000E+00  0.93800000000E+00 0. -1.
         11    1    1    2    0    0 -0.30724865074E-01 -0.42687863457E-01  0.67427762580E+00  0.67632599299E+00  0.51100000000E-03 0. -1.
    9000002    1    1    2    0    0  0.17816612297E+00  0.24698864421E+00  0.61899037515E-01  0.98814070283E+00  0.93800000000E+00 0. -1.
         22    1    1    2    0    0 -0.14744125790E+00 -0.20430078075E+00  0.32638233040E+01  0.32735333042E+01  0.00000000000E+00 0. -1.
</event>
<event>
 5    1  0.2173147E+002  0.1596482E+01  0.7818608E-02  0.3357191E+00
         11   -1    0    0    0    0  0.00000000000E+00  0.00000000000E+00  0.39999999674E+01  0.40000000000E+01  0.51100000000E-03 0. -1.
    9000002   -1    0    0    0    0 -0.00000000000E+00 -0.00000000000E+00  0.00000000000E+00  0.93800000000E+00  0.93800000000E+00 0.  1.
         11    1    1    2    0    0 -0.13133533171E+00 -0.14024702201E+00  0.21188807842E+01  0.21275747309E+01  0.51100000000E-03 0. -1.
    9000002    1    1    2    0    0  0.34928628204E+00  0.19580176100E+00  0.11082202810E+00  0.10258970506E+01  0.93800000000E+00 0.  1.
         22    1    1    2    0    0 -0.21795095034E+00 -0.55554738991E-01  0.17702971550E+01  0.17845282186E+01  0.00000000000E+00 0. -1.
</event>
<event>
 5    1  0.2173147E+002  0.1593327E+01  0.7818608E-02  0.3360638E+00
         11   -1    0    0    0    0  0.00000000000E+00  0.00000000000E+00  0.39999999674E+01  0.40000000000E+01  0.51100000000E-03 0.  1.
    9000002   -1    0    0    0    0 -0.00000000000E+00 -0.00000000000E+00  0.00000000000E+00  0.93800000000E+00  0.93800000000E+00 0. -1.
         11    1    1    2    0    0  0.25389716464E-01  0.10083964427E+00  0.67380518250E+00  0.68178219150E+00  0.51100000000E-03 0.  1.
    9000002    1    1    2    0    0  0.16907819820E+00 -0.30758327360E+00  0.87746154092E-01  0.10053548104E+01  0.93800000000E+00 0. -1.
         22    1    1    2    0    0 -0.19446791466E+00  0.20674362933E+00  0.32384486308E+01  0.32508629981E+01  0.00000000000E+00 0.  1.
</event>
<event>
 5    1  0.2173147E+002  0.1599650E+01  0.7818608E-02  0.3353744E+00
         11   -1    0    0    0    0  0.00000000000E+00  0.00000000000E+00  0.39999999674E+01  0.40000000000E+01  0.51100000000E-03 0.  1.
    9000002   -1    0    0    0    0 -0.00000000000E+00 -0.00000000000E+00  0.00000000000E+00  0.93800000000E+00  0.93800000000E+00 0.  1.
         11    1    1    2    0    0 -0.45311597096E-02 -0.24486841594E+00  0.20785531924E+01  0.20929320838E+01  0.51100000000E-03 0.  1.
    9000002    1    1    2    0    0 -0.67029531679E-03  0.46147957262E+00  0.14491433889E+00  0.10553710299E+01  0.93800000000E+00 0.  1.
         22    1    1    2    0    0  0.52014550264E-02 -0.21661115668E+00  0.17765324361E+01  0.17896968863E+01  0.00000000000E+00 0.  1.
</event>
<event>
 5    1  0.2173147E+002  0.1597598E+01  0.7818608E-02  0.3355974E+00
         11   -1    0    0    0    0  0.00000000000E+00  0.00000000000E+00  0.39999999674E+01  0.40000000000E+01  0.51100000000E-03 0. -1.
    9000002   -1    0    0    0    0 -0.00000000000E+00 -0.00000000000E+00  0.00000000000E+00  0.93800000000E+00  0.93800000000E+00 0.  1.
         11    1    1    2    0    0 -0.22160341453E-01 -0.70626770797E-01  0.17845199828E+01  0.17860546049E+01  0.51100000000E-03 0. -1.
    9000002    1    1    2    0    0  0.29227280994E-01  0.27562772822E+00  0.52756477807E-01  0.97951627065E+00  0.93800000000E+00 0.  1.
         22    1    1    2    0    0 -0.70669395407E-02 -0.20500095742E+00  0.21627235068E+01  0.21724291245E+01  0.00000000000E+00 0. -1.
</event>
<event>
 5    1  0.2173147E+002  0.1587519E+01  0.7818608E-02  0.3367023E+00
         11   -1    0    0    0    0  0.00000000000E+00  0.00000000000E+00  0.39999999674E+01  0.40000000000E+01  0.51100000000E-03 0. -1.
    9000002   -1    0    0    0    0 -0.00000000000E+00 -0.00000000000E+00  0.00000000000E+00  0.93800000000E+00  0.93800000000E+00 0.  1.
         11    1    1    2    0    0 -0.67178359732E-01 -0.10049778630E+00  0.78573241512E+00  0.79497699737E+00  0.51100000000E-03 0. -1.
    9000002    1    1    2    0    0  0.26943698873E+00 -0.24069868855E-01  0.58127201449E-01  0.97795624699E+00  0.93800000000E+00 0.  1.
         22    1    1    2    0    0 -0.20225862900E+00  0.12456765516E+00  0.31561403508E+01  0.31650667556E+01  0.00000000000E+00 0. -1.
</event>
<event>
 5    1  0.2173147E+002  0.1598495E+01  0.7818608E-02  0.3354999E+00
         11   -1    0    0    0    0  0.00000000000E+00  0.00000000000E+00  0.39999999674E+01  0.40000000000E+01  0.51100000000E-03 0.  1.
    9000002   -1    0    0    0    0 -0.00000000000E+00 -0.00000000000E+00  0.00000000000E+00  0.93800000000E+00  0.93800000000E+00 0.  1.
         11    1    1    2    0    0  0.31887682864E-01 -0.13909460022E+00  0.11241425162E+01  0.11331640614E+01  0.51100000000E-03 0.  1.
    9000002    1    1    2    0    0  0.10667599724E-02  0.41343309419E+00  0.11649087969E+00  0.10316696111E+01  0.93800000000E+00 0.  1.
         22    1    1    2    0    0 -0.32954442837E-01 -0.27433849397E+00  0.27593665714E+01  0.27731663275E+01  0.00000000000E+00 0.  1.
</event>
<event>
 5    1  0.2173147E+002  0.1599425E+01  0.7818608E-02  0.3353988E+00
         11   -1    0    0    0    0  0.00000000000E+00  0.00000000000E+00  0.39999999674E+01  0.40000000000E+01  0.51100000000E-03 0. -1.
    9000002   -1    0    0    0    0 -0.00000000000E+00 -0.00000000000E+00  0.00000000000E+00  0.93800000000E+00  0.93800000000E+00 0. -1.
         11    1    1    2    0    0 -0.15958243929E-01 -0.15666659242E-01  0.46207940190E+00  0.46262051894E+00  0.51100000000E-03 0. -1.
    9000002    1    1    2    0    0  0.20702594248E+00  0.21117410438E+00  0.58515904656E-01  0.98525243178E+00  0.93800000000E+00 0. -1.
         22    1    1    2    0    0 -0.19106769855E+00 -0.19550744514E+00  0.34794046608E+01  0.34901270493E+01  0.00000000000E+00 0. -1.
</event>
<event>
 5    1  0.2173147E+002  0.1574573E+01  0.7818608E-02  0.3381432E+00
         11   -1    0    0    0    0  0.00000000000E+00  0.00000000000E+00  0.39999999674E+01  0.40000000000E+01  0.51100000000E-03 0.  1.
    9000002   -1    0    0    0    0 -0.00000000000E+00 -0.00000000000E+00  0.00000000000E+00  0.93800000000E+00  0.93800000000E+00 0.  1.
         11    1    1    2    0    0 -0.89640146219E-01 -0.11946842784E+00  0.10071562659E+01  0.10181709415E+01  0.51100000000E-03 0.  1.
    9000002    1    1    2    0    0  0.28710578972E+00 -0.18081432775E+00  0.97465348562E-01  0.10022310361E+01  0.93800000000E+00 0.  1.
         22    1    1    2    0    0 -0.19746564350E+00  0.30028275559E+00  0.28953783529E+01  0.29175980224E+01  0.00000000000E+00 0.  1.
</event>
<event>
 5    1  0.2173147E+002  0.1561313E+01  0.7818608E-02  0.3396454E+00
         11   -1    0    0    0    0  0.00000000000E+00  0.00000000000E+00  0.39999999674E+01  0.40000000000E+01  0.51100000000E-03 0.  1.
    9000002   -1    0    0    0    0 -0.00000000000E+00 -0.00000000000E+00  0.00000000000E+00  0.93800000000E+00  0.93800000000E+00 0. -1.
         11    1    1    2    0    0  0.18611678630E+00  0.21314363597E+00  0.10048361388E+01  0.10439183850E+01  0.51100000000E-03 0.  1.
    9000002    1    1    2    0    0  0.44660774776E-02 -0.45884664160E+00  0.17736831938E+00  0.10591806773E+01  0.93800000000E+00 0. -1.
         22    1    1    2    0    0 -0.19058286378E+00  0.24570300563E+00  0.28177955092E+01  0.28349009377E+01  0.00000000000E+00 0.  1.
</event>
<event>
 5    1  0.2173147E+002  0.1598390E+01  0.7818608E-02  0.3355113E+00
         11   -1    0    0    0    0  0.00000000000E+00  0.00000000000E+00  0.39999999674E+01  0.40000000000E+01  0.51100000000E-03 0. -1.
    9000002   -1    0    0    0    0 -0.00000000000E+00 -0.00000000000E+00  0.00000000000E+00  0.93800000000E+00  0.93800000000E+00 0. -1.
         11    1    1    2    0    0 -0.11333490520E-01  0.19669871123E+00  0.20165367859E+01  0.20261391119E+01  0.51100000000E-03 0. -1.
    9000002    1    1    2    0    0 -0.58830729775E-01 -0.39984229638E+00  0.11130645663E+00  0.10274084115E+01  0.93800000000E+00 0. -1.
         22    1    1    2    0    0  0.70164220295E-01  0.20314358515E+00  0.18721567248E+01  0.18844524766E+01  0.00000000000E+00 0. -1.
</event>
<event>
 5    1  0.2173147E+002  0.1598920E+01  0.7818608E-02  0.3354536E+00
         11   -1    0    0    0    0  0.00000000000E+00  0.00000000000E+00  0.39999999674E+01  0.40000000000E+01  0.51100000000E-03 0. -1.
    9000002   -1    0    0    0    0 -0.00000000000E+00 -0.00000000000E+00  0.00000000000E+00  0.93800000000E+00  0.93800000000E+00 0.  1.
         11    1    1    2    0    0 -0.13895800732E+00 -0.48143800489E-01  0.14945267543E+01  0.15017448630E+01  0.51100000000E-03 0. -1.
    9000002    1    1    2    0    0  0.39565212166E+00  0.20000389198E+00  0.13400864303E+00  0.10461092078E+01  0.93800000000E+00 0.  1.
         22    1    1    2    0    0 -0.25669411435E+00 -0.15186009149E+00  0.23714645701E+01  0.23901459292E+01  0.00000000000E+00 0.  1.
</event>
<event>
 5    1  0.2173147E+002  0.1599641E+01  0.7818608E-02  0.3353753E+00
         11   -1    0    0    0    0  0.00000000000E+00  0.00000000000E+00  0.39999999674E+01  0.40000000000E+01  0.51100000000E-03 0.  1.
    9000002   -1    0    0    0    0 -0.00000000000E+00 -0.00000000000E+00  0.00000000000E+00  0.93800000000E+00  0.93800000000E+00 0. -1.
         11    1    1    2    0    0  0.36963351766E-01  0.39449745174E-02  0.55268134185E+00  0.55393030152E+00  0.51100000000E-03 0.  1.
    9000002    1    1    2    0    0 -0.26437531447E+00  0.73812303894E-02  0.46546933434E-01  0.97568407104E+00  0.93800000000E+00 0. -1.
         22    1    1    2    0    0  0.22741196270E+00 -0.11326204907E-01  0.34007716921E+01  0.34083856274E+01  0.00000000000E+00 0.  1.
</event>
<event>
 5    1  0.2173147E+002  0.1599629E+01  0.7818608E-02  0.3353766E+00
         11   -1    0    0    0    0  0.00000000000E+00  0.00000000000E+00  0.39999999674E+01  0.40000000000E+01  0.51100000000E-03 0.  1.
    9000002   -1    0    0    0    0 -0.00000000000E+00 -0.00000000000E+00  0.00000000000E+00  0.93800000000E+00  0.93800000000E+00 0. -1.
         11    1    1    2    0    0 -0.19692778042E-01  0.99750782939E-01  0.12701854298E+01  0.12742485281E+01  0.51100000000E-03 0.  1.
    9000002    1    1    2    0    0  0.42397638508E-01 -0.32408671883E+00  0.71492768176E-01  0.99588401783E+00  0.93800000000E+00 0. -1.
         22    1    1    2    0    0 -0.22704860466E-01  0.22433593589E+00  0.26583217694E+01  0.26678674540E+01  0.00000000000E+00 0.  1.
</event>
<event>
 5    1  0.2173147E+002  0.1578446E+01  0.7818608E-02  0.3377095E+00
         11   -1    0    0    0    0  0.00000000000E+00  0.00000000000E+00  0.39999999674E+01  0.40000000000E+01  0.51100000000E-03 0. -1.
    9000002   -1    0    0    0    0 -0.00000000000E+00 -0.00000000000E+00  0.00000000000E+00  0.93800000000E+00  0.93800000000E+00 0.  1.
         11    1    1    2    0    0  0.32665140697E-01 -0.33335056124E-01  0.70247315482E-01  0.84339693129E-01  0.51100000000E-03 0. -1.
    9000002    1    1    2    0    0 -0.86120422045E-01 -0.20320991224E+00  0.48496413668E-01  0.96483516606E+00  0.93800000000E+00 0.  1.
         22    1    1    2    0    0  0.53455281347E-01  0.23654496837E+00  0.38812562382E+01  0.38888251408E+01  0.00000000000E+00 0. -1.
</event>
<event>
 5    1  0.2173147E+002  0.1599620E+01  0.7818608E-02  0.3353776E+00
         11   -1    0    0    0    0  0.00000000000E+00  0.00000000000E+00  0.39999999674E+01  0.40000000000E+01  0.51100000000E-03 0. -1.
    9000002   -1    0    0    0    0 -0.00000000000E+00 -0.00000000000E+00  0.00000000000E+00  0.93800000000E+00  0.93800000000E+00 0. -1.
         11    1    1    2    0    0 -0.50168364975E-01  0.97604834910E-01  0.13118043694E+01  0.13163869239E+01  0.51100000000E-03 0. -1.
    9000002    1    1    2    0    0  0.17244319477E+00 -0.30362061079E+00  0.81788298421E-01  0.10042188290E+01  0.93800000000E+00 0. -1.
         22    1    1    2    0    0 -0.12227482980E+00  0.20601577588E+00  0.26064072995E+01  0.26173942472E+01  0.00000000000E+00 0. -1.
</event>
<event>
 5    1  0.2173147E+002  0.1504400E+01  0.7818608E-02  0.3464142E+00
         11   -1    0    0    0    0  0.00000000000E+00  0.00000000000E+00  0.39999999674E+01  0.40000000000E+01  0.51100000000E-03 0. -1.
    9000002   -1    0    0    0    0 -0.00000000000E+00 -0.00000000000E+00  0.00000000000E+00  0.93800000000E+00  0.93800000000E+00 0. -1.
         11    1    1    2    0    0  0.31817864129E+00 -0.32127148207E+00  0.24097908695E+01  0.24518452864E+01  0.51100000000E-03 0. -1.
    9000002    1    1    2    0    0 -0.77698003294E-01  0.13246427356E+00  0.89585029696E-01  0.95470060282E+00  0.93800000000E+00 0. -1.
         22    1    1    2    0    0 -0.24048063799E+00  0.18880720850E+00  0.15006240682E+01  0.15314541107E+01  0.00000000000E+00 0.  1.
</event>
<event>
 5    1  0.2173147E+002  0.1593157E+01  0.7818608E-02  0.3360824E+00
         11   -1    0    0    0    0  0.00000000000E+00  0.00000000000E+00  0.39999999674E+01  0.40000000000E+01  0.51100000000E-03 0.  1.
    9000002   -1    0    0    0    0 -0.00000000000E+00 -0.00000000000E+00  0.00000000000E+00  0.93800000000E+00  0.93800000000E+00 0. -1.
         11    1    1    2    0    0  0.17154404235E+00 -0.50103694047E-01  0.91193810379E+00  0.92928418952E+00  0.51100000000E-03 0.  1.
    9000002    1    1    2    0    0 -0.48665248399E+00 -0.49299467704E-01  0.16933330004E+00  0.10713444097E+01  0.93800000000E+00 0. -1.
         22    1    1    2    0    0  0.31510844164E+00  0.99403161751E-01  0.29187285635E+01  0.29373714008E+01  0.00000000000E+00 0.  1.
</event>
<event>
 5    1  0.2173147E+002  0.1599402E+01  0.7818608E-02  0.3354013E+00
         11   -1    0    0    0    0  0.00000000000E+00  0.00000000000E+00  0.39999999674E+01  0.40000000000E+01  0.51100000000E-03 0.  1.
    9000002   -1    0    0    0    0 -0.00000000000E+00 -0.00000000000E+00  0.00000000000E+00  0.93800000000E+00  0.93800000000E+00 0. -1.
         11    1    1    2    0    0 -0.76210882061E-02  0.11008571840E-01  0.25449819780E+00  0.25485066891E+00  0.51100000000E-03 0.  1.
    9000002    1    1    2    0    0  0.21842294229E+00 -0.56351896150E-01  0.33950204188E-01  0.96533969891E+00  0.93800000000E+00 0. -1.
         22    1    1    2    0    0 -0.21080185409E+00  0.45343324310E-01  0.37115515654E+01  0.37178096322E+01  0.00000000000E+00 0.  1.
</event>
<event>
 5    1  0.2173147E+002  0.1585099E+01  0.7818608E-02  0.3369697E+00
         11   -1    0    0    0    0  0.00000000000E+00  0.00000000000E+00  0.39999999674E+01  0.40000000000E+01  0.51100000000E-03 0. -1.
    9000002   -1    0    0    0    0 -0.00000000000E+00 -0.00000000000E+00  0.00000000000E+00  0.93800000000E+00  0.93800000000E+00 0. -1.
         11    1    1    2    0    0 -0.10305707964E+00  0.11435457947E-01  0.18785381752E+01  0.18813977432E+01  0.51100000000E-03 0. -1.
    9000002    1    1    2    0    0 -0.21559560635E-01  0.16758353840E+00  0.29762779510E-01  0.95356115695E+00  0.93800000000E+00 0. -1.
         22    1    1    2    0    0  0.12461664027E+00 -0.17901899635E+00  0.20916990127E+01  0.21030410998E+01  0.00000000000E+00 0. -1.
</event>
<event>
 5    1  0.2173147E+002  0.1556975E+01  0.7818608E-02  0.3401427E+00
         11   -1    0    0    0    0  0.00000000000E+00  0.00000000000E+00  0.39999999674E+01  0.40000000000E+01  0.51100000000E-03 0. -1.
    9000002   -1    0    0    0    0 -0.00000000000E+00 -0.00000000000E+00  0.00000000000E+00  0.93800000000E+00  0.93800000000E+00 0.  1.
         11    1    1    2    0    0 -0.23810066633E+00 -0.19116675115E+00  0.29998050189E+01  0.30153054682E+01  0.51100000000E-03 0. -1.
    9000002    1    1    2    0    0  0.31817377634E+00  0.48706254351E+00  0.27815472163E+00  0.11382787543E+01  0.93800000000E+00 0.  1.
         22    1    1    2    0    0 -0.80073110006E-01 -0.29589579236E+00  0.72204022687E+00  0.78441577757E+00  0.00000000000E+00 0. -1.
</event>
<event>
 5    1  0.2173147E+002  0.1594787E+01  0.7818608E-02  0.3359041E+00
         11   -1    0    0    0    0  0.00000000000E+00  0.00000000000E+00  0.39999999674E+01  0.40000000000E+01  0.51100000000E-03 0. -1.
    9000002   -1    0    0    0    0 -0.00000000000E+00 -0.00000000000E+00  0.00000000000E+00  0.93800000000E+00  0.93800000000E+00 0. -1.
         11    1    1    2    0    0  0.17958086388E-01 -0.13803706826E-01  0.60086616185E-01  0.64216024125E-01  0.51100000000E-03 0. -1.
    9000002    1    1    2    0    0 -0.20783055432E+00 -0.65600959744E-01  0.35177125050E-01  0.96362775767E+00  0.93800000000E+00 0. -1.
         22    1    1    2    0    0  0.18987246793E+00  0.79404666570E-01  0.39047362261E+01  0.39101562182E+01  0.00000000000E+00 0. -1.
</event>
<event>
 5    1  0.2173147E+002  0.1599672E+01  0.7818608E-02  0.3353720E+00
         11   -1    0    0    0    0  0.00000000000E+00  0.00000000000E+00  0.39999999674E+01  0.40000000000E+01  0.51100000000E-03 0. -1.
    9000002   -1    0    0    0    0 -0.00000000000E+00 -0.00000000000E+00  0.00000000000E+00  0.93800000000E+00  0.93800000000E+00 0. -1.
         11    1    1    2    0    0 -0.64831873632E-01 -0.29519626342E-01  0.37669034491E+00  0.38336726158E+00  0.51100000000E-03 0. -1.
    9000002    1    1    2    0    0  0.63857836273E+00  0.29730743093E+00  0.35503082168E+00  0.12255875808E+01  0.93800000000E+00 0. -1.
         22    1    1    2    0    0 -0.57374648909E+00 -0.26778780459E+00  0.32682788008E+01  0.33290451576E+01  0.00000000000E+00 0. -1.
</event>
<event>
 5    1  0.2173147E+002  0.1599650E+01  0.7818608E-02  0.3353743E+00
         11   -1    0    0    0    0  0.00000000000E+00  0.00000000000E+00  0.39999999674E+01  0.40000000000E+01  0.51100000000E-03 0. -1.
    9000002   -1    0    0    0    0 -0.00000000000E+00 -0.00000000000E+00  0.00000000000E+00  0.93800000000E+00  0.93800000000E+00 0. -1.
         11    1    1    2    0    0  0.21816788648E-01 -0.22121324249E-01  0.52532320237E+00  0.52624144014E+00  0.51100000000E-03 0. -1.
    9000002    1    1    2    0    0 -0.19509255084E+00  0.15935832196E+00  0.42179786735E-01  0.97215189789E+00  0.93800000000E+00 0. -1.
         22    1    1    2    0    0  0.17327576219E+00 -0.13723699771E+00  0.34324969783E+01  0.34396066620E+01  0.00000000000E+00 0. -1.
</event>
<event>
 5    1  0.2173147E+002  0.1587886E+01  0.7818608E-02  0.3366618E+00
         11   -1    0    0    0    0  0.00000000000E+00  0.00000000000E+00  0.39999999674E+01  0.40000000000E+01  0.51100000000E-03 0.  1.
    9000002   -1    0    0    0    0 -0.00000000000E+00 -0.00000000000E+00  0.00000000000E+00  0.93800000000E+00  0.93800000000E+00 0. -1.
         11    1    1    2    0    0  0.48700138240E-01  0.77854954896E-01  0.11650345591E+01  0.11686483143E+01  0.51100000000E-03 0.  1.
    9000002    1    1    2    0    0  0.18936955664E+00 -0.70021586436E-01  0.35884570871E-01  0.96015392202E+00  0.93800000000E+00 0. -1.
         22    1    1    2    0    0 -0.23806969488E+00 -0.78333684600E-02  0.27990808373E+01  0.28091977636E+01  0.00000000000E+00 0.  1.
</event>
<event>
 5    1  0.2173147E+002  0.1599556E+01  0.7818608E-02  0.3353845E+00
         11   -1    0    0    0    0  0.00000000000E+00  0.00000000000E+00  0.39999999674E+01  0.40000000000E+01  0.51100000000E-03 0. -1.
    9000002   -1    0    0    0    0 -0.00000000000E+00 -0.00000000000E+00  0.00000000000E+00  0.93800000000E+00  0.93800000000E+00 0.  1.
         11    1    1    2    0    0 -0.15531586732E+00  0.24590773783E+00  0.18746475930E+01  0.18970760378E+01  0.51100000000E-03 0. -1.
    9000002    1    1    2    0    0  0.29243774107E+00 -0.47910997139E+00  0.21820563202E+00  0.11146855588E+01  0.93800000000E+00 0.  1.
         22    1    1    2    0    0 -0.13712187375E+00  0.23320223356E+00  0.19071467423E+01  0.19262384034E+01  0.00000000000E+00 0. -1.
</event>
<event>
 5    1  0.2173147E+002  0.1599675E+01  0.7818608E-02  0.3353717E+00
         11   -1    0    0    0    0  0.00000000000E+00  0.00000000000E+00  0.39999999674E+01  0.40000000000E+01  0.51100000000E-03 0.  1.
    9000002   -1    0    0    0    0 -0.00000000000E+00 -0.00000000000E+00  0.00000000000E+00  0.93800000000E+00  0.93800000000E+00 0. -1.
         11    1    1    2    0    0  0.30979584834E-01 -0.13769615149E-02  0.22953292392E+00  0.23161877079E+00  0.51100000000E-03 0.  1.
    9000002    1    1    2    0    0 -0.52423682450E+00  0.15156004905E-01  0.18909088234E+00  0.10911706166E+01  0.93800000000E+00 0. -1.
         22    1    1    2    0    0  0.49325723967E+00 -0.13779043390E-01  0.35813761611E+01  0.36152106127E+01  0.00000000000E+00 0.  1.
</event>
<event>
 5    1  0.2340211E+002  0.1575430E+01  0.7818608E-02  0.3380470E+00
         11   -1    0    0    0    0  0.00000000000E+00  0.00000000000E+00  0.39999999674E+01  0.40000000000E+01  0.51100000000E-03 0. -1.
    9000002   -1    0    0    0    0 -0.00000000000E+00 -0.00000000000E+00  0.00000000000E+00  0.93800000000E+00  0.93800000000E+00 0.  1.
         11    1    1    2    0    0 -0.16109008370E+00  0.16159074110E-01  0.13607005674E+01  0.13702982982E+01  0.51100000000E-03 0. -1.
    9000002    1    1    2    0    0 -0.29325068301E-01  0.93978430513E-01  0.24298492548E-01  0.94346506124E+00  0.93800000000E+00 0.  1.
         22    1    1    2    0    0  0.19041515200E+00 -0.11013750462E+00  0.26150009074E+01  0.26242366406E+01  0.00000000000E+00 0. -1.
</event>
<event>
 5    1  0.2173147E+002  0.1599676E+01  0.7818608E-02  0.3353715E+00
         11   -1    0    0    0    0  0.00000000000E+00  0.00000000000E+00  0.39999999674E+01  0.40000000000E+01  0.51100000000E-03 0.  1.
    9000002   -1    0    0    0    0 -0.00000000000E+00 -0.00000000000E+00  0.00000000000E+00  0.93800000000E+00  0.93800000000E+00 0. -1.
         11    1    1    2    0    0 -0.86581742696E-01  0.53274957603E-01  0.11791145671E+01  0.11834889280E+01  0.51100000000E-03 0.  1.
    9000002    1    1    2    0    0  0.28863432793E+00 -0.17436911858E+00  0.76141950788E-01  0.99967792886E+00  0.93800000000E+00 0. -1.
         22    1    1    2    0    0 -0.20205258524E+00  0.12109416098E+00  0.27447434495E+01  0.27548331431E+01  0.00000000000E+00 0. -1.
</event>
<event>
 5    1  0.2173147E+002  0.1598026E+01  0.7818608E-02  0.3355509E+00
         11   -1    0    0    0    0  0.00000000000E+00  0.00000000000E+00  0.39999999674E+01  0.40000000000E+01  0.51100000000E-03 0.  1.
    9000002   -1    0    0    0    0 -0.00000000000E+00 -0.00000000000E+00  0.00000000000E+00  0.93800000000E+00  0.93800000000E+00 0.  1.
         11    1    1    2    0    0 -0.30285497145E+00  0.20971240638E-01  0.23834357878E+01  0.24026916869E+01  0.51100000000E-03 0.  1.
    9000002    1    1    2    0    0  0.50260448135E+00  0.40608484976E-01  0.17567414268E+00  0.10793357764E+01  0.93800000000E+00 0.  1.
         22    1    1    2    0    0 -0.19974950990E+00 -0.61579725614E-01  0.14408900369E+01  0.14559725368E+01  0.00000000000E+00 0.  1.
</event>
<event>
 5    1  0.2173147E+002  0.1599673E+01  0.7818608E-02  0.3353719E+00
         11   -1    0    0    0    0  0.00000000000E+00  0.00000000000E+00  0.39999999674E+01  0.40000000000E+01  0.51100000000E-03 0.  1.
    9000002   -1    0    0    0    0 -0.00000000000E+00 -0.00000000000E+00  0.00000000000E+00  0.93800000000E+00  0.93800000000E+00 0.  1.
         11    1    1    2    0    0  0.20920952870E+00 -0.16315314544E+00  0.19039491934E+01  0.19223450179E+01  0.51100000000E-03 0.  1.
    9000002    1    1    2    0    0 -0.41938408106E+00  0.33072131280E+00  0.19645027434E+00  0.10971309423E+01  0.93800000000E+00 0.  1.
         22    1    1    2    0    0  0.21017455236E+00 -0.16756816736E+00  0.18996004997E+01  0.19185240399E+01  0.00000000000E+00 0. -1.
</event>
<event>
 5    1  0.2173147E+002  0.1599673E+01  0.7818608E-02  0.3353718E+00
         11   -1    0    0    0    0  0.00000000000E+00  0.00000000000E+00  0.39999999674E+01  0.40000000000E+01  0.51100000000E-03 0. -1.
    9000002   -1    0    0    0    0 -0.00000000000E+00 -0.00000000000E+00  0.00000000000E+00  0.93800000000E+00  0.93800000000E+00 0. -1.
         11    1    1    2    0    0  0.11662432258E-01 -0.29935057946E-01  0.37262392017E+00  0.37400664035E+00  0.51100000000E-03 0. -1.
    9000002    1    1    2    0    0 -0.11129309552E+00  0.30838863490E+00  0.71906278143E-01  0.99624505825E+00  0.93800000000E+00 0. -1.
         22    1    1    2    0    0  0.99630663261E-01 -0.27845357695E+00  0.35554697690E+01  0.35677483014E+01  0.00000000000E+00 0. -1.
</event>
<event>
 5    1  0.2173147E+002  0.1599646E+01  0.7818608E-02  0.3353748E+00
         11   -1    0    0    0    0  0.00000000000E+00  0.00000000000E+00  0.39999999674E+01  0.40000000000E+01  0.51100000000E-03 0. -1.
    9000002   -1    0    0    0    0 -0.00000000000E+00 -0.00000000000E+00  0.00000000000E+00  0.93800000000E+00  0.93800000000E+00 0. -1.
         11    1    1    2    0    0  0.75052995177E-01  0.18031118716E+00  0.18336847171E+01  0.18440566637E+01  0.51100000000E-03 0. -1.
    9000002    1    1    2    0    0 -0.15307975710E+00 -0.39442831690E+00  0.12114061231E+00  0.10361110738E+01  0.93800000000E+00 0. -1.
         22    1    1    2    0    0  0.78026761922E-01  0.21411712974E+00  0.20451746380E+01  0.20578322625E+01  0.00000000000E+00 0. -1.
</event>
<event>
 5    1  0.2173147E+002  0.1508312E+01  0.7818608E-02  0.3459314E+00
         11   -1    0    0    0    0  0.00000000000E+00  0.00000000000E+00  0.39999999674E+01  0.40000000000E+01  0.51100000000E-03 0.  1.
    9000002   -1    0    0    0    0 -0.00000000000E+00 -0.00000000000E+00  0.00000000000E+00  0.93800000000E+00  0.93800000000E+00 0. -1.
         11    1    1    2    0    0  0.76591144525E-01 -0.20384513261E+00  0.37322198066E+00  0.43210409565E+00  0.51100000000E-03 0.  1.
    9000002    1    1    2    0    0 -0.14657219921E-01 -0.26331808609E-01  0.69947232124E-01  0.94108703823E+00  0.93800000000E+00 0. -1.
         22    1    1    2    0    0 -0.61933924604E-01  0.23017694122E+00  0.35568307546E+01  0.35648088661E+01  0.00000000000E+00 0.  1.
</event>
<event>
 5    1  0.2173147E+002  0.1598765E+01  0.7818608E-02  0.3354705E+00
         11   -1    0    0    0    0  0.00000000000E+00  0.00000000000E+00  0.39999999674E+01  0.40000000000E+01  0.51100000000E-03 0. -1.
    9000002   -1    0    0    0    0 -0.00000000000E+00 -0.00000000000E+00  0.00000000000E+00  0.93800000000E+00  0.93800000000E+00 0. -1.
         11    1    1    2    0    0 -0.17542017537E+00 -0.15048745754E-01  0.17835241889E+01  0.17921934873E+01  0.51100000000E-03 0. -1.
    9000002    1    1    2    0    0  0.42613922814E+00  0.97039431218E-01  0.13026851670E+00  0.10429885807E+01  0.93800000000E+00 0. -1.
         22    1    1    2    0    0 -0.25071905277E+00 -0.81990685464E-01  0.20862072618E+01  0.21028179320E+01  0.00000000000E+00 0.  1.
</event>
<event>
 5    1  0.2173147E+002  0.1599674E+01  0.7818608E-02  0.3353717E+00
         11   -1    0    0    0    0  0.00000000000E+00  0.00000000000E+00  0.39999999674E+01  0.40000000000E+01  0.51100000000E-03 0. -1.
    9000002   -1    0    0    0    0 -0.00000000000E+00 -0.00000000000E+00  0.00000000000E+00  0.93800000000E+00  0.93800000000E+00 0. -1.
         11    1    1    2    0    0  0.31040324681E-01 -0.41276963397E-01  0.71004259353E+00  0.71191855939E+00  0.51100000000E-03 0. -1.
    9000002    1    1    2    0    0 -0.16597139734E+00  0.22347795100E+00  0.51596283612E-01  0.97979338424E+00  0.93800000000E+00 0. -1.
         22    1    1    2    0    0  0.13493107266E+00 -0.18220098760E+00  0.32383610902E+01  0.32462880564E+01  0.00000000000E+00 0. -1.
</event>
<event>
 5    1  0.2173147E+002  0.1599671E+01  0.7818608E-02  0.3353721E+00
         11   -1    0    0    0    0  0.00000000000E+00  0.00000000000E+00  0.39999999674E+01  0.40000000000E+01  0.51100000000E-03 0.  1.
    9000002   -1    0    0    0    0 -0.00000000000E+00 -0.00000000000E+00  0.00000000000E+00  0.93800000000E+00  0.93800000000E+00 0.  1.
         11    1    1    2    0    0  0.20413826948E+00 -0.46863038715E-01  0.16969035568E+01  0.17097808396E+01  0.51100000000E-03 0.  1.
    9000002    1    1    2    0    0 -0.45903918377E+00  0.10089472946E+00  0.15049004678E+00  0.10598999825E+01  0.93800000000E+00 0.  1.
         22    1    1    2    0    0  0.25490091430E+00 -0.54031690747E-01  0.21526063638E+01  0.21683191779E+01  0.00000000000E+00 0.  1.
</event>
<event>
 5    1  0.2173147E+002  0.1599677E+01  0.7818608E-02  0.3353714E+00
         11   -1    0    0    0    0  0.00000000000E+00  0.00000000000E+00  0.39999999674E+01  0.40000000000E+01  0.51100000000E-03 0.  1.
    9000002   -1    0    0    0    0 -0.00000000000E+00 -0.00000000000E+00  0.00000000000E+00  0.93800000000E+00  0.93800000000E+00 0. -1.
         11    1    1    2    0    0  0.26298528910E-01  0.11850561584E+00  0.13890729045E+01  0.13943668774E+01  0.51100000000E-03 0.  1.
    9000002    1    1    2    0    0 -0.75249091530E-01 -0.33282092897E+00  0.77994817511E-01  0.10011789990E+01  0.93800000000E+00 0. -1.
         22    1    1    2    0    0  0.48950562620E-01  0.21431531313E+00  0.25329322454E+01  0.25424541236E+01  0.00000000000E+00 0.  1.
</event>
<event>
 5    1  0.2173147E+002  0.1599674E+01  0.7818608E-02  0.3353717E+00
         11   -1    0    0    0    0  0.00000000000E+00  0.00000000000E+00  0.39999999674E+01  0.40000000000E+01  0.51100000000E-03 0. -1.
    9000002   -1    0    0    0    0 -0.00000000000E+00 -0.00000000000E+00  0.00000000000E+00  0.93800000000E+00  0.93800000000E+00 0.  1.
         11    1    1    2    0    0  0.74333177639E-01  0.98213905307E-01  0.12261783150E+01  0.12323493473E+01  0.51100000000E-03 0. -1.
    9000002    1    1    2    0    0 -0.23044156725E+00 -0.31109086198E+00  0.10093641887E+00  0.10197612470E+01  0.93800000000E+00 0.  1.
         22    1    1    2    0    0  0.15610838961E+00  0.21287695668E+00  0.26728852335E+01  0.26858894056E+01  0.00000000000E+00 0. -1.
</event>
<event>
 5    1  0.2173147E+002  0.1598899E+01  0.7818608E-02  0.3354559E+00
         11   -1    0    0    0    0  0.00000000000E+00  0.00000000000E+00  0.39999999674E+01  0.40000000000E+01  0.51100000000E-03 0. -1.
    9000002   -1    0    0    0    0 -0.00000000000E+00 -0.00000000000E+00  0.00000000000E+00  0.93800000000E+00  0.93800000000E+00 0.  1.
         11    1    1    2    0    0  0.26283719915E-01 -0.41738143681E-02  0.25048142409E+00  0.25189176166E+00  0.51100000000E-03 0. -1.
    9000002    1    1    2    0    0 -0.27277797948E+00  0.28178149085E+00  0.10428829806E+00  0.10220218607E+01  0.93800000000E+00 0.  1.
         22    1    1    2    0    0  0.24649425957E+00 -0.27760767649E+00  0.36452302452E+01  0.36640863776E+01  0.00000000000E+00 0. -1.
</event>
<event>
 5    1  0.2173147E+002  0.1595020E+01  0.7818608E-02  0.3358787E+00
         11   -1    0    0    0    0  0.00000000000E+00  0.00000000000E+00  0.39999999674E+01  0.40000000000E+01  0.51100000000E-03 0. -1.
    9000002   -1    0    0    0    0 -0.00000000000E+00 -0.00000000000E+00  0.00000000000E+00  0.93800000000E+00  0.93800000000E+00 0.  1.
         11    1    1    2    0    0 -0.51409360964E-01 -0.26191891179E+00  0.16713220359E+01  0.16925017127E+01  0.51100000000E-03 0. -1.
    9000002    1    1    2    0    0 -0.19061340440E-02  0.45876439793E+00  0.14719571547E+00  0.10545041417E+01  0.93800000000E+00 0.  1.
         22    1    1    2    0    0  0.53315495008E-01 -0.19684548614E+00  0.21814822160E+01  0.21909941456E+01  0.00000000000E+00 0. -1.
</event>
<event>
 5    1  0.2173147E+002  0.1599677E+01  0.7818608E-02  0.3353714E+00
         11   -1    0    0    0    0  0.00000000000E+00  0.00000000000E+00  0.39999999674E+01  0.40000000000E+01  0.51100000000E-03 0.  1.
    9000002   -1    0    0    0    0 -0.00000000000E+00 -0.00000000000E+00  0.00000000000E+00  0.93800000000E+00  0.93800000000E+00 0. -1.
         11    1    1    2    0    0 -0.58283263635E-03  0.60135165661E-01  0.48367601793E+00  0.48740058400E+00  0.51100000000E-03 0. -1.
    9000002    1    1    2    0    0  0.52323966219E-02 -0.47857656517E+00  0.15625938264E+00  0.10645768649E+01  0.93800000000E+00 0. -1.
         22    1    1    2    0    0 -0.46495639856E-02  0.41844139951E+00  0.33600645668E+01  0.33860225511E+01  0.00000000000E+00 0.  1.
</event>
<event>
 5    1  0.2173147E+002  0.1599670E+01  0.7818608E-02  0.3353722E+00
         11   -1    0    0    0    0  0.00000000000E+00  0.00000000000E+00  0.39999999674E+01  0.40000000000E+01  0.51100000000E-03 0. -1.
    9000002   -1    0    0    0    0 -0.00000000000E+00 -0.00000000000E+00  0.00000000000E+00  0.93800000000E+00  0.93800000000E+00 0.  1.
         11    1    1    2    0    0 -0.75462364020E-01  0.34434829043E-01  0.10636137729E+01  0.10668434022E+01  0.51100000000E-03 0. -1.
    9000002    1    1    2    0    0  0.28784278103E+00 -0.12093796166E+00  0.65111264465E-01  0.99073858001E+00  0.93800000000E+00 0. -1.
         22    1    1    2    0    0 -0.21238041701E+00  0.86503132620E-01  0.28712749300E+01  0.28804180177E+01  0.00000000000E+00 0. -1.
</event>
<event>
 5    1  0.2173147E+002  0.1596799E+01  0.7818608E-02  0.3356845E+00
         11   -1    0    0    0    0  0.00000000000E+00  0.00000000000E+00  0.39999999674E+01  0.40000000000E+01  0.51100000000E-03 0.  1.
    9000002   -1    0    0    0    0 -0.00000000000E+00 -0.00000000000E+00  0.00000000000E+00  0.93800000000E+00  0.93800000000E+00 0. -1.
         11    1    1    2    0    0 -0.11808201382E-01 -0.32146416588E-01  0.47808438515E+00  0.47930967668E+00  0.51100000000E-03 0.  1.
    9000002    1    1    2    0    0  0.43514865144E+00  0.21679096837E+00  0.16399276196E+00  0.10691540108E+01  0.93800000000E+00 0. -1.
         22    1    1    2    0    0 -0.42334045006E+00 -0.18464455178E+00  0.33579228203E+01  0.33895363125E+01  0.00000000000E+00 0.  1.
</event>
<event>
 5    1  0.2173147E+002  0.1599673E+01  0.7818608E-02  0.3353718E+00
         11   -1    0    0    0    0  0.00000000000E+00  0.00000000000E+00  0.39999999674E+01  0.40000000000E+01  0.51100000000E-03 0. -1.
    9000002   -1    0    0    0    0 -0.00000000000E+00 -0.00000000000E+00  0.00000000000E+00  0.93800000000E+00  0.93800000000E+00 0.  1.
         11    1    1    2    0    0  0.38811135408E-01 -0.79911668841E-02  0.57167237300E+00  0.57304426195E+00  0.51100000000E-03 0. -1.
    9000002    1    1    2    0    0 -0.27862599254E+00  0.51264516978E-01  0.53465160226E-01  0.98130679086E+00  0.93800000000E+00 0.  1.
         22    1    1    2    0    0  0.23981485713E+00 -0.43273350094E-01  0.33748624341E+01  0.33836489472E+01  0.00000000000E+00 0. -1.
</event>
<event>
 5    1  0.2173147E+002  0.1599564E+01  0.7818608E-02  0.3353836E+00
         11   -1    0    0    0    0  0.00000000000E+00  0.00000000000E+00  0.39999999674E+01  0.40000000000E+01  0.51100000000E-03 0.  1.
    9000002   -1    0    0    0    0 -0.00000000000E+00 -0.00000000000E+00  0.00000000000E+00  0.93800000000E+00  0.93800000000E+00 0.  1.
         11    1    1    2    0    0  0.74494180343E-02 -0.31759750458E-01  0.43331474538E+00  0.43454125841E+00  0.51100000000E-03 0.  1.
    9000002    1    1    2    0    0 -0.18449003619E-01  0.23700406291E+00  0.37591258040E-01  0.96838442483E+00  0.93800000000E+00 0.  1.
         22    1    1    2    0    0  0.10999585585E-01 -0.20524431246E+00  0.35290939639E+01  0.35350743168E+01  0.00000000000E+00 0.  1.
</event>
<event>
 5    1  0.2173147E+002  0.1599676E+01  0.7818608E-02  0.3353715E+00
         11   -1    0    0    0    0  0.00000000000E+00  0.00000000000E+00  0.39999999674E+01  0.40000000000E+01  0.51100000000E-03 0. -1.
    9000002   -1    0    0    0    0 -0.00000000000E+00 -0.00000000000E+00  0.00000000000E+00  0.93800000000E+00  0.93800000000E+00 0. -1.
         11    1    1    2    0    0  0.55682002536E-01  0.95248444217E-01  0.13611507196E+01  0.13656149875E+01  0.51100000000E-03 0. -1.
    9000002    1    1    2    0    0 -0.15883545650E+00 -0.27310179930E+00  0.66688977431E-01  0.99202052133E+00  0.93800000000E+00 0. -1.
         22    1    1    2    0    0  0.10315345396E+00  0.17785335509E+00  0.25721602703E+01  0.25803644912E+01  0.00000000000E+00 0. -1.
</event>
<event>
 5    1  0.2173147E+002  0.1599667E+01  0.7818608E-02  0.3353725E+00
         11   -1    0    0    0    0  0.00000000000E+00  0.00000000000E+00  0.39999999674E+01  0.40000000000E+01  0.51100000000E-03 0.  1.
    9000002   -1    0    0    0    0 -0.00000000000E+00 -0.00000000000E+00  0.00000000000E+00  0.93800000000E+00  0.93800000000E+00 0.  1.
         11    1    1    2    0    0 -0.91669791134E-01  0.85564833817E-01  0.12238021426E+01  0.12302099970E+01  0.51100000000E-03 0.  1.
    9000002    1    1    2    0    0  0.28234150802E+00 -0.26646362745E+00  0.10152093145E+00  0.10202304109E+01  0.93800000000E+00 0.  1.
         22    1    1    2    0    0 -0.19067171688E+00  0.18089879363E+00  0.26746768933E+01  0.26875595921E+01  0.00000000000E+00 0.  1.
</event>
<event>
 5    1  0.2173147E+002  0.1589916E+01  0.7818608E-02  0.3364381E+00
         11   -1    0    0    0    0  0.00000000000E+00  0.00000000000E+00  0.39999999674E+01  0.40000000000E+01  0.51100000000E-03 0.  1.
    9000002   -1    0    0    0    0 -0.00000000000E+00 -0.00000000000E+00  0.00000000000E+00  0.93800000000E+00  0.93800000000E+00 0. -1.
         11    1    1    2    0    0 -0.42652579591E-01 -0.30277098110E-01  0.17027188942E+01  0.17035221862E+01  0.51100000000E-03 0.  1.
    9000002    1    1    2    0    0  0.34114796612E+00 -0.51489295573E-01  0.87646582567E-01  0.10032741429E+01  0.93800000000E+00 0. -1.
         22    1    1    2    0    0 -0.29849538653E+00  0.81766393683E-01  0.22096344906E+01  0.22312036709E+01  0.00000000000E+00 0.  1.
</event>
<event>
 5    1  0.2173147E+002  0.1598950E+01  0.7818608E-02  0.3354504E+00
         11   -1    0    0    0    0  0.00000000000E+00  0.00000000000E+00  0.39999999674E+01  0.40000000000E+01  0.51100000000E-03 0.  1.
    9000002   -1    0    0    0    0 -0.00000000000E+00 -0.00000000000E+00  0.00000000000E+00  0.93800000000E+00  0.93800000000E+00 0. -1.
         11    1    1    2    0    0  0.81596559604E-01 -0.28783648091E+00  0.21749680957E+01  0.21954485457E+01  0.51100000000E-03 0.  1.
    9000002    1    1    2    0    0 -0.19008402334E+00  0.52901588684E+00  0.21946003713E+00  0.11153458891E+01  0.93800000000E+00 0. -1.
         22    1    1    2    0    0  0.10848746373E+00 -0.24117940592E+00  0.16055718345E+01  0.16272055652E+01  0.00000000000E+00 0.  1.
</event>
<event>
 5    1  0.2173147E+002  0.1589420E+01  0.7818608E-02  0.3364927E+00
         11   -1    0    0    0    0  0.00000000000E+00  0.00000000000E+00  0.39999999674E+01  0.40000000000E+01  0.51100000000E-03 0.  1.
    9000002   -1    0    0    0    0 -0.00000000000E+00 -0.00000000000E+00  0.00000000000E+00  0.93800000000E+00  0.93800000000E+00 0.  1.
         11    1    1    2    0    0 -0.43392811734E-01  0.60965622500E-01  0.11404075420E+01  0.11428601691E+01  0.51100000000E-03 0.  1.
    9000002    1    1    2    0    0 -0.22274891652E+00 -0.28805350922E+00  0.97425362331E-01  0.10109043502E+01  0.93800000000E+00 0.  1.
         22    1    1    2    0    0  0.26614172825E+00  0.22708788672E+00  0.27621670631E+01  0.27842354807E+01  0.00000000000E+00 0. -1.
</event>
<event>
 5    1  0.2173147E+002  0.1588386E+01  0.7818608E-02  0.3366066E+00
         11   -1    0    0    0    0  0.00000000000E+00  0.00000000000E+00  0.39999999674E+01  0.40000000000E+01  0.51100000000E-03 0. -1.
    9000002   -1    0    0    0    0 -0.00000000000E+00 -0.00000000000E+00  0.00000000000E+00  0.93800000000E+00  0.93800000000E+00 0. -1.
         11    1    1    2    0    0 -0.17653753463E-01  0.13030432927E+00  0.72381540657E+00  0.73566288282E+00  0.51100000000E-03 0. -1.
    9000002    1    1    2    0    0  0.21971240357E+00 -0.18237112111E+00  0.63145041245E-01  0.98252942059E+00  0.93800000000E+00 0. -1.
         22    1    1    2    0    0 -0.20205865010E+00  0.52066791834E-01  0.32130395195E+01  0.32198076966E+01  0.00000000000E+00 0. -1.
</event>
<event>
 5    1  0.2173147E+002  0.1599337E+01  0.7818608E-02  0.3354083E+00
         11   -1    0    0    0    0  0.00000000000E+00  0.00000000000E+00  0.39999999674E+01  0.40000000000E+01  0.51100000000E-03 0.  1.
    9000002   -1    0    0    0    0 -0.00000000000E+00 -0.00000000000E+00  0.00000000000E+00  0.93800000000E+00  0.93800000000E+00 0. -1.
         11    1    1    2    0    0  0.12013859897E+00 -0.98844895547E-01  0.89986610980E+00  0.91321567717E+00  0.51100000000E-03 0.  1.
    9000002    1    1    2    0    0 -0.48128976745E+00  0.33603992226E+00  0.24007676116E+00  0.11322736069E+01  0.93800000000E+00 0. -1.
         22    1    1    2    0    0  0.36115116848E+00 -0.23719502672E+00  0.28600570964E+01  0.28925107159E+01  0.00000000000E+00 0.  1.
</event>
<event>
 5    1  0.2173147E+002  0.1599672E+01  0.7818608E-02  0.3353720E+00
         11   -1    0    0    0    0  0.00000000000E+00  0.00000000000E+00  0.39999999674E+01  0.40000000000E+01  0.51100000000E-03 0.  1.
    9000002   -1    0    0    0    0 -0.00000000000E+00 -0.00000000000E+00  0.00000000000E+00  0.93800000000E+00  0.93800000000E+00 0. -1.
         11    1    1    2    0    0  0.10463246996E-01 -0.25320024277E-01  0.37627298371E+00  0.37726940316E+00  0.51100000000E-03 0.  1.
    9000002    1    1    2    0    0 -0.98684537818E-01  0.25375057534E+00  0.49334565396E-01  0.97796006659E+00  0.93800000000E+00 0. -1.
         22    1    1    2    0    0  0.88221290823E-01 -0.22843055107E+00  0.35743924182E+01  0.35827705303E+01  0.00000000000E+00 0.  1.
</event>
<event>
 5    1  0.2173147E+002  0.1590887E+01  0.7818608E-02  0.3363314E+00
         11   -1    0    0    0    0  0.00000000000E+00  0.00000000000E+00  0.39999999674E+01  0.40000000000E+01  0.51100000000E-03 0. -1.
    9000002   -1    0    0    0    0 -0.00000000000E+00 -0.00000000000E+00  0.00000000000E+00  0.93800000000E+00  0.93800000000E+00 0. -1.
         11    1    1    2    0    0 -0.42279013437E-01  0.23555154545E-01  0.81019485658E+00  0.81163928381E+00  0.51100000000E-03 0. -1.
    9000002    1    1    2    0    0 -0.17344007476E+00  0.11615642072E+00  0.35499306935E-01  0.96160177537E+00  0.93800000000E+00 0. -1.
         22    1    1    2    0    0  0.21571908820E+00 -0.13971157527E+00  0.31543058038E+01  0.31647589408E+01  0.00000000000E+00 0. -1.
</event>
<event>
 5    1  0.2173147E+002  0.1599666E+01  0.7818608E-02  0.3353726E+00
         11   -1    0    0    0    0  0.00000000000E+00  0.00000000000E+00  0.39999999674E+01  0.40000000000E+01  0.51100000000E-03 0. -1.
    9000002   -1    0    0    0    0 -0.00000000000E+00 -0.00000000000E+00  0.00000000000E+00  0.93800000000E+00  0.93800000000E+00 0. -1.
         11    1    1    2    0    0  0.14447584333E+00  0.20692339028E+00  0.21158474110E+01  0.21308451578E+01  0.51100000000E-03 0. -1.
    9000002    1    1    2    0    0 -0.25726732242E+00 -0.38112278159E+00  0.14382802032E+00  0.10545006161E+01  0.93800000000E+00 0. -1.
         22    1    1    2    0    0  0.11279147909E+00  0.17419939132E+00  0.17403245361E+01  0.17526542262E+01  0.00000000000E+00 0.  1.
</event>
<event>
 5    1  0.2173147E+002  0.1550662E+01  0.7818608E-02  0.3408718E+00
         11   -1    0    0    0    0  0.00000000000E+00  0.00000000000E+00  0.39999999674E+01  0.40000000000E+01  0.51100000000E-03 0.  1.
    9000002   -1    0    0    0    0 -0.00000000000E+00 -0.00000000000E+00  0.00000000000E+00  0.93800000000E+00  0.93800000000E+00 0.  1.
         11    1    1    2    0    0  0.71782947034E-02 -0.18818415031E+00  0.77368682315E+00  0.79627656237E+00  0.51100000000E-03 0.  1.
    9000002    1    1    2    0    0 -0.14302792192E+00 -0.11680520546E+00  0.60031669552E-01  0.95788738577E+00  0.93800000000E+00 0.  1.
         22    1    1    2    0    0  0.13584962722E+00  0.30498935577E+00  0.31662814747E+01  0.31838360519E+01  0.00000000000E+00 0.  1.
</event>
<event>
 5    1  0.2173147E+002  0.1599476E+01  0.7818608E-02  0.3353932E+00
         11   -1    0    0    0    0  0.00000000000E+00  0.00000000000E+00  0.39999999674E+01  0.40000000000E+01  0.51100000000E-03 0.  1.
    9000002   -1    0    0    0    0 -0.00000000000E+00 -0.00000000000E+00  0.00000000000E+00  0.93800000000E+00  0.93800000000E+00 0. -1.
         11    1    1    2    0    0 -0.25685538102E-01 -0.20592237516E-01  0.52694177655E+00  0.52796939694E+00  0.51100000000E-03 0.  1.
    9000002    1    1    2    0    0  0.13359842629E+00  0.21825978724E+00  0.43675434986E-01  0.97326122796E+00  0.93800000000E+00 0. -1.
         22    1    1    2    0    0 -0.10791288819E+00 -0.19766754972E+00  0.34293827558E+01  0.34367693751E+01  0.00000000000E+00 0.  1.
</event>
<event>
 5    1  0.2173147E+002  0.1599526E+01  0.7818608E-02  0.3353878E+00
         11   -1    0    0    0    0  0.00000000000E+00  0.00000000000E+00  0.39999999674E+01  0.40000000000E+01  0.51100000000E-03 0. -1.
    9000002   -1    0    0    0    0 -0.00000000000E+00 -0.00000000000E+00  0.00000000000E+00  0.93800000000E+00  0.93800000000E+00 0. -1.
         11    1    1    2    0    0  0.41428786735E-01  0.15788692297E-01  0.48033909387E+00  0.48238110804E+00  0.51100000000E-03 0. -1.
    9000002    1    1    2    0    0 -0.26432936775E+00 -0.10561056794E+00  0.54094346596E-01  0.98173000619E+00  0.93800000000E+00 0. -1.
         22    1    1    2    0    0  0.22290058101E+00  0.89821875642E-01  0.34655665269E+01  0.34738888858E+01  0.00000000000E+00 0. -1.
</event>
<event>
 5    1  0.2173147E+002  0.1599663E+01  0.7818608E-02  0.3353729E+00
         11   -1    0    0    0    0  0.00000000000E+00  0.00000000000E+00  0.39999999674E+01  0.40000000000E+01  0.51100000000E-03 0. -1.
    9000002   -1    0    0    0    0 -0.00000000000E+00 -0.00000000000E+00  0.00000000000E+00  0.93800000000E+00  0.93800000000E+00 0. -1.
         11    1    1    2    0    0  0.85311796028E-04  0.87782376673E-02  0.18661497683E+00  0.18682204215E+00  0.51100000000E-03 0. -1.
    9000002    1    1    2    0    0  0.31284587137E-01 -0.20731950430E+00  0.29130153969E-01  0.96158861689E+00  0.93800000000E+00 0. -1.
         22    1    1    2    0    0 -0.31369898933E-01  0.19854126663E+00  0.37842548366E+01  0.37895893410E+01  0.00000000000E+00 0. -1.
</event>
<event>
 5    1  0.2173147E+002  0.1599460E+01  0.7818608E-02  0.3353950E+00
         11   -1    0    0    0    0  0.00000000000E+00  0.00000000000E+00  0.39999999674E+01  0.40000000000E+01  0.51100000000E-03 0.  1.
    9000002   -1    0    0    0    0 -0.00000000000E+00 -0.00000000000E+00  0.00000000000E+00  0.93800000000E+00  0.93800000000E+00 0.  1.
         11    1    1    2    0    0  0.39065029985E+00 -0.67323142174E-01  0.20793990938E+01  0.21168469275E+01  0.51100000000E-03 0.  1.
    9000002    1    1    2    0    0 -0.69916044623E+00  0.14391367772E+00  0.36577869202E+00  0.12341695701E+01  0.93800000000E+00 0.  1.
         22    1    1    2    0    0  0.30851014638E+00 -0.76590535551E-01  0.15548221816E+01  0.15869835024E+01  0.00000000000E+00 0.  1.
</event>
<event>
 5    1  0.2173147E+002  0.1598749E+01  0.7818608E-02  0.3354722E+00
         11   -1    0    0    0    0  0.00000000000E+00  0.00000000000E+00  0.39999999674E+01  0.40000000000E+01  0.51100000000E-03 0.  1.
    9000002   -1    0    0    0    0 -0.00000000000E+00 -0.00000000000E+00  0.00000000000E+00  0.93800000000E+00  0.93800000000E+00 0.  1.
         11    1    1    2    0    0 -0.21850365721E-01  0.40594372101E-01  0.58466055150E+00  0.58647554351E+00  0.51100000000E-03 0.  1.
    9000002    1    1    2    0    0  0.85005928107E-01 -0.43227499593E+00  0.13243597994E+00  0.10447348796E+01  0.93800000000E+00 0.  1.
         22    1    1    2    0    0 -0.63155562386E-01  0.39168062383E+00  0.32829034359E+01  0.33067895769E+01  0.00000000000E+00 0.  1.
</event>
<event>
 5    1  0.2173147E+002  0.1598871E+01  0.7818608E-02  0.3354590E+00
         11   -1    0    0    0    0  0.00000000000E+00  0.00000000000E+00  0.39999999674E+01  0.40000000000E+01  0.51100000000E-03 0. -1.
    9000002   -1    0    0    0    0 -0.00000000000E+00 -0.00000000000E+00  0.00000000000E+00  0.93800000000E+00  0.93800000000E+00 0. -1.
         11    1    1    2    0    0 -0.11311135282E+00 -0.69657145863E-01  0.14900254764E+01  0.14959353187E+01  0.51100000000E-03 0. -1.
    9000002    1    1    2    0    0  0.36982597663E+00  0.13669767395E+00  0.10545139818E+00  0.10229474593E+01  0.93800000000E+00 0. -1.
         22    1    1    2    0    0 -0.25671462381E+00 -0.67040528089E-01  0.24045230927E+01  0.24191172221E+01  0.00000000000E+00 0. -1.
</event>
<event>
 5    1  0.2173147E+002  0.1599660E+01  0.7818608E-02  0.3353732E+00
         11   -1    0    0    0    0  0.00000000000E+00  0.00000000000E+00  0.39999999674E+01  0.40000000000E+01  0.51100000000E-03 0. -1.
    9000002   -1    0    0    0    0 -0.00000000000E+00 -0.00000000000E+00  0.00000000000E+00  0.93800000000E+00  0.93800000000E+00 0. -1.
         11    1    1    2    0    0  0.11988006704E-01 -0.59444713318E-02  0.99499289905E-01  0.10039630898E+00  0.51100000000E-03 0. -1.
    9000002    1    1    2    0    0 -0.42110476806E+00  0.27034870281E+00  0.17145227706E+00  0.10768739620E+01  0.93800000000E+00 0. -1.
         22    1    1    2    0    0  0.40911676135E+00 -0.26440423148E+00  0.37290484004E+01  0.37607297290E+01  0.00000000000E+00 0. -1.
</event>
<event>
 5    1  0.2173147E+002  0.1539792E+01  0.7818608E-02  0.3421420E+00
         11   -1    0    0    0    0  0.00000000000E+00  0.00000000000E+00  0.39999999674E+01  0.40000000000E+01  0.51100000000E-03 0.  1.
    9000002   -1    0    0    0    0 -0.00000000000E+00 -0.00000000000E+00  0.00000000000E+00  0.93800000000E+00  0.93800000000E+00 0.  1.
         11    1    1    2    0    0  0.18065110060E+00  0.29683460557E+00  0.25005328935E+01  0.25245614700E+01  0.51100000000E-03 0.  1.
    9000002    1    1    2    0    0 -0.51466848011E+00 -0.65750510508E+00  0.60760202909E+00  0.13950701894E+01  0.93800000000E+00 0.  1.
         22    1    1    2    0    0  0.33401737951E+00  0.36067049951E+00  0.89186504474E+00  0.10183683406E+01  0.00000000000E+00 0.  1.
</event>
<event>
 5    1  0.2173147E+002  0.1577983E+01  0.7818608E-02  0.3377612E+00
         11   -1    0    0    0    0  0.00000000000E+00  0.00000000000E+00  0.39999999674E+01  0.40000000000E+01  0.51100000000E-03 0.  1.
    9000002   -1    0    0    0    0 -0.00000000000E+00 -0.00000000000E+00  0.00000000000E+00  0.93800000000E+00  0.93800000000E+00 0. -1.
         11    1    1    2    0    0  0.26325396279E+00  0.90204000556E-01  0.86829870008E+00  0.91180168036E+00  0.51100000000E-03 0.  1.
    9000002    1    1    2    0    0 -0.50325222550E+00 -0.22382597209E+00  0.23035276312E+00  0.11118755613E+01  0.93800000000E+00 0. -1.
         22    1    1    2    0    0  0.23999826271E+00  0.13362197153E+00  0.29013485042E+01  0.29143227584E+01  0.00000000000E+00 0.  1.
</event>
<event>
 5    1  0.2173147E+002  0.1599461E+01  0.7818608E-02  0.3353948E+00
         11   -1    0    0    0    0  0.00000000000E+00  0.00000000000E+00  0.39999999674E+01  0.40000000000E+01  0.51100000000E-03 0. -1.
    9000002   -1    0    0    0    0 -0.00000000000E+00 -0.00000000000E+00  0.00000000000E+00  0.93800000000E+00  0.93800000000E+00 0. -1.
         11    1    1    2    0    0  0.92069572946E-01  0.10065328347E-01  0.14238157091E+01  0.14268249899E+01  0.51100000000E-03 0. -1.
    9000002    1    1    2    0    0 -0.29856549914E+00 -0.10490716969E-01  0.59702493063E-01  0.98623516470E+00  0.93800000000E+00 0. -1.
         22    1    1    2    0    0  0.20649592619E+00  0.42538862192E-03  0.25164817652E+01  0.25249398454E+01  0.00000000000E+00 0. -1.
</event>
<event>
 5    1  0.2173147E+002  0.1599595E+01  0.7818608E-02  0.3353803E+00
         11   -1    0    0    0    0  0.00000000000E+00  0.00000000000E+00  0.39999999674E+01  0.40000000000E+01  0.51100000000E-03 0.  1.
    9000002   -1    0    0    0    0 -0.00000000000E+00 -0.00000000000E+00  0.00000000000E+00  0.93800000000E+00  0.93800000000E+00 0. -1.
         11    1    1    2    0    0  0.20466470599E+00 -0.16614706900E+00  0.21481234444E+01  0.21642382226E+01  0.51100000000E-03 0.  1.
    9000002    1    1    2    0    0 -0.35122655305E+00  0.30922406409E+00  0.14920283195E+00  0.10588130611E+01  0.93800000000E+00 0. -1.
         22    1    1    2    0    0  0.14656184706E+00 -0.14307699509E+00  0.17026736910E+01  0.17149487163E+01  0.00000000000E+00 0.  1.
</event>
<event>
 5    1  0.2173147E+002  0.1569518E+01  0.7818608E-02  0.3387127E+00
         11   -1    0    0    0    0  0.00000000000E+00  0.00000000000E+00  0.39999999674E+01  0.40000000000E+01  0.51100000000E-03 0. -1.
    9000002   -1    0    0    0    0 -0.00000000000E+00 -0.00000000000E+00  0.00000000000E+00  0.93800000000E+00  0.93800000000E+00 0. -1.
         11    1    1    2    0    0  0.41712819496E-01  0.57369771228E-01  0.11478198514E+00  0.13493114983E+00  0.51100000000E-03 0. -1.
    9000002    1    1    2    0    0  0.25111913523E+00 -0.11400632580E+00  0.74326582324E-01  0.98052368826E+00  0.93800000000E+00 0. -1.
         22    1    1    2    0    0 -0.29283195473E+00  0.56636554569E-01  0.38108913999E+01  0.38225451619E+01  0.00000000000E+00 0. -1.
</event>
<event>
 5    1  0.2173147E+002  0.1586732E+01  0.7818608E-02  0.3367891E+00
         11   -1    0    0    0    0  0.00000000000E+00  0.00000000000E+00  0.39999999674E+01  0.40000000000E+01  0.51100000000E-03 0. -1.
    9000002   -1    0    0    0    0 -0.00000000000E+00 -0.00000000000E+00  0.00000000000E+00  0.93800000000E+00  0.93800000000E+00 0.  1.
         11    1    1    2    0    0  0.41107869321E+00 -0.40329437659E+00  0.24497216210E+01  0.25164992207E+01  0.51100000000E-03 0. -1.
    9000002    1    1    2    0    0 -0.65854032013E+00  0.41191515765E+00  0.45740472588E+00  0.13009275666E+01  0.93800000000E+00 0.  1.
         22    1    1    2    0    0  0.24746162692E+00 -0.86207810638E-02  0.10928736205E+01  0.11205732127E+01  0.00000000000E+00 0.  1.
</event>
<event>
 5    1  0.2173147E+002  0.1599131E+01  0.7818608E-02  0.3354307E+00
         11   -1    0    0    0    0  0.00000000000E+00  0.00000000000E+00  0.39999999674E+01  0.40000000000E+01  0.51100000000E-03 0. -1.
    9000002   -1    0    0    0    0 -0.00000000000E+00 -0.00000000000E+00  0.00000000000E+00  0.93800000000E+00  0.93800000000E+00 0.  1.
         11    1    1    2    0    0 -0.45845281406E-01 -0.10584889219E+00  0.14812822735E+01  0.14857668770E+01  0.51100000000E-03 0. -1.
    9000002    1    1    2    0    0  0.54179868742E-01  0.30692936295E+00  0.65305720072E-01  0.99058060202E+00  0.93800000000E+00 0.  1.
         22    1    1    2    0    0 -0.83345873363E-02 -0.20108047076E+00  0.24534119738E+01  0.24616525210E+01  0.00000000000E+00 0. -1.
</event>
<event>
 5    1  0.2173147E+002  0.1552795E+01  0.7818608E-02  0.3406248E+00
         11   -1    0    0    0    0  0.00000000000E+00  0.00000000000E+00  0.39999999674E+01  0.40000000000E+01  0.51100000000E-03 0. -1.
    9000002   -1    0    0    0    0 -0.00000000000E+00 -0.00000000000E+00  0.00000000000E+00  0.93800000000E+00  0.93800000000E+00 0.  1.
         11    1    1    2    0    0 -0.33788411424E-01  0.36529079749E+00  0.11348403810E+01  0.11926617186E+01  0.51100000000E-03 0. -1.
    9000002    1    1    2    0    0 -0.21503192946E+00 -0.47948519262E+00  0.23446635593E+00  0.11004377550E+01  0.93800000000E+00 0.  1.
         22    1    1    2    0    0  0.24882034089E+00  0.11419439514E+00  0.26306932304E+01  0.26449005264E+01  0.00000000000E+00 0.  1.
</event>
<event>
 5    1  0.2173147E+002  0.1598880E+01  0.7818608E-02  0.3354579E+00
         11   -1    0    0    0    0  0.00000000000E+00  0.00000000000E+00  0.39999999674E+01  0.40000000000E+01  0.51100000000E-03 0. -1.
    9000002   -1    0    0    0    0 -0.00000000000E+00 -0.00000000000E+00  0.00000000000E+00  0.93800000000E+00  0.93800000000E+00 0. -1.
         11    1    1    2    0    0 -0.59042754825E-01  0.88644718181E-02  0.31584447762E+00  0.32143836255E+00  0.51100000000E-03 0. -1.
    9000002    1    1    2    0    0  0.49030279285E+00 -0.15488785535E+00  0.18215413259E+00  0.10850858051E+01  0.93800000000E+00 0. -1.
         22    1    1    2    0    0 -0.43126003802E+00  0.14602338353E+00  0.35020013572E+01  0.35314758323E+01  0.00000000000E+00 0. -1.
</event>
<event>
 5    1  0.2173147E+002  0.1598342E+01  0.7818608E-02  0.3355165E+00
         11   -1    0    0    0    0  0.00000000000E+00  0.00000000000E+00  0.39999999674E+01  0.40000000000E+01  0.51100000000E-03 0. -1.
    9000002   -1    0    0    0    0 -0.00000000000E+00 -0.00000000000E+00  0.00000000000E+00  0.93800000000E+00  0.93800000000E+00 0.  1.
         11    1    1    2    0    0  0.17106745460E-02  0.95667863018E-02  0.81440189479E+00  0.81446004025E+00  0.51100000000E-03 0. -1.
    9000002    1    1    2    0    0  0.51779561444E-01 -0.20898477017E+00  0.31724513093E-01  0.96291546975E+00  0.93800000000E+00 0.  1.
         22    1    1    2    0    0 -0.53490235990E-01  0.19941798387E+00  0.31538735595E+01  0.31606244900E+01  0.00000000000E+00 0. -1.
</event>
<event>
 5    1  0.2173147E+002  0.1595367E+01  0.7818608E-02  0.3358407E+00
         11   -1    0    0    0    0  0.00000000000E+00  0.00000000000E+00  0.39999999674E+01  0.40000000000E+01  0.51100000000E-03 0.  1.
    9000002   -1    0    0    0    0 -0.00000000000E+00 -0.00000000000E+00  0.00000000000E+00  0.93800000000E+00  0.93800000000E+00 0. -1.
         11    1    1    2    0    0  0.72125449208E-01  0.28668797872E-04  0.67367700214E+00  0.67752715486E+00  0.51100000000E-03 0.  1.
    9000002    1    1    2    0    0 -0.16080148503E+00  0.22979495720E+00  0.55732635798E-01  0.98061866525E+00  0.93800000000E+00 0. -1.
         22    1    1    2    0    0  0.88676035827E-01 -0.22982362600E+00  0.32705903294E+01  0.32798541799E+01  0.00000000000E+00 0.  1.
</event>
<event>
 5    1  0.2173147E+002  0.1599578E+01  0.7818608E-02  0.3353822E+00
         11   -1    0    0    0    0  0.00000000000E+00  0.00000000000E+00  0.39999999674E+01  0.40000000000E+01  0.51100000000E-03 0. -1.
    9000002   -1    0    0    0    0 -0.00000000000E+00 -0.00000000000E+00  0.00000000000E+00  0.93800000000E+00  0.93800000000E+00 0. -1.
         11    1    1    2    0    0  0.11162716809E-01  0.15752231477E-02  0.13651730771E+00  0.13698293324E+00  0.51100000000E-03 0. -1.
    9000002    1    1    2    0    0 -0.39844501093E+00  0.50987499870E-01  0.10894550341E+00  0.10261926109E+01  0.93800000000E+00 0. -1.
         22    1    1    2    0    0  0.38728229412E+00 -0.52562723017E-01  0.37545371562E+01  0.37748244559E+01  0.00000000000E+00 0. -1.
</event>
<event>
 5    1  0.2173147E+002  0.1575107E+01  0.7818608E-02  0.3380833E+00
         11   -1    0    0    0    0  0.00000000000E+00  0.00000000000E+00  0.39999999674E+01  0.40000000000E+01  0.51100000000E-03 0. -1.
    9000002   -1    0    0    0    0 -0.00000000000E+00 -0.00000000000E+00  0.00000000000E+00  0.93800000000E+00  0.93800000000E+00 0. -1.
         11    1    1    2    0    0 -0.62096585459E-01  0.19164705874E+00  0.18967723110E+01  0.19074407047E+01  0.51100000000E-03 0. -1.
    9000002    1    1    2    0    0  0.24170302744E+00 -0.23138096686E-01  0.58101065423E-01  0.97065723033E+00  0.93800000000E+00 0. -1.
         22    1    1    2    0    0 -0.17960644199E+00 -0.16850896206E+00  0.20451265909E+01  0.20599020649E+01  0.00000000000E+00 0. -1.
</event>
<event>
 5    1  0.2173147E+002  0.1599677E+01  0.7818608E-02  0.3353714E+00
         11   -1    0    0    0    0  0.00000000000E+00  0.00000000000E+00  0.39999999674E+01  0.40000000000E+01  0.51100000000E-03 0.  1.
    9000002   -1    0    0    0    0 -0.00000000000E+00 -0.00000000000E+00  0.00000000000E+00  0.93800000000E+00  0.93800000000E+00 0. -1.
         11    1    1    2    0    0  0.45186937260E-01  0.93521143269E-01  0.12030458758E+01  0.12075213058E+01  0.51100000000E-03 0. -1.
    9000002    1    1    2    0    0 -0.14685251397E+00 -0.30495031557E+00  0.76718091433E-01  0.10001450002E+01  0.93800000000E+00 0. -1.
         22    1    1    2    0    0  0.10166557671E+00  0.21142917230E+00  0.27202360001E+01  0.27303336940E+01  0.00000000000E+00 0.  1.
</event>
<event>
 5    1  0.2173147E+002  0.1599371E+01  0.7818608E-02  0.3354046E+00
         11   -1    0    0    0    0  0.00000000000E+00  0.00000000000E+00  0.39999999674E+01  0.40000000000E+01  0.51100000000E-03 0. -1.
    9000002   -1    0    0    0    0 -0.00000000000E+00 -0.00000000000E+00  0.00000000000E+00  0.93800000000E+00  0.93800000000E+00 0.  1.
         11    1    1    2    0    0  0.32694130794E-01  0.46123907821E-01  0.89591756328E+00  0.89769976182E+00  0.51100000000E-03 0. -1.
    9000002    1    1    2    0    0 -0.96375524887E-01 -0.26450578253E+00  0.53018742091E-01  0.98076834054E+00  0.93800000000E+00 0.  1.
         22    1    1    2    0    0  0.63681394093E-01  0.21838187471E+00  0.30510636620E+01  0.30595318976E+01  0.00000000000E+00 0. -1.
</event>
<event>
 5    1  0.2173147E+002  0.1593678E+01  0.7818608E-02  0.3360254E+00
         11   -1    0    0    0    0  0.00000000000E+00  0.00000000000E+00  0.39999999674E+01  0.40000000000E+01  0.51100000000E-03 0. -1.
    9000002   -1    0    0    0    0 -0.00000000000E+00 -0.00000000000E+00  0.00000000000E+00  0.93800000000E+00  0.93800000000E+00 0. -1.
         11    1    1    2    0    0  0.43851289725E-01 -0.10715354587E-02  0.17802870745E+00  0.18335366262E+00  0.51100000000E-03 0. -1.
    9000002    1    1    2    0    0 -0.15959636193E+00 -0.27476917507E+00  0.72228622019E-01  0.99299046932E+00  0.93800000000E+00 0. -1.
         22    1    1    2    0    0  0.11574507221E+00  0.27584071053E+00  0.37497426379E+01  0.37616558681E+01  0.00000000000E+00 0. -1.
</event>
<event>
 5    1  0.2173147E+002  0.1599637E+01  0.7818608E-02  0.3353757E+00
         11   -1    0    0    0    0  0.00000000000E+00  0.00000000000E+00  0.39999999674E+01  0.40000000000E+01  0.51100000000E-03 0.  1.
    9000002   -1    0    0    0    0 -0.00000000000E+00 -0.00000000000E+00  0.00000000000E+00  0.93800000000E+00  0.93800000000E+00 0.  1.
         11    1    1    2    0    0  0.36049984230E-01 -0.48712985495E-01  0.87525020988E+00  0.87734585388E+00  0.51100000000E-03 0.  1.
    9000002    1    1    2    0    0 -0.19037727178E+00  0.22438104415E+00  0.57766022828E-01  0.98476965427E+00  0.93800000000E+00 0.  1.
         22    1    1    2    0    0  0.15432728755E+00 -0.17566805865E+00  0.30669837347E+01  0.30758844918E+01  0.00000000000E+00 0.  1.
</event>
<event>
 5    1  0.2173147E+002  0.1599502E+01  0.7818608E-02  0.3353904E+00
         11   -1    0    0    0    0  0.00000000000E+00  0.00000000000E+00  0.39999999674E+01  0.40000000000E+01  0.51100000000E-03 0. -1.
    9000002   -1    0    0    0    0 -0.00000000000E+00 -0.00000000000E+00  0.00000000000E+00  0.93800000000E+00  0.93800000000E+00 0.  1.
         11    1    1    2    0    0  0.70703868369E-01  0.30139307540E-01  0.79242446566E+00  0.79614333494E+00  0.51100000000E-03 0. -1.
    9000002    1    1    2    0    0 -0.28807060314E+00 -0.13896432557E+00  0.68512012020E-01  0.99339501306E+00  0.93800000000E+00 0.  1.
         22    1    1    2    0    0  0.21736673477E+00  0.10882501803E+00  0.31390634897E+01  0.31484616520E+01  0.00000000000E+00 0. -1.
</event>
<event>
 5    1  0.2173147E+002  0.1525002E+01  0.7818608E-02  0.3439015E+00
         11   -1    0    0    0    0  0.00000000000E+00  0.00000000000E+00  0.39999999674E+01  0.40000000000E+01  0.51100000000E-03 0.  1.
    9000002   -1    0    0    0    0 -0.00000000000E+00 -0.00000000000E+00  0.00000000000E+00  0.93800000000E+00  0.93800000000E+00 0. -1.
         11    1    1    2    0    0  0.16636264633E-02 -0.37753444936E+00  0.17796220017E+01  0.18192277917E+01  0.51100000000E-03 0.  1.
    9000002    1    1    2    0    0  0.20810204359E-01  0.11080577205E+00  0.65160107521E-01  0.94699568285E+00  0.93800000000E+00 0. -1.
         22    1    1    2    0    0 -0.22473830822E-01  0.26672867731E+00  0.21552178582E+01  0.21717765255E+01  0.00000000000E+00 0. -1.
</event>
<event>
 5    1  0.2173147E+002  0.1589662E+01  0.7818608E-02  0.3364661E+00
         11   -1    0    0    0    0  0.00000000000E+00  0.00000000000E+00  0.39999999674E+01  0.40000000000E+01  0.51100000000E-03 0.  1.
    9000002   -1    0    0    0    0 -0.00000000000E+00 -0.00000000000E+00  0.00000000000E+00  0.93800000000E+00  0.93800000000E+00 0. -1.
         11    1    1    2    0    0  0.41955667400E-01 -0.24093439166E-01  0.24215355608E+00  0.24694002851E+00  0.51100000000E-03 0.  1.
    9000002    1    1    2    0    0  0.18563210414E+00  0.28358420450E-01  0.30840693982E-01  0.95710951646E+00  0.93800000000E+00 0. -1.
         22    1    1    2    0    0 -0.22758777154E+00 -0.42649812839E-02  0.37270057173E+01  0.37339504550E+01  0.00000000000E+00 0.  1.
</event>
<event>
 5    1  0.2173147E+002  0.1526588E+01  0.7818608E-02  0.3437111E+00
         11   -1    0    0    0    0  0.00000000000E+00  0.00000000000E+00  0.39999999674E+01  0.40000000000E+01  0.51100000000E-03 0. -1.
    9000002   -1    0    0    0    0 -0.00000000000E+00 -0.00000000000E+00  0.00000000000E+00  0.93800000000E+00  0.93800000000E+00 0.  1.
         11    1    1    2    0    0  0.35246215828E-02  0.27642854084E+00  0.11989369530E+01  0.12303963750E+01  0.51100000000E-03 0. -1.
    9000002    1    1    2    0    0 -0.13120224114E+00  0.69632035979E-01  0.70567379136E-01  0.95230583507E+00  0.93800000000E+00 0.  1.
         22    1    1    2    0    0  0.12767761956E+00 -0.34606057682E+00  0.27304956352E+01  0.27552977900E+01  0.00000000000E+00 0. -1.
</event>
<event>
 5    1  0.2173147E+002  0.1599441E+01  0.7818608E-02  0.3353970E+00
         11   -1    0    0    0    0  0.00000000000E+00  0.00000000000E+00  0.39999999674E+01  0.40000000000E+01  0.51100000000E-03 0. -1.
    9000002   -1    0    0    0    0 -0.00000000000E+00 -0.00000000000E+00  0.00000000000E+00  0.93800000000E+00  0.93800000000E+00 0.  1.
         11    1    1    2    0    0 -0.61643428739E-02  0.17499930359E-01  0.26656442563E+00  0.26720984417E+00  0.51100000000E-03 0. -1.
    9000002    1    1    2    0    0 -0.43417339979E-01 -0.23400827272E+00  0.37774539508E-01  0.96846055828E+00  0.93800000000E+00 0.  1.
         22    1    1    2    0    0  0.49581682853E-01  0.21650834236E+00  0.36956610022E+01  0.37023295976E+01  0.00000000000E+00 0. -1.
</event>
<event>
 5    1  0.2173147E+002  0.1493839E+01  0.7818608E-02  0.3477313E+00
         11   -1    0    0    0    0  0.00000000000E+00  0.00000000000E+00  0.39999999674E+01  0.40000000000E+01  0.51100000000E-03 0.  1.
    9000002   -1    0    0    0    0 -0.00000000000E+00 -0.00000000000E+00  0.00000000000E+00  0.93800000000E+00  0.93800000000E+00 0.  1.
         11    1    1    2    0    0  0.30524544144E-01  0.41706806963E+00  0.19458270536E+01  0.19902564424E+01  0.51100000000E-03 0.  1.
    9000002    1    1    2    0    0  0.17495568223E+00 -0.87641089438E-01  0.10919861108E+00  0.96439555576E+00  0.93800000000E+00 0.  1.
         22    1    1    2    0    0 -0.20548022637E+00 -0.32942698019E+00  0.19449743026E+01  0.19833480019E+01  0.00000000000E+00 0.  1.
</event>
<event>
 5    1  0.2173147E+002  0.1599664E+01  0.7818608E-02  0.3353728E+00
         11   -1    0    0    0    0  0.00000000000E+00  0.00000000000E+00  0.39999999674E+01  0.40000000000E+01  0.51100000000E-03 0. -1.
    9000002   -1    0    0    0    0 -0.00000000000E+00 -0.00000000000E+00  0.00000000000E+00  0.93800000000E+00  0.93800000000E+00 0. -1.
         11    1    1    2    0    0 -0.10222688133E+00 -0.19467959585E-01  0.10863210443E+01  0.10912941900E+01  0.51100000000E-03 0. -1.
    9000002    1    1    2    0    0  0.38077036238E+00  0.72653653557E-01  0.10120962707E+00  0.10199764756E+01  0.93800000000E+00 0. -1.
         22    1    1    2    0    0 -0.27854348105E+00 -0.53185693972E-01  0.28124692960E+01  0.28267293344E+01  0.00000000000E+00 0. -1.
</event>
<event>
 5    1  0.2173147E+002  0.1595048E+01  0.7818608E-02  0.3358755E+00
         11   -1    0    0    0    0  0.00000000000E+00  0.00000000000E+00  0.39999999674E+01  0.40000000000E+01  0.51100000000E-03 0.  1.
    9000002   -1    0    0    0    0 -0.00000000000E+00 -0.00000000000E+00  0.00000000000E+00  0.93800000000E+00  0.93800000000E+00 0. -1.
         11    1    1    2    0    0 -0.12980135925E+00  0.39664574437E+00  0.19752106702E+01  0.20188198761E+01  0.51100000000E-03 0.  1.
    9000002    1    1    2    0    0  0.36647403943E+00 -0.65112746908E+00  0.40991965951E+00  0.12673390745E+01  0.93800000000E+00 0. -1.
         22    1    1    2    0    0 -0.23667268019E+00  0.25448172470E+00  0.16148696377E+01  0.16518410494E+01  0.00000000000E+00 0.  1.
</event>
<event>
 5    1  0.2173147E+002  0.1584255E+01  0.7818608E-02  0.3370632E+00
         11   -1    0    0    0    0  0.00000000000E+00  0.00000000000E+00  0.39999999674E+01  0.40000000000E+01  0.51100000000E-03 0. -1.
    9000002   -1    0    0    0    0 -0.00000000000E+00 -0.00000000000E+00  0.00000000000E+00  0.93800000000E+00  0.93800000000E+00 0.  1.
         11    1    1    2    0    0 -0.12958046152E+00 -0.14538244698E+00  0.17760763317E+01  0.17867217324E+01  0.51100000000E-03 0. -1.
    9000002    1    1    2    0    0  0.37397215905E+00  0.49793031082E-02  0.10676633631E+00  0.10154422779E+01  0.93800000000E+00 0.  1.
         22    1    1    2    0    0 -0.24439169753E+00  0.14040314387E+00  0.21171572994E+01  0.21358359897E+01  0.00000000000E+00 0.  1.
</event>
<event>
 5    1  0.2173147E+002  0.1599676E+01  0.7818608E-02  0.3353715E+00
         11   -1    0    0    0    0  0.00000000000E+00  0.00000000000E+00  0.39999999674E+01  0.40000000000E+01  0.51100000000E-03 0. -1.
    9000002   -1    0    0    0    0 -0.00000000000E+00 -0.00000000000E+00  0.00000000000E+00  0.93800000000E+00  0.93800000000E+00 0. -1.
         11    1    1    2    0    0  0.51394734745E-01  0.12045507887E+00  0.15197723257E+01  0.15254045457E+01  0.51100000000E-03 0. -1.
    9000002    1    1    2    0    0 -0.13111708504E+00 -0.31350250475E+00  0.77342811652E-01  0.10006504989E+01  0.93800000000E+00 0. -1.
         22    1    1    2    0    0  0.79722350291E-01  0.19304742589E+00  0.24028848300E+01  0.24119449554E+01  0.00000000000E+00 0. -1.
</event>
<event>
 5    1  0.2173147E+002  0.1599677E+01  0.7818608E-02  0.3353714E+00
         11   -1    0    0    0    0  0.00000000000E+00  0.00000000000E+00  0.39999999674E+01  0.40000000000E+01  0.51100000000E-03 0. -1.
    9000002   -1    0    0    0    0 -0.00000000000E+00 -0.00000000000E+00  0.00000000000E+00  0.93800000000E+00  0.93800000000E+00 0.  1.
         11    1    1    2    0    0  0.87740410591E-01 -0.91674195147E-01  0.15047100741E+01  0.15100513918E+01  0.51100000000E-03 0. -1.
    9000002    1    1    2    0    0 -0.22935495496E+00  0.24058242095E+00  0.73940849978E-01  0.99789520789E+00  0.93800000000E+00 0.  1.
         22    1    1    2    0    0  0.14161454436E+00 -0.14890822580E+00  0.24213490433E+01  0.24300534003E+01  0.00000000000E+00 0. -1.
</event>
<event>
 5    1  0.2173147E+002  0.1571692E+01  0.7818608E-02  0.3384673E+00
         11   -1    0    0    0    0  0.00000000000E+00  0.00000000000E+00  0.39999999674E+01  0.40000000000E+01  0.51100000000E-03 0. -1.
    9000002   -1    0    0    0    0 -0.00000000000E+00 -0.00000000000E+00  0.00000000000E+00  0.93800000000E+00  0.93800000000E+00 0.  1.
         11    1    1    2    0    0 -0.11923732209E+00 -0.43300268165E-01  0.42421482558E+00  0.44277639003E+00  0.51100000000E-03 0. -1.
    9000002    1    1    2    0    0  0.98628804882E-01 -0.18436447319E+00  0.50301759125E-01  0.96233682622E+00  0.93800000000E+00 0.  1.
         22    1    1    2    0    0  0.20608517212E-01  0.22766474135E+00  0.35254833827E+01  0.35328867838E+01  0.00000000000E+00 0. -1.
</event>
<event>
 5    1  0.2173147E+002  0.1543345E+01  0.7818608E-02  0.3417247E+00
         11   -1    0    0    0    0  0.00000000000E+00  0.00000000000E+00  0.39999999674E+01  0.40000000000E+01  0.51100000000E-03 0. -1.
    9000002   -1    0    0    0    0 -0.00000000000E+00 -0.00000000000E+00  0.00000000000E+00  0.93800000000E+00  0.93800000000E+00 0. -1.
         11    1    1    2    0    0 -0.60274044411E-01 -0.58375045686E-01  0.31948805551E+01  0.31959822635E+01  0.51100000000E-03 0. -1.
    9000002    1    1    2    0    0  0.24839810818E+00 -0.13869912563E+00  0.99026636791E-01  0.98518492802E+00  0.93800000000E+00 0. -1.
         22    1    1    2    0    0 -0.18812406377E+00  0.19707417132E+00  0.70609277549E+00  0.75683280846E+00  0.00000000000E+00 0. -1.
</event>
<event>
 5    1  0.2173147E+002  0.1516524E+01  0.7818608E-02  0.3449267E+00
         11   -1    0    0    0    0  0.00000000000E+00  0.00000000000E+00  0.39999999674E+01  0.40000000000E+01  0.51100000000E-03 0.  1.
    9000002   -1    0    0    0    0 -0.00000000000E+00 -0.00000000000E+00  0.00000000000E+00  0.93800000000E+00  0.93800000000E+00 0.  1.
         11    1    1    2    0    0  0.21364841445E+00 -0.33649409603E-02  0.40822869177E+00  0.46076880724E+00  0.51100000000E-03 0.  1.
    9000002    1    1    2    0    0  0.22537736942E-01 -0.15434831948E+00  0.80269451355E-01  0.95426334842E+00  0.93800000000E+00 0.  1.
         22    1    1    2    0    0 -0.23618615139E+00  0.15771326044E+00  0.35115018242E+01  0.35229678443E+01  0.00000000000E+00 0.  1.
</event>
<event>
 5    1  0.2173147E+002  0.1599666E+01  0.7818608E-02  0.3353726E+00
         11   -1    0    0    0    0  0.00000000000E+00  0.00000000000E+00  0.39999999674E+01  0.40000000000E+01  0.51100000000E-03 0.  1.
    9000002   -1    0    0    0    0 -0.00000000000E+00 -0.00000000000E+00  0.00000000000E+00  0.93800000000E+00  0.93800000000E+00 0. -1.
         11    1    1    2    0    0 -0.19619665336E-02 -0.44754561106E-01  0.29413220981E+00  0.29752451667E+00  0.51100000000E-03 0. -1.
    9000002    1    1    2    0    0  0.28852620509E-02  0.56122977353E+00  0.21804301643E+00  0.11146182936E+01  0.93800000000E+00 0. -1.
         22    1    1    2    0    0 -0.92329551731E-03 -0.51647521242E+00  0.34878247411E+01  0.35258571897E+01  0.00000000000E+00 0.  1.
</event>
<event>
 5    1  0.2173147E+002  0.1463023E+01  0.7818608E-02  0.3516918E+00
         11   -1    0    0    0    0  0.00000000000E+00  0.00000000000E+00  0.39999999674E+01  0.40000000000E+01  0.51100000000E-03 0. -1.
    9000002   -1    0    0    0    0 -0.00000000000E+00 -0.00000000000E+00  0.00000000000E+00  0.93800000000E+00  0.93800000000E+00 0. -1.
         11    1    1    2    0    0 -0.42376722323E+00  0.14547614308E+00  0.94775420843E+00  0.10483225975E+01  0.51100000000E-03 0. -1.
    9000002    1    1    2    0    0  0.27432262011E+00  0.62883023679E-01  0.16746907346E+00  0.99352758650E+00  0.93800000000E+00 0. -1.
         22    1    1    2    0    0  0.14944460311E+00 -0.20835916676E+00  0.28847766855E+01  0.28961498160E+01  0.00000000000E+00 0. -1.
</event>
<event>
 5    1  0.2173147E+002  0.1599638E+01  0.7818608E-02  0.3353757E+00
         11   -1    0    0    0    0  0.00000000000E+00  0.00000000000E+00  0.39999999674E+01  0.40000000000E+01  0.51100000000E-03 0.  1.
    9000002   -1    0    0    0    0 -0.00000000000E+00 -0.00000000000E+00  0.00000000000E+00  0.93800000000E+00  0.93800000000E+00 0. -1.
         11    1    1    2    0    0 -0.14128949375E+00 -0.10572955705E+00  0.15242225365E+01  0.15344041391E+01  0.51100000000E-03 0.  1.
    9000002    1    1    2    0    0  0.37575108918E+00  0.26313385006E+00  0.14314007204E+00  0.10539266503E+01  0.93800000000E+00 0. -1.
         22    1    1    2    0    0 -0.23446159543E+00 -0.15740429302E+00  0.23326373588E+01  0.23496692106E+01  0.00000000000E+00 0.  1.
</event>
<event>
 5    1  0.2173147E+002  0.1599629E+01  0.7818608E-02  0.3353766E+00
         11   -1    0    0    0    0  0.00000000000E+00  0.00000000000E+00  0.39999999674E+01  0.40000000000E+01  0.51100000000E-03 0. -1.
    9000002   -1    0    0    0    0 -0.00000000000E+00 -0.00000000000E+00  0.00000000000E+00  0.93800000000E+00  0.93800000000E+00 0.  1.
         11    1    1    2    0    0 -0.96108199184E-03  0.36424670002E-03  0.19185269637E-01  0.19219574561E-01  0.51100000000E-03 0.  1.
    9000002    1    1    2    0    0  0.23935622333E-01 -0.20089583267E+00  0.27137605377E-01  0.95995442560E+00  0.93800000000E+00 0.  1.
         22    1    1    2    0    0 -0.22974540341E-01  0.20053158597E+00  0.39536770923E+01  0.39588259998E+01  0.00000000000E+00 0. -1.
</event>
<event>
 5    1  0.2173147E+002  0.1503263E+01  0.7818608E-02  0.3465551E+00
         11   -1    0    0    0    0  0.00000000000E+00  0.00000000000E+00  0.39999999674E+01  0.40000000000E+01  0.51100000000E-03 0.  1.
    9000002   -1    0    0    0    0 -0.00000000000E+00 -0.00000000000E+00  0.00000000000E+00  0.93800000000E+00  0.93800000000E+00 0. -1.
         11    1    1    2    0    0  0.31246986969E-01  0.89363993233E-01  0.30047591109E-01  0.99324802207E-01  0.51100000000E-03 0.  1.
    9000002    1    1    2    0    0  0.19146052141E+00 -0.49273777788E-01  0.10189914190E+00  0.96400854330E+00  0.93800000000E+00 0. -1.
         22    1    1    2    0    0 -0.22270750838E+00 -0.40090215444E-01  0.38680532344E+01  0.38746666545E+01  0.00000000000E+00 0.  1.
</event>
<event>
 5    1  0.2173147E+002  0.1599468E+01  0.7818608E-02  0.3353941E+00
         11   -1    0    0    0    0  0.00000000000E+00  0.00000000000E+00  0.39999999674E+01  0.40000000000E+01  0.51100000000E-03 0.  1.
    9000002   -1    0    0    0    0 -0.00000000000E+00 -0.00000000000E+00  0.00000000000E+00  0.93800000000E+00  0.93800000000E+00 0.  1.
         11    1    1    2    0    0 -0.85996121179E-01  0.11100516529E+00  0.11849926186E+01  0.11932833891E+01  0.51100000000E-03 0.  1.
    9000002    1    1    2    0    0  0.28373995493E+00 -0.31085610140E+00  0.11999148495E+00  0.10350757626E+01  0.93800000000E+00 0.  1.
         22    1    1    2    0    0 -0.19774383375E+00  0.19985093611E+00  0.26950158638E+01  0.27096408483E+01  0.00000000000E+00 0. -1.
</event>
<event>
 5    1  0.2173147E+002  0.1599676E+01  0.7818608E-02  0.3353715E+00
         11   -1    0    0    0    0  0.00000000000E+00  0.00000000000E+00  0.39999999674E+01  0.40000000000E+01  0.51100000000E-03 0.  1.
    9000002   -1    0    0    0    0 -0.00000000000E+00 -0.00000000000E+00  0.00000000000E+00  0.93800000000E+00  0.93800000000E+00 0. -1.
         11    1    1    2    0    0  0.10650828774E+00 -0.72560854605E-01  0.10538172479E+01  0.10616685669E+01  0.51100000000E-03 0.  1.
    9000002    1    1    2    0    0 -0.38561442939E+00  0.26662200034E+00  0.14970118980E+00  0.10592640018E+01  0.93800000000E+00 0. -1.
         22    1    1    2    0    0  0.27910614166E+00 -0.19406114574E+00  0.27964815297E+01  0.28170674313E+01  0.00000000000E+00 0.  1.
</event>
<event>
 5    1  0.2173147E+002  0.1599467E+01  0.7818608E-02  0.3353942E+00
         11   -1    0    0    0    0  0.00000000000E+00  0.00000000000E+00  0.39999999674E+01  0.40000000000E+01  0.51100000000E-03 0. -1.
    9000002   -1    0    0    0    0 -0.00000000000E+00 -0.00000000000E+00  0.00000000000E+00  0.93800000000E+00  0.93800000000E+00 0. -1.
         11    1    1    2    0    0  0.74206609411E-02 -0.28407219024E-02  0.20537532035E+00  0.20552960672E+00  0.51100000000E-03 0. -1.
    9000002    1    1    2    0    0 -0.27483285076E+00  0.12213038087E+00  0.60508367394E-01  0.98689117349E+00  0.93800000000E+00 0. -1.
         22    1    1    2    0    0  0.26741218982E+00 -0.11928965897E+00  0.37341162796E+01  0.37455792198E+01  0.00000000000E+00 0. -1.
</event>
<event>
 5    1  0.2173147E+002  0.1531301E+01  0.7818608E-02  0.3431477E+00
         11   -1    0    0    0    0  0.00000000000E+00  0.00000000000E+00  0.39999999674E+01  0.40000000000E+01  0.51100000000E-03 0. -1.
    9000002   -1    0    0    0    0 -0.00000000000E+00 -0.00000000000E+00  0.00000000000E+00  0.93800000000E+00  0.93800000000E+00 0. -1.
         11    1    1    2    0    0  0.95885231280E-01 -0.16157011542E+00  0.39290953351E+00  0.43551927904E+00  0.51100000000E-03 0. -1.
    9000002    1    1    2    0    0 -0.17088182259E-01 -0.59153655847E-01  0.53893023387E-01  0.94156232876E+00  0.93800000000E+00 0. -1.
         22    1    1    2    0    0 -0.78797049021E-01  0.22072377127E+00  0.35531974105E+01  0.35609183922E+01  0.00000000000E+00 0. -1.
</event>
<event>
 5    1  0.2173147E+002  0.1469118E+01  0.7818608E-02  0.3508941E+00
         11   -1    0    0    0    0  0.00000000000E+00  0.00000000000E+00  0.39999999674E+01  0.40000000000E+01  0.51100000000E-03 0.  1.
    9000002   -1    0    0    0    0 -0.00000000000E+00 -0.00000000000E+00  0.00000000000E+00  0.93800000000E+00  0.93800000000E+00 0.  1.
         11    1    1    2    0    0  0.19471132827E+00  0.16740281903E-01  0.10208113394E+00  0.22048482356E+00  0.51100000000E-03 0.  1.
    9000002    1    1    2    0    0  0.10059945531E+00  0.37650459688E+00  0.26266635541E+00  0.10491489771E+01  0.93800000000E+00 0.  1.
         22    1    1    2    0    0 -0.29531078358E+00 -0.39324487878E+00  0.36352524780E+01  0.36683661993E+01  0.00000000000E+00 0.  1.
</event>
<event>
 5    1  0.2173147E+002  0.1537233E+01  0.7818608E-02  0.3424439E+00
         11   -1    0    0    0    0  0.00000000000E+00  0.00000000000E+00  0.39999999674E+01  0.40000000000E+01  0.51100000000E-03 0. -1.
    9000002   -1    0    0    0    0 -0.00000000000E+00 -0.00000000000E+00  0.00000000000E+00  0.93800000000E+00  0.93800000000E+00 0.  1.
         11    1    1    2    0    0  0.28423802727E+00  0.29020280409E+00  0.16404132960E+01  0.16899600488E+01  0.51100000000E-03 0. -1.
    9000002    1    1    2    0    0 -0.30523973913E+00 -0.84638882547E-01  0.11811135566E+00  0.99706034477E+00  0.93800000000E+00 0.  1.
         22    1    1    2    0    0  0.21001711859E-01 -0.20556392155E+00  0.22414753157E+01  0.22509796064E+01  0.00000000000E+00 0. -1.
</event>
<event>
 5    1  0.2173147E+002  0.1577073E+01  0.7818608E-02  0.3378629E+00
         11   -1    0    0    0    0  0.00000000000E+00  0.00000000000E+00  0.39999999674E+01  0.40000000000E+01  0.51100000000E-03 0.  1.
    9000002   -1    0    0    0    0 -0.00000000000E+00 -0.00000000000E+00  0.00000000000E+00  0.93800000000E+00  0.93800000000E+00 0. -1.
         11    1    1    2    0    0 -0.93506169561E-01 -0.89740099198E-01  0.12899169486E+01  0.12964114642E+01  0.51100000000E-03 0.  1.
    9000002    1    1    2    0    0 -0.41507057674E-02 -0.15594371954E+00  0.32972572394E-01  0.95145512903E+00  0.93800000000E+00 0. -1.
         22    1    1    2    0    0  0.97656875328E-01  0.24568381874E+00  0.26771104464E+01  0.26901334068E+01  0.00000000000E+00 0.  1.
</event>
<event>
 5    1  0.2173147E+002  0.1594815E+01  0.7818608E-02  0.3359010E+00
         11   -1    0    0    0    0  0.00000000000E+00  0.00000000000E+00  0.39999999674E+01  0.40000000000E+01  0.51100000000E-03 0. -1.
    9000002   -1    0    0    0    0 -0.00000000000E+00 -0.00000000000E+00  0.00000000000E+00  0.93800000000E+00  0.93800000000E+00 0.  1.
         11    1    1    2    0    0 -0.15141678314E-01  0.42753436114E-01  0.50120497699E+00  0.50325323328E+00  0.51100000000E-03 0. -1.
    9000002    1    1    2    0    0  0.30637700923E+00  0.61501744927E-01  0.69061342970E-01  0.99109172406E+00  0.93800000000E+00 0.  1.
         22    1    1    2    0    0 -0.29123533091E+00 -0.10425518104E+00  0.34297336474E+01  0.34436550427E+01  0.00000000000E+00 0. -1.
</event>
<event>
 5    1  0.2173147E+002  0.1599606E+01  0.7818608E-02  0.3353791E+00
         11   -1    0    0    0    0  0.00000000000E+00  0.00000000000E+00  0.39999999674E+01  0.40000000000E+01  0.51100000000E-03 0. -1.
    9000002   -1    0    0    0    0 -0.00000000000E+00 -0.00000000000E+00  0.00000000000E+00  0.93800000000E+00  0.93800000000E+00 0.  1.
         11    1    1    2    0    0 -0.27898335488E-01 -0.14665058366E+00  0.16241475206E+01  0.16309936053E+01  0.51100000000E-03 0. -1.
    9000002    1    1    2    0    0  0.47632670423E-01  0.36706472014E+00  0.92132592391E-01  0.10125896477E+01  0.93800000000E+00 0.  1.
         22    1    1    2    0    0 -0.19734334935E-01 -0.22041413648E+00  0.22837198544E+01  0.22944167470E+01  0.00000000000E+00 0. -1.
</event>
<event>
 5    1  0.2173147E+002  0.1597179E+01  0.7818608E-02  0.3356431E+00
         11   -1    0    0    0    0  0.00000000000E+00  0.00000000000E+00  0.39999999674E+01  0.40000000000E+01  0.51100000000E-03 0.  1.
    9000002   -1    0    0    0    0 -0.00000000000E+00 -0.00000000000E+00  0.00000000000E+00  0.93800000000E+00  0.93800000000E+00 0. -1.
         11    1    1    2    0    0  0.76065301747E-01 -0.29770822715E-01  0.10875825032E+01  0.10906457694E+01  0.51100000000E-03 0.  1.
    9000002    1    1    2    0    0 -0.14695445672E+00  0.25417192584E+00  0.59422032849E-01  0.98466946648E+00  0.93800000000E+00 0. -1.
         22    1    1    2    0    0  0.70889154975E-01 -0.22440110313E+00  0.28529954313E+01  0.28626847641E+01  0.00000000000E+00 0.  1.
</event>
<event>
 5    1  0.2173147E+002  0.1599565E+01  0.7818608E-02  0.3353836E+00
         11   -1    0    0    0    0  0.00000000000E+00  0.00000000000E+00  0.39999999674E+01  0.40000000000E+01  0.51100000000E-03 0. -1.
    9000002   -1    0    0    0    0 -0.00000000000E+00 -0.00000000000E+00  0.00000000000E+00  0.93800000000E+00  0.93800000000E+00 0. -1.
         11    1    1    2    0    0  0.57947567444E-02 -0.37133694930E-01  0.61855675306E+00  0.61969767499E+00  0.51100000000E-03 0. -1.
    9000002    1    1    2    0    0  0.22101271691E-01  0.23910368372E+00  0.38359398019E-01  0.96900695622E+00  0.93800000000E+00 0. -1.
         22    1    1    2    0    0 -0.27896028435E-01 -0.20196998879E+00  0.33430838163E+01  0.33492953688E+01  0.00000000000E+00 0. -1.
</event>
<event>
 5    1  0.2173147E+002  0.1598319E+01  0.7818608E-02  0.3355190E+00
         11   -1    0    0    0    0  0.00000000000E+00  0.00000000000E+00  0.39999999674E+01  0.40000000000E+01  0.51100000000E-03 0. -1.
    9000002   -1    0    0    0    0 -0.00000000000E+00 -0.00000000000E+00  0.00000000000E+00  0.93800000000E+00  0.93800000000E+00 0. -1.
         11    1    1    2    0    0  0.47547270745E-01 -0.68160954768E-01  0.81083315102E+00  0.81508117303E+00  0.51100000000E-03 0. -1.
    9000002    1    1    2    0    0 -0.34689437369E+00  0.20144576923E+00  0.10968907202E+00  0.10260564297E+01  0.93800000000E+00 0. -1.
         22    1    1    2    0    0  0.29934710294E+00 -0.13328481447E+00  0.30794777443E+01  0.30968623973E+01  0.00000000000E+00 0. -1.
</event>
<event>
 5    1  0.2173147E+002  0.1582703E+01  0.7818608E-02  0.3372354E+00
         11   -1    0    0    0    0  0.00000000000E+00  0.00000000000E+00  0.39999999674E+01  0.40000000000E+01  0.51100000000E-03 0.  1.
    9000002   -1    0    0    0    0 -0.00000000000E+00 -0.00000000000E+00  0.00000000000E+00  0.93800000000E+00  0.93800000000E+00 0.  1.
         11    1    1    2    0    0 -0.43737021515E-01 -0.73384145489E-01  0.47242409461E+00  0.48008639446E+00  0.51100000000E-03 0.  1.
    9000002    1    1    2    0    0  0.22551517305E+00 -0.22778327951E+00  0.82234158583E-01  0.99466012916E+00  0.93800000000E+00 0.  1.
         22    1    1    2    0    0 -0.18177815153E+00  0.30116742500E+00  0.34453417142E+01  0.34632534764E+01  0.00000000000E+00 0.  1.
</event>
<event>
 5    1  0.2173147E+002  0.1599507E+01  0.7818608E-02  0.3353898E+00
         11   -1    0    0    0    0  0.00000000000E+00  0.00000000000E+00  0.39999999674E+01  0.40000000000E+01  0.51100000000E-03 0.  1.
    9000002   -1    0    0    0    0 -0.00000000000E+00 -0.00000000000E+00  0.00000000000E+00  0.93800000000E+00  0.93800000000E+00 0.  1.
         11    1    1    2    0    0 -0.57023021089E-02 -0.10596535672E-01  0.16284265822E+00  0.16328746209E+00  0.51100000000E-03 0.  1.
    9000002    1    1    2    0    0  0.24620967314E+00  0.15173411935E+00  0.55876075708E-01  0.98316254097E+00  0.93800000000E+00 0.  1.
         22    1    1    2    0    0 -0.24050737103E+00 -0.14113758368E+00  0.37812812334E+01  0.37915499969E+01  0.00000000000E+00 0.  1.
</event>
<event>
 5    1  0.2173147E+002  0.1549884E+01  0.7818608E-02  0.3409621E+00
         11   -1    0    0    0    0  0.00000000000E+00  0.00000000000E+00  0.39999999674E+01  0.40000000000E+01  0.51100000000E-03 0.  1.
    9000002   -1    0    0    0    0 -0.00000000000E+00 -0.00000000000E+00  0.00000000000E+00  0.93800000000E+00  0.93800000000E+00 0. -1.
         11    1    1    2    0    0 -0.49477921803E+00 -0.27191913982E+00  0.28579171305E+01  0.29131489971E+01  0.51100000000E-03 0.  1.
    9000002    1    1    2    0    0  0.79032320077E+00  0.40840120457E+00  0.68310587752E+00  0.14621490846E+01  0.93800000000E+00 0. -1.
         22    1    1    2    0    0 -0.29554398275E+00 -0.13648206475E+00  0.45897695933E+00  0.56270191837E+00  0.00000000000E+00 0. -1.
</event>
<event>
 5    1  0.2173147E+002  0.1569901E+01  0.7818608E-02  0.3386694E+00
         11   -1    0    0    0    0  0.00000000000E+00  0.00000000000E+00  0.39999999674E+01  0.40000000000E+01  0.51100000000E-03 0.  1.
    9000002   -1    0    0    0    0 -0.00000000000E+00 -0.00000000000E+00  0.00000000000E+00  0.93800000000E+00  0.93800000000E+00 0. -1.
         11    1    1    2    0    0 -0.15088405420E+00  0.61336782233E-01  0.11947857523E+01  0.12058364125E+01  0.51100000000E-03 0.  1.
    9000002    1    1    2    0    0 -0.12989053081E+00 -0.15343312595E+00  0.49420180306E-01  0.96057255236E+00  0.93800000000E+00 0. -1.
         22    1    1    2    0    0  0.28077458501E+00  0.92096343716E-01  0.27557940347E+01  0.27715910351E+01  0.00000000000E+00 0.  1.
</event>
<event>
 5    1  0.2173147E+002  0.1599675E+01  0.7818608E-02  0.3353716E+00
         11   -1    0    0    0    0  0.00000000000E+00  0.00000000000E+00  0.39999999674E+01  0.40000000000E+01  0.51100000000E-03 0. -1.
    9000002   -1    0    0    0    0 -0.00000000000E+00 -0.00000000000E+00  0.00000000000E+00  0.93800000000E+00  0.93800000000E+00 0. -1.
         11    1    1    2    0    0  0.11578037356E+00  0.36489570503E-02  0.95399114244E+00  0.96099831986E+00  0.51100000000E-03 0. -1.
    9000002    1    1    2    0    0 -0.46478244330E+00 -0.95225668352E-02  0.14711152976E+00  0.10571656450E+01  0.93800000000E+00 0. -1.
         22    1    1    2    0    0  0.34900206974E+00  0.58736097849E-02  0.28988972952E+01  0.29198360351E+01  0.00000000000E+00 0. -1.
</event>
<event>
 5    1  0.2173147E+002  0.1599435E+01  0.7818608E-02  0.3353977E+00
         11   -1    0    0    0    0  0.00000000000E+00  0.00000000000E+00  0.39999999674E+01  0.40000000000E+01  0.51100000000E-03 0.  1.
    9000002   -1    0    0    0    0 -0.00000000000E+00 -0.00000000000E+00  0.00000000000E+00  0.93800000000E+00  0.93800000000E+00 0.  1.
         11    1    1    2    0    0  0.25960577703E-01  0.92996121996E-02  0.29473600620E+00  0.29602366266E+00  0.51100000000E-03 0.  1.
    9000002    1    1    2    0    0 -0.23166439974E+00 -0.63746093946E-01  0.38507059328E-01  0.96905043843E+00  0.93800000000E+00 0.  1.
         22    1    1    2    0    0  0.20570382204E+00  0.54446481746E-01  0.36667569018E+01  0.36729258989E+01  0.00000000000E+00 0.  1.
</event>
<event>
 5    1  0.2173147E+002  0.1574876E+01  0.7818608E-02  0.3381092E+00
         11   -1    0    0    0    0  0.00000000000E+00  0.00000000000E+00  0.39999999674E+01  0.40000000000E+01  0.51100000000E-03 0.  1.
    9000002   -1    0    0    0    0 -0.00000000000E+00 -0.00000000000E+00  0.00000000000E+00  0.93800000000E+00  0.93800000000E+00 0.  1.
         11    1    1    2    0    0 -0.35943096927E+00 -0.49724367241E+00  0.24698111059E+01  0.25448789856E+01  0.51100000000E-03 0.  1.
    9000002    1    1    2    0    0  0.34260491501E+00  0.84569183038E+00  0.68125724194E+00  0.14753061477E+01  0.93800000000E+00 0.  1.
         22    1    1    2    0    0  0.16826054268E-01 -0.34844815797E+00  0.84893161948E+00  0.91781486665E+00  0.00000000000E+00 0. -1.
</event>
<event>
 5    1  0.2173147E+002  0.1599565E+01  0.7818608E-02  0.3353835E+00
         11   -1    0    0    0    0  0.00000000000E+00  0.00000000000E+00  0.39999999674E+01  0.40000000000E+01  0.51100000000E-03 0.  1.
    9000002   -1    0    0    0    0 -0.00000000000E+00 -0.00000000000E+00  0.00000000000E+00  0.93800000000E+00  0.93800000000E+00 0.  1.
         11    1    1    2    0    0 -0.88766687760E-01  0.51897729124E-01  0.12166132787E+01  0.12209508713E+01  0.51100000000E-03 0.  1.
    9000002    1    1    2    0    0  0.29382912898E+00 -0.13031729529E+00  0.69156357053E-01  0.99395410166E+00  0.93800000000E+00 0.  1.
         22    1    1    2    0    0 -0.20506244122E+00  0.78419566162E-01  0.27142303316E+01  0.27230950270E+01  0.00000000000E+00 0.  1.
</event>
<event>
 5    1  0.2173147E+002  0.1583815E+01  0.7818608E-02  0.3371119E+00
         11   -1    0    0    0    0  0.00000000000E+00  0.00000000000E+00  0.39999999674E+01  0.40000000000E+01  0.51100000000E-03 0.  1.
    9000002   -1    0    0    0    0 -0.00000000000E+00 -0.00000000000E+00  0.00000000000E+00  0.93800000000E+00  0.93800000000E+00 0.  1.
         11    1    1    2    0    0 -0.18379136836E-01 -0.69334716039E-01  0.31527521808E+00  0.32333236735E+00  0.51100000000E-03 0.  1.
    9000002    1    1    2    0    0  0.32222530935E-01 -0.14279120364E+00  0.25934767594E-01  0.94970744522E+00  0.93800000000E+00 0.  1.
         22    1    1    2    0    0 -0.13843394099E-01  0.21212591968E+00  0.36587899817E+01  0.36649601874E+01  0.00000000000E+00 0.  1.
</event>
<event>
 5    1  0.2173147E+002  0.1599677E+01  0.7818608E-02  0.3353714E+00
         11   -1    0    0    0    0  0.00000000000E+00  0.00000000000E+00  0.39999999674E+01  0.40000000000E+01  0.51100000000E-03 0. -1.
    9000002   -1    0    0    0    0 -0.00000000000E+00 -0.00000000000E+00  0.00000000000E+00  0.93800000000E+00  0.93800000000E+00 0.  1.
         11    1    1    2    0    0  0.15462306147E+00  0.10224916925E+00  0.13779720972E+01  0.13903850350E+01  0.51100000000E-03 0. -1.
    9000002    1    1    2    0    0 -0.42785803329E+00 -0.28370180815E+00  0.18082658377E+00  0.10844775083E+01  0.93800000000E+00 0.  1.
         22    1    1    2    0    0  0.27323497182E+00  0.18145263890E+00  0.24412012863E+01  0.24631374567E+01  0.00000000000E+00 0. -1.
</event>
<event>
 5    1  0.2173147E+002  0.1599658E+01  0.7818608E-02  0.3353734E+00
         11   -1    0    0    0    0  0.00000000000E+00  0.00000000000E+00  0.39999999674E+01  0.40000000000E+01  0.51100000000E-03 0. -1.
    9000002   -1    0    0    0    0 -0.00000000000E+00 -0.00000000000E+00  0.00000000000E+00  0.93800000000E+00  0.93800000000E+00 0.  1.
         11    1    1    2    0    0 -0.65355113805E-01  0.97432875155E-01  0.12100005824E+01  0.12156751731E+01  0.51100000000E-03 0. -1.
    9000002    1    1    2    0    0  0.19652717949E+00 -0.30940377333E+00  0.90269669914E-01  0.10111113888E+01  0.93800000000E+00 0.  1.
         22    1    1    2    0    0 -0.13117206568E+00  0.21197089817E+00  0.26997297150E+01  0.27112134381E+01  0.00000000000E+00 0.  1.
</event>
<event>
 5    1  0.2173147E+002  0.1599508E+01  0.7818608E-02  0.3353898E+00
         11   -1    0    0    0    0  0.00000000000E+00  0.00000000000E+00  0.39999999674E+01  0.40000000000E+01  0.51100000000E-03 0. -1.
    9000002   -1    0    0    0    0 -0.00000000000E+00 -0.00000000000E+00  0.00000000000E+00  0.93800000000E+00  0.93800000000E+00 0. -1.
         11    1    1    2    0    0  0.24889047525E-01 -0.32800377355E-01  0.34629433747E+00  0.34873393688E+00  0.51100000000E-03 0. -1.
    9000002    1    1    2    0    0 -0.30661445789E+00  0.27168841432E+00  0.11348719956E+00  0.10298302602E+01  0.93800000000E+00 0. -1.
         22    1    1    2    0    0  0.28172541037E+00 -0.23888803696E+00  0.35402184303E+01  0.35594358030E+01  0.00000000000E+00 0. -1.
</event>
<event>
 5    1  0.2173147E+002  0.1599676E+01  0.7818608E-02  0.3353715E+00
         11   -1    0    0    0    0  0.00000000000E+00  0.00000000000E+00  0.39999999674E+01  0.40000000000E+01  0.51100000000E-03 0. -1.
    9000002   -1    0    0    0    0 -0.00000000000E+00 -0.00000000000E+00  0.00000000000E+00  0.93800000000E+00  0.93800000000E+00 0.  1.
         11    1    1    2    0    0 -0.12181313495E+00 -0.19399064542E-01  0.12753045886E+01  0.12812559535E+01  0.51100000000E-03 0. -1.
    9000002    1    1    2    0    0  0.36970988016E+00  0.60927449282E-01  0.94405921047E-01  0.10144722902E+01  0.93800000000E+00 0.  1.
         22    1    1    2    0    0 -0.24789674521E+00 -0.41528384739E-01  0.26302894577E+01  0.26422717564E+01  0.00000000000E+00 0. -1.
</event>
<event>
 5    1  0.2173147E+002  0.1587668E+01  0.7818608E-02  0.3366858E+00
         11   -1    0    0    0    0  0.00000000000E+00  0.00000000000E+00  0.39999999674E+01  0.40000000000E+01  0.51100000000E-03 0. -1.
    9000002   -1    0    0    0    0 -0.00000000000E+00 -0.00000000000E+00  0.00000000000E+00  0.93800000000E+00  0.93800000000E+00 0. -1.
         11    1    1    2    0    0 -0.39452664021E-01  0.65247669948E-01  0.98937982282E+00  0.99231369337E+00  0.51100000000E-03 0. -1.
    9000002    1    1    2    0    0  0.12332485173E+00  0.19446664205E+00  0.44331778314E-01  0.96686896759E+00  0.93800000000E+00 0. -1.
         22    1    1    2    0    0 -0.83872187712E-01 -0.25971431200E+00  0.29662883662E+01  0.29788173390E+01  0.00000000000E+00 0. -1.
</event>
<event>
 5    1  0.2173147E+002  0.1598285E+01  0.7818608E-02  0.3355227E+00
         11   -1    0    0    0    0  0.00000000000E+00  0.00000000000E+00  0.39999999674E+01  0.40000000000E+01  0.51100000000E-03 0. -1.
    9000002   -1    0    0    0    0 -0.00000000000E+00 -0.00000000000E+00  0.00000000000E+00  0.93800000000E+00  0.93800000000E+00 0.  1.
         11    1    1    2    0    0 -0.21366784415E-02 -0.54552603500E-01  0.50920070007E+00  0.51211928886E+00  0.51100000000E-03 0. -1.
    9000002    1    1    2    0    0 -0.20923471396E+00  0.45386240947E+00  0.17222995213E+00  0.10766974546E+01  0.93800000000E+00 0.  1.
         22    1    1    2    0    0  0.21137139240E+00 -0.39930980597E+00  0.33185693152E+01  0.33491832566E+01  0.00000000000E+00 0. -1.
</event>
<event>
 5    1  0.2173147E+002  0.1543096E+01  0.7818608E-02  0.3417539E+00
         11   -1    0    0    0    0  0.00000000000E+00  0.00000000000E+00  0.39999999674E+01  0.40000000000E+01  0.51100000000E-03 0. -1.
    9000002   -1    0    0    0    0 -0.00000000000E+00 -0.00000000000E+00  0.00000000000E+00  0.93800000000E+00  0.93800000000E+00 0.  1.
         11    1    1    2    0    0  0.16466712044E+00 -0.76143815830E-01  0.49101085330E+00  0.52345492683E+00  0.51100000000E-03 0. -1.
    9000002    1    1    2    0    0  0.78471623710E-01 -0.85687195989E-02  0.46465537519E-01  0.94246181082E+00  0.93800000000E+00 0.  1.
         22    1    1    2    0    0 -0.24313874415E+00  0.84712535429E-01  0.34625235765E+01  0.34720832623E+01  0.00000000000E+00 0. -1.
</event>
<event>
 5    1  0.2173147E+002  0.1597185E+01  0.7818608E-02  0.3356425E+00
         11   -1    0    0    0    0  0.00000000000E+00  0.00000000000E+00  0.39999999674E+01  0.40000000000E+01  0.51100000000E-03 0.  1.
    9000002   -1    0    0    0    0 -0.00000000000E+00 -0.00000000000E+00  0.00000000000E+00  0.93800000000E+00  0.93800000000E+00 0.  1.
         11    1    1    2    0    0  0.69785706282E-01 -0.74274286739E-01  0.97961621684E+00  0.98490350181E+00  0.51100000000E-03 0.  1.
    9000002    1    1    2    0    0 -0.28397996036E+00  0.89702265877E-01  0.61106039198E-01  0.98603704921E+00  0.93800000000E+00 0.  1.
         22    1    1    2    0    0  0.21419425408E+00 -0.15427979138E-01  0.29592777113E+01  0.29670594490E+01  0.00000000000E+00 0. -1.
</event>
<event>
 5    1  0.2173147E+002  0.1597075E+01  0.7818608E-02  0.3356544E+00
         11   -1    0    0    0    0  0.00000000000E+00  0.00000000000E+00  0.39999999674E+01  0.40000000000E+01  0.51100000000E-03 0. -1.
    9000002   -1    0    0    0    0 -0.00000000000E+00 -0.00000000000E+00  0.00000000000E+00  0.93800000000E+00  0.93800000000E+00 0. -1.
         11    1    1    2    0    0  0.59088262702E-01  0.73136853340E-01  0.78534797709E+00  0.79095646426E+00  0.51100000000E-03 0. -1.
    9000002    1    1    2    0    0 -0.47301527620E+00 -0.47746696853E+00  0.32331081280E+00  0.11983705768E+01  0.93800000000E+00 0. -1.
         22    1    1    2    0    0  0.41392701350E+00  0.40433011519E+00  0.28913411775E+01  0.29486729590E+01  0.00000000000E+00 0. -1.
</event>
<event>
 5    1  0.2173147E+002  0.1599671E+01  0.7818608E-02  0.3353720E+00
         11   -1    0    0    0    0  0.00000000000E+00  0.00000000000E+00  0.39999999674E+01  0.40000000000E+01  0.51100000000E-03 0.  1.
    9000002   -1    0    0    0    0 -0.00000000000E+00 -0.00000000000E+00  0.00000000000E+00  0.93800000000E+00  0.93800000000E+00 0. -1.
         11    1    1    2    0    0 -0.28581179816E-01  0.65093748003E-02  0.43658290647E+00  0.43756616773E+00  0.51100000000E-03 0.  1.
    9000002    1    1    2    0    0  0.25098558371E+00 -0.45334919208E-01  0.43232636940E-01  0.97301699832E+00  0.93800000000E+00 0. -1.
         22    1    1    2    0    0 -0.22240440390E+00  0.38825544408E-01  0.35201844240E+01  0.35274168339E+01  0.00000000000E+00 0.  1.
</event>
<event>
 5    1  0.2173147E+002  0.1599515E+01  0.7818608E-02  0.3353890E+00
         11   -1    0    0    0    0  0.00000000000E+00  0.00000000000E+00  0.39999999674E+01  0.40000000000E+01  0.51100000000E-03 0. -1.
    9000002   -1    0    0    0    0 -0.00000000000E+00 -0.00000000000E+00  0.00000000000E+00  0.93800000000E+00  0.93800000000E+00 0. -1.
         11    1    1    2    0    0 -0.35994322843E-03 -0.74781999359E-03  0.15055117974E-01  0.15086632894E-01  0.51100000000E-03 0. -1.
    9000002    1    1    2    0    0 -0.33275965081E+00  0.39384597587E+00  0.18261982320E+00  0.10858349956E+01  0.93800000000E+00 0. -1.
         22    1    1    2    0    0  0.33311959404E+00 -0.39309815588E+00  0.38023250262E+01  0.38370783715E+01  0.00000000000E+00 0. -1.
</event>
<event>
 5    1  0.2173147E+002  0.1599597E+01  0.7818608E-02  0.3353801E+00
         11   -1    0    0    0    0  0.00000000000E+00  0.00000000000E+00  0.39999999674E+01  0.40000000000E+01  0.51100000000E-03 0.  1.
    9000002   -1    0    0    0    0 -0.00000000000E+00 -0.00000000000E+00  0.00000000000E+00  0.93800000000E+00  0.93800000000E+00 0.  1.
         11    1    1    2    0    0 -0.15005563397E-01  0.12875163582E+00  0.14703662109E+01  0.14760688351E+01  0.51100000000E-03 0.  1.
    9000002    1    1    2    0    0  0.32404718243E-01 -0.36895848343E+00  0.92259827765E-01  0.10126876636E+01  0.93800000000E+00 0.  1.
         22    1    1    2    0    0 -0.17399154846E-01  0.24020684761E+00  0.24373739287E+01  0.24492435013E+01  0.00000000000E+00 0.  1.
</event>
<event>
 5    1  0.2173147E+002  0.1583720E+01  0.7818608E-02  0.3371225E+00
         11   -1    0    0    0    0  0.00000000000E+00  0.00000000000E+00  0.39999999674E+01  0.40000000000E+01  0.51100000000E-03 0. -1.
    9000002   -1    0    0    0    0 -0.00000000000E+00 -0.00000000000E+00  0.00000000000E+00  0.93800000000E+00  0.93800000000E+00 0. -1.
         11    1    1    2    0    0  0.45454706514E-01  0.45268437483E-01  0.17919525157E+00  0.19033276408E+00  0.51100000000E-03 0. -1.
    9000002    1    1    2    0    0  0.13398634322E+00 -0.15996728263E+00  0.40933387884E-01  0.96180113013E+00  0.93800000000E+00 0. -1.
         22    1    1    2    0    0 -0.17944104973E+00  0.11469884515E+00  0.37798713279E+01  0.37858661058E+01  0.00000000000E+00 0. -1.
</event>
<event>
 5    1  0.2173147E+002  0.1599671E+01  0.7818608E-02  0.3353720E+00
         11   -1    0    0    0    0  0.00000000000E+00  0.00000000000E+00  0.39999999674E+01  0.40000000000E+01  0.51100000000E-03 0.  1.
    9000002   -1    0    0    0    0 -0.00000000000E+00 -0.00000000000E+00  0.00000000000E+00  0.93800000000E+00  0.93800000000E+00 0.  1.
         11    1    1    2    0    0  0.88093171846E-01  0.86499476785E-01  0.89304884836E+00  0.90154260747E+00  0.51100000000E-03 0.  1.
    9000002    1    1    2    0    0 -0.38067119293E+00 -0.37726657581E+00  0.19788316832E+00  0.10982906604E+01  0.93800000000E+00 0.  1.
         22    1    1    2    0    0  0.29257802108E+00  0.29076709902E+00  0.29090679507E+01  0.29381667322E+01  0.00000000000E+00 0.  1.
</event>
<event>
 5    1  0.2173147E+002  0.1599573E+01  0.7818608E-02  0.3353827E+00
         11   -1    0    0    0    0  0.00000000000E+00  0.00000000000E+00  0.39999999674E+01  0.40000000000E+01  0.51100000000E-03 0.  1.
    9000002   -1    0    0    0    0 -0.00000000000E+00 -0.00000000000E+00  0.00000000000E+00  0.93800000000E+00  0.93800000000E+00 0. -1.
         11    1    1    2    0    0 -0.32877796580E-01  0.27071762407E-01  0.74543240437E+00  0.74664821732E+00  0.51100000000E-03 0.  1.
    9000002    1    1    2    0    0  0.22472617201E+00 -0.13635470963E+00  0.46024875463E-01  0.97522138429E+00  0.93800000000E+00 0. -1.
         22    1    1    2    0    0 -0.19184837543E+00  0.10928294723E+00  0.32085426875E+01  0.32161303984E+01  0.00000000000E+00 0.  1.
</event>
<event>
 5    1  0.2173147E+002  0.1599595E+01  0.7818608E-02  0.3353803E+00
         11   -1    0    0    0    0  0.00000000000E+00  0.00000000000E+00  0.39999999674E+01  0.40000000000E+01  0.51100000000E-03 0.  1.
    9000002   -1    0    0    0    0 -0.00000000000E+00 -0.00000000000E+00  0.00000000000E+00  0.93800000000E+00  0.93800000000E+00 0.  1.
         11    1    1    2    0    0  0.16873865958E-01  0.18234381301E+00  0.17991139451E+01  0.18084095891E+01  0.51100000000E-03 0.  1.
    9000002    1    1    2    0    0 -0.16340370120E-01 -0.38318779640E+00  0.99084970965E-01  0.10182149707E+01  0.93800000000E+00 0.  1.
         22    1    1    2    0    0 -0.53349583873E-03  0.20084398339E+00  0.21018010513E+01  0.21113754402E+01  0.00000000000E+00 0.  1.
</event>
<event>
 5    1  0.2173147E+002  0.1542884E+01  0.7818608E-02  0.3417787E+00
         11   -1    0    0    0    0  0.00000000000E+00  0.00000000000E+00  0.39999999674E+01  0.40000000000E+01  0.51100000000E-03 0.  1.
    9000002   -1    0    0    0    0 -0.00000000000E+00 -0.00000000000E+00  0.00000000000E+00  0.93800000000E+00  0.93800000000E+00 0.  1.
         11    1    1    2    0    0 -0.72201055282E-01  0.42731658248E-01  0.74986917078E-01  0.11252682282E+00  0.51100000000E-03 0.  1.
    9000002    1    1    2    0    0 -0.11090141559E+00  0.80108232959E-01  0.55355703379E-01  0.94953920765E+00  0.93800000000E+00 0.  1.
         22    1    1    2    0    0  0.18310247087E+00 -0.12283989121E+00  0.38696573469E+01  0.38759339695E+01  0.00000000000E+00 0.  1.
</event>
<event>
 5    1  0.2173147E+002  0.1599677E+01  0.7818608E-02  0.3353714E+00
         11   -1    0    0    0    0  0.00000000000E+00  0.00000000000E+00  0.39999999674E+01  0.40000000000E+01  0.51100000000E-03 0.  1.
    9000002   -1    0    0    0    0 -0.00000000000E+00 -0.00000000000E+00  0.00000000000E+00  0.93800000000E+00  0.93800000000E+00 0. -1.
         11    1    1    2    0    0  0.96789879785E-01  0.20621252466E-01  0.12828033459E+01  0.12866150171E+01  0.51100000000E-03 0.  1.
    9000002    1    1    2    0    0 -0.29620460652E+00 -0.63162407198E-01  0.61208434366E-01  0.98758145540E+00  0.93800000000E+00 0. -1.
         22    1    1    2    0    0  0.19941472674E+00  0.42541154733E-01  0.26559881871E+01  0.26638035275E+01  0.00000000000E+00 0. -1.
</event>
<event>
 5    1  0.2173147E+002  0.1588239E+01  0.7818608E-02  0.3366228E+00
         11   -1    0    0    0    0  0.00000000000E+00  0.00000000000E+00  0.39999999674E+01  0.40000000000E+01  0.51100000000E-03 0.  1.
    9000002   -1    0    0    0    0 -0.00000000000E+00 -0.00000000000E+00  0.00000000000E+00  0.93800000000E+00  0.93800000000E+00 0. -1.
         11    1    1    2    0    0  0.88993636681E-01  0.62199096430E-02  0.44802156721E+00  0.45681740384E+00  0.51100000000E-03 0.  1.
    9000002    1    1    2    0    0 -0.86169533600E-01 -0.23872787637E+00  0.51610599942E-01  0.97310011895E+00  0.93800000000E+00 0. -1.
         22    1    1    2    0    0 -0.28241030812E-02  0.23250796673E+00  0.35003678002E+01  0.35080824772E+01  0.00000000000E+00 0.  1.
</event>
<event>
 5    1  0.2173147E+002  0.1599677E+01  0.7818608E-02  0.3353714E+00
         11   -1    0    0    0    0  0.00000000000E+00  0.00000000000E+00  0.39999999674E+01  0.40000000000E+01  0.51100000000E-03 0.  1.
    9000002   -1    0    0    0    0 -0.00000000000E+00 -0.00000000000E+00  0.00000000000E+00  0.93800000000E+00  0.93800000000E+00 0. -1.
         11    1    1    2    0    0  0.24246708776E-01 -0.45437404527E+00  0.24434864415E+01  0.24854918883E+01  0.51100000000E-03 0.  1.
    9000002    1    1    2    0    0 -0.35714631800E-01  0.68177464592E+00  0.33158880321E+00  0.12066015652E+01  0.93800000000E+00 0. -1.
         22    1    1    2    0    0  0.11467923024E-01 -0.22740060065E+00  0.12249247226E+01  0.12459065465E+01  0.00000000000E+00 0.  1.
</event>
<event>
 5    1  0.2173147E+002  0.1599359E+01  0.7818608E-02  0.3354059E+00
         11   -1    0    0    0    0  0.00000000000E+00  0.00000000000E+00  0.39999999674E+01  0.40000000000E+01  0.51100000000E-03 0. -1.
    9000002   -1    0    0    0    0 -0.00000000000E+00 -0.00000000000E+00  0.00000000000E+00  0.93800000000E+00  0.93800000000E+00 0. -1.
         11    1    1    2    0    0  0.25651918058E-01  0.60531118841E-01  0.96846643744E+00  0.97069538930E+00  0.51100000000E-03 0. -1.
    9000002    1    1    2    0    0 -0.17624041657E+00 -0.22405481944E+00  0.54383764576E-01  0.98186701767E+00  0.93800000000E+00 0. -1.
         22    1    1    2    0    0  0.15058849851E+00  0.16352370060E+00  0.29771497653E+01  0.29854375930E+01  0.00000000000E+00 0. -1.
</event>
<event>
 5    1  0.2173147E+002  0.1599635E+01  0.7818608E-02  0.3353760E+00
         11   -1    0    0    0    0  0.00000000000E+00  0.00000000000E+00  0.39999999674E+01  0.40000000000E+01  0.51100000000E-03 0. -1.
    9000002   -1    0    0    0    0 -0.00000000000E+00 -0.00000000000E+00  0.00000000000E+00  0.93800000000E+00  0.93800000000E+00 0. -1.
         11    1    1    2    0    0  0.25092840943E+00 -0.48020111309E+00  0.16993680868E+01  0.17836508434E+01  0.51100000000E-03 0. -1.
    9000002    1    1    2    0    0 -0.48168544164E+00  0.89084173717E+00  0.83132663741E+00  0.16113869316E+01  0.93800000000E+00 0. -1.
         22    1    1    2    0    0  0.23075703222E+00 -0.41064062408E+00  0.14693052431E+01  0.15429622249E+01  0.00000000000E+00 0. -1.
</event>
<event>
 5    1  0.2173147E+002  0.1599563E+01  0.7818608E-02  0.3353838E+00
         11   -1    0    0    0    0  0.00000000000E+00  0.00000000000E+00  0.39999999674E+01  0.40000000000E+01  0.51100000000E-03 0. -1.
    9000002   -1    0    0    0    0 -0.00000000000E+00 -0.00000000000E+00  0.00000000000E+00  0.93800000000E+00  0.93800000000E+00 0.  1.
         11    1    1    2    0    0  0.60109022951E-01 -0.12788705588E+00  0.14750562678E+01  0.14818095181E+01  0.51100000000E-03 0. -1.
    9000002    1    1    2    0    0 -0.12672013447E+00  0.34437942369E+00  0.90554195383E-01  0.10112859350E+01  0.93800000000E+00 0.  1.
         22    1    1    2    0    0  0.66611111518E-01 -0.21649236781E+00  0.24343895042E+01  0.24449045469E+01  0.00000000000E+00 0. -1.
</event>
<event>
 5    1  0.2173147E+002  0.1599669E+01  0.7818608E-02  0.3353723E+00
         11   -1    0    0    0    0  0.00000000000E+00  0.00000000000E+00  0.39999999674E+01  0.40000000000E+01  0.51100000000E-03 0.  1.
    9000002   -1    0    0    0    0 -0.00000000000E+00 -0.00000000000E+00  0.00000000000E+00  0.93800000000E+00  0.93800000000E+00 0. -1.
         11    1    1    2    0    0 -0.39785204096E-01  0.51424486625E-01  0.89654820710E+00  0.89890282515E+00  0.51100000000E-03 0.  1.
    9000002    1    1    2    0    0  0.16297404173E+00 -0.22273693536E+00  0.50713414980E-01  0.97907514069E+00  0.93800000000E+00 0. -1.
         22    1    1    2    0    0 -0.12318883763E+00  0.17131244874E+00  0.30527383453E+01  0.30600220342E+01  0.00000000000E+00 0.  1.
</event>
<event>
 5    1  0.2173147E+002  0.1599674E+01  0.7818608E-02  0.3353717E+00
         11   -1    0    0    0    0  0.00000000000E+00  0.00000000000E+00  0.39999999674E+01  0.40000000000E+01  0.51100000000E-03 0.  1.
    9000002   -1    0    0    0    0 -0.00000000000E+00 -0.00000000000E+00  0.00000000000E+00  0.93800000000E+00  0.93800000000E+00 0. -1.
         11    1    1    2    0    0  0.30044254352E-01  0.21595177106E-01  0.53352232686E+00  0.53480402324E+00  0.51100000000E-03 0.  1.
    9000002    1    1    2    0    0 -0.21287382940E+00 -0.15887815012E+00  0.46930805907E-01  0.97601436176E+00  0.93800000000E+00 0. -1.
         22    1    1    2    0    0  0.18282957505E+00  0.13728297301E+00  0.34195468346E+01  0.34271816150E+01  0.00000000000E+00 0.  1.
</event>
<event>
 5    1  0.2173147E+002  0.1592431E+01  0.7818608E-02  0.3361620E+00
         11   -1    0    0    0    0  0.00000000000E+00  0.00000000000E+00  0.39999999674E+01  0.40000000000E+01  0.51100000000E-03 0. -1.
    9000002   -1    0    0    0    0 -0.00000000000E+00 -0.00000000000E+00  0.00000000000E+00  0.93800000000E+00  0.93800000000E+00 0. -1.
         11    1    1    2    0    0 -0.16337821767E+00 -0.65633450870E-01  0.18394915213E+01  0.18478986741E+01  0.51100000000E-03 0. -1.
    9000002    1    1    2    0    0  0.33895051010E+00  0.35065954258E+00  0.16897555290E+00  0.10706289276E+01  0.93800000000E+00 0. -1.
         22    1    1    2    0    0 -0.17557229243E+00 -0.28502609171E+00  0.19915328932E+01  0.20194723983E+01  0.00000000000E+00 0.  1.
</event>
<event>
 5    1  0.2173147E+002  0.1599676E+01  0.7818608E-02  0.3353715E+00
         11   -1    0    0    0    0  0.00000000000E+00  0.00000000000E+00  0.39999999674E+01  0.40000000000E+01  0.51100000000E-03 0.  1.
    9000002   -1    0    0    0    0 -0.00000000000E+00 -0.00000000000E+00  0.00000000000E+00  0.93800000000E+00  0.93800000000E+00 0. -1.
         11    1    1    2    0    0 -0.29183794895E+00  0.22176116047E-01  0.21326391366E+01  0.21526288850E+01  0.51100000000E-03 0.  1.
    9000002    1    1    2    0    0  0.52250713409E+00 -0.41706388529E-01  0.18887327372E+00  0.10909950694E+01  0.93800000000E+00 0. -1.
         22    1    1    2    0    0 -0.23066918515E+00  0.19530272482E-01  0.16784875570E+01  0.16943760455E+01  0.00000000000E+00 0. -1.
</event>
<event>
 5    1  0.2173147E+002  0.1596140E+01  0.7818608E-02  0.3357564E+00
         11   -1    0    0    0    0  0.00000000000E+00  0.00000000000E+00  0.39999999674E+01  0.40000000000E+01  0.51100000000E-03 0. -1.
    9000002   -1    0    0    0    0 -0.00000000000E+00 -0.00000000000E+00  0.00000000000E+00  0.93800000000E+00  0.93800000000E+00 0. -1.
         11    1    1    2    0    0  0.25857420248E-01 -0.88431198601E-01  0.67177757537E+00  0.67806640896E+00  0.51100000000E-03 0. -1.
    9000002    1    1    2    0    0 -0.25732500677E+00  0.21926490672E+00  0.79368907408E-01  0.10002183171E+01  0.93800000000E+00 0. -1.
         22    1    1    2    0    0  0.23146758653E+00 -0.13083370811E+00  0.32488534846E+01  0.32597152739E+01  0.00000000000E+00 0. -1.
</event>
<event>
 5    1  0.2173147E+002  0.1599673E+01  0.7818608E-02  0.3353718E+00
         11   -1    0    0    0    0  0.00000000000E+00  0.00000000000E+00  0.39999999674E+01  0.40000000000E+01  0.51100000000E-03 0. -1.
    9000002   -1    0    0    0    0 -0.00000000000E+00 -0.00000000000E+00  0.00000000000E+00  0.93800000000E+00  0.93800000000E+00 0.  1.
         11    1    1    2    0    0  0.13523725992E-01  0.10792355740E+00  0.12646721126E+01  0.12693408521E+01  0.51100000000E-03 0. -1.
    9000002    1    1    2    0    0 -0.37523139144E-01 -0.33950301130E+00  0.78159729781E-01  0.10013107530E+01  0.93800000000E+00 0.  1.
         22    1    1    2    0    0  0.23999413152E-01  0.23157945391E+00  0.26571681250E+01  0.26673483949E+01  0.00000000000E+00 0. -1.
</event>
<event>
 5    1  0.2173147E+002  0.1581346E+01  0.7818608E-02  0.3373862E+00
         11   -1    0    0    0    0  0.00000000000E+00  0.00000000000E+00  0.39999999674E+01  0.40000000000E+01  0.51100000000E-03 0.  1.
    9000002   -1    0    0    0    0 -0.00000000000E+00 -0.00000000000E+00  0.00000000000E+00  0.93800000000E+00  0.93800000000E+00 0. -1.
         11    1    1    2    0    0  0.52353677274E+00  0.38374748259E+00  0.18076203964E+01  0.19206365199E+01  0.51100000000E-03 0.  1.
    9000002    1    1    2    0    0 -0.91752967788E+00 -0.38830942905E+00  0.83290955455E+00  0.16019448332E+01  0.93800000000E+00 0. -1.
         22    1    1    2    0    0  0.39399290515E+00  0.45619464602E-02  0.13594700164E+01  0.14154186469E+01  0.00000000000E+00 0.  1.
</event>
<event>
 5    1  0.2173147E+002  0.1597598E+01  0.7818608E-02  0.3355975E+00
         11   -1    0    0    0    0  0.00000000000E+00  0.00000000000E+00  0.39999999674E+01  0.40000000000E+01  0.51100000000E-03 0. -1.
    9000002   -1    0    0    0    0 -0.00000000000E+00 -0.00000000000E+00  0.00000000000E+00  0.93800000000E+00  0.93800000000E+00 0.  1.
         11    1    1    2    0    0  0.16855475092E+00  0.11434564915E+00  0.15038801211E+01  0.15176103951E+01  0.51100000000E-03 0. -1.
    9000002    1    1    2    0    0 -0.29642720654E+00 -0.29720308176E+00  0.12091682631E+00  0.10347287758E+01  0.93800000000E+00 0.  1.
         22    1    1    2    0    0  0.12787245562E+00  0.18285743261E+00  0.23752030199E+01  0.23856608291E+01  0.00000000000E+00 0. -1.
</event>
<event>
 5    1  0.2173147E+002  0.1598630E+01  0.7818608E-02  0.3354851E+00
         11   -1    0    0    0    0  0.00000000000E+00  0.00000000000E+00  0.39999999674E+01  0.40000000000E+01  0.51100000000E-03 0. -1.
    9000002   -1    0    0    0    0 -0.00000000000E+00 -0.00000000000E+00  0.00000000000E+00  0.93800000000E+00  0.93800000000E+00 0.  1.
         11    1    1    2    0    0 -0.42020534336E+00  0.27407210167E+00  0.14448718707E+01  0.15294911021E+01  0.51100000000E-03 0. -1.
    9000002    1    1    2    0    0  0.85262202213E+00 -0.65122535061E+00  0.97308978982E+00  0.17256322056E+01  0.93800000000E+00 0.  1.
         22    1    1    2    0    0 -0.43241667877E+00  0.37715324894E+00  0.15820383069E+01  0.16828766924E+01  0.00000000000E+00 0. -1.
</event>
<event>
 5    1  0.2173147E+002  0.1590478E+01  0.7818608E-02  0.3363763E+00
         11   -1    0    0    0    0  0.00000000000E+00  0.00000000000E+00  0.39999999674E+01  0.40000000000E+01  0.51100000000E-03 0.  1.
    9000002   -1    0    0    0    0 -0.00000000000E+00 -0.00000000000E+00  0.00000000000E+00  0.93800000000E+00  0.93800000000E+00 0.  1.
         11    1    1    2    0    0 -0.78714997081E-03  0.52355792731E-01  0.13095716841E+00  0.14103825622E+00  0.51100000000E-03 0.  1.
    9000002    1    1    2    0    0 -0.13815696067E+00 -0.30428995073E+00  0.82128622570E-01  0.99913404033E+00  0.93800000000E+00 0.  1.
         22    1    1    2    0    0  0.13894411064E+00  0.25193415800E+00  0.37869141764E+01  0.37978277035E+01  0.00000000000E+00 0.  1.
</event>
<event>
 5    1  0.2173147E+002  0.1599677E+01  0.7818608E-02  0.3353714E+00
         11   -1    0    0    0    0  0.00000000000E+00  0.00000000000E+00  0.39999999674E+01  0.40000000000E+01  0.51100000000E-03 0.  1.
    9000002   -1    0    0    0    0 -0.00000000000E+00 -0.00000000000E+00  0.00000000000E+00  0.93800000000E+00  0.93800000000E+00 0.  1.
         11    1    1    2    0    0 -0.58040494477E+00 -0.70553600865E-01  0.21276676184E+01  0.22065397041E+01  0.51100000000E-03 0.  1.
    9000002    1    1    2    0    0  0.91212115613E+00  0.11104311489E+00  0.65167460913E+00  0.14658851841E+01  0.93800000000E+00 0.  1.
         22    1    1    2    0    0 -0.33171621136E+00 -0.40489514029E-01  0.12206577399E+01  0.12655751118E+01  0.00000000000E+00 0.  1.
</event>
<event>
 5    1  0.2173147E+002  0.1599677E+01  0.7818608E-02  0.3353715E+00
         11   -1    0    0    0    0  0.00000000000E+00  0.00000000000E+00  0.39999999674E+01  0.40000000000E+01  0.51100000000E-03 0. -1.
    9000002   -1    0    0    0    0 -0.00000000000E+00 -0.00000000000E+00  0.00000000000E+00  0.93800000000E+00  0.93800000000E+00 0.  1.
         11    1    1    2    0    0  0.73664136249E-01  0.16039315319E+00  0.16326875687E+01  0.16422001481E+01  0.51100000000E-03 0. -1.
    9000002    1    1    2    0    0 -0.17399840835E+00 -0.38286487356E+00  0.11962116716E+00  0.10348981501E+01  0.93800000000E+00 0.  1.
         22    1    1    2    0    0  0.10033427211E+00  0.22247172037E+00  0.22476912316E+01  0.22609017017E+01  0.00000000000E+00 0. -1.
</event>
<event>
 5    1  0.2173147E+002  0.1599656E+01  0.7818608E-02  0.3353737E+00
         11   -1    0    0    0    0  0.00000000000E+00  0.00000000000E+00  0.39999999674E+01  0.40000000000E+01  0.51100000000E-03 0.  1.
    9000002   -1    0    0    0    0 -0.00000000000E+00 -0.00000000000E+00  0.00000000000E+00  0.93800000000E+00  0.93800000000E+00 0. -1.
         11    1    1    2    0    0  0.25557687060E+00 -0.15726373919E+00  0.12075539691E+01  0.12442822308E+01  0.51100000000E-03 0.  1.
    9000002    1    1    2    0    0 -0.72928482591E+00  0.43550231170E+00  0.54104988468E+00  0.13762621838E+01  0.93800000000E+00 0. -1.
         22    1    1    2    0    0  0.47370795531E+00 -0.27823857252E+00  0.22513961135E+01  0.23174555854E+01  0.00000000000E+00 0. -1.
</event>
<event>
 5    1  0.2173147E+002  0.1571045E+01  0.7818608E-02  0.3385402E+00
         11   -1    0    0    0    0  0.00000000000E+00  0.00000000000E+00  0.39999999674E+01  0.40000000000E+01  0.51100000000E-03 0. -1.
    9000002   -1    0    0    0    0 -0.00000000000E+00 -0.00000000000E+00  0.00000000000E+00  0.93800000000E+00  0.93800000000E+00 0.  1.
         11    1    1    2    0    0  0.15818279510E+00  0.77323946394E-01  0.61454993780E+00  0.63927511802E+00  0.51100000000E-03 0. -1.
    9000002    1    1    2    0    0 -0.63861957447E+00  0.40055725959E+00  0.44790531034E+00  0.12840343633E+01  0.93800000000E+00 0.  1.
         22    1    1    2    0    0  0.48043677937E+00 -0.47788120599E+00  0.29375447192E+01  0.30146905187E+01  0.00000000000E+00 0. -1.
</event>
<event>
 5    1  0.2173147E+002  0.1599677E+01  0.7818608E-02  0.3353714E+00
         11   -1    0    0    0    0  0.00000000000E+00  0.00000000000E+00  0.39999999674E+01  0.40000000000E+01  0.51100000000E-03 0.  1.
    9000002   -1    0    0    0    0 -0.00000000000E+00 -0.00000000000E+00  0.00000000000E+00  0.93800000000E+00  0.93800000000E+00 0. -1.
         11    1    1    2    0    0  0.33383968932E+00  0.70310056791E+00  0.25637055988E+01  0.26792510157E+01  0.51100000000E-03 0.  1.
    9000002    1    1    2    0    0 -0.42049321731E+00 -0.88673802720E+00  0.76682136081E+00  0.15591593485E+01  0.93800000000E+00 0. -1.
         22    1    1    2    0    0  0.86653527989E-01  0.18363745929E+00  0.66947300776E+00  0.69958963578E+00  0.00000000000E+00 0. -1.
</event>
<event>
 5    1  0.2173147E+002  0.1599675E+01  0.7818608E-02  0.3353716E+00
         11   -1    0    0    0    0  0.00000000000E+00  0.00000000000E+00  0.39999999674E+01  0.40000000000E+01  0.51100000000E-03 0. -1.
    9000002   -1    0    0    0    0 -0.00000000000E+00 -0.00000000000E+00  0.00000000000E+00  0.93800000000E+00  0.93800000000E+00 0. -1.
         11    1    1    2    0    0  0.10032676990E+00 -0.10360014190E+00  0.15829168677E+01  0.15894730326E+01  0.51100000000E-03 0. -1.
    9000002    1    1    2    0    0 -0.24468155001E+00  0.25724389601E+00  0.84561925191E-01  0.10064979891E+01  0.93800000000E+00 0. -1.
         22    1    1    2    0    0  0.14435478011E+00 -0.15364375411E+00  0.23325211745E+01  0.23420289783E+01  0.00000000000E+00 0.  1.
</event>
<event>
 5    1  0.2173147E+002  0.1598422E+01  0.7818608E-02  0.3355078E+00
         11   -1    0    0    0    0  0.00000000000E+00  0.00000000000E+00  0.39999999674E+01  0.40000000000E+01  0.51100000000E-03 0. -1.
    9000002   -1    0    0    0    0 -0.00000000000E+00 -0.00000000000E+00  0.00000000000E+00  0.93800000000E+00  0.93800000000E+00 0. -1.
         11    1    1    2    0    0  0.78127764923E-01  0.35386929474E-01  0.91077847552E+00  0.91480810830E+00  0.51100000000E-03 0. -1.
    9000002    1    1    2    0    0 -0.32160050569E+00  0.17701217584E-02  0.70138134442E-01  0.99407916007E+00  0.93800000000E+00 0. -1.
         22    1    1    2    0    0  0.24347274076E+00 -0.37157051232E-01  0.30190833574E+01  0.30291127316E+01  0.00000000000E+00 0. -1.
</event>
<event>
 5    1  0.2173147E+002  0.1597877E+01  0.7818608E-02  0.3355671E+00
         11   -1    0    0    0    0  0.00000000000E+00  0.00000000000E+00  0.39999999674E+01  0.40000000000E+01  0.51100000000E-03 0.  1.
    9000002   -1    0    0    0    0 -0.00000000000E+00 -0.00000000000E+00  0.00000000000E+00  0.93800000000E+00  0.93800000000E+00 0. -1.
         11    1    1    2    0    0  0.89366879838E-01 -0.15508655528E+00  0.13091311951E+01  0.13213111011E+01  0.51100000000E-03 0.  1.
    9000002    1    1    2    0    0 -0.34402688009E+00  0.54519978719E+00  0.29477770250E+00  0.11757275178E+01  0.93800000000E+00 0. -1.
         22    1    1    2    0    0  0.25466000025E+00 -0.39011323191E+00  0.23960910697E+01  0.24409613811E+01  0.00000000000E+00 0.  1.
</event>
<event>
 5    1  0.2173147E+002  0.1599550E+01  0.7818608E-02  0.3353852E+00
         11   -1    0    0    0    0  0.00000000000E+00  0.00000000000E+00  0.39999999674E+01  0.40000000000E+01  0.51100000000E-03 0.  1.
    9000002   -1    0    0    0    0 -0.00000000000E+00 -0.00000000000E+00  0.00000000000E+00  0.93800000000E+00  0.93800000000E+00 0.  1.
         11    1    1    2    0    0  0.81114810002E-01 -0.33258569040E+00  0.21335060666E+01  0.21607964391E+01  0.51100000000E-03 0.  1.
    9000002    1    1    2    0    0 -0.16565067974E+00  0.57997855922E+00  0.25413268531E+00  0.11437843759E+01  0.93800000000E+00 0.  1.
         22    1    1    2    0    0  0.84535869736E-01 -0.24739286882E+00  0.16123612154E+01  0.16334191849E+01  0.00000000000E+00 0.  1.
</event>
<event>
 5    1  0.2173147E+002  0.1598353E+01  0.7818608E-02  0.3355153E+00
         11   -1    0    0    0    0  0.00000000000E+00  0.00000000000E+00  0.39999999674E+01  0.40000000000E+01  0.51100000000E-03 0.  1.
    9000002   -1    0    0    0    0 -0.00000000000E+00 -0.00000000000E+00  0.00000000000E+00  0.93800000000E+00  0.93800000000E+00 0. -1.
         11    1    1    2    0    0  0.62816426595E-01  0.81535932018E-01  0.96132670538E+00  0.96682123852E+00  0.51100000000E-03 0.  1.
    9000002    1    1    2    0    0 -0.39810122241E+00 -0.29020184527E+00  0.16712569121E+00  0.10726027647E+01  0.93800000000E+00 0. -1.
         22    1    1    2    0    0  0.33528479581E+00  0.20866591325E+00  0.28715475708E+01  0.28985759967E+01  0.00000000000E+00 0.  1.
</event>
<event>
 5    1  0.2173147E+002  0.1599115E+01  0.7818608E-02  0.3354325E+00
         11   -1    0    0    0    0  0.00000000000E+00  0.00000000000E+00  0.39999999674E+01  0.40000000000E+01  0.51100000000E-03 0. -1.
    9000002   -1    0    0    0    0 -0.00000000000E+00 -0.00000000000E+00  0.00000000000E+00  0.93800000000E+00  0.93800000000E+00 0. -1.
         11    1    1    2    0    0 -0.31877253212E-01  0.89084442043E-01  0.11919180252E+01  0.11956676114E+01  0.51100000000E-03 0. -1.
    9000002    1    1    2    0    0  0.19468303047E-01 -0.30564572755E+00  0.63052390328E-01  0.98874563439E+00  0.93800000000E+00 0. -1.
         22    1    1    2    0    0  0.12408950165E-01  0.21656128551E+00  0.27450295518E+01  0.27535867542E+01  0.00000000000E+00 0. -1.
</event>
<event>
 5    1  0.2173147E+002  0.1596852E+01  0.7818608E-02  0.3356788E+00
         11   -1    0    0    0    0  0.00000000000E+00  0.00000000000E+00  0.39999999674E+01  0.40000000000E+01  0.51100000000E-03 0.  1.
    9000002   -1    0    0    0    0 -0.00000000000E+00 -0.00000000000E+00  0.00000000000E+00  0.93800000000E+00  0.93800000000E+00 0. -1.
         11    1    1    2    0    0  0.68046796921E-01  0.46214689365E-01  0.10082891647E+01  0.10116389993E+01  0.51100000000E-03 0.  1.
    9000002    1    1    2    0    0 -0.25104414132E+00 -0.39173310246E+00  0.14984123394E+00  0.10577213148E+01  0.93800000000E+00 0. -1.
         22    1    1    2    0    0  0.18299734440E+00  0.34551841310E+00  0.28418695687E+01  0.28686396859E+01  0.00000000000E+00 0.  1.
</event>
<event>
 5    1  0.2173147E+002  0.1595848E+01  0.7818608E-02  0.3357883E+00
         11   -1    0    0    0    0  0.00000000000E+00  0.00000000000E+00  0.39999999674E+01  0.40000000000E+01  0.51100000000E-03 0. -1.
    9000002   -1    0    0    0    0 -0.00000000000E+00 -0.00000000000E+00  0.00000000000E+00  0.93800000000E+00  0.93800000000E+00 0. -1.
         11    1    1    2    0    0 -0.12982329884E+00 -0.16086210666E+00  0.24633482970E+01  0.24720064320E+01  0.51100000000E-03 0. -1.
    9000002    1    1    2    0    0  0.21444877612E+00  0.36599156811E+00  0.12501206124E+00  0.10370198267E+01  0.93800000000E+00 0. -1.
         22    1    1    2    0    0 -0.84625477288E-01 -0.20512946145E+00  0.14116396091E+01  0.14289737413E+01  0.00000000000E+00 0.  1.
</event>
<event>
 5    1  0.2173147E+002  0.1599571E+01  0.7818608E-02  0.3353829E+00
         11   -1    0    0    0    0  0.00000000000E+00  0.00000000000E+00  0.39999999674E+01  0.40000000000E+01  0.51100000000E-03 0. -1.
    9000002   -1    0    0    0    0 -0.00000000000E+00 -0.00000000000E+00  0.00000000000E+00  0.93800000000E+00  0.93800000000E+00 0. -1.
         11    1    1    2    0    0  0.44478388326E+00 -0.79855167485E-01  0.14399986205E+01  0.15092401527E+01  0.51100000000E-03 0. -1.
    9000002    1    1    2    0    0 -0.10033634119E+01  0.17345874319E+00  0.84332944695E+00  0.16210720614E+01  0.93800000000E+00 0. -1.
         22    1    1    2    0    0  0.55857952868E+00 -0.93603575704E-01  0.17166719000E+01  0.18076877859E+01  0.00000000000E+00 0. -1.
</event>
<event>
 5    1  0.2173147E+002  0.1554609E+01  0.7818608E-02  0.3404153E+00
         11   -1    0    0    0    0  0.00000000000E+00  0.00000000000E+00  0.39999999674E+01  0.40000000000E+01  0.51100000000E-03 0.  1.
    9000002   -1    0    0    0    0 -0.00000000000E+00 -0.00000000000E+00  0.00000000000E+00  0.93800000000E+00  0.93800000000E+00 0.  1.
         11    1    1    2    0    0  0.12283042764E+00 -0.18834252728E+00  0.32163428703E+01  0.32241932234E+01  0.51100000000E-03 0.  1.
    9000002    1    1    2    0    0  0.71101502499E-01  0.12617367461E+00  0.47832205053E-01  0.95031949347E+00  0.93800000000E+00 0.  1.
         22    1    1    2    0    0 -0.19393193014E+00  0.62168852670E-01  0.73582489203E+00  0.76348728313E+00  0.00000000000E+00 0.  1.
</event>
<event>
 5    1  0.2173147E+002  0.1598853E+01  0.7818608E-02  0.3354609E+00
         11   -1    0    0    0    0  0.00000000000E+00  0.00000000000E+00  0.39999999674E+01  0.40000000000E+01  0.51100000000E-03 0.  1.
    9000002   -1    0    0    0    0 -0.00000000000E+00 -0.00000000000E+00  0.00000000000E+00  0.93800000000E+00  0.93800000000E+00 0.  1.
         11    1    1    2    0    0  0.39074276412E-01 -0.51467166626E-02  0.33900609250E+00  0.34128972977E+00  0.51100000000E-03 0.  1.
    9000002    1    1    2    0    0 -0.24201802425E+00 -0.12749531052E-01  0.39622772994E-01  0.96961293243E+00  0.93800000000E+00 0.  1.
         22    1    1    2    0    0  0.20294374783E+00  0.17896247714E-01  0.36213711019E+01  0.36270973378E+01  0.00000000000E+00 0.  1.
</event>
<event>
 5    1  0.2173147E+002  0.1588779E+01  0.7818608E-02  0.3365633E+00
         11   -1    0    0    0    0  0.00000000000E+00  0.00000000000E+00  0.39999999674E+01  0.40000000000E+01  0.51100000000E-03 0.  1.
    9000002   -1    0    0    0    0 -0.00000000000E+00 -0.00000000000E+00  0.00000000000E+00  0.93800000000E+00  0.93800000000E+00 0.  1.
         11    1    1    2    0    0  0.98311827541E-01  0.23509130710E-01  0.15614475453E+01  0.15647161380E+01  0.51100000000E-03 0.  1.
    9000002    1    1    2    0    0 -0.10481058173E+00  0.21608002183E+00  0.46624700949E-01  0.96937799470E+00  0.93800000000E+00 0.  1.
         22    1    1    2    0    0  0.64987541858E-02 -0.23958915254E+00  0.23919277211E+01  0.24039058673E+01  0.00000000000E+00 0.  1.
</event>
<event>
 5    1  0.2173147E+002  0.1594726E+01  0.7818608E-02  0.3359108E+00
         11   -1    0    0    0    0  0.00000000000E+00  0.00000000000E+00  0.39999999674E+01  0.40000000000E+01  0.51100000000E-03 0. -1.
    9000002   -1    0    0    0    0 -0.00000000000E+00 -0.00000000000E+00  0.00000000000E+00  0.93800000000E+00  0.93800000000E+00 0.  1.
         11    1    1    2    0    0 -0.14900193659E+00 -0.28897450214E+00  0.26322227784E+01  0.26522263961E+01  0.51100000000E-03 0. -1.
    9000002    1    1    2    0    0  0.32824781530E+00  0.40202142823E+00  0.18955182788E+00  0.10886421600E+01  0.93800000000E+00 0.  1.
         22    1    1    2    0    0 -0.17924587871E+00 -0.11304692609E+00  0.11782253611E+01  0.11971314439E+01  0.00000000000E+00 0. -1.
</event>
<event>
 5    1  0.2173147E+002  0.1599427E+01  0.7818608E-02  0.3353985E+00
         11   -1    0    0    0    0  0.00000000000E+00  0.00000000000E+00  0.39999999674E+01  0.40000000000E+01  0.51100000000E-03 0. -1.
    9000002   -1    0    0    0    0 -0.00000000000E+00 -0.00000000000E+00  0.00000000000E+00  0.93800000000E+00  0.93800000000E+00 0.  1.
         11    1    1    2    0    0 -0.70214012313E-01 -0.16574181612E+00  0.17893673085E+01  0.17983981714E+01  0.51100000000E-03 0. -1.
    9000002    1    1    2    0    0  0.11226894877E+00  0.36788940583E+00  0.99806537317E-01  0.10187012696E+01  0.93800000000E+00 0.  1.
         22    1    1    2    0    0 -0.42054936458E-01 -0.20214758970E+00  0.21108261215E+01  0.21209005590E+01  0.00000000000E+00 0.  1.
</event>
<event>
 5    1  0.2173147E+002  0.1599671E+01  0.7818608E-02  0.3353721E+00
         11   -1    0    0    0    0  0.00000000000E+00  0.00000000000E+00  0.39999999674E+01  0.40000000000E+01  0.51100000000E-03 0.  1.
    9000002   -1    0    0    0    0 -0.00000000000E+00 -0.00000000000E+00  0.00000000000E+00  0.93800000000E+00  0.93800000000E+00 0. -1.
         11    1    1    2    0    0  0.70273032075E-02  0.13969775341E-01  0.11583630074E+00  0.11688818291E+00  0.51100000000E-03 0.  1.
    9000002    1    1    2    0    0 -0.25982042454E+00 -0.44959624489E+00  0.18520471572E+00  0.10880203229E+01  0.93800000000E+00 0. -1.
         22    1    1    2    0    0  0.25279312134E+00  0.43562646954E+00  0.36989589509E+01  0.37330914941E+01  0.00000000000E+00 0.  1.
</event>
<event>
 5    1  0.2173147E+002  0.1586682E+01  0.7818608E-02  0.3367946E+00
         11   -1    0    0    0    0  0.00000000000E+00  0.00000000000E+00  0.39999999674E+01  0.40000000000E+01  0.51100000000E-03 0. -1.
    9000002   -1    0    0    0    0 -0.00000000000E+00 -0.00000000000E+00  0.00000000000E+00  0.93800000000E+00  0.93800000000E+00 0. -1.
         11    1    1    2    0    0  0.71938323450E-01 -0.10582885713E+00  0.26464077441E+01  0.26494997789E+01  0.51100000000E-03 0. -1.
    9000002    1    1    2    0    0 -0.29712773407E+00  0.14599995765E+00  0.83758866205E-01  0.99822864398E+00  0.93800000000E+00 0. -1.
         22    1    1    2    0    0  0.22518941062E+00 -0.40171100520E-01  0.12698333571E+01  0.12902715771E+01  0.00000000000E+00 0. -1.
</event>
<event>
 5    1  0.2173147E+002  0.1599638E+01  0.7818608E-02  0.3353757E+00
         11   -1    0    0    0    0  0.00000000000E+00  0.00000000000E+00  0.39999999674E+01  0.40000000000E+01  0.51100000000E-03 0. -1.
    9000002   -1    0    0    0    0 -0.00000000000E+00 -0.00000000000E+00  0.00000000000E+00  0.93800000000E+00  0.93800000000E+00 0. -1.
         11    1    1    2    0    0 -0.40155670952E-01 -0.38532935961E-02  0.43552954981E+00  0.43739407365E+00  0.51100000000E-03 0. -1.
    9000002    1    1    2    0    0  0.32818038251E+00  0.60623276067E-01  0.74580582159E-01  0.99839060908E+00  0.93800000000E+00 0. -1.
         22    1    1    2    0    0 -0.28802471156E+00 -0.56769982471E-01  0.34898898354E+01  0.35022153173E+01  0.00000000000E+00 0. -1.
</event>
<event>
 5    1  0.2173147E+002  0.1599479E+01  0.7818608E-02  0.3353929E+00
         11   -1    0    0    0    0  0.00000000000E+00  0.00000000000E+00  0.39999999674E+01  0.40000000000E+01  0.51100000000E-03 0.  1.
    9000002   -1    0    0    0    0 -0.00000000000E+00 -0.00000000000E+00  0.00000000000E+00  0.93800000000E+00  0.93800000000E+00 0. -1.
         11    1    1    2    0    0  0.21218749259E-01  0.23186357312E-01  0.64534752472E+00  0.64611263048E+00  0.51100000000E-03 0.  1.
    9000002    1    1    2    0    0 -0.19727624590E+00 -0.17881567204E+00  0.47306468072E-01  0.97620431452E+00  0.93800000000E+00 0. -1.
         22    1    1    2    0    0  0.17605749664E+00  0.15562931473E+00  0.33073459746E+01  0.33156830550E+01  0.00000000000E+00 0.  1.
</event>
<event>
 5    1  0.2173147E+002  0.1599484E+01  0.7818608E-02  0.3353923E+00
         11   -1    0    0    0    0  0.00000000000E+00  0.00000000000E+00  0.39999999674E+01  0.40000000000E+01  0.51100000000E-03 0. -1.
    9000002   -1    0    0    0    0 -0.00000000000E+00 -0.00000000000E+00  0.00000000000E+00  0.93800000000E+00  0.93800000000E+00 0. -1.
         11    1    1    2    0    0  0.22891629837E-01  0.10954226681E-01  0.30303859363E+00  0.30409977334E+00  0.51100000000E-03 0. -1.
    9000002    1    1    2    0    0 -0.25178608921E+00 -0.37102843173E-01  0.43190381923E-01  0.97287320077E+00  0.93800000000E+00 0. -1.
         22    1    1    2    0    0  0.22889445937E+00  0.26148616492E-01  0.36537709918E+01  0.36610270259E+01  0.00000000000E+00 0. -1.
</event>
<event>
 5    1  0.2173147E+002  0.1599459E+01  0.7818608E-02  0.3353951E+00
         11   -1    0    0    0    0  0.00000000000E+00  0.00000000000E+00  0.39999999674E+01  0.40000000000E+01  0.51100000000E-03 0.  1.
    9000002   -1    0    0    0    0 -0.00000000000E+00 -0.00000000000E+00  0.00000000000E+00  0.93800000000E+00  0.93800000000E+00 0. -1.
         11    1    1    2    0    0  0.51644348107E-02 -0.14170918177E+00  0.16974607354E+01  0.17033735272E+01  0.51100000000E-03 0.  1.
    9000002    1    1    2    0    0 -0.56188416025E-03  0.36551892558E+00  0.89917478253E-01  0.10107094308E+01  0.93800000000E+00 0. -1.
         22    1    1    2    0    0 -0.46025506505E-02 -0.22380974381E+00  0.22126217537E+01  0.22239170420E+01  0.00000000000E+00 0.  1.
</event>
<event>
 5    1  0.2173147E+002  0.1527288E+01  0.7818608E-02  0.3436271E+00
         11   -1    0    0    0    0  0.00000000000E+00  0.00000000000E+00  0.39999999674E+01  0.40000000000E+01  0.51100000000E-03 0.  1.
    9000002   -1    0    0    0    0 -0.00000000000E+00 -0.00000000000E+00  0.00000000000E+00  0.93800000000E+00  0.93800000000E+00 0. -1.
         11    1    1    2    0    0 -0.16665674297E+00 -0.13862885718E+00  0.32795558221E+00  0.39312536810E+00  0.51100000000E-03 0.  1.
    9000002    1    1    2    0    0  0.10573930267E+00  0.37292347016E+00  0.16353988508E+00  0.10280282140E+01  0.93800000000E+00 0. -1.
         22    1    1    2    0    0  0.60917440304E-01 -0.23429461298E+00  0.35085045001E+01  0.35168464179E+01  0.00000000000E+00 0.  1.
</event>
<event>
 5    1  0.2173147E+002  0.1599039E+01  0.7818608E-02  0.3354407E+00
         11   -1    0    0    0    0  0.00000000000E+00  0.00000000000E+00  0.39999999674E+01  0.40000000000E+01  0.51100000000E-03 0.  1.
    9000002   -1    0    0    0    0 -0.00000000000E+00 -0.00000000000E+00  0.00000000000E+00  0.93800000000E+00  0.93800000000E+00 0.  1.
         11    1    1    2    0    0 -0.39295559495E-01 -0.12089926508E+00  0.10337723009E+01  0.10415595060E+01  0.51100000000E-03 0.  1.
    9000002    1    1    2    0    0  0.15823568965E+00  0.35472549572E+00  0.10214212428E+00  0.10203654857E+01  0.93800000000E+00 0.  1.
         22    1    1    2    0    0 -0.11894013015E+00 -0.23382623064E+00  0.28640855422E+01  0.28760750084E+01  0.00000000000E+00 0.  1.
</event>
<event>
 5    1  0.2173147E+002  0.1599664E+01  0.7818608E-02  0.3353728E+00
         11   -1    0    0    0    0  0.00000000000E+00  0.00000000000E+00  0.39999999674E+01  0.40000000000E+01  0.51100000000E-03 0.  1.
    9000002   -1    0    0    0    0 -0.00000000000E+00 -0.00000000000E+00  0.00000000000E+00  0.93800000000E+00  0.93800000000E+00 0.  1.
         11    1    1    2    0    0  0.71299343907E-01  0.87107834409E-01  0.61538270716E+00  0.62559372491E+00  0.51100000000E-03 0.  1.
    9000002    1    1    2    0    0 -0.43993098401E+00 -0.50770240188E+00  0.32018528066E+00  0.11973569282E+01  0.93800000000E+00 0.  1.
         22    1    1    2    0    0  0.36863164011E+00  0.42059456747E+00  0.30644319795E+01  0.31150493469E+01  0.00000000000E+00 0.  1.
</event>
<event>
 5    1  0.2173147E+002  0.1578023E+01  0.7818608E-02  0.3377568E+00
         11   -1    0    0    0    0  0.00000000000E+00  0.00000000000E+00  0.39999999674E+01  0.40000000000E+01  0.51100000000E-03 0. -1.
    9000002   -1    0    0    0    0 -0.00000000000E+00 -0.00000000000E+00  0.00000000000E+00  0.93800000000E+00  0.93800000000E+00 0. -1.
         11    1    1    2    0    0 -0.59848386280E-01  0.44472884667E-01  0.19475735023E+01  0.19490003784E+01  0.51100000000E-03 0. -1.
    9000002    1    1    2    0    0 -0.22512039077E+00 -0.18157249519E+00  0.72797838344E-01  0.98427195765E+00  0.93800000000E+00 0. -1.
         22    1    1    2    0    0  0.28496877705E+00  0.13709961053E+00  0.19796286267E+01  0.20047276640E+01  0.00000000000E+00 0. -1.
</event>
<event>
 5    1  0.2173147E+002  0.1598679E+01  0.7818608E-02  0.3354798E+00
         11   -1    0    0    0    0  0.00000000000E+00  0.00000000000E+00  0.39999999674E+01  0.40000000000E+01  0.51100000000E-03 0. -1.
    9000002   -1    0    0    0    0 -0.00000000000E+00 -0.00000000000E+00  0.00000000000E+00  0.93800000000E+00  0.93800000000E+00 0. -1.
         11    1    1    2    0    0 -0.13160472459E+00  0.10352194744E+00  0.16421483894E+01  0.16506629550E+01  0.51100000000E-03 0. -1.
    9000002    1    1    2    0    0  0.26734759265E+00 -0.32197770275E+00  0.11926859658E+00  0.10340277436E+01  0.93800000000E+00 0. -1.
         22    1    1    2    0    0 -0.13574286806E+00  0.21845575531E+00  0.22385829814E+01  0.22533093014E+01  0.00000000000E+00 0. -1.
</event>
<event>
 5    1  0.2173147E+002  0.1572820E+01  0.7818608E-02  0.3383403E+00
         11   -1    0    0    0    0  0.00000000000E+00  0.00000000000E+00  0.39999999674E+01  0.40000000000E+01  0.51100000000E-03 0. -1.
    9000002   -1    0    0    0    0 -0.00000000000E+00 -0.00000000000E+00  0.00000000000E+00  0.93800000000E+00  0.93800000000E+00 0. -1.
         11    1    1    2    0    0 -0.17753090929E+00  0.14311908217E-01  0.15548388850E+01  0.15650067967E+01  0.51100000000E-03 0. -1.
    9000002    1    1    2    0    0 -0.33007521051E-01 -0.10799465985E+00  0.28326796103E-01  0.94519773084E+00  0.93800000000E+00 0. -1.
         22    1    1    2    0    0  0.21053843034E+00  0.93682751634E-01  0.24168342863E+01  0.24277954724E+01  0.00000000000E+00 0. -1.
</event>
<event>
 5    1  0.2173147E+002  0.1599671E+01  0.7818608E-02  0.3353720E+00
         11   -1    0    0    0    0  0.00000000000E+00  0.00000000000E+00  0.39999999674E+01  0.40000000000E+01  0.51100000000E-03 0.  1.
    9000002   -1    0    0    0    0 -0.00000000000E+00 -0.00000000000E+00  0.00000000000E+00  0.93800000000E+00  0.93800000000E+00 0.  1.
         11    1    1    2    0    0 -0.47272853163E-01 -0.30109310967E-01  0.73474222557E+00  0.73687698594E+00  0.51100000000E-03 0.  1.
    9000002    1    1    2    0    0  0.24806930318E+00  0.17205398660E+00  0.60816485355E-01  0.98726065372E+00  0.93800000000E+00 0.  1.
         22    1    1    2    0    0 -0.20079645002E+00 -0.14194467563E+00  0.32044412564E+01  0.32138623603E+01  0.00000000000E+00 0.  1.
</event>
<event>
 5    1  0.2173147E+002  0.1599549E+01  0.7818608E-02  0.3353853E+00
         11   -1    0    0    0    0  0.00000000000E+00  0.00000000000E+00  0.39999999674E+01  0.40000000000E+01  0.51100000000E-03 0.  1.
    9000002   -1    0    0    0    0 -0.00000000000E+00 -0.00000000000E+00  0.00000000000E+00  0.93800000000E+00  0.93800000000E+00 0. -1.
         11    1    1    2    0    0 -0.11574750484E-01  0.35358271808E-01  0.73628964912E+00  0.73722919825E+00  0.51100000000E-03 0.  1.
    9000002    1    1    2    0    0  0.64761538370E-01 -0.24686908922E+00  0.43386053790E-01  0.97306975789E+00  0.93800000000E+00 0. -1.
         22    1    1    2    0    0 -0.53186787886E-01  0.21151081741E+00  0.32203242645E+01  0.32277010439E+01  0.00000000000E+00 0.  1.
</event>
<event>
 5    1  0.2173147E+002  0.1597585E+01  0.7818608E-02  0.3355988E+00
         11   -1    0    0    0    0  0.00000000000E+00  0.00000000000E+00  0.39999999674E+01  0.40000000000E+01  0.51100000000E-03 0. -1.
    9000002   -1    0    0    0    0 -0.00000000000E+00 -0.00000000000E+00  0.00000000000E+00  0.93800000000E+00  0.93800000000E+00 0. -1.
         11    1    1    2    0    0  0.32506004806E-01 -0.42376781150E-01  0.10160128241E+01  0.10174157222E+01  0.51100000000E-03 0. -1.
    9000002    1    1    2    0    0  0.15364498114E-01  0.28658098625E+00  0.56509479842E-01  0.98254875237E+00  0.93800000000E+00 0. -1.
         22    1    1    2    0    0 -0.47870502919E-01 -0.24420420510E+00  0.29274776634E+01  0.29380355254E+01  0.00000000000E+00 0. -1.
</event>
<event>
 5    1  0.2173147E+002  0.1599467E+01  0.7818608E-02  0.3353943E+00
         11   -1    0    0    0    0  0.00000000000E+00  0.00000000000E+00  0.39999999674E+01  0.40000000000E+01  0.51100000000E-03 0. -1.
    9000002   -1    0    0    0    0 -0.00000000000E+00 -0.00000000000E+00  0.00000000000E+00  0.93800000000E+00  0.93800000000E+00 0. -1.
         11    1    1    2    0    0 -0.12474705519E-01  0.47658257527E-02  0.43044582348E+00  0.43065322412E+00  0.51100000000E-03 0. -1.
    9000002    1    1    2    0    0  0.18493852973E+00 -0.11556967088E+00  0.31679539981E-01  0.96353837591E+00  0.93800000000E+00 0. -1.
         22    1    1    2    0    0 -0.17246382421E+00  0.11080384513E+00  0.35378746039E+01  0.35438084000E+01  0.00000000000E+00 0. -1.
</event>
<event>
 5    1  0.2173147E+002  0.1599416E+01  0.7818608E-02  0.3353997E+00
         11   -1    0    0    0    0  0.00000000000E+00  0.00000000000E+00  0.39999999674E+01  0.40000000000E+01  0.51100000000E-03 0. -1.
    9000002   -1    0    0    0    0 -0.00000000000E+00 -0.00000000000E+00  0.00000000000E+00  0.93800000000E+00  0.93800000000E+00 0.  1.
         11    1    1    2    0    0  0.50300837964E-01  0.42751710933E-01  0.90430233041E+00  0.90670880055E+00  0.51100000000E-03 0. -1.
    9000002    1    1    2    0    0 -0.28915116278E+00 -0.18720268790E+00  0.79719290047E-01  0.10024232671E+01  0.93800000000E+00 0.  1.
         22    1    1    2    0    0  0.23885032481E+00  0.14445097696E+00  0.30159783469E+01  0.30288679323E+01  0.00000000000E+00 0. -1.
</event>
<event>
 5    1  0.2173147E+002  0.1496189E+01  0.7818608E-02  0.3474365E+00
         11   -1    0    0    0    0  0.00000000000E+00  0.00000000000E+00  0.39999999674E+01  0.40000000000E+01  0.51100000000E-03 0.  1.
    9000002   -1    0    0    0    0 -0.00000000000E+00 -0.00000000000E+00  0.00000000000E+00  0.93800000000E+00  0.93800000000E+00 0. -1.
         11    1    1    2    0    0 -0.25077195899E+00 -0.46684515974E+00  0.17444293624E+01  0.18231470155E+01  0.51100000000E-03 0.  1.
    9000002    1    1    2    0    0 -0.14034425137E+00  0.51842927113E+00  0.30260907681E+00  0.11224445071E+01  0.93800000000E+00 0. -1.
         22    1    1    2    0    0  0.39111621036E+00 -0.51584111397E-01  0.19529615282E+01  0.19924084775E+01  0.00000000000E+00 0.  1.
</event>
<event>
 5    1  0.2173147E+002  0.1545005E+01  0.7818608E-02  0.3415305E+00
         11   -1    0    0    0    0  0.00000000000E+00  0.00000000000E+00  0.39999999674E+01  0.40000000000E+01  0.51100000000E-03 0. -1.
    9000002   -1    0    0    0    0 -0.00000000000E+00 -0.00000000000E+00  0.00000000000E+00  0.93800000000E+00  0.93800000000E+00 0.  1.
         11    1    1    2    0    0  0.22904427046E+00 -0.18836011288E+00  0.14869493737E+01  0.15162320110E+01  0.51100000000E-03 0. -1.
    9000002    1    1    2    0    0 -0.33256185758E-03  0.10557998221E+00  0.48420045494E-01  0.94516440054E+00  0.93800000000E+00 0.  1.
         22    1    1    2    0    0 -0.22871170860E+00  0.82780130671E-01  0.24646305482E+01  0.24766035885E+01  0.00000000000E+00 0. -1.
</event>
<event>
 5    1  0.2173147E+002  0.1599675E+01  0.7818608E-02  0.3353716E+00
         11   -1    0    0    0    0  0.00000000000E+00  0.00000000000E+00  0.39999999674E+01  0.40000000000E+01  0.51100000000E-03 0.  1.
    9000002   -1    0    0    0    0 -0.00000000000E+00 -0.00000000000E+00  0.00000000000E+00  0.93800000000E+00  0.93800000000E+00 0.  1.
         11    1    1    2    0    0  0.33797283347E+00 -0.10175495314E+00  0.22050703787E+01  0.22331402425E+01  0.51100000000E-03 0.  1.
    9000002    1    1    2    0    0 -0.57311439165E+00  0.17065042491E+00  0.24937902391E+00  0.11400068294E+01  0.93800000000E+00 0.  1.
         22    1    1    2    0    0  0.23514155818E+00 -0.68895471771E-01  0.15455505647E+01  0.15648529281E+01  0.00000000000E+00 0.  1.
</event>
<event>
 5    1  0.2173147E+002  0.1492464E+01  0.7818608E-02  0.3479041E+00
         11   -1    0    0    0    0  0.00000000000E+00  0.00000000000E+00  0.39999999674E+01  0.40000000000E+01  0.51100000000E-03 0.  1.
    9000002   -1    0    0    0    0 -0.00000000000E+00 -0.00000000000E+00  0.00000000000E+00  0.93800000000E+00  0.93800000000E+00 0.  1.
         11    1    1    2    0    0  0.24320289992E+00  0.31114460102E-01  0.53477720893E+00  0.58830492474E+00  0.51100000000E-03 0.  1.
    9000002    1    1    2    0    0  0.20895230919E+00  0.55509549976E-01  0.11666477281E+00  0.96963758532E+00  0.93800000000E+00 0.  1.
         22    1    1    2    0    0 -0.45215520911E+00 -0.86624010079E-01  0.33485579856E+01  0.33800574899E+01  0.00000000000E+00 0.  1.
</event>
<event>
 5    1  0.2173147E+002  0.1599676E+01  0.7818608E-02  0.3353716E+00
         11   -1    0    0    0    0  0.00000000000E+00  0.00000000000E+00  0.39999999674E+01  0.40000000000E+01  0.51100000000E-03 0. -1.
    9000002   -1    0    0    0    0 -0.00000000000E+00 -0.00000000000E+00  0.00000000000E+00  0.93800000000E+00  0.93800000000E+00 0. -1.
         11    1    1    2    0    0 -0.24203399908E-01 -0.65286432681E-02  0.21597526592E+00  0.21742585946E+00  0.51100000000E-03 0. -1.
    9000002    1    1    2    0    0  0.42678385755E+00  0.11188030930E+00  0.13204295113E+00  0.10449598105E+01  0.93800000000E+00 0. -1.
         22    1    1    2    0    0 -0.40258045765E+00 -0.10535166603E+00  0.36519817503E+01  0.36756143300E+01  0.00000000000E+00 0. -1.
</event>
<event>
 5    1  0.2173147E+002  0.1582989E+01  0.7818608E-02  0.3372035E+00
         11   -1    0    0    0    0  0.00000000000E+00  0.00000000000E+00  0.39999999674E+01  0.40000000000E+01  0.51100000000E-03 0. -1.
    9000002   -1    0    0    0    0 -0.00000000000E+00 -0.00000000000E+00  0.00000000000E+00  0.93800000000E+00  0.93800000000E+00 0.  1.
         11    1    1    2    0    0 -0.15379813825E-01  0.27534465015E+00  0.12821948699E+01  0.13115163593E+01  0.51100000000E-03 0. -1.
    9000002    1    1    2    0    0 -0.16001899864E+00 -0.43397912756E+00  0.16028736182E+00  0.10580548197E+01  0.93800000000E+00 0.  1.
         22    1    1    2    0    0  0.17539881247E+00  0.15863447741E+00  0.25575177356E+01  0.25684288210E+01  0.00000000000E+00 0. -1.
</event>
<event>
 5    1  0.2173147E+002  0.1553109E+01  0.7818608E-02  0.3405884E+00
         11   -1    0    0    0    0  0.00000000000E+00  0.00000000000E+00  0.39999999674E+01  0.40000000000E+01  0.51100000000E-03 0.  1.
    9000002   -1    0    0    0    0 -0.00000000000E+00 -0.00000000000E+00  0.00000000000E+00  0.93800000000E+00  0.93800000000E+00 0.  1.
         11    1    1    2    0    0  0.13194020796E+00  0.16380554949E+00  0.72674385976E+00  0.75656947820E+00  0.51100000000E-03 0.  1.
    9000002    1    1    2    0    0 -0.28194506231E+00  0.12548963252E+00  0.10115121503E+00  0.99263096583E+00  0.93800000000E+00 0.  1.
         22    1    1    2    0    0  0.15000485435E+00 -0.28929518201E+00  0.31721048926E+01  0.31887995560E+01  0.00000000000E+00 0.  1.
</event>
<event>
 5    1  0.2173147E+002  0.1599672E+01  0.7818608E-02  0.3353720E+00
         11   -1    0    0    0    0  0.00000000000E+00  0.00000000000E+00  0.39999999674E+01  0.40000000000E+01  0.51100000000E-03 0. -1.
    9000002   -1    0    0    0    0 -0.00000000000E+00 -0.00000000000E+00  0.00000000000E+00  0.93800000000E+00  0.93800000000E+00 0. -1.
         11    1    1    2    0    0  0.39549255540E+00  0.23907366413E+00  0.23239479055E+01  0.23694524065E+01  0.51100000000E-03 0. -1.
    9000002    1    1    2    0    0 -0.61420089898E+00 -0.37589359427E+00  0.37264836327E+00  0.12398586779E+01  0.93800000000E+00 0. -1.
         22    1    1    2    0    0  0.21870834358E+00  0.13681993013E+00  0.13034036986E+01  0.13286889156E+01  0.00000000000E+00 0.  1.
</event>
<event>
 5    1  0.2173147E+002  0.1599407E+01  0.7818608E-02  0.3354008E+00
         11   -1    0    0    0    0  0.00000000000E+00  0.00000000000E+00  0.39999999674E+01  0.40000000000E+01  0.51100000000E-03 0.  1.
    9000002   -1    0    0    0    0 -0.00000000000E+00 -0.00000000000E+00  0.00000000000E+00  0.93800000000E+00  0.93800000000E+00 0.  1.
         11    1    1    2    0    0  0.34574670582E-01  0.26771655044E+00  0.14843913861E+01  0.15087364274E+01  0.51100000000E-03 0.  1.
    9000002    1    1    2    0    0 -0.13185010373E+00 -0.65051545076E+00  0.31220933487E+00  0.11907449224E+01  0.93800000000E+00 0.  1.
         22    1    1    2    0    0  0.97275433153E-01  0.38279890032E+00  0.22033992464E+01  0.22385186502E+01  0.00000000000E+00 0.  1.
</event>
<event>
 5    1  0.2173147E+002  0.1599675E+01  0.7818608E-02  0.3353716E+00
         11   -1    0    0    0    0  0.00000000000E+00  0.00000000000E+00  0.39999999674E+01  0.40000000000E+01  0.51100000000E-03 0.  1.
    9000002   -1    0    0    0    0 -0.00000000000E+00 -0.00000000000E+00  0.00000000000E+00  0.93800000000E+00  0.93800000000E+00 0.  1.
         11    1    1    2    0    0  0.24830735633E+00 -0.65110129730E-01  0.18617297500E+01  0.18793439801E+01  0.51100000000E-03 0.  1.
    9000002    1    1    2    0    0 -0.50807277744E+00  0.13675290485E+00  0.19037576638E+00  0.10922116263E+01  0.93800000000E+00 0.  1.
         22    1    1    2    0    0  0.25976542111E+00 -0.71642775121E-01  0.19478944509E+01  0.19664443936E+01  0.00000000000E+00 0.  1.
</event>
<event>
 5    1  0.2173147E+002  0.1599492E+01  0.7818608E-02  0.3353915E+00
         11   -1    0    0    0    0  0.00000000000E+00  0.00000000000E+00  0.39999999674E+01  0.40000000000E+01  0.51100000000E-03 0.  1.
    9000002   -1    0    0    0    0 -0.00000000000E+00 -0.00000000000E+00  0.00000000000E+00  0.93800000000E+00  0.93800000000E+00 0.  1.
         11    1    1    2    0    0  0.38214900092E-02  0.42509552951E-01  0.52785346147E+00  0.52957643809E+00  0.51100000000E-03 0.  1.
    9000002    1    1    2    0    0  0.88350760945E-02 -0.24414036056E+00  0.39770778167E-01  0.97010735953E+00  0.93800000000E+00 0.  1.
         22    1    1    2    0    0 -0.12656566104E-01  0.20163080761E+00  0.34323757277E+01  0.34383162024E+01  0.00000000000E+00 0.  1.
</event>
<event>
 5    1  0.2173147E+002  0.1560547E+01  0.7818608E-02  0.3397330E+00
         11   -1    0    0    0    0  0.00000000000E+00  0.00000000000E+00  0.39999999674E+01  0.40000000000E+01  0.51100000000E-03 0. -1.
    9000002   -1    0    0    0    0 -0.00000000000E+00 -0.00000000000E+00  0.00000000000E+00  0.93800000000E+00  0.93800000000E+00 0. -1.
         11    1    1    2    0    0 -0.13596656612E+00  0.49315210772E-01  0.66965693544E+00  0.68509821881E+00  0.51100000000E-03 0. -1.
    9000002    1    1    2    0    0 -0.20395997691E+00  0.28843913629E-01  0.58084996402E-01  0.96210680818E+00  0.93800000000E+00 0. -1.
         22    1    1    2    0    0  0.33992654303E+00 -0.78159124401E-01  0.32722580355E+01  0.32907949730E+01  0.00000000000E+00 0. -1.
</event>
<event>
 5    1  0.2173147E+002  0.1597076E+01  0.7818608E-02  0.3356543E+00
         11   -1    0    0    0    0  0.00000000000E+00  0.00000000000E+00  0.39999999674E+01  0.40000000000E+01  0.51100000000E-03 0. -1.
    9000002   -1    0    0    0    0 -0.00000000000E+00 -0.00000000000E+00  0.00000000000E+00  0.93800000000E+00  0.93800000000E+00 0.  1.
         11    1    1    2    0    0 -0.57163005126E-01 -0.34887670594E-01  0.52361405851E+00  0.52787943898E+00  0.51100000000E-03 0. -1.
    9000002    1    1    2    0    0  0.11762230264E+00  0.29789591620E+00  0.70625099919E-01  0.99368450109E+00  0.93800000000E+00 0.  1.
         22    1    1    2    0    0 -0.60459297510E-01 -0.26300824560E+00  0.34057608089E+01  0.34164360599E+01  0.00000000000E+00 0. -1.
</event>
<event>
 5    1  0.2173147E+002  0.1599677E+01  0.7818608E-02  0.3353714E+00
         11   -1    0    0    0    0  0.00000000000E+00  0.00000000000E+00  0.39999999674E+01  0.40000000000E+01  0.51100000000E-03 0. -1.
    9000002   -1    0    0    0    0 -0.00000000000E+00 -0.00000000000E+00  0.00000000000E+00  0.93800000000E+00  0.93800000000E+00 0.  1.
         11    1    1    2    0    0 -0.24079272353E-01  0.59755410136E-01  0.77576224271E+00  0.77843293785E+00  0.51100000000E-03 0. -1.
    9000002    1    1    2    0    0  0.12086806451E+00 -0.30041646069E+00  0.70115109217E-01  0.99479609338E+00  0.93800000000E+00 0.  1.
         22    1    1    2    0    0 -0.96788792156E-01  0.24066105056E+00  0.31541226154E+01  0.31647709688E+01  0.00000000000E+00 0. -1.
</event>
<event>
 5    1  0.2173147E+002  0.1599660E+01  0.7818608E-02  0.3353733E+00
         11   -1    0    0    0    0  0.00000000000E+00  0.00000000000E+00  0.39999999674E+01  0.40000000000E+01  0.51100000000E-03 0. -1.
    9000002   -1    0    0    0    0 -0.00000000000E+00 -0.00000000000E+00  0.00000000000E+00  0.93800000000E+00  0.93800000000E+00 0.  1.
         11    1    1    2    0    0 -0.19785088969E-01 -0.84664106617E-01  0.12047773124E+01  0.12079106317E+01  0.51100000000E-03 0. -1.
    9000002    1    1    2    0    0  0.77165286586E-01  0.28557830498E+00  0.58369599348E-01  0.98527176954E+00  0.93800000000E+00 0.  1.
         22    1    1    2    0    0 -0.57380197617E-01 -0.20091419836E+00  0.27368530557E+01  0.27448175988E+01  0.00000000000E+00 0. -1.
</event>
<event>
 5    1  0.2173147E+002  0.1599677E+01  0.7818608E-02  0.3353714E+00
         11   -1    0    0    0    0  0.00000000000E+00  0.00000000000E+00  0.39999999674E+01  0.40000000000E+01  0.51100000000E-03 0. -1.
    9000002   -1    0    0    0    0 -0.00000000000E+00 -0.00000000000E+00  0.00000000000E+00  0.93800000000E+00  0.93800000000E+00 0.  1.
         11    1    1    2    0    0 -0.16920435308E+00 -0.35262466735E+00  0.22801274816E+01  0.23134294592E+01  0.51100000000E-03 0. -1.
    9000002    1    1    2    0    0  0.27607798988E+00  0.57467487125E+00  0.28598193256E+00  0.11696580397E+01  0.93800000000E+00 0. -1.
         22    1    1    2    0    0 -0.10687363680E+00 -0.22205020390E+00  0.14338905532E+01  0.14549125011E+01  0.00000000000E+00 0.  1.
</event>
<event>
 5    1  0.2173147E+002  0.1599677E+01  0.7818608E-02  0.3353714E+00
         11   -1    0    0    0    0  0.00000000000E+00  0.00000000000E+00  0.39999999674E+01  0.40000000000E+01  0.51100000000E-03 0.  1.
    9000002   -1    0    0    0    0 -0.00000000000E+00 -0.00000000000E+00  0.00000000000E+00  0.93800000000E+00  0.93800000000E+00 0.  1.
         11    1    1    2    0    0 -0.15752050876E+00  0.33566745060E+00  0.24078235350E+01  0.24362060227E+01  0.51100000000E-03 0.  1.
    9000002    1    1    2    0    0  0.24574792480E+00 -0.52470546736E+00  0.23321868652E+00  0.11269173997E+01  0.93800000000E+00 0.  1.
         22    1    1    2    0    0 -0.88227416040E-01  0.18903801676E+00  0.13589577459E+01  0.13748765776E+01  0.00000000000E+00 0. -1.
</event>
<event>
 5    1  0.2173147E+002  0.1599230E+01  0.7818608E-02  0.3354200E+00
         11   -1    0    0    0    0  0.00000000000E+00  0.00000000000E+00  0.39999999674E+01  0.40000000000E+01  0.51100000000E-03 0. -1.
    9000002   -1    0    0    0    0 -0.00000000000E+00 -0.00000000000E+00  0.00000000000E+00  0.93800000000E+00  0.93800000000E+00 0. -1.
         11    1    1    2    0    0  0.61174314484E-02 -0.28425032396E-01  0.20604292113E+00  0.20808496319E+00  0.51100000000E-03 0. -1.
    9000002    1    1    2    0    0 -0.23998438607E+00  0.35942369862E+00  0.12691247191E+00  0.10405424913E+01  0.93800000000E+00 0. -1.
         22    1    1    2    0    0  0.23386695462E+00 -0.33099866623E+00  0.36670445743E+01  0.36893725455E+01  0.00000000000E+00 0. -1.
</event>
<event>
 5    1  0.2173147E+002  0.1594336E+01  0.7818608E-02  0.3359533E+00
         11   -1    0    0    0    0  0.00000000000E+00  0.00000000000E+00  0.39999999674E+01  0.40000000000E+01  0.51100000000E-03 0. -1.
    9000002   -1    0    0    0    0 -0.00000000000E+00 -0.00000000000E+00  0.00000000000E+00  0.93800000000E+00  0.93800000000E+00 0.  1.
         11    1    1    2    0    0  0.91675252606E-01 -0.20736269885E+00  0.19420505695E+01  0.19552402197E+01  0.51100000000E-03 0. -1.
    9000002    1    1    2    0    0 -0.32764496488E+00  0.31537145671E+00  0.14520622548E+00  0.10524919129E+01  0.93800000000E+00 0.  1.
         22    1    1    2    0    0  0.23596971228E+00 -0.10800875786E+00  0.19127431723E+01  0.19302678675E+01  0.00000000000E+00 0. -1.
</event>
<event>
 5    1  0.2173147E+002  0.1599607E+01  0.7818608E-02  0.3353790E+00
         11   -1    0    0    0    0  0.00000000000E+00  0.00000000000E+00  0.39999999674E+01  0.40000000000E+01  0.51100000000E-03 0.  1.
    9000002   -1    0    0    0    0 -0.00000000000E+00 -0.00000000000E+00  0.00000000000E+00  0.93800000000E+00  0.93800000000E+00 0. -1.
         11    1    1    2    0    0  0.99548408606E-01  0.18312619168E-01  0.10541719699E+01  0.10590203212E+01  0.51100000000E-03 0.  1.
    9000002    1    1    2    0    0 -0.39189027180E+00 -0.90033976219E-01  0.10914718160E+00  0.10263728413E+01  0.93800000000E+00 0. -1.
         22    1    1    2    0    0  0.29234186319E+00  0.71721357051E-01  0.28366808159E+01  0.28526068375E+01  0.00000000000E+00 0.  1.
</event>
<event>
 5    1  0.2173147E+002  0.1599224E+01  0.7818608E-02  0.3354206E+00
         11   -1    0    0    0    0  0.00000000000E+00  0.00000000000E+00  0.39999999674E+01  0.40000000000E+01  0.51100000000E-03 0.  1.
    9000002   -1    0    0    0    0 -0.00000000000E+00 -0.00000000000E+00  0.00000000000E+00  0.93800000000E+00  0.93800000000E+00 0. -1.
         11    1    1    2    0    0 -0.19134070114E-02  0.14150165579E-01  0.10647566183E+00  0.10743005164E+00  0.51100000000E-03 0.  1.
    9000002    1    1    2    0    0  0.22198018403E-01 -0.22184167063E+00  0.33297540855E-01  0.96470679747E+00  0.93800000000E+00 0. -1.
         22    1    1    2    0    0 -0.20284611392E-01  0.20769150505E+00  0.38602267647E+01  0.38658631509E+01  0.00000000000E+00 0.  1.
</event>
<event>
 5    1  0.2173147E+002  0.1513587E+01  0.7818608E-02  0.3452847E+00
         11   -1    0    0    0    0  0.00000000000E+00  0.00000000000E+00  0.39999999674E+01  0.40000000000E+01  0.51100000000E-03 0.  1.
    9000002   -1    0    0    0    0 -0.00000000000E+00 -0.00000000000E+00  0.00000000000E+00  0.93800000000E+00  0.93800000000E+00 0.  1.
         11    1    1    2    0    0 -0.45606107321E+00 -0.12882569036E+00  0.17146412950E+01  0.17789274276E+01  0.51100000000E-03 0.  1.
    9000002    1    1    2    0    0  0.46945632394E+00 -0.28145426912E+00  0.29298665972E+00  0.11248515140E+01  0.93800000000E+00 0.  1.
         22    1    1    2    0    0 -0.13395250732E-01  0.41027995947E+00  0.19923720126E+01  0.20342210584E+01  0.00000000000E+00 0.  1.
</event>
<event>
 5    1  0.2173147E+002  0.1599676E+01  0.7818608E-02  0.3353715E+00
         11   -1    0    0    0    0  0.00000000000E+00  0.00000000000E+00  0.39999999674E+01  0.40000000000E+01  0.51100000000E-03 0. -1.
    9000002   -1    0    0    0    0 -0.00000000000E+00 -0.00000000000E+00  0.00000000000E+00  0.93800000000E+00  0.93800000000E+00 0.  1.
         11    1    1    2    0    0 -0.15321722112E-01 -0.39878210441E-01  0.48447523021E+00  0.48635536045E+00  0.51100000000E-03 0.  1.
    9000002    1    1    2    0    0  0.12006328867E+00  0.32483675654E+00  0.80385165624E-01  0.10031150914E+01  0.93800000000E+00 0.  1.
         22    1    1    2    0    0 -0.10474156656E+00 -0.28495854610E+00  0.34351395715E+01  0.34485295482E+01  0.00000000000E+00 0. -1.
</event>
<event>
 5    1  0.2173147E+002  0.1575839E+01  0.7818608E-02  0.3380012E+00
         11   -1    0    0    0    0  0.00000000000E+00  0.00000000000E+00  0.39999999674E+01  0.40000000000E+01  0.51100000000E-03 0. -1.
    9000002   -1    0    0    0    0 -0.00000000000E+00 -0.00000000000E+00  0.00000000000E+00  0.93800000000E+00  0.93800000000E+00 0.  1.
         11    1    1    2    0    0  0.92404366879E-02  0.11736091196E+00  0.59148144137E+00  0.60308334908E+00  0.51100000000E-03 0. -1.
    9000002    1    1    2    0    0 -0.37303765617E+00  0.49358890518E-01  0.11500947816E+00  0.10171846308E+01  0.93800000000E+00 0.  1.
         22    1    1    2    0    0  0.36379721949E+00 -0.16671980248E+00  0.32935090478E+01  0.33177320202E+01  0.00000000000E+00 0. -1.
</event>
<event>
 5    1  0.2173147E+002  0.1599660E+01  0.7818608E-02  0.3353732E+00
         11   -1    0    0    0    0  0.00000000000E+00  0.00000000000E+00  0.39999999674E+01  0.40000000000E+01  0.51100000000E-03 0.  1.
    9000002   -1    0    0    0    0 -0.00000000000E+00 -0.00000000000E+00  0.00000000000E+00  0.93800000000E+00  0.93800000000E+00 0.  1.
         11    1    1    2    0    0  0.21142036027E-01 -0.10052936612E+00  0.12744851906E+01  0.12786187475E+01  0.51100000000E-03 0.  1.
    9000002    1    1    2    0    0 -0.68477311827E-01  0.29667021949E+00  0.61882035753E-01  0.98811727427E+00  0.93800000000E+00 0.  1.
         22    1    1    2    0    0  0.47335275800E-01 -0.19614085337E+00  0.26636327410E+01  0.26712639782E+01  0.00000000000E+00 0.  1.
</event>
<event>
 5    1  0.2173147E+002  0.1599676E+01  0.7818608E-02  0.3353715E+00
         11   -1    0    0    0    0  0.00000000000E+00  0.00000000000E+00  0.39999999674E+01  0.40000000000E+01  0.51100000000E-03 0.  1.
    9000002   -1    0    0    0    0 -0.00000000000E+00 -0.00000000000E+00  0.00000000000E+00  0.93800000000E+00  0.93800000000E+00 0. -1.
         11    1    1    2    0    0  0.38420669954E-01  0.32126726001E+00  0.22552721613E+01  0.22783637951E+01  0.51100000000E-03 0.  1.
    9000002    1    1    2    0    0 -0.64775158390E-01 -0.54217196874E+00  0.20577600347E+00  0.11046872989E+01  0.93800000000E+00 0. -1.
         22    1    1    2    0    0  0.26354488436E-01  0.22090470873E+00  0.15389518026E+01  0.15549489059E+01  0.00000000000E+00 0. -1.
</event>
<event>
 5    1  0.2173147E+002  0.1599672E+01  0.7818608E-02  0.3353720E+00
         11   -1    0    0    0    0  0.00000000000E+00  0.00000000000E+00  0.39999999674E+01  0.40000000000E+01  0.51100000000E-03 0.  1.
    9000002   -1    0    0    0    0 -0.00000000000E+00 -0.00000000000E+00  0.00000000000E+00  0.93800000000E+00  0.93800000000E+00 0.  1.
         11    1    1    2    0    0  0.53493561206E-02  0.21973251109E+00  0.17991474981E+01  0.18125239235E+01  0.51100000000E-03 0.  1.
    9000002    1    1    2    0    0 -0.79013864476E-02 -0.46571100752E+00  0.14770364785E+00  0.10576433908E+01  0.93800000000E+00 0.  1.
         22    1    1    2    0    0  0.25520303269E-02  0.24597849643E+00  0.20531488214E+01  0.20678326858E+01  0.00000000000E+00 0.  1.
</event>
<event>
 5    1  0.2173147E+002  0.1599463E+01  0.7818608E-02  0.3353947E+00
         11   -1    0    0    0    0  0.00000000000E+00  0.00000000000E+00  0.39999999674E+01  0.40000000000E+01  0.51100000000E-03 0. -1.
    9000002   -1    0    0    0    0 -0.00000000000E+00 -0.00000000000E+00  0.00000000000E+00  0.93800000000E+00  0.93800000000E+00 0.  1.
         11    1    1    2    0    0  0.66229667780E-01 -0.77735589077E-01  0.13855306399E+01  0.13892892449E+01  0.51100000000E-03 0. -1.
    9000002    1    1    2    0    0 -0.20072617429E+00  0.26622332302E+00  0.74575929617E-01  0.99828424011E+00  0.93800000000E+00 0.  1.
         22    1    1    2    0    0  0.13449650651E+00 -0.18848773394E+00  0.25398933978E+01  0.25504265150E+01  0.00000000000E+00 0. -1.
</event>
<event>
 5    1  0.2173147E+002  0.1556337E+01  0.7818608E-02  0.3402161E+00
         11   -1    0    0    0    0  0.00000000000E+00  0.00000000000E+00  0.39999999674E+01  0.40000000000E+01  0.51100000000E-03 0.  1.
    9000002   -1    0    0    0    0 -0.00000000000E+00 -0.00000000000E+00  0.00000000000E+00  0.93800000000E+00  0.93800000000E+00 0. -1.
         11    1    1    2    0    0  0.13084445387E-01 -0.29225331334E+00  0.21516200754E+01  0.21714171437E+01  0.51100000000E-03 0.  1.
    9000002    1    1    2    0    0 -0.15366004585E-01  0.78696552979E-01  0.36467144219E-01  0.94212690979E+00  0.93800000000E+00 0. -1.
         22    1    1    2    0    0  0.22815591979E-02  0.21355676036E+00  0.18119127477E+01  0.18244559465E+01  0.00000000000E+00 0.  1.
</event>
<event>
 5    1  0.2173147E+002  0.1586012E+01  0.7818608E-02  0.3368686E+00
         11   -1    0    0    0    0  0.00000000000E+00  0.00000000000E+00  0.39999999674E+01  0.40000000000E+01  0.51100000000E-03 0.  1.
    9000002   -1    0    0    0    0 -0.00000000000E+00 -0.00000000000E+00  0.00000000000E+00  0.93800000000E+00  0.93800000000E+00 0.  1.
         11    1    1    2    0    0 -0.89154353791E-01 -0.60037303654E-01  0.33449529679E+00  0.35134077663E+00  0.51100000000E-03 0.  1.
    9000002    1    1    2    0    0  0.20893752031E+00  0.27580159682E+00  0.91297556429E-01  0.10039425541E+01  0.93800000000E+00 0.  1.
         22    1    1    2    0    0 -0.11978316651E+00 -0.21576429317E+00  0.35742071141E+01  0.35827166692E+01  0.00000000000E+00 0.  1.
</event>
<event>
 5    1  0.4334664E+002  0.1577638E+01  0.7818608E-02  0.3377998E+00
         11   -1    0    0    0    0  0.00000000000E+00  0.00000000000E+00  0.39999999674E+01  0.40000000000E+01  0.51100000000E-03 0.  1.
    9000002   -1    0    0    0    0 -0.00000000000E+00 -0.00000000000E+00  0.00000000000E+00  0.93800000000E+00  0.93800000000E+00 0. -1.
         11    1    1    2    0    0 -0.58898477416E-02 -0.13010990020E+00  0.81440303431E+00  0.82475198687E+00  0.51100000000E-03 0.  1.
    9000002    1    1    2    0    0 -0.38211051015E-01 -0.66116191952E-01  0.20048343557E-01  0.94131682835E+00  0.93800000000E+00 0. -1.
         22    1    1    2    0    0  0.44100898757E-01  0.19622609215E+00  0.31655485895E+01  0.31719311848E+01  0.00000000000E+00 0.  1.
</event>
<event>
 5    1  0.2173147E+002  0.1599656E+01  0.7818608E-02  0.3353737E+00
         11   -1    0    0    0    0  0.00000000000E+00  0.00000000000E+00  0.39999999674E+01  0.40000000000E+01  0.51100000000E-03 0.  1.
    9000002   -1    0    0    0    0 -0.00000000000E+00 -0.00000000000E+00  0.00000000000E+00  0.93800000000E+00  0.93800000000E+00 0. -1.
         11    1    1    2    0    0 -0.11866825083E-01  0.10911657525E-02  0.10119927553E+00  0.10189978739E+00  0.51100000000E-03 0.  1.
    9000002    1    1    2    0    0  0.40639753533E+00  0.56514684497E-03  0.11151326938E+00  0.10283182802E+01  0.93800000000E+00 0. -1.
         22    1    1    2    0    0 -0.39453071025E+00 -0.16563125975E-02  0.37872874224E+01  0.38077819324E+01  0.00000000000E+00 0.  1.
</event>
<event>
 5    1  0.2173147E+002  0.1599623E+01  0.7818608E-02  0.3353773E+00
         11   -1    0    0    0    0  0.00000000000E+00  0.00000000000E+00  0.39999999674E+01  0.40000000000E+01  0.51100000000E-03 0.  1.
    9000002   -1    0    0    0    0 -0.00000000000E+00 -0.00000000000E+00  0.00000000000E+00  0.93800000000E+00  0.93800000000E+00 0.  1.
         11    1    1    2    0    0 -0.12218851427E-01  0.14420641897E+00  0.10351075956E+01  0.10451759599E+01  0.51100000000E-03 0.  1.
    9000002    1    1    2    0    0  0.70298391397E-01 -0.54240693390E+00  0.20655299366E+00  0.11052851600E+01  0.93800000000E+00 0.  1.
         22    1    1    2    0    0 -0.58079539970E-01  0.39820051493E+00  0.27583393781E+01  0.27875388800E+01  0.00000000000E+00 0.  1.
</event>
<event>
 5    1  0.3424977E+002  0.1571646E+01  0.7818608E-02  0.3384725E+00
         11   -1    0    0    0    0  0.00000000000E+00  0.00000000000E+00  0.39999999674E+01  0.40000000000E+01  0.51100000000E-03 0.  1.
    9000002   -1    0    0    0    0 -0.00000000000E+00 -0.00000000000E+00  0.00000000000E+00  0.93800000000E+00  0.93800000000E+00 0.  1.
         11    1    1    2    0    0 -0.82752848847E-01  0.13641869608E+00  0.97010941535E+00  0.98314324160E+00  0.51100000000E-03 0.  1.
    9000002    1    1    2    0    0 -0.58634900129E-01  0.28890103762E-01  0.23460325824E-01  0.94056742262E+00  0.93800000000E+00 0.  1.
         22    1    1    2    0    0  0.14138774898E+00 -0.16530879984E+00  0.30064302262E+01  0.30142893358E+01  0.00000000000E+00 0.  1.
</event>
<event>
 5    1  0.2173147E+002  0.1519043E+01  0.7818608E-02  0.3446207E+00
         11   -1    0    0    0    0  0.00000000000E+00  0.00000000000E+00  0.39999999674E+01  0.40000000000E+01  0.51100000000E-03 0.  1.
    9000002   -1    0    0    0    0 -0.00000000000E+00 -0.00000000000E+00  0.00000000000E+00  0.93800000000E+00  0.93800000000E+00 0.  1.
         11    1    1    2    0    0 -0.29971850788E+00  0.53743766693E-01  0.30214563419E+01  0.30367611469E+01  0.51100000000E-03 0.  1.
    9000002    1    1    2    0    0  0.34381356286E-01  0.56966632920E-01  0.63960284973E-01  0.94252967751E+00  0.93800000000E+00 0.  1.
         22    1    1    2    0    0  0.26533715160E+00 -0.11071039961E+00  0.91458334049E+00  0.95870917556E+00  0.00000000000E+00 0.  1.
</event>
<event>
 5    1  0.2173147E+002  0.1595149E+01  0.7818608E-02  0.3358645E+00
         11   -1    0    0    0    0  0.00000000000E+00  0.00000000000E+00  0.39999999674E+01  0.40000000000E+01  0.51100000000E-03 0.  1.
    9000002   -1    0    0    0    0 -0.00000000000E+00 -0.00000000000E+00  0.00000000000E+00  0.93800000000E+00  0.93800000000E+00 0. -1.
         11    1    1    2    0    0  0.12575237562E-01 -0.60804298412E+00  0.19239463272E+01  0.20177819848E+01  0.51100000000E-03 0.  1.
    9000002    1    1    2    0    0  0.10930848462E+00  0.99045361749E+00  0.80591382924E+00  0.15881712166E+01  0.93800000000E+00 0. -1.
         22    1    1    2    0    0 -0.12188372218E+00 -0.38241063338E+00  0.12701398109E+01  0.13320467985E+01  0.00000000000E+00 0.  1.
</event>
<event>
 5    1  0.2173147E+002  0.1599498E+01  0.7818608E-02  0.3353908E+00
         11   -1    0    0    0    0  0.00000000000E+00  0.00000000000E+00  0.39999999674E+01  0.40000000000E+01  0.51100000000E-03 0. -1.
    9000002   -1    0    0    0    0 -0.00000000000E+00 -0.00000000000E+00  0.00000000000E+00  0.93800000000E+00  0.93800000000E+00 0.  1.
         11    1    1    2    0    0 -0.36666362737E-01 -0.15358692710E-01  0.60703192257E+00  0.60833241549E+00  0.51100000000E-03 0. -1.
    9000002    1    1    2    0    0  0.24022355223E+00  0.24614546626E-01  0.38848266826E-01  0.96936392484E+00  0.93800000000E+00 0.  1.
         22    1    1    2    0    0 -0.20355718950E+00 -0.92558539152E-02  0.33541197780E+01  0.33603036597E+01  0.00000000000E+00 0. -1.
</event>
<event>
 5    1  0.2173147E+002  0.1599675E+01  0.7818608E-02  0.3353716E+00
         11   -1    0    0    0    0  0.00000000000E+00  0.00000000000E+00  0.39999999674E+01  0.40000000000E+01  0.51100000000E-03 0. -1.
    9000002   -1    0    0    0    0 -0.00000000000E+00 -0.00000000000E+00  0.00000000000E+00  0.93800000000E+00  0.93800000000E+00 0.  1.
         11    1    1    2    0    0  0.14670240871E+00  0.77612586732E-01  0.14965606842E+01  0.15057355189E+01  0.51100000000E-03 0. -1.
    9000002    1    1    2    0    0 -0.38345825809E+00 -0.19840389879E+00  0.12627260148E+00  0.10402851112E+01  0.93800000000E+00 0.  1.
         22    1    1    2    0    0  0.23675584938E+00  0.12079131206E+00  0.23771666817E+01  0.23919793699E+01  0.00000000000E+00 0.  1.
</event>
<event>
 5    1  0.2173147E+002  0.1567172E+01  0.7818608E-02  0.3389783E+00
         11   -1    0    0    0    0  0.00000000000E+00  0.00000000000E+00  0.39999999674E+01  0.40000000000E+01  0.51100000000E-03 0. -1.
    9000002   -1    0    0    0    0 -0.00000000000E+00 -0.00000000000E+00  0.00000000000E+00  0.93800000000E+00  0.93800000000E+00 0.  1.
         11    1    1    2    0    0 -0.57659933857E-01 -0.12638459000E-01  0.31893799002E+01  0.31899261446E+01  0.51100000000E-03 0. -1.
    9000002    1    1    2    0    0 -0.10146275204E+00 -0.11171614997E+00  0.39430764829E-01  0.95088063048E+00  0.93800000000E+00 0.  1.
         22    1    1    2    0    0  0.15912268589E+00  0.12435460897E+00  0.77118930229E+00  0.79719322495E+00  0.00000000000E+00 0.  1.
</event>
<event>
 5    1  0.2173147E+002  0.1552286E+01  0.7818608E-02  0.3406836E+00
         11   -1    0    0    0    0  0.00000000000E+00  0.00000000000E+00  0.39999999674E+01  0.40000000000E+01  0.51100000000E-03 0.  1.
    9000002   -1    0    0    0    0 -0.00000000000E+00 -0.00000000000E+00  0.00000000000E+00  0.93800000000E+00  0.93800000000E+00 0.  1.
         11    1    1    2    0    0 -0.28958378523E+00 -0.21872832480E+00  0.14503571029E+01  0.14950708464E+01  0.51100000000E-03 0.  1.
    9000002    1    1    2    0    0  0.47863170319E+00 -0.34225051214E-01  0.20033415005E+00  0.10724912275E+01  0.93800000000E+00 0.  1.
         22    1    1    2    0    0 -0.18904791796E+00  0.25295337601E+00  0.23493087144E+01  0.23704379260E+01  0.00000000000E+00 0.  1.
</event>
<event>
 5    1  0.2173147E+002  0.1599571E+01  0.7818608E-02  0.3353830E+00
         11   -1    0    0    0    0  0.00000000000E+00  0.00000000000E+00  0.39999999674E+01  0.40000000000E+01  0.51100000000E-03 0. -1.
    9000002   -1    0    0    0    0 -0.00000000000E+00 -0.00000000000E+00  0.00000000000E+00  0.93800000000E+00  0.93800000000E+00 0. -1.
         11    1    1    2    0    0  0.47250089127E-02 -0.10385417109E-03  0.56823937532E-01  0.57022429732E-01  0.51100000000E-03 0.  1.
    9000002    1    1    2    0    0 -0.45708157296E+00 -0.13892623269E+00  0.15575921083E+00  0.10641094841E+01  0.93800000000E+00 0. -1.
         22    1    1    2    0    0  0.45235656405E+00  0.13903008686E+00  0.37874168190E+01  0.38168680861E+01  0.00000000000E+00 0. -1.
</event>
<event>
 5    1  0.2173147E+002  0.1578448E+01  0.7818608E-02  0.3377093E+00
         11   -1    0    0    0    0  0.00000000000E+00  0.00000000000E+00  0.39999999674E+01  0.40000000000E+01  0.51100000000E-03 0.  1.
    9000002   -1    0    0    0    0 -0.00000000000E+00 -0.00000000000E+00  0.00000000000E+00  0.93800000000E+00  0.93800000000E+00 0.  1.
         11    1    1    2    0    0 -0.83299023526E-01 -0.17978002912E-01  0.12933630717E+01  0.12961675170E+01  0.51100000000E-03 0.  1.
    9000002    1    1    2    0    0 -0.24739706575E+00  0.28159799751E-01  0.57577379991E-01  0.97219207832E+00  0.93800000000E+00 0.  1.
         22    1    1    2    0    0  0.33069608927E+00 -0.10181796839E-01  0.26490595157E+01  0.26696404046E+01  0.00000000000E+00 0.  1.
</event>
<event>
 5    1  0.2173147E+002  0.1599668E+01  0.7818608E-02  0.3353724E+00
         11   -1    0    0    0    0  0.00000000000E+00  0.00000000000E+00  0.39999999674E+01  0.40000000000E+01  0.51100000000E-03 0. -1.
    9000002   -1    0    0    0    0 -0.00000000000E+00 -0.00000000000E+00  0.00000000000E+00  0.93800000000E+00  0.93800000000E+00 0. -1.
         11    1    1    2    0    0  0.65567198298E-01  0.48985191951E-01  0.10637452158E+01  0.10668892875E+01  0.51100000000E-03 0. -1.
    9000002    1    1    2    0    0 -0.25439449388E+00 -0.18198303816E+00  0.65353156944E-01  0.99093361020E+00  0.93800000000E+00 0. -1.
         22    1    1    2    0    0  0.18882729559E+00  0.13299784621E+00  0.28709015947E+01  0.28801771023E+01  0.00000000000E+00 0. -1.
</event>
<event>
 5    1  0.2173147E+002  0.1534765E+01  0.7818608E-02  0.3427360E+00
         11   -1    0    0    0    0  0.00000000000E+00  0.00000000000E+00  0.39999999674E+01  0.40000000000E+01  0.51100000000E-03 0. -1.
    9000002   -1    0    0    0    0 -0.00000000000E+00 -0.00000000000E+00  0.00000000000E+00  0.93800000000E+00  0.93800000000E+00 0.  1.
         11    1    1    2    0    0  0.82971507554E-01  0.19135856814E+00  0.50686085106E+00  0.54809721412E+00  0.51100000000E-03 0. -1.
    9000002    1    1    2    0    0 -0.60139296289E-01  0.20407032182E-01  0.51370374147E-01  0.94154983791E+00  0.93800000000E+00 0.  1.
         22    1    1    2    0    0 -0.22832211265E-01 -0.21176560032E+00  0.34417687422E+01  0.34483529480E+01  0.00000000000E+00 0. -1.
</event>
<event>
 5    1  0.2173147E+002  0.1599619E+01  0.7818608E-02  0.3353777E+00
         11   -1    0    0    0    0  0.00000000000E+00  0.00000000000E+00  0.39999999674E+01  0.40000000000E+01  0.51100000000E-03 0. -1.
    9000002   -1    0    0    0    0 -0.00000000000E+00 -0.00000000000E+00  0.00000000000E+00  0.93800000000E+00  0.93800000000E+00 0.  1.
         11    1    1    2    0    0  0.96999329558E-02  0.59247255317E-01  0.58669920289E+00  0.58976312343E+00  0.51100000000E-03 0. -1.
    9000002    1    1    2    0    0 -0.21926066616E-01 -0.40283116698E+00  0.10987782745E+00  0.10269716834E+01  0.93800000000E+00 0.  1.
         22    1    1    2    0    0  0.12226133661E-01  0.34358391166E+00  0.33034229370E+01  0.33212651932E+01  0.00000000000E+00 0. -1.
</event>
<event>
 5    1  0.2173147E+002  0.1599592E+01  0.7818608E-02  0.3353807E+00
         11   -1    0    0    0    0  0.00000000000E+00  0.00000000000E+00  0.39999999674E+01  0.40000000000E+01  0.51100000000E-03 0. -1.
    9000002   -1    0    0    0    0 -0.00000000000E+00 -0.00000000000E+00  0.00000000000E+00  0.93800000000E+00  0.93800000000E+00 0.  1.
         11    1    1    2    0    0 -0.35024704642E+00 -0.16029709408E-01  0.24244889722E+01  0.24497095710E+01  0.51100000000E-03 0. -1.
    9000002    1    1    2    0    0  0.56125586076E+00  0.17400806560E-01  0.21835065580E+00  0.11148237252E+01  0.93800000000E+00 0.  1.
         22    1    1    2    0    0 -0.21100881435E+00 -0.13710971519E-02  0.13571603394E+01  0.13734667038E+01  0.00000000000E+00 0.  1.
</event>
<event>
 5    1  0.2173147E+002  0.1528011E+01  0.7818608E-02  0.3435406E+00
         11   -1    0    0    0    0  0.00000000000E+00  0.00000000000E+00  0.39999999674E+01  0.40000000000E+01  0.51100000000E-03 0.  1.
    9000002   -1    0    0    0    0 -0.00000000000E+00 -0.00000000000E+00  0.00000000000E+00  0.93800000000E+00  0.93800000000E+00 0.  1.
         11    1    1    2    0    0 -0.21197382922E-01  0.31841615546E+00  0.29267456083E+01  0.29440921001E+01  0.51100000000E-03 0.  1.
    9000002    1    1    2    0    0  0.97941592430E-01 -0.54978742583E-01  0.62716022304E-01  0.94678007854E+00  0.93800000000E+00 0.  1.
         22    1    1    2    0    0 -0.76744209508E-01 -0.26343741288E+00  0.10105383368E+01  0.10471278213E+01  0.00000000000E+00 0. -1.
</event>
<event>
 5    1  0.2173147E+002  0.1599614E+01  0.7818608E-02  0.3353782E+00
         11   -1    0    0    0    0  0.00000000000E+00  0.00000000000E+00  0.39999999674E+01  0.40000000000E+01  0.51100000000E-03 0.  1.
    9000002   -1    0    0    0    0 -0.00000000000E+00 -0.00000000000E+00  0.00000000000E+00  0.93800000000E+00  0.93800000000E+00 0.  1.
         11    1    1    2    0    0  0.40037591091E-01  0.44875587377E-01  0.90575098574E+00  0.90774552399E+00  0.51100000000E-03 0.  1.
    9000002    1    1    2    0    0 -0.20929732656E+00 -0.19710372136E+00  0.55126460023E-01  0.98261802063E+00  0.93800000000E+00 0.  1.
         22    1    1    2    0    0  0.16925973547E+00  0.15222813398E+00  0.30391225216E+01  0.30476364554E+01  0.00000000000E+00 0.  1.
</event>
<event>
 5    1  0.2173147E+002  0.1599640E+01  0.7818608E-02  0.3353755E+00
         11   -1    0    0    0    0  0.00000000000E+00  0.00000000000E+00  0.39999999674E+01  0.40000000000E+01  0.51100000000E-03 0. -1.
    9000002   -1    0    0    0    0 -0.00000000000E+00 -0.00000000000E+00  0.00000000000E+00  0.93800000000E+00  0.93800000000E+00 0.  1.
         11    1    1    2    0    0  0.33546059782E-03 -0.69099376687E-03  0.81381437603E-02  0.81902692911E-02  0.51100000000E-03 0. -1.
    9000002    1    1    2    0    0  0.11706921156E-01  0.22146491196E+00  0.32634145546E-01  0.96441316182E+00  0.93800000000E+00 0.  1.
         22    1    1    2    0    0 -0.12042381754E-01 -0.22077391819E+00  0.39592276781E+01  0.39653965689E+01  0.00000000000E+00 0. -1.
</event>
<event>
 5    1  0.2173147E+002  0.1599672E+01  0.7818608E-02  0.3353719E+00
         11   -1    0    0    0    0  0.00000000000E+00  0.00000000000E+00  0.39999999674E+01  0.40000000000E+01  0.51100000000E-03 0. -1.
    9000002   -1    0    0    0    0 -0.00000000000E+00 -0.00000000000E+00  0.00000000000E+00  0.93800000000E+00  0.93800000000E+00 0.  1.
         11    1    1    2    0    0 -0.22548500353E+00  0.52814295268E-01  0.18318412276E+01  0.18464223192E+01  0.51100000000E-03 0. -1.
    9000002    1    1    2    0    0  0.47015364546E+00 -0.11573174807E+00  0.16007348497E+00  0.10676637151E+01  0.93800000000E+00 0.  1.
         22    1    1    2    0    0 -0.24466864193E+00  0.62917452807E-01  0.20080852548E+01  0.20239139657E+01  0.00000000000E+00 0. -1.
</event>
<event>
 5    1  0.2173147E+002  0.1597652E+01  0.7818608E-02  0.3355916E+00
         11   -1    0    0    0    0  0.00000000000E+00  0.00000000000E+00  0.39999999674E+01  0.40000000000E+01  0.51100000000E-03 0.  1.
    9000002   -1    0    0    0    0 -0.00000000000E+00 -0.00000000000E+00  0.00000000000E+00  0.93800000000E+00  0.93800000000E+00 0.  1.
         11    1    1    2    0    0  0.56079192858E-02 -0.41676610262E-01  0.78968356977E+00  0.79080262398E+00  0.51100000000E-03 0.  1.
    9000002    1    1    2    0    0 -0.24190097215E+00  0.17547835882E+00  0.61158221179E-01  0.98635341676E+00  0.93800000000E+00 0.  1.
         22    1    1    2    0    0  0.23629305286E+00 -0.13380174856E+00  0.31491581764E+01  0.31608439593E+01  0.00000000000E+00 0.  1.
</event>
<event>
 5    1  0.2173147E+002  0.1482254E+01  0.7818608E-02  0.3491993E+00
         11   -1    0    0    0    0  0.00000000000E+00  0.00000000000E+00  0.39999999674E+01  0.40000000000E+01  0.51100000000E-03 0.  1.
    9000002   -1    0    0    0    0 -0.00000000000E+00 -0.00000000000E+00  0.00000000000E+00  0.93800000000E+00  0.93800000000E+00 0. -1.
         11    1    1    2    0    0  0.10395444043E+00  0.32093107216E+00  0.26179333065E+01  0.26395791970E+01  0.51100000000E-03 0.  1.
    9000002    1    1    2    0    0  0.90707770586E-01  0.47222779153E-01  0.98145306293E-01  0.94864871879E+00  0.93800000000E+00 0. -1.
         22    1    1    2    0    0 -0.19466221101E+00 -0.36815385131E+00  0.12839213545E+01  0.13497720842E+01  0.00000000000E+00 0.  1.
</event>
<event>
 5    1  0.2173147E+002  0.1599676E+01  0.7818608E-02  0.3353715E+00
         11   -1    0    0    0    0  0.00000000000E+00  0.00000000000E+00  0.39999999674E+01  0.40000000000E+01  0.51100000000E-03 0. -1.
    9000002   -1    0    0    0    0 -0.00000000000E+00 -0.00000000000E+00  0.00000000000E+00  0.93800000000E+00  0.93800000000E+00 0. -1.
         11    1    1    2    0    0 -0.22774411875E+00 -0.46378419529E-01  0.19591374476E+01  0.19728756020E+01  0.51100000000E-03 0. -1.
    9000002    1    1    2    0    0  0.44594453602E+00  0.90732735807E-01  0.14076563390E+00  0.10520256281E+01  0.93800000000E+00 0. -1.
         22    1    1    2    0    0 -0.21820041727E+00 -0.44354316278E-01  0.19000968859E+01  0.19130987698E+01  0.00000000000E+00 0. -1.
</event>
<event>
 5    1  0.2173147E+002  0.1539182E+01  0.7818608E-02  0.3422140E+00
         11   -1    0    0    0    0  0.00000000000E+00  0.00000000000E+00  0.39999999674E+01  0.40000000000E+01  0.51100000000E-03 0. -1.
    9000002   -1    0    0    0    0 -0.00000000000E+00 -0.00000000000E+00  0.00000000000E+00  0.93800000000E+00  0.93800000000E+00 0.  1.
         11    1    1    2    0    0 -0.86560885526E-01  0.13343565808E+00  0.32133847725E+00  0.35854782084E+00  0.51100000000E-03 0. -1.
    9000002    1    1    2    0    0  0.55214941379E-01  0.12434789053E+00  0.58105505025E-01  0.94959535453E+00  0.93800000000E+00 0.  1.
         22    1    1    2    0    0  0.31345944147E-01 -0.25778354861E+00  0.36205559851E+01  0.36298568246E+01  0.00000000000E+00 0. -1.
</event>
<event>
 5    1  0.2173147E+002  0.1532675E+01  0.7818608E-02  0.3429842E+00
         11   -1    0    0    0    0  0.00000000000E+00  0.00000000000E+00  0.39999999674E+01  0.40000000000E+01  0.51100000000E-03 0.  1.
    9000002   -1    0    0    0    0 -0.00000000000E+00 -0.00000000000E+00  0.00000000000E+00  0.93800000000E+00  0.93800000000E+00 0. -1.
         11    1    1    2    0    0 -0.85148107127E-01  0.21369495928E+00  0.69743363530E+00  0.73439068113E+00  0.51100000000E-03 0.  1.
    9000002    1    1    2    0    0  0.16861845748E+00  0.11037466892E+00  0.78926791785E-01  0.96264645130E+00  0.93800000000E+00 0. -1.
         22    1    1    2    0    0 -0.83470350350E-01 -0.32406962820E+00  0.32236395403E+01  0.32409628676E+01  0.00000000000E+00 0.  1.
</event>
<event>
 5    1  0.2173147E+002  0.1531393E+01  0.7818608E-02  0.3431368E+00
         11   -1    0    0    0    0  0.00000000000E+00  0.00000000000E+00  0.39999999674E+01  0.40000000000E+01  0.51100000000E-03 0.  1.
    9000002   -1    0    0    0    0 -0.00000000000E+00 -0.00000000000E+00  0.00000000000E+00  0.93800000000E+00  0.93800000000E+00 0.  1.
         11    1    1    2    0    0  0.27920983783E+00 -0.80133859805E-01  0.14552351736E+01  0.14839438131E+01  0.51100000000E-03 0.  1.
    9000002    1    1    2    0    0  0.50330549437E-01  0.38026160400E+00  0.15753333219E+00  0.10255695015E+01  0.93800000000E+00 0.  1.
         22    1    1    2    0    0 -0.32954038726E+00 -0.30012774420E+00  0.23872314616E+01  0.24284866853E+01  0.00000000000E+00 0.  1.
</event>
<event>
 5    1  0.2173147E+002  0.1599645E+01  0.7818608E-02  0.3353749E+00
         11   -1    0    0    0    0  0.00000000000E+00  0.00000000000E+00  0.39999999674E+01  0.40000000000E+01  0.51100000000E-03 0.  1.
    9000002   -1    0    0    0    0 -0.00000000000E+00 -0.00000000000E+00  0.00000000000E+00  0.93800000000E+00  0.93800000000E+00 0. -1.
         11    1    1    2    0    0  0.73287575450E+00  0.60608137984E-01  0.17481792046E+01  0.18965524011E+01  0.51100000000E-03 0.  1.
    9000002    1    1    2    0    0 -0.11544266518E+01 -0.94892335604E-01  0.12193636085E+01  0.19257198808E+01  0.93800000000E+00 0. -1.
         22    1    1    2    0    0  0.42155089731E+00  0.34284197620E-01  0.10324571543E+01  0.11157277180E+01  0.00000000000E+00 0.  1.
</event>
<event>
 5    1  0.2173147E+002  0.1476845E+01  0.7818608E-02  0.3498932E+00
         11   -1    0    0    0    0  0.00000000000E+00  0.00000000000E+00  0.39999999674E+01  0.40000000000E+01  0.51100000000E-03 0.  1.
    9000002   -1    0    0    0    0 -0.00000000000E+00 -0.00000000000E+00  0.00000000000E+00  0.93800000000E+00  0.93800000000E+00 0.  1.
         11    1    1    2    0    0  0.44302323789E+00  0.32494123407E+00  0.12234000607E+01  0.13411056501E+01  0.51100000000E-03 0.  1.
    9000002    1    1    2    0    0 -0.36674452657E+00  0.11353066626E+00  0.26695694018E+00  0.10480938736E+01  0.93800000000E+00 0.  1.
         22    1    1    2    0    0 -0.76278711325E-01 -0.43847190033E+00  0.25096429664E+01  0.25488004763E+01  0.00000000000E+00 0.  1.
</event>
<event>
 5    1  0.2173147E+002  0.1557851E+01  0.7818608E-02  0.3400421E+00
         11   -1    0    0    0    0  0.00000000000E+00  0.00000000000E+00  0.39999999674E+01  0.40000000000E+01  0.51100000000E-03 0.  1.
    9000002   -1    0    0    0    0 -0.00000000000E+00 -0.00000000000E+00  0.00000000000E+00  0.93800000000E+00  0.93800000000E+00 0.  1.
         11    1    1    2    0    0  0.12272780186E+00 -0.19174700949E+00  0.10931592636E+01  0.11166138391E+01  0.51100000000E-03 0.  1.
    9000002    1    1    2    0    0 -0.16827166225E+00 -0.55508131209E-01  0.52539757451E-01  0.95603395916E+00  0.93800000000E+00 0.  1.
         22    1    1    2    0    0  0.45543860391E-01  0.24725514070E+00  0.28543009463E+01  0.28653522017E+01  0.00000000000E+00 0.  1.
</event>
<event>
 5    1  0.2173147E+002  0.1599579E+01  0.7818608E-02  0.3353821E+00
         11   -1    0    0    0    0  0.00000000000E+00  0.00000000000E+00  0.39999999674E+01  0.40000000000E+01  0.51100000000E-03 0. -1.
    9000002   -1    0    0    0    0 -0.00000000000E+00 -0.00000000000E+00  0.00000000000E+00  0.93800000000E+00  0.93800000000E+00 0. -1.
         11    1    1    2    0    0 -0.19870751625E+00 -0.18232287144E+00  0.20722794317E+01  0.20897532416E+01  0.51100000000E-03 0. -1.
    9000002    1    1    2    0    0  0.38647999917E+00  0.32684131567E+00  0.17564968184E+00  0.10802262939E+01  0.93800000000E+00 0. -1.
         22    1    1    2    0    0 -0.18777248293E+00 -0.14451844423E+00  0.17520708538E+01  0.17680204645E+01  0.00000000000E+00 0. -1.
</event>
<event>
 5    1  0.2173147E+002  0.1599467E+01  0.7818608E-02  0.3353942E+00
         11   -1    0    0    0    0  0.00000000000E+00  0.00000000000E+00  0.39999999674E+01  0.40000000000E+01  0.51100000000E-03 0. -1.
    9000002   -1    0    0    0    0 -0.00000000000E+00 -0.00000000000E+00  0.00000000000E+00  0.93800000000E+00  0.93800000000E+00 0. -1.
         11    1    1    2    0    0 -0.11707323153E+00 -0.14217842794E+00  0.17752318615E+01  0.17847602837E+01  0.51100000000E-03 0. -1.
    9000002    1    1    2    0    0  0.22095375609E+00  0.32465258095E+00  0.10410190357E+00  0.10222040241E+01  0.93800000000E+00 0. -1.
         22    1    1    2    0    0 -0.10388052456E+00 -0.18247415302E+00  0.21206662023E+01  0.21310356922E+01  0.00000000000E+00 0. -1.
</event>
<event>
 5    1  0.2173147E+002  0.1555762E+01  0.7818608E-02  0.3402823E+00
         11   -1    0    0    0    0  0.00000000000E+00  0.00000000000E+00  0.39999999674E+01  0.40000000000E+01  0.51100000000E-03 0.  1.
    9000002   -1    0    0    0    0 -0.00000000000E+00 -0.00000000000E+00  0.00000000000E+00  0.93800000000E+00  0.93800000000E+00 0.  1.
         11    1    1    2    0    0 -0.31454725422E-01 -0.13781562174E+00  0.37776476817E+00  0.40334727784E+00  0.51100000000E-03 0.  1.
    9000002    1    1    2    0    0 -0.10252701959E+00 -0.65567411830E-01  0.42682804580E-01  0.94682453340E+00  0.93800000000E+00 0.  1.
         22    1    1    2    0    0  0.13398174501E+00  0.20338303357E+00  0.35795523946E+01  0.35878281888E+01  0.00000000000E+00 0.  1.
</event>
<event>
 5    1  0.2173147E+002  0.1557073E+01  0.7818608E-02  0.3401315E+00
         11   -1    0    0    0    0  0.00000000000E+00  0.00000000000E+00  0.39999999674E+01  0.40000000000E+01  0.51100000000E-03 0.  1.
    9000002   -1    0    0    0    0 -0.00000000000E+00 -0.00000000000E+00  0.00000000000E+00  0.93800000000E+00  0.93800000000E+00 0. -1.
         11    1    1    2    0    0 -0.14815191092E+00  0.28545984999E+00  0.10208001821E+01  0.10702661294E+01  0.51100000000E-03 0.  1.
    9000002    1    1    2    0    0  0.49997069954E+00 -0.23029483454E+00  0.25072256356E+00  0.11161147858E+01  0.93800000000E+00 0. -1.
         22    1    1    2    0    0 -0.35181878862E+00 -0.55165015456E-01  0.27284772216E+01  0.27516190848E+01  0.00000000000E+00 0.  1.
</event>
<event>
 5    1  0.2173147E+002  0.1599580E+01  0.7818608E-02  0.3353820E+00
         11   -1    0    0    0    0  0.00000000000E+00  0.00000000000E+00  0.39999999674E+01  0.40000000000E+01  0.51100000000E-03 0.  1.
    9000002   -1    0    0    0    0 -0.00000000000E+00 -0.00000000000E+00  0.00000000000E+00  0.93800000000E+00  0.93800000000E+00 0.  1.
         11    1    1    2    0    0  0.63617781192E-01 -0.37418711188E-02  0.87462776799E+00  0.87694653049E+00  0.51100000000E-03 0.  1.
    9000002    1    1    2    0    0 -0.26275239123E+00 -0.20089796196E-01  0.46253923236E-01  0.97541060299E+00  0.93800000000E+00 0.  1.
         22    1    1    2    0    0  0.19913461003E+00  0.23831667315E-01  0.30791182761E+01  0.30856428665E+01  0.00000000000E+00 0.  1.
</event>
<event>
 5    1  0.2173147E+002  0.1596588E+01  0.7818608E-02  0.3357075E+00
         11   -1    0    0    0    0  0.00000000000E+00  0.00000000000E+00  0.39999999674E+01  0.40000000000E+01  0.51100000000E-03 0. -1.
    9000002   -1    0    0    0    0 -0.00000000000E+00 -0.00000000000E+00  0.00000000000E+00  0.93800000000E+00  0.93800000000E+00 0.  1.
         11    1    1    2    0    0 -0.17626020643E+00  0.25739601012E+00  0.15616526099E+01  0.15925073003E+01  0.51100000000E-03 0. -1.
    9000002    1    1    2    0    0  0.36997991385E+00 -0.46689838140E+00  0.25043539069E+00  0.11390527293E+01  0.93800000000E+00 0.  1.
         22    1    1    2    0    0 -0.19371970743E+00  0.20950237128E+00  0.21879119668E+01  0.22064399704E+01  0.00000000000E+00 0. -1.
</event>
<event>
 5    1  0.2173147E+002  0.1557205E+01  0.7818608E-02  0.3401162E+00
         11   -1    0    0    0    0  0.00000000000E+00  0.00000000000E+00  0.39999999674E+01  0.40000000000E+01  0.51100000000E-03 0. -1.
    9000002   -1    0    0    0    0 -0.00000000000E+00 -0.00000000000E+00  0.00000000000E+00  0.93800000000E+00  0.93800000000E+00 0.  1.
         11    1    1    2    0    0  0.11571163986E+00 -0.28590595586E+00  0.28100101818E+01  0.28268867827E+01  0.51100000000E-03 0. -1.
    9000002    1    1    2    0    0  0.14036430766E+00  0.42634198709E+00  0.17442766520E+00  0.10543901741E+01  0.93800000000E+00 0.  1.
         22    1    1    2    0    0 -0.25607594752E+00 -0.14043603123E+00  0.10155621204E+01  0.10567230432E+01  0.00000000000E+00 0.  1.
</event>
<event>
 5    1  0.2173147E+002  0.1599645E+01  0.7818608E-02  0.3353748E+00
         11   -1    0    0    0    0  0.00000000000E+00  0.00000000000E+00  0.39999999674E+01  0.40000000000E+01  0.51100000000E-03 0.  1.
    9000002   -1    0    0    0    0 -0.00000000000E+00 -0.00000000000E+00  0.00000000000E+00  0.93800000000E+00  0.93800000000E+00 0.  1.
         11    1    1    2    0    0  0.24416948619E+00  0.79404119336E-01  0.16910546910E+01  0.17104356116E+01  0.51100000000E-03 0.  1.
    9000002    1    1    2    0    0 -0.54498243759E+00 -0.16227570100E+00  0.22417025580E+00  0.11195693654E+01  0.93800000000E+00 0.  1.
         22    1    1    2    0    0  0.30081295139E+00  0.82871581666E-01  0.20847750205E+01  0.21079950230E+01  0.00000000000E+00 0.  1.
</event>
<event>
 5    1  0.2173147E+002  0.1599674E+01  0.7818608E-02  0.3353717E+00
         11   -1    0    0    0    0  0.00000000000E+00  0.00000000000E+00  0.39999999674E+01  0.40000000000E+01  0.51100000000E-03 0. -1.
    9000002   -1    0    0    0    0 -0.00000000000E+00 -0.00000000000E+00  0.00000000000E+00  0.93800000000E+00  0.93800000000E+00 0.  1.
         11    1    1    2    0    0  0.81428846562E-01  0.23629007718E-01  0.96097768184E+00  0.96471102056E+00  0.51100000000E-03 0. -1.
    9000002    1    1    2    0    0 -0.32723129884E+00 -0.92075128882E-01  0.77400462845E-01  0.10006962496E+01  0.93800000000E+00 0.  1.
         22    1    1    2    0    0  0.24580245228E+00  0.68446121164E-01  0.29616218227E+01  0.29725927299E+01  0.00000000000E+00 0. -1.
</event>
<event>
 5    1  0.2173147E+002  0.1599298E+01  0.7818608E-02  0.3354125E+00
         11   -1    0    0    0    0  0.00000000000E+00  0.00000000000E+00  0.39999999674E+01  0.40000000000E+01  0.51100000000E-03 0. -1.
    9000002   -1    0    0    0    0 -0.00000000000E+00 -0.00000000000E+00  0.00000000000E+00  0.93800000000E+00  0.93800000000E+00 0. -1.
         11    1    1    2    0    0  0.13455383726E+00 -0.27018373082E+00  0.21525073220E+01  0.21735666578E+01  0.51100000000E-03 0. -1.
    9000002    1    1    2    0    0 -0.24841191383E+00  0.43970220268E+00  0.17508440024E+00  0.10796041187E+01  0.93800000000E+00 0. -1.
         22    1    1    2    0    0  0.11385807658E+00 -0.16951847186E+00  0.16724082451E+01  0.16848292235E+01  0.00000000000E+00 0.  1.
</event>
<event>
 5    1  0.2173147E+002  0.1599676E+01  0.7818608E-02  0.3353715E+00
         11   -1    0    0    0    0  0.00000000000E+00  0.00000000000E+00  0.39999999674E+01  0.40000000000E+01  0.51100000000E-03 0.  1.
    9000002   -1    0    0    0    0 -0.00000000000E+00 -0.00000000000E+00  0.00000000000E+00  0.93800000000E+00  0.93800000000E+00 0.  1.
         11    1    1    2    0    0  0.32569715853E+00  0.49788612082E-01  0.16993851914E+01  0.17310308590E+01  0.51100000000E-03 0.  1.
    9000002    1    1    2    0    0 -0.69601251898E+00 -0.10830721766E+00  0.35501825040E+00  0.12255797967E+01  0.93800000000E+00 0.  1.
         22    1    1    2    0    0  0.37031536045E+00  0.58518605574E-01  0.19455965255E+01  0.19813893443E+01  0.00000000000E+00 0.  1.
</event>
<event>
 5    1  0.2173147E+002  0.1585171E+01  0.7818608E-02  0.3369617E+00
         11   -1    0    0    0    0  0.00000000000E+00  0.00000000000E+00  0.39999999674E+01  0.40000000000E+01  0.51100000000E-03 0.  1.
    9000002   -1    0    0    0    0 -0.00000000000E+00 -0.00000000000E+00  0.00000000000E+00  0.93800000000E+00  0.93800000000E+00 0. -1.
         11    1    1    2    0    0  0.16206509860E-01 -0.76137533646E-01  0.14608543963E+01  0.14629269986E+01  0.51100000000E-03 0.  1.
    9000002    1    1    2    0    0 -0.90958502277E-01 -0.17000477311E+00  0.35523285741E-01  0.95826978239E+00  0.93800000000E+00 0. -1.
         22    1    1    2    0    0  0.74751992417E-01  0.24614230675E+00  0.25036222853E+01  0.25168032190E+01  0.00000000000E+00 0.  1.
</event>
<event>
 5    1  0.2173147E+002  0.1599676E+01  0.7818608E-02  0.3353715E+00
         11   -1    0    0    0    0  0.00000000000E+00  0.00000000000E+00  0.39999999674E+01  0.40000000000E+01  0.51100000000E-03 0.  1.
    9000002   -1    0    0    0    0 -0.00000000000E+00 -0.00000000000E+00  0.00000000000E+00  0.93800000000E+00  0.93800000000E+00 0. -1.
         11    1    1    2    0    0 -0.21154025961E-01  0.15876767062E-01  0.39168908514E+00  0.39258141205E+00  0.51100000000E-03 0.  1.
    9000002    1    1    2    0    0  0.21739968861E+00 -0.16269035903E+00  0.49063754204E-01  0.97774333519E+00  0.93800000000E+00 0. -1.
         22    1    1    2    0    0 -0.19624566265E+00  0.14681359197E+00  0.35592471280E+01  0.35676752528E+01  0.00000000000E+00 0.  1.
</event>
<event>
 5    1  0.2173147E+002  0.1599538E+01  0.7818608E-02  0.3353865E+00
         11   -1    0    0    0    0  0.00000000000E+00  0.00000000000E+00  0.39999999674E+01  0.40000000000E+01  0.51100000000E-03 0. -1.
    9000002   -1    0    0    0    0 -0.00000000000E+00 -0.00000000000E+00  0.00000000000E+00  0.93800000000E+00  0.93800000000E+00 0. -1.
         11    1    1    2    0    0  0.30337944882E+00 -0.58662476506E+00  0.25544971293E+01  0.26384888762E+01  0.51100000000E-03 0. -1.
    9000002    1    1    2    0    0 -0.39929038355E+00  0.77219183281E+00  0.57129067005E+00  0.14006891399E+01  0.93800000000E+00 0. -1.
         22    1    1    2    0    0  0.95910934728E-01 -0.18556706774E+00  0.87421216796E+00  0.89882198385E+00  0.00000000000E+00 0.  1.
</event>
<event>
 5    1  0.2173147E+002  0.1598459E+01  0.7818608E-02  0.3355037E+00
         11   -1    0    0    0    0  0.00000000000E+00  0.00000000000E+00  0.39999999674E+01  0.40000000000E+01  0.51100000000E-03 0.  1.
    9000002   -1    0    0    0    0 -0.00000000000E+00 -0.00000000000E+00  0.00000000000E+00  0.93800000000E+00  0.93800000000E+00 0.  1.
         11    1    1    2    0    0  0.11712462791E+00 -0.25107200707E-01  0.16829356554E+01  0.16871932999E+01  0.51100000000E-03 0.  1.
    9000002    1    1    2    0    0 -0.26961969571E+00  0.15578012834E+00  0.65714071145E-01  0.99051732334E+00  0.93800000000E+00 0.  1.
         22    1    1    2    0    0  0.15249506780E+00 -0.13067292763E+00  0.22513502409E+01  0.22602893768E+01  0.00000000000E+00 0.  1.
</event>
<event>
 5    1  0.2173147E+002  0.1599677E+01  0.7818608E-02  0.3353714E+00
         11   -1    0    0    0    0  0.00000000000E+00  0.00000000000E+00  0.39999999674E+01  0.40000000000E+01  0.51100000000E-03 0. -1.
    9000002   -1    0    0    0    0 -0.00000000000E+00 -0.00000000000E+00  0.00000000000E+00  0.93800000000E+00  0.93800000000E+00 0.  1.
         11    1    1    2    0    0  0.19014406939E-01 -0.22995719365E-01  0.51214376407E+00  0.51301252126E+00  0.51100000000E-03 0. -1.
    9000002    1    1    2    0    0 -0.14822505151E+00  0.18049316424E+00  0.36192291281E-01  0.96731707841E+00  0.93800000000E+00 0.  1.
         22    1    1    2    0    0  0.12921064457E+00 -0.15749744488E+00  0.34516639120E+01  0.34576704003E+01  0.00000000000E+00 0. -1.
</event>
<event>
 5    1  0.2173147E+002  0.1564982E+01  0.7818608E-02  0.3392270E+00
         11   -1    0    0    0    0  0.00000000000E+00  0.00000000000E+00  0.39999999674E+01  0.40000000000E+01  0.51100000000E-03 0.  1.
    9000002   -1    0    0    0    0 -0.00000000000E+00 -0.00000000000E+00  0.00000000000E+00  0.93800000000E+00  0.93800000000E+00 0.  1.
         11    1    1    2    0    0 -0.22154287888E+00 -0.50199857830E-01  0.13048163647E+01  0.13244422523E+01  0.51100000000E-03 0.  1.
    9000002    1    1    2    0    0  0.13257086558E+00 -0.19330221082E+00  0.63274123960E-01  0.96891093186E+00  0.93800000000E+00 0.  1.
         22    1    1    2    0    0  0.88972013298E-01  0.24350206865E+00  0.26319094787E+01  0.26446468158E+01  0.00000000000E+00 0.  1.
</event>
<event>
 5    1  0.2173147E+002  0.1518427E+01  0.7818608E-02  0.3446955E+00
         11   -1    0    0    0    0  0.00000000000E+00  0.00000000000E+00  0.39999999674E+01  0.40000000000E+01  0.51100000000E-03 0.  1.
    9000002   -1    0    0    0    0 -0.00000000000E+00 -0.00000000000E+00  0.00000000000E+00  0.93800000000E+00  0.93800000000E+00 0.  1.
         11    1    1    2    0    0 -0.67926120920E-01  0.27285633160E-01  0.35949504181E+01  0.35956956536E+01  0.51100000000E-03 0.  1.
    9000002    1    1    2    0    0  0.26220170550E+00  0.55543245803E-01  0.11324508715E+00  0.98209125660E+00  0.93800000000E+00 0.  1.
         22    1    1    2    0    0 -0.19427558458E+00 -0.82828878963E-01  0.29180446213E+00  0.36021308981E+00  0.00000000000E+00 0.  1.
</event>
<event>
 5    1  0.2173147E+002  0.1599677E+01  0.7818608E-02  0.3353714E+00
         11   -1    0    0    0    0  0.00000000000E+00  0.00000000000E+00  0.39999999674E+01  0.40000000000E+01  0.51100000000E-03 0.  1.
    9000002   -1    0    0    0    0 -0.00000000000E+00 -0.00000000000E+00  0.00000000000E+00  0.93800000000E+00  0.93800000000E+00 0. -1.
         11    1    1    2    0    0  0.15733225111E+00  0.13589147897E+00  0.12939039959E+01  0.13104990435E+01  0.51100000000E-03 0.  1.
    9000002    1    1    2    0    0 -0.45584643797E+00 -0.39267519166E+00  0.25264946075E+00  0.11426572238E+01  0.93800000000E+00 0. -1.
         22    1    1    2    0    0  0.29851418686E+00  0.25678371269E+00  0.24534465107E+01  0.24848437326E+01  0.00000000000E+00 0. -1.
</event>
<event>
 5    1  0.2173147E+002  0.1547111E+01  0.7818608E-02  0.3412847E+00
         11   -1    0    0    0    0  0.00000000000E+00  0.00000000000E+00  0.39999999674E+01  0.40000000000E+01  0.51100000000E-03 0.  1.
    9000002   -1    0    0    0    0 -0.00000000000E+00 -0.00000000000E+00  0.00000000000E+00  0.93800000000E+00  0.93800000000E+00 0. -1.
         11    1    1    2    0    0 -0.10945199575E+00  0.13093759191E+00  0.95875335114E+00  0.97382372213E+00  0.51100000000E-03 0.  1.
    9000002    1    1    2    0    0  0.10236575585E-02  0.32578424707E+00  0.11395137264E+00  0.99948253553E+00  0.93800000000E+00 0. -1.
         22    1    1    2    0    0  0.10842833819E+00 -0.45672183897E+00  0.29272952436E+01  0.29646937423E+01  0.00000000000E+00 0.  1.
</event>
<event>
 5    1  0.2173147E+002  0.1597146E+01  0.7818608E-02  0.3356467E+00
         11   -1    0    0    0    0  0.00000000000E+00  0.00000000000E+00  0.39999999674E+01  0.40000000000E+01  0.51100000000E-03 0. -1.
    9000002   -1    0    0    0    0 -0.00000000000E+00 -0.00000000000E+00  0.00000000000E+00  0.93800000000E+00  0.93800000000E+00 0. -1.
         11    1    1    2    0    0 -0.12073552839E+00 -0.33354734724E+00  0.25926944995E+01  0.26168484728E+01  0.51100000000E-03 0. -1.
    9000002    1    1    2    0    0  0.25753340360E+00  0.49789518531E+00  0.21989281752E+00  0.11146389194E+01  0.93800000000E+00 0. -1.
         22    1    1    2    0    0 -0.13679787521E+00 -0.16434783807E+00  0.11874126503E+01  0.12065126078E+01  0.00000000000E+00 0. -1.
</event>
<event>
 5    1  0.2173147E+002  0.1599668E+01  0.7818608E-02  0.3353724E+00
         11   -1    0    0    0    0  0.00000000000E+00  0.00000000000E+00  0.39999999674E+01  0.40000000000E+01  0.51100000000E-03 0.  1.
    9000002   -1    0    0    0    0 -0.00000000000E+00 -0.00000000000E+00  0.00000000000E+00  0.93800000000E+00  0.93800000000E+00 0.  1.
         11    1    1    2    0    0  0.12057826589E-01 -0.28228528163E-03  0.19638671637E+00  0.19675739975E+00  0.51100000000E-03 0.  1.
    9000002    1    1    2    0    0 -0.21554321521E+00  0.17371098122E-01  0.30994980180E-01  0.96310192683E+00  0.93800000000E+00 0.  1.
         22    1    1    2    0    0  0.20348538862E+00 -0.17088812841E-01  0.37726182708E+01  0.37781406734E+01  0.00000000000E+00 0.  1.
</event>
<event>
 5    1  0.2173147E+002  0.1574876E+01  0.7818608E-02  0.3381091E+00
         11   -1    0    0    0    0  0.00000000000E+00  0.00000000000E+00  0.39999999674E+01  0.40000000000E+01  0.51100000000E-03 0. -1.
    9000002   -1    0    0    0    0 -0.00000000000E+00 -0.00000000000E+00  0.00000000000E+00  0.93800000000E+00  0.93800000000E+00 0.  1.
         11    1    1    2    0    0  0.13118434227E+00  0.10827290531E+00  0.11041896547E+01  0.11172141282E+01  0.51100000000E-03 0. -1.
    9000002    1    1    2    0    0 -0.14556362449E+00  0.12805573116E+00  0.43655416345E-01  0.95882054339E+00  0.93800000000E+00 0.  1.
         22    1    1    2    0    0  0.14379282222E-01 -0.23632863647E+00  0.28521548963E+01  0.28619653284E+01  0.00000000000E+00 0. -1.
</event>
<event>
 5    1  0.2173147E+002  0.1598308E+01  0.7818608E-02  0.3355202E+00
         11   -1    0    0    0    0  0.00000000000E+00  0.00000000000E+00  0.39999999674E+01  0.40000000000E+01  0.51100000000E-03 0.  1.
    9000002   -1    0    0    0    0 -0.00000000000E+00 -0.00000000000E+00  0.00000000000E+00  0.93800000000E+00  0.93800000000E+00 0.  1.
         11    1    1    2    0    0  0.13586618186E+00  0.51727555405E-01  0.18242656733E+01  0.18300494166E+01  0.51100000000E-03 0.  1.
    9000002    1    1    2    0    0 -0.30669961538E+00 -0.20483714846E+00  0.92516122677E-01  0.10121393898E+01  0.93800000000E+00 0.  1.
         22    1    1    2    0    0  0.17083343353E+00  0.15310959305E+00  0.20832181714E+01  0.20958111936E+01  0.00000000000E+00 0.  1.
</event>
<event>
 5    1  0.2173147E+002  0.1599400E+01  0.7818608E-02  0.3354014E+00
         11   -1    0    0    0    0  0.00000000000E+00  0.00000000000E+00  0.39999999674E+01  0.40000000000E+01  0.51100000000E-03 0. -1.
    9000002   -1    0    0    0    0 -0.00000000000E+00 -0.00000000000E+00  0.00000000000E+00  0.93800000000E+00  0.93800000000E+00 0. -1.
         11    1    1    2    0    0 -0.17961218078E-01 -0.32213303362E-01  0.58800728508E+00  0.58916307649E+00  0.51100000000E-03 0. -1.
    9000002    1    1    2    0    0  0.19936542755E+00  0.26807228778E+00  0.74927866403E-01  0.99853267866E+00  0.93800000000E+00 0. -1.
         22    1    1    2    0    0 -0.18140420947E+00 -0.23585898442E+00  0.33370648159E+01  0.33503042449E+01  0.00000000000E+00 0. -1.
</event>
<event>
 5    1  0.2173147E+002  0.1599647E+01  0.7818608E-02  0.3353747E+00
         11   -1    0    0    0    0  0.00000000000E+00  0.00000000000E+00  0.39999999674E+01  0.40000000000E+01  0.51100000000E-03 0. -1.
    9000002   -1    0    0    0    0 -0.00000000000E+00 -0.00000000000E+00  0.00000000000E+00  0.93800000000E+00  0.93800000000E+00 0.  1.
         11    1    1    2    0    0 -0.13007469704E-01  0.22956509091E+00  0.17849669300E+01  0.17997156797E+01  0.51100000000E-03 0. -1.
    9000002    1    1    2    0    0  0.29496459886E-01 -0.47989874998E+00  0.15778060596E+00  0.10657915232E+01  0.93800000000E+00 0.  1.
         22    1    1    2    0    0 -0.16488990182E-01  0.25033365907E+00  0.20572524314E+01  0.20724927971E+01  0.00000000000E+00 0. -1.
</event>
<event>
 5    1  0.2173147E+002  0.1497817E+01  0.7818608E-02  0.3472329E+00
         11   -1    0    0    0    0  0.00000000000E+00  0.00000000000E+00  0.39999999674E+01  0.40000000000E+01  0.51100000000E-03 0.  1.
    9000002   -1    0    0    0    0 -0.00000000000E+00 -0.00000000000E+00  0.00000000000E+00  0.93800000000E+00  0.93800000000E+00 0. -1.
         11    1    1    2    0    0  0.22820375449E+00  0.27019928228E-01  0.40038689345E+00  0.46164592022E+00  0.51100000000E-03 0.  1.
    9000002    1    1    2    0    0  0.96183123079E-01 -0.72444193772E-01  0.88315871700E-01  0.94981211172E+00  0.93800000000E+00 0. -1.
         22    1    1    2    0    0 -0.32438687757E+00  0.45424265543E-01  0.35112972022E+01  0.35265419681E+01  0.00000000000E+00 0.  1.
</event>
<event>
 5    1  0.2173147E+002  0.1545068E+01  0.7818608E-02  0.3415232E+00
         11   -1    0    0    0    0  0.00000000000E+00  0.00000000000E+00  0.39999999674E+01  0.40000000000E+01  0.51100000000E-03 0. -1.
    9000002   -1    0    0    0    0 -0.00000000000E+00 -0.00000000000E+00  0.00000000000E+00  0.93800000000E+00  0.93800000000E+00 0.  1.
         11    1    1    2    0    0 -0.67263893113E-01  0.13245121374E+00  0.29166155380E+00  0.32731403639E+00  0.51100000000E-03 0. -1.
    9000002    1    1    2    0    0  0.12615236961E+00  0.90541918904E-01  0.57429217532E-01  0.95249901547E+00  0.93800000000E+00 0.  1.
         22    1    1    2    0    0 -0.58888476494E-01 -0.22299313264E+00  0.36509091960E+01  0.36581869481E+01  0.00000000000E+00 0. -1.
</event>
<event>
 5    1  0.2173147E+002  0.1596706E+01  0.7818608E-02  0.3356947E+00
         11   -1    0    0    0    0  0.00000000000E+00  0.00000000000E+00  0.39999999674E+01  0.40000000000E+01  0.51100000000E-03 0.  1.
    9000002   -1    0    0    0    0 -0.00000000000E+00 -0.00000000000E+00  0.00000000000E+00  0.93800000000E+00  0.93800000000E+00 0. -1.
         11    1    1    2    0    0 -0.10547673668E-01 -0.18944742696E+00  0.10575353288E+01  0.10744220837E+01  0.51100000000E-03 0.  1.
    9000002    1    1    2    0    0  0.17052705334E-01  0.47460172360E+00  0.15638770794E+00  0.10629387123E+01  0.93800000000E+00 0. -1.
         22    1    1    2    0    0 -0.65050316659E-02 -0.28515429664E+00  0.27860769306E+01  0.28006392041E+01  0.00000000000E+00 0.  1.
</event>
<event>
 5    1  0.2173147E+002  0.1596910E+01  0.7818608E-02  0.3356724E+00
         11   -1    0    0    0    0  0.00000000000E+00  0.00000000000E+00  0.39999999674E+01  0.40000000000E+01  0.51100000000E-03 0.  1.
    9000002   -1    0    0    0    0 -0.00000000000E+00 -0.00000000000E+00  0.00000000000E+00  0.93800000000E+00  0.93800000000E+00 0.  1.
         11    1    1    2    0    0  0.34795201363E+00 -0.38902045363E+00  0.24607962468E+01  0.25155369102E+01  0.51100000000E-03 0.  1.
    9000002    1    1    2    0    0 -0.57544758114E+00  0.51825711582E+00  0.44152365277E+00  0.12940314883E+01  0.93800000000E+00 0.  1.
         22    1    1    2    0    0  0.22749556751E+00 -0.12923666218E+00  0.10976800678E+01  0.11284316015E+01  0.00000000000E+00 0.  1.
</event>
<event>
 5    1  0.2173147E+002  0.1599487E+01  0.7818608E-02  0.3353921E+00
         11   -1    0    0    0    0  0.00000000000E+00  0.00000000000E+00  0.39999999674E+01  0.40000000000E+01  0.51100000000E-03 0. -1.
    9000002   -1    0    0    0    0 -0.00000000000E+00 -0.00000000000E+00  0.00000000000E+00  0.93800000000E+00  0.93800000000E+00 0. -1.
         11    1    1    2    0    0  0.27623038952E-01 -0.45430654022E+00  0.20481665857E+01  0.20981287112E+01  0.51100000000E-03 0. -1.
    9000002    1    1    2    0    0 -0.20626173143E-01  0.78007811089E+00  0.44589212531E+00  0.12990808618E+01  0.93800000000E+00 0. -1.
         22    1    1    2    0    0 -0.69968658086E-02 -0.32577157067E+00  0.15059412563E+01  0.15407904270E+01  0.00000000000E+00 0. -1.
</event>
<event>
 5    1  0.2173147E+002  0.1599472E+01  0.7818608E-02  0.3353937E+00
         11   -1    0    0    0    0  0.00000000000E+00  0.00000000000E+00  0.39999999674E+01  0.40000000000E+01  0.51100000000E-03 0. -1.
    9000002   -1    0    0    0    0 -0.00000000000E+00 -0.00000000000E+00  0.00000000000E+00  0.93800000000E+00  0.93800000000E+00 0.  1.
         11    1    1    2    0    0 -0.51394647071E-02 -0.78690111343E-02  0.81372132797E-01  0.81914715105E-01  0.51100000000E-03 0. -1.
    9000002    1    1    2    0    0  0.35255805351E-01  0.47839670025E+00  0.15717988464E+00  0.10652022769E+01  0.93800000000E+00 0.  1.
         22    1    1    2    0    0 -0.30116340644E-01 -0.47052768911E+00  0.37614479499E+01  0.37908830080E+01  0.00000000000E+00 0. -1.
</event>
<event>
 5    1  0.2173147E+002  0.1597018E+01  0.7818608E-02  0.3356606E+00
         11   -1    0    0    0    0  0.00000000000E+00  0.00000000000E+00  0.39999999674E+01  0.40000000000E+01  0.51100000000E-03 0. -1.
    9000002   -1    0    0    0    0 -0.00000000000E+00 -0.00000000000E+00  0.00000000000E+00  0.93800000000E+00  0.93800000000E+00 0. -1.
         11    1    1    2    0    0 -0.51653950505E-01 -0.77817711678E-01  0.11029380807E+01  0.11068859010E+01  0.51100000000E-03 0. -1.
    9000002    1    1    2    0    0  0.26967028581E+00  0.98122931269E-01  0.56941984905E-01  0.98256631447E+00  0.93800000000E+00 0. -1.
         22    1    1    2    0    0 -0.21801633530E+00 -0.20305219591E-01  0.28401199017E+01  0.28485477845E+01  0.00000000000E+00 0. -1.
</event>
<event>
 5    1  0.2173147E+002  0.1596668E+01  0.7818608E-02  0.3356987E+00
         11   -1    0    0    0    0  0.00000000000E+00  0.00000000000E+00  0.39999999674E+01  0.40000000000E+01  0.51100000000E-03 0. -1.
    9000002   -1    0    0    0    0 -0.00000000000E+00 -0.00000000000E+00  0.00000000000E+00  0.93800000000E+00  0.93800000000E+00 0. -1.
         11    1    1    2    0    0  0.25973739992E-02  0.24819705346E+00  0.17878828886E+01  0.18050301959E+01  0.51100000000E-03 0. -1.
    9000002    1    1    2    0    0 -0.10273039513E+00 -0.61560556779E+00  0.27629307088E+00  0.11600455207E+01  0.93800000000E+00 0. -1.
         22    1    1    2    0    0  0.10013302113E+00  0.36740851433E+00  0.19358240079E+01  0.19729242834E+01  0.00000000000E+00 0. -1.
</event>
<event>
 5    1  0.2173147E+002  0.1599553E+01  0.7818608E-02  0.3353848E+00
         11   -1    0    0    0    0  0.00000000000E+00  0.00000000000E+00  0.39999999674E+01  0.40000000000E+01  0.51100000000E-03 0. -1.
    9000002   -1    0    0    0    0 -0.00000000000E+00 -0.00000000000E+00  0.00000000000E+00  0.93800000000E+00  0.93800000000E+00 0.  1.
         11    1    1    2    0    0 -0.17339261577E-02  0.92644912298E-02  0.21859570111E+00  0.21879940348E+00  0.51100000000E-03 0. -1.
    9000002    1    1    2    0    0  0.13100778725E+00 -0.21547105941E+00  0.42344423384E-01  0.97222830033E+00  0.93800000000E+00 0.  1.
         22    1    1    2    0    0 -0.12927386109E+00  0.20620656818E+00  0.37390598429E+01  0.37469722962E+01  0.00000000000E+00 0. -1.
</event>
<event>
 5    1  0.2173147E+002  0.1599653E+01  0.7818608E-02  0.3353740E+00
         11   -1    0    0    0    0  0.00000000000E+00  0.00000000000E+00  0.39999999674E+01  0.40000000000E+01  0.51100000000E-03 0. -1.
    9000002   -1    0    0    0    0 -0.00000000000E+00 -0.00000000000E+00  0.00000000000E+00  0.93800000000E+00  0.93800000000E+00 0. -1.
         11    1    1    2    0    0 -0.25841059413E-01 -0.84346010824E-01  0.76251374583E+00  0.76759981995E+00  0.51100000000E-03 0. -1.
    9000002    1    1    2    0    0  0.14947117537E+00  0.44088785004E+00  0.14756137650E+00  0.10575169447E+01  0.93800000000E+00 0. -1.
         22    1    1    2    0    0 -0.12363011596E+00 -0.35654183922E+00  0.30899248450E+01  0.31128832353E+01  0.00000000000E+00 0. -1.
</event>
<event>
 5    1  0.2173147E+002  0.1599613E+01  0.7818608E-02  0.3353784E+00
         11   -1    0    0    0    0  0.00000000000E+00  0.00000000000E+00  0.39999999674E+01  0.40000000000E+01  0.51100000000E-03 0.  1.
    9000002   -1    0    0    0    0 -0.00000000000E+00 -0.00000000000E+00  0.00000000000E+00  0.93800000000E+00  0.93800000000E+00 0. -1.
         11    1    1    2    0    0 -0.39322193503E-01 -0.20571648445E-01  0.53492502470E+00  0.53676295587E+00  0.51100000000E-03 0.  1.
    9000002    1    1    2    0    0  0.24371025856E+00  0.16703964171E+00  0.58262413544E-01  0.98515757159E+00  0.93800000000E+00 0. -1.
         22    1    1    2    0    0 -0.20438806505E+00 -0.14646799326E+00  0.34068125291E+01  0.34160794725E+01  0.00000000000E+00 0.  1.
</event>
<event>
 5    1  0.2173147E+002  0.1599113E+01  0.7818608E-02  0.3354327E+00
         11   -1    0    0    0    0  0.00000000000E+00  0.00000000000E+00  0.39999999674E+01  0.40000000000E+01  0.51100000000E-03 0.  1.
    9000002   -1    0    0    0    0 -0.00000000000E+00 -0.00000000000E+00  0.00000000000E+00  0.93800000000E+00  0.93800000000E+00 0. -1.
         11    1    1    2    0    0  0.73774621431E-02  0.19005137258E+00  0.18793430979E+01  0.18889427445E+01  0.51100000000E-03 0.  1.
    9000002    1    1    2    0    0  0.29856626979E-01 -0.42990682503E+00  0.12626732011E+00  0.10399513126E+01  0.93800000000E+00 0. -1.
         22    1    1    2    0    0 -0.37234089122E-01  0.23985545245E+00  0.19943895493E+01  0.20091059429E+01  0.00000000000E+00 0.  1.
</event>
<event>
 5    1  0.2173147E+002  0.1593050E+01  0.7818608E-02  0.3360941E+00
         11   -1    0    0    0    0  0.00000000000E+00  0.00000000000E+00  0.39999999674E+01  0.40000000000E+01  0.51100000000E-03 0.  1.
    9000002   -1    0    0    0    0 -0.00000000000E+00 -0.00000000000E+00  0.00000000000E+00  0.93800000000E+00  0.93800000000E+00 0.  1.
         11    1    1    2    0    0 -0.16268398178E-01 -0.73838495127E-01  0.15289744506E+01  0.15308428776E+01  0.51100000000E-03 0.  1.
    9000002    1    1    2    0    0 -0.14370364338E+00  0.34807507904E+00  0.10082049028E+00  0.10157833278E+01  0.93800000000E+00 0.  1.
         22    1    1    2    0    0  0.15997204156E+00 -0.27423658391E+00  0.23702050265E+01  0.23913737946E+01  0.00000000000E+00 0.  1.
</event>
<event>
 5    1  0.2173147E+002  0.1573228E+01  0.7818608E-02  0.3382944E+00
         11   -1    0    0    0    0  0.00000000000E+00  0.00000000000E+00  0.39999999674E+01  0.40000000000E+01  0.51100000000E-03 0. -1.
    9000002   -1    0    0    0    0 -0.00000000000E+00 -0.00000000000E+00  0.00000000000E+00  0.93800000000E+00  0.93800000000E+00 0.  1.
         11    1    1    2    0    0  0.13385541084E-01  0.15280872521E+00  0.15792007252E+01  0.15866331872E+01  0.51100000000E-03 0. -1.
    9000002    1    1    2    0    0 -0.50134484094E-02  0.96559026680E-01  0.25714369976E-01  0.94332073502E+00  0.93800000000E+00 0.  1.
         22    1    1    2    0    0 -0.83720926748E-02 -0.24936775189E+00  0.23950848722E+01  0.24080460778E+01  0.00000000000E+00 0. -1.
</event>
<event>
 5    1  0.2173147E+002  0.1565365E+01  0.7818608E-02  0.3391835E+00
         11   -1    0    0    0    0  0.00000000000E+00  0.00000000000E+00  0.39999999674E+01  0.40000000000E+01  0.51100000000E-03 0. -1.
    9000002   -1    0    0    0    0 -0.00000000000E+00 -0.00000000000E+00  0.00000000000E+00  0.93800000000E+00  0.93800000000E+00 0. -1.
         11    1    1    2    0    0  0.66083475972E-01  0.15701355904E+00  0.16102646151E+01  0.16192506524E+01  0.51100000000E-03 0. -1.
    9000002    1    1    2    0    0  0.12277558453E+00  0.70592806978E-01  0.38948317152E-01  0.94943043977E+00  0.93800000000E+00 0. -1.
         22    1    1    2    0    0 -0.18885906050E+00 -0.22760636602E+00  0.23507870351E+01  0.23693189078E+01  0.00000000000E+00 0. -1.
</event>
<event>
 5    1  0.2173147E+002  0.1599671E+01  0.7818608E-02  0.3353721E+00
         11   -1    0    0    0    0  0.00000000000E+00  0.00000000000E+00  0.39999999674E+01  0.40000000000E+01  0.51100000000E-03 0. -1.
    9000002   -1    0    0    0    0 -0.00000000000E+00 -0.00000000000E+00  0.00000000000E+00  0.93800000000E+00  0.93800000000E+00 0. -1.
         11    1    1    2    0    0 -0.15404880931E+00  0.20352274570E-01  0.16746053678E+01  0.16817992299E+01  0.51100000000E-03 0. -1.
    9000002    1    1    2    0    0  0.35565010566E+00 -0.52914296775E-01  0.86786055074E-01  0.10082969502E+01  0.93800000000E+00 0. -1.
         22    1    1    2    0    0 -0.20160129635E+00  0.32562022205E-01  0.22386085445E+01  0.22479038199E+01  0.00000000000E+00 0. -1.
</event>
<event>
 5    1  0.2173147E+002  0.1599636E+01  0.7818608E-02  0.3353758E+00
         11   -1    0    0    0    0  0.00000000000E+00  0.00000000000E+00  0.39999999674E+01  0.40000000000E+01  0.51100000000E-03 0. -1.
    9000002   -1    0    0    0    0 -0.00000000000E+00 -0.00000000000E+00  0.00000000000E+00  0.93800000000E+00  0.93800000000E+00 0.  1.
         11    1    1    2    0    0 -0.11961652295E-01 -0.66483008744E-01  0.82266432074E+00  0.82543316950E+00  0.51100000000E-03 0. -1.
    9000002    1    1    2    0    0  0.39474386064E-01  0.29447224070E+00  0.58903409587E-01  0.98569048862E+00  0.93800000000E+00 0.  1.
         22    1    1    2    0    0 -0.27512733769E-01 -0.22798923196E+00  0.31184322370E+01  0.31268763419E+01  0.00000000000E+00 0. -1.
</event>
<event>
 5    1  0.2173147E+002  0.1599667E+01  0.7818608E-02  0.3353725E+00
         11   -1    0    0    0    0  0.00000000000E+00  0.00000000000E+00  0.39999999674E+01  0.40000000000E+01  0.51100000000E-03 0.  1.
    9000002   -1    0    0    0    0 -0.00000000000E+00 -0.00000000000E+00  0.00000000000E+00  0.93800000000E+00  0.93800000000E+00 0.  1.
         11    1    1    2    0    0 -0.13021949013E-01 -0.15034785493E+00  0.14163650527E+01  0.14243820668E+01  0.51100000000E-03 0.  1.
    9000002    1    1    2    0    0  0.45838318485E-01  0.41319234223E+00  0.11682627720E+00  0.10326284144E+01  0.93800000000E+00 0.  1.
         22    1    1    2    0    0 -0.32816369472E-01 -0.26284448730E+00  0.24668086374E+01  0.24809895188E+01  0.00000000000E+00 0.  1.
</event>
<event>
 5    1  0.2173147E+002  0.1599598E+01  0.7818608E-02  0.3353799E+00
         11   -1    0    0    0    0  0.00000000000E+00  0.00000000000E+00  0.39999999674E+01  0.40000000000E+01  0.51100000000E-03 0.  1.
    9000002   -1    0    0    0    0 -0.00000000000E+00 -0.00000000000E+00  0.00000000000E+00  0.93800000000E+00  0.93800000000E+00 0. -1.
         11    1    1    2    0    0 -0.75729533840E-01 -0.81879345740E-01  0.10334535943E+01  0.10394545600E+01  0.51100000000E-03 0.  1.
    9000002    1    1    2    0    0  0.26690118358E+00  0.33800017928E+00  0.12569286211E+00  0.10397706760E+01  0.93800000000E+00 0. -1.
         22    1    1    2    0    0 -0.19117164974E+00 -0.25612083353E+00  0.28408535109E+01  0.28587747641E+01  0.00000000000E+00 0.  1.
</event>
<event>
 5    1  0.2173147E+002  0.1576631E+01  0.7818608E-02  0.3379124E+00
         11   -1    0    0    0    0  0.00000000000E+00  0.00000000000E+00  0.39999999674E+01  0.40000000000E+01  0.51100000000E-03 0.  1.
    9000002   -1    0    0    0    0 -0.00000000000E+00 -0.00000000000E+00  0.00000000000E+00  0.93800000000E+00  0.93800000000E+00 0.  1.
         11    1    1    2    0    0 -0.96610442616E-01 -0.20130938309E+00  0.25777898894E+01  0.25874427569E+01  0.51100000000E-03 0.  1.
    9000002    1    1    2    0    0  0.28959657574E+00  0.83975261379E-01  0.78937723183E-01  0.98842965625E+00  0.93800000000E+00 0.  1.
         22    1    1    2    0    0 -0.19298613313E+00  0.11733412171E+00  0.13432723548E+01  0.13621275868E+01  0.00000000000E+00 0.  1.
</event>
<event>
 5    1  0.2173147E+002  0.1455760E+01  0.7818608E-02  0.3526517E+00
         11   -1    0    0    0    0  0.00000000000E+00  0.00000000000E+00  0.39999999674E+01  0.40000000000E+01  0.51100000000E-03 0. -1.
    9000002   -1    0    0    0    0 -0.00000000000E+00 -0.00000000000E+00  0.00000000000E+00  0.93800000000E+00  0.93800000000E+00 0.  1.
         11    1    1    2    0    0 -0.36266839192E+00 -0.24163688621E+00  0.21619137373E+01  0.22053997406E+01  0.51100000000E-03 0. -1.
    9000002    1    1    2    0    0  0.21657010511E+00 -0.25095798902E+00  0.19858859759E+00  0.10144771825E+01  0.93800000000E+00 0.  1.
         22    1    1    2    0    0  0.14609828681E+00  0.49259487523E+00  0.16394976325E+01  0.17181230769E+01  0.00000000000E+00 0. -1.
</event>
<event>
 5    1  0.2173147E+002  0.1599677E+01  0.7818608E-02  0.3353714E+00
         11   -1    0    0    0    0  0.00000000000E+00  0.00000000000E+00  0.39999999674E+01  0.40000000000E+01  0.51100000000E-03 0. -1.
    9000002   -1    0    0    0    0 -0.00000000000E+00 -0.00000000000E+00  0.00000000000E+00  0.93800000000E+00  0.93800000000E+00 0. -1.
         11    1    1    2    0    0 -0.20251533578E+00  0.55679905935E-01  0.16711381607E+01  0.16842849303E+01  0.51100000000E-03 0. -1.
    9000002    1    1    2    0    0  0.46557267072E+00 -0.12978065010E+00  0.15947551282E+00  0.10671819751E+01  0.93800000000E+00 0. -1.
         22    1    1    2    0    0 -0.26305733494E+00  0.74100744164E-01  0.21693862938E+01  0.21865330945E+01  0.00000000000E+00 0. -1.
</event>
<event>
 5    1  0.2173147E+002  0.1585129E+01  0.7818608E-02  0.3369663E+00
         11   -1    0    0    0    0  0.00000000000E+00  0.00000000000E+00  0.39999999674E+01  0.40000000000E+01  0.51100000000E-03 0. -1.
    9000002   -1    0    0    0    0 -0.00000000000E+00 -0.00000000000E+00  0.00000000000E+00  0.93800000000E+00  0.93800000000E+00 0. -1.
         11    1    1    2    0    0  0.92101543579E-01 -0.26834743656E-01  0.15114820998E+01  0.15145234223E+01  0.51100000000E-03 0. -1.
    9000002    1    1    2    0    0  0.11972079366E+00  0.14940344150E+00  0.35203678857E-01  0.95798630250E+00  0.93800000000E+00 0. -1.
         22    1    1    2    0    0 -0.21182233724E+00 -0.12256869784E+00  0.24533141887E+01  0.24654902752E+01  0.00000000000E+00 0. -1.
</event>
<event>
 5    1  0.2173147E+002  0.1543757E+01  0.7818608E-02  0.3416765E+00
         11   -1    0    0    0    0  0.00000000000E+00  0.00000000000E+00  0.39999999674E+01  0.40000000000E+01  0.51100000000E-03 0.  1.
    9000002   -1    0    0    0    0 -0.00000000000E+00 -0.00000000000E+00  0.00000000000E+00  0.93800000000E+00  0.93800000000E+00 0. -1.
         11    1    1    2    0    0  0.15062463318E+00 -0.27331457308E+00  0.23320601437E+01  0.23528479362E+01  0.51100000000E-03 0.  1.
    9000002    1    1    2    0    0  0.15815660475E+00  0.23361883705E+00  0.97723176648E-01  0.98437040381E+00  0.93800000000E+00 0. -1.
         22    1    1    2    0    0 -0.30878123793E+00  0.39695736027E-01  0.15702166470E+01  0.16007816599E+01  0.00000000000E+00 0. -1.
</event>
<event>
 5    1  0.2173147E+002  0.1588903E+01  0.7818608E-02  0.3365496E+00
         11   -1    0    0    0    0  0.00000000000E+00  0.00000000000E+00  0.39999999674E+01  0.40000000000E+01  0.51100000000E-03 0.  1.
    9000002   -1    0    0    0    0 -0.00000000000E+00 -0.00000000000E+00  0.00000000000E+00  0.93800000000E+00  0.93800000000E+00 0.  1.
         11    1    1    2    0    0 -0.32396924726E+00  0.49344317944E-01  0.26105886286E+01  0.26310766206E+01  0.51100000000E-03 0.  1.
    9000002    1    1    2    0    0  0.44851082278E+00 -0.24019110106E+00  0.18731100161E+00  0.10834127258E+01  0.93800000000E+00 0.  1.
         22    1    1    2    0    0 -0.12454157552E+00  0.19084678312E+00  0.12021003372E+01  0.12235106535E+01  0.00000000000E+00 0.  1.
</event>
<event>
 5    1  0.2173147E+002  0.1528781E+01  0.7818608E-02  0.3434484E+00
         11   -1    0    0    0    0  0.00000000000E+00  0.00000000000E+00  0.39999999674E+01  0.40000000000E+01  0.51100000000E-03 0. -1.
    9000002   -1    0    0    0    0 -0.00000000000E+00 -0.00000000000E+00  0.00000000000E+00  0.93800000000E+00  0.93800000000E+00 0.  1.
         11    1    1    2    0    0  0.78561658248E-01  0.89886236244E-01  0.13480121453E+00  0.18006415016E+00  0.51100000000E-03 0. -1.
    9000002    1    1    2    0    0  0.31680540882E+00 -0.74727899920E-01  0.12942867874E+00  0.10012720454E+01  0.93800000000E+00 0.  1.
         22    1    1    2    0    0 -0.39536706707E+00 -0.15158336325E-01  0.37357700741E+01  0.37566638044E+01  0.00000000000E+00 0. -1.
</event>
<event>
 5    1  0.2173147E+002  0.1593735E+01  0.7818608E-02  0.3360191E+00
         11   -1    0    0    0    0  0.00000000000E+00  0.00000000000E+00  0.39999999674E+01  0.40000000000E+01  0.51100000000E-03 0.  1.
    9000002   -1    0    0    0    0 -0.00000000000E+00 -0.00000000000E+00  0.00000000000E+00  0.93800000000E+00  0.93800000000E+00 0. -1.
         11    1    1    2    0    0  0.43674057019E-01  0.33406149890E-01  0.10463856406E+01  0.10478294537E+01  0.51100000000E-03 0.  1.
    9000002    1    1    2    0    0  0.93628858706E-01 -0.29455544866E+00  0.68471230163E-01  0.98998059823E+00  0.93800000000E+00 0. -1.
         22    1    1    2    0    0 -0.13730291572E+00  0.26114929877E+00  0.28851430966E+01  0.29001899481E+01  0.00000000000E+00 0.  1.
</event>
<event>
 5    1  0.2173147E+002  0.1597778E+01  0.7818608E-02  0.3355779E+00
         11   -1    0    0    0    0  0.00000000000E+00  0.00000000000E+00  0.39999999674E+01  0.40000000000E+01  0.51100000000E-03 0. -1.
    9000002   -1    0    0    0    0 -0.00000000000E+00 -0.00000000000E+00  0.00000000000E+00  0.93800000000E+00  0.93800000000E+00 0. -1.
         11    1    1    2    0    0 -0.59929159168E-01  0.15689081672E+00  0.10411015300E+01  0.10545609937E+01  0.51100000000E-03 0. -1.
    9000002    1    1    2    0    0  0.15745630171E+00 -0.42036074056E+00  0.13847086233E+00  0.10490537731E+01  0.93800000000E+00 0. -1.
         22    1    1    2    0    0 -0.97527142542E-01  0.26346992384E+00  0.28204275750E+01  0.28343852332E+01  0.00000000000E+00 0. -1.
</event>
<event>
 5    1  0.2173147E+002  0.1599515E+01  0.7818608E-02  0.3353890E+00
         11   -1    0    0    0    0  0.00000000000E+00  0.00000000000E+00  0.39999999674E+01  0.40000000000E+01  0.51100000000E-03 0. -1.
    9000002   -1    0    0    0    0 -0.00000000000E+00 -0.00000000000E+00  0.00000000000E+00  0.93800000000E+00  0.93800000000E+00 0.  1.
         11    1    1    2    0    0 -0.10989058713E+00  0.87036325175E-01  0.14845637389E+01  0.14911676697E+01  0.51100000000E-03 0. -1.
    9000002    1    1    2    0    0  0.29819218902E+00 -0.26603582900E+00  0.10784620563E+00  0.10252650623E+01  0.93800000000E+00 0.  1.
         22    1    1    2    0    0 -0.18830160189E+00  0.17899950383E+00  0.24075900228E+01  0.24215672680E+01  0.00000000000E+00 0. -1.
</event>
<event>
 5    1  0.2173147E+002  0.1599380E+01  0.7818608E-02  0.3354036E+00
         11   -1    0    0    0    0  0.00000000000E+00  0.00000000000E+00  0.39999999674E+01  0.40000000000E+01  0.51100000000E-03 0.  1.
    9000002   -1    0    0    0    0 -0.00000000000E+00 -0.00000000000E+00  0.00000000000E+00  0.93800000000E+00  0.93800000000E+00 0. -1.
         11    1    1    2    0    0 -0.35959708586E-01  0.10309099115E+00  0.10615964703E+01  0.10671964111E+01  0.51100000000E-03 0.  1.
    9000002    1    1    2    0    0  0.19739700768E+00 -0.38888923153E+00  0.12917518976E+00  0.10424637369E+01  0.93800000000E+00 0. -1.
         22    1    1    2    0    0 -0.16143729910E+00  0.28579824038E+00  0.28092283073E+01  0.28283398520E+01  0.00000000000E+00 0.  1.
</event>
<event>
 5    1  0.2173147E+002  0.1564290E+01  0.7818608E-02  0.3393057E+00
         11   -1    0    0    0    0  0.00000000000E+00  0.00000000000E+00  0.39999999674E+01  0.40000000000E+01  0.51100000000E-03 0. -1.
    9000002   -1    0    0    0    0 -0.00000000000E+00 -0.00000000000E+00  0.00000000000E+00  0.93800000000E+00  0.93800000000E+00 0. -1.
         11    1    1    2    0    0  0.13444544614E+00  0.22237169432E+00  0.30665393955E+01  0.30775296706E+01  0.51100000000E-03 0. -1.
    9000002    1    1    2    0    0 -0.39092468156E+00 -0.30293109965E+00  0.19972765659E+00  0.10790386900E+01  0.93800000000E+00 0. -1.
         22    1    1    2    0    0  0.25647923542E+00  0.80559405325E-01  0.73373291529E+00  0.78143163934E+00  0.00000000000E+00 0. -1.
</event>
<event>
 5    1  0.2173147E+002  0.1555671E+01  0.7818608E-02  0.3402928E+00
         11   -1    0    0    0    0  0.00000000000E+00  0.00000000000E+00  0.39999999674E+01  0.40000000000E+01  0.51100000000E-03 0.  1.
    9000002   -1    0    0    0    0 -0.00000000000E+00 -0.00000000000E+00  0.00000000000E+00  0.93800000000E+00  0.93800000000E+00 0. -1.
         11    1    1    2    0    0 -0.16717794377E+00  0.26105138561E+00  0.21098516144E+01  0.21325033146E+01  0.51100000000E-03 0.  1.
    9000002    1    1    2    0    0 -0.12432132257E+00 -0.31423295054E+00  0.11252476613E+00  0.10033463816E+01  0.93800000000E+00 0. -1.
         22    1    1    2    0    0  0.29149926634E+00  0.53181564932E-01  0.17776235868E+01  0.18021503038E+01  0.00000000000E+00 0.  1.
</event>
<event>
 5    1  0.2173147E+002  0.1599675E+01  0.7818608E-02  0.3353717E+00
         11   -1    0    0    0    0  0.00000000000E+00  0.00000000000E+00  0.39999999674E+01  0.40000000000E+01  0.51100000000E-03 0.  1.
    9000002   -1    0    0    0    0 -0.00000000000E+00 -0.00000000000E+00  0.00000000000E+00  0.93800000000E+00  0.93800000000E+00 0. -1.
         11    1    1    2    0    0 -0.31828106862E-01 -0.37859304289E+00  0.22736623928E+01  0.23051869030E+01  0.51100000000E-03 0.  1.
    9000002    1    1    2    0    0  0.50094768219E-01  0.61883954793E+00  0.27017736325E+00  0.11568542170E+01  0.93800000000E+00 0. -1.
         22    1    1    2    0    0 -0.18266661357E-01 -0.24024650505E+00  0.14561602114E+01  0.14759588799E+01  0.00000000000E+00 0.  1.
</event>
<event>
 5    1  0.2173147E+002  0.1599210E+01  0.7818608E-02  0.3354222E+00
         11   -1    0    0    0    0  0.00000000000E+00  0.00000000000E+00  0.39999999674E+01  0.40000000000E+01  0.51100000000E-03 0. -1.
    9000002   -1    0    0    0    0 -0.00000000000E+00 -0.00000000000E+00  0.00000000000E+00  0.93800000000E+00  0.93800000000E+00 0. -1.
         11    1    1    2    0    0  0.47040345446E-01 -0.51274957846E-01  0.74845365073E+00  0.75168147763E+00  0.51100000000E-03 0. -1.
    9000002    1    1    2    0    0 -0.26312578670E+00  0.16335635251E+00  0.64416307216E-01  0.98990602492E+00  0.93800000000E+00 0. -1.
         22    1    1    2    0    0  0.21608544126E+00 -0.11208139466E+00  0.31871300094E+01  0.31964124974E+01  0.00000000000E+00 0. -1.
</event>
<event>
 5    1  0.2173147E+002  0.1599109E+01  0.7818608E-02  0.3354332E+00
         11   -1    0    0    0    0  0.00000000000E+00  0.00000000000E+00  0.39999999674E+01  0.40000000000E+01  0.51100000000E-03 0. -1.
    9000002   -1    0    0    0    0 -0.00000000000E+00 -0.00000000000E+00  0.00000000000E+00  0.93800000000E+00  0.93800000000E+00 0. -1.
         11    1    1    2    0    0 -0.48414015366E-01 -0.92678946180E-01  0.10685115390E+01  0.10736156081E+01  0.51100000000E-03 0. -1.
    9000002    1    1    2    0    0  0.26688887762E+00  0.35185194109E+00  0.13278707486E+00  0.10452300554E+01  0.93800000000E+00 0. -1.
         22    1    1    2    0    0 -0.21847486225E+00 -0.25917299491E+00  0.27987013535E+01  0.28191543365E+01  0.00000000000E+00 0.  1.
</event>
<event>
 5    1  0.2173147E+002  0.1551588E+01  0.7818608E-02  0.3407645E+00
         11   -1    0    0    0    0  0.00000000000E+00  0.00000000000E+00  0.39999999674E+01  0.40000000000E+01  0.51100000000E-03 0.  1.
    9000002   -1    0    0    0    0 -0.00000000000E+00 -0.00000000000E+00  0.00000000000E+00  0.93800000000E+00  0.93800000000E+00 0.  1.
         11    1    1    2    0    0  0.20060182360E+00 -0.60436376813E-01  0.87304978325E+00  0.89783619465E+00  0.51100000000E-03 0.  1.
    9000002    1    1    2    0    0  0.76253469726E-01  0.13443802601E+00  0.52192158746E-01  0.95207993148E+00  0.93800000000E+00 0.  1.
         22    1    1    2    0    0 -0.27685529333E+00 -0.74001649202E-01  0.30747580254E+01  0.30880838739E+01  0.00000000000E+00 0.  1.
</event>
<event>
 5    1  0.2173147E+002  0.1588529E+01  0.7818608E-02  0.3365908E+00
         11   -1    0    0    0    0  0.00000000000E+00  0.00000000000E+00  0.39999999674E+01  0.40000000000E+01  0.51100000000E-03 0. -1.
    9000002   -1    0    0    0    0 -0.00000000000E+00 -0.00000000000E+00  0.00000000000E+00  0.93800000000E+00  0.93800000000E+00 0. -1.
         11    1    1    2    0    0 -0.68881751977E-01  0.12539702604E-02  0.54047896805E+00  0.54485231414E+00  0.51100000000E-03 0. -1.
    9000002    1    1    2    0    0 -0.13395786751E+00 -0.22936993843E-01  0.20433101663E-01  0.94801494060E+00  0.93800000000E+00 0. -1.
         22    1    1    2    0    0  0.20283961948E+00  0.21683023583E-01  0.34390878976E+01  0.34451327453E+01  0.00000000000E+00 0. -1.
</event>
<event>
 5    1  0.2173147E+002  0.1582697E+01  0.7818608E-02  0.3372360E+00
         11   -1    0    0    0    0  0.00000000000E+00  0.00000000000E+00  0.39999999674E+01  0.40000000000E+01  0.51100000000E-03 0. -1.
    9000002   -1    0    0    0    0 -0.00000000000E+00 -0.00000000000E+00  0.00000000000E+00  0.93800000000E+00  0.93800000000E+00 0. -1.
         11    1    1    2    0    0 -0.82990973488E-01  0.78974416954E-01  0.27043343190E+00  0.29369876136E+00  0.51100000000E-03 0. -1.
    9000002    1    1    2    0    0  0.31999246055E+00 -0.31999834344E+00  0.15399050710E+00  0.10527825943E+01  0.93800000000E+00 0. -1.
         22    1    1    2    0    0 -0.23700148706E+00  0.24102392649E+00  0.35755760284E+01  0.35915186443E+01  0.00000000000E+00 0. -1.
</event>
<event>
 5    1  0.2173147E+002  0.1599403E+01  0.7818608E-02  0.3354012E+00
         11   -1    0    0    0    0  0.00000000000E+00  0.00000000000E+00  0.39999999674E+01  0.40000000000E+01  0.51100000000E-03 0.  1.
    9000002   -1    0    0    0    0 -0.00000000000E+00 -0.00000000000E+00  0.00000000000E+00  0.93800000000E+00  0.93800000000E+00 0. -1.
         11    1    1    2    0    0 -0.10114570676E+00  0.30384922380E-01  0.10033708399E+01  0.10089137729E+01  0.51100000000E-03 0.  1.
    9000002    1    1    2    0    0  0.32680922443E+00 -0.11895794866E+00  0.81302751701E-01  0.10036978630E+01  0.93800000000E+00 0. -1.
         22    1    1    2    0    0 -0.22566351766E+00  0.88573026279E-01  0.29153263757E+01  0.29253883642E+01  0.00000000000E+00 0.  1.
</event>
<event>
 5    1  0.2173147E+002  0.1599584E+01  0.7818608E-02  0.3353815E+00
         11   -1    0    0    0    0  0.00000000000E+00  0.00000000000E+00  0.39999999674E+01  0.40000000000E+01  0.51100000000E-03 0. -1.
    9000002   -1    0    0    0    0 -0.00000000000E+00 -0.00000000000E+00  0.00000000000E+00  0.93800000000E+00  0.93800000000E+00 0.  1.
         11    1    1    2    0    0 -0.14369923059E-01  0.15055833801E-01  0.27323043924E+00  0.27402245687E+00  0.51100000000E-03 0. -1.
    9000002    1    1    2    0    0  0.16058311022E+00 -0.28764128985E+00  0.72681416973E-01  0.99682046292E+00  0.93800000000E+00 0.  1.
         22    1    1    2    0    0 -0.14621318716E+00  0.27258545605E+00  0.36540881111E+01  0.36671570802E+01  0.00000000000E+00 0. -1.
</event>
<event>
 5    1  0.2173147E+002  0.1599675E+01  0.7818608E-02  0.3353716E+00
         11   -1    0    0    0    0  0.00000000000E+00  0.00000000000E+00  0.39999999674E+01  0.40000000000E+01  0.51100000000E-03 0. -1.
    9000002   -1    0    0    0    0 -0.00000000000E+00 -0.00000000000E+00  0.00000000000E+00  0.93800000000E+00  0.93800000000E+00 0. -1.
         11    1    1    2    0    0 -0.94583681640E-01 -0.16119479510E-01  0.11883281415E+01  0.11921954300E+01  0.51100000000E-03 0. -1.
    9000002    1    1    2    0    0  0.31607259663E+00  0.50137751590E-01  0.68456056326E-01  0.99345151473E+00  0.93800000000E+00 0. -1.
         22    1    1    2    0    0 -0.22148891499E+00 -0.34018272081E-01  0.27432157696E+01  0.27523530552E+01  0.00000000000E+00 0. -1.
</event>
<event>
 5    1  0.2173147E+002  0.1599629E+01  0.7818608E-02  0.3353766E+00
         11   -1    0    0    0    0  0.00000000000E+00  0.00000000000E+00  0.39999999674E+01  0.40000000000E+01  0.51100000000E-03 0. -1.
    9000002   -1    0    0    0    0 -0.00000000000E+00 -0.00000000000E+00  0.00000000000E+00  0.93800000000E+00  0.93800000000E+00 0. -1.
         11    1    1    2    0    0  0.28068762852E-01 -0.33508444451E-01  0.58168269628E+00  0.58332297364E+00  0.51100000000E-03 0. -1.
    9000002    1    1    2    0    0 -0.15701857141E+00  0.20620714118E+00  0.44693352543E-01  0.97417540135E+00  0.93800000000E+00 0. -1.
         22    1    1    2    0    0  0.12894980856E+00 -0.17269869673E+00  0.33736239185E+01  0.33805016250E+01  0.00000000000E+00 0. -1.
</event>
<event>
 5    1  0.2173147E+002  0.1599676E+01  0.7818608E-02  0.3353715E+00
         11   -1    0    0    0    0  0.00000000000E+00  0.00000000000E+00  0.39999999674E+01  0.40000000000E+01  0.51100000000E-03 0.  1.
    9000002   -1    0    0    0    0 -0.00000000000E+00 -0.00000000000E+00  0.00000000000E+00  0.93800000000E+00  0.93800000000E+00 0. -1.
         11    1    1    2    0    0 -0.60261069034E-01  0.66921192113E-01  0.12398289675E+01  0.12430953190E+01  0.51100000000E-03 0.  1.
    9000002    1    1    2    0    0  0.19454244734E+00 -0.21563832479E+00  0.56220387315E-01  0.98354022942E+00  0.93800000000E+00 0. -1.
         22    1    1    2    0    0 -0.13428137831E+00  0.14871713268E+00  0.27039506126E+01  0.27113644516E+01  0.00000000000E+00 0. -1.
</event>
<event>
 5    1  0.2173147E+002  0.1593117E+01  0.7818608E-02  0.3360868E+00
         11   -1    0    0    0    0  0.00000000000E+00  0.00000000000E+00  0.39999999674E+01  0.40000000000E+01  0.51100000000E-03 0. -1.
    9000002   -1    0    0    0    0 -0.00000000000E+00 -0.00000000000E+00  0.00000000000E+00  0.93800000000E+00  0.93800000000E+00 0. -1.
         11    1    1    2    0    0 -0.28482209234E+00 -0.17340011834E+00  0.16246556871E+01  0.16585227126E+01  0.51100000000E-03 0. -1.
    9000002    1    1    2    0    0  0.80299975468E+00  0.30741262077E+00  0.56606101986E+00  0.13926881214E+01  0.93800000000E+00 0. -1.
         22    1    1    2    0    0 -0.51817766233E+00 -0.13401250242E+00  0.18092832604E+01  0.18867891660E+01  0.00000000000E+00 0. -1.
</event>
<event>
 5    1  0.2173147E+002  0.1599457E+01  0.7818608E-02  0.3353953E+00
         11   -1    0    0    0    0  0.00000000000E+00  0.00000000000E+00  0.39999999674E+01  0.40000000000E+01  0.51100000000E-03 0. -1.
    9000002   -1    0    0    0    0 -0.00000000000E+00 -0.00000000000E+00  0.00000000000E+00  0.93800000000E+00  0.93800000000E+00 0. -1.
         11    1    1    2    0    0  0.15678207845E-01 -0.18689161900E-01  0.22354521056E+00  0.22487288245E+00  0.51100000000E-03 0. -1.
    9000002    1    1    2    0    0 -0.16563323936E+00  0.23494947067E+00  0.55235621186E-01  0.98261416517E+00  0.93800000000E+00 0. -1.
         22    1    1    2    0    0  0.14995503152E+00 -0.21626030877E+00  0.37212191356E+01  0.37305129524E+01  0.00000000000E+00 0. -1.
</event>
<event>
 5    1  0.2173147E+002  0.1599387E+01  0.7818608E-02  0.3354029E+00
         11   -1    0    0    0    0  0.00000000000E+00  0.00000000000E+00  0.39999999674E+01  0.40000000000E+01  0.51100000000E-03 0. -1.
    9000002   -1    0    0    0    0 -0.00000000000E+00 -0.00000000000E+00  0.00000000000E+00  0.93800000000E+00  0.93800000000E+00 0. -1.
         11    1    1    2    0    0 -0.76314108758E-01  0.20593911822E+00  0.16137499196E+01  0.16286263622E+01  0.51100000000E-03 0. -1.
    9000002    1    1    2    0    0  0.13654526127E+00 -0.50582858182E+00  0.18896221429E+00  0.10908977409E+01  0.93800000000E+00 0. -1.
         22    1    1    2    0    0 -0.60231152514E-01  0.29988946360E+00  0.21972878335E+01  0.22184758969E+01  0.00000000000E+00 0. -1.
</event>
<event>
 5    1  0.2173147E+002  0.1599635E+01  0.7818608E-02  0.3353759E+00
         11   -1    0    0    0    0  0.00000000000E+00  0.00000000000E+00  0.39999999674E+01  0.40000000000E+01  0.51100000000E-03 0. -1.
    9000002   -1    0    0    0    0 -0.00000000000E+00 -0.00000000000E+00  0.00000000000E+00  0.93800000000E+00  0.93800000000E+00 0.  1.
         11    1    1    2    0    0  0.45749198653E-01 -0.15151437659E-01  0.68833728432E+00  0.69002248757E+00  0.51100000000E-03 0. -1.
    9000002    1    1    2    0    0 -0.24941234116E+00  0.56121538613E-01  0.43466336849E-01  0.97318521642E+00  0.93800000000E+00 0.  1.
         22    1    1    2    0    0  0.20366314250E+00 -0.40970100954E-01  0.32681963462E+01  0.32747922960E+01  0.00000000000E+00 0. -1.
</event>
<event>
 5    1  0.2173147E+002  0.1598243E+01  0.7818608E-02  0.3355272E+00
         11   -1    0    0    0    0  0.00000000000E+00  0.00000000000E+00  0.39999999674E+01  0.40000000000E+01  0.51100000000E-03 0.  1.
    9000002   -1    0    0    0    0 -0.00000000000E+00 -0.00000000000E+00  0.00000000000E+00  0.93800000000E+00  0.93800000000E+00 0.  1.
         11    1    1    2    0    0 -0.25997024155E+00 -0.44530595470E-01  0.19154649510E+01  0.19335391747E+01  0.51100000000E-03 0.  1.
    9000002    1    1    2    0    0  0.53444492972E+00 -0.18481812565E-03  0.19804909991E+00  0.10975877473E+01  0.93800000000E+00 0.  1.
         22    1    1    2    0    0 -0.27447468818E+00  0.44715413595E-01  0.18864859165E+01  0.19068730780E+01  0.00000000000E+00 0.  1.
</event>
<event>
 5    1  0.2173147E+002  0.1599634E+01  0.7818608E-02  0.3353761E+00
         11   -1    0    0    0    0  0.00000000000E+00  0.00000000000E+00  0.39999999674E+01  0.40000000000E+01  0.51100000000E-03 0.  1.
    9000002   -1    0    0    0    0 -0.00000000000E+00 -0.00000000000E+00  0.00000000000E+00  0.93800000000E+00  0.93800000000E+00 0.  1.
         11    1    1    2    0    0  0.19226633616E+00 -0.29134902832E-01  0.15108579949E+01  0.15233211508E+01  0.51100000000E-03 0.  1.
    9000002    1    1    2    0    0 -0.47662085995E+00  0.58724992205E-01  0.15739754026E+00  0.10654736292E+01  0.93800000000E+00 0.  1.
         22    1    1    2    0    0  0.28435452379E+00 -0.29590089373E-01  0.23317444322E+01  0.23492052200E+01  0.00000000000E+00 0.  1.
</event>
<event>
 5    1  0.2173147E+002  0.1581262E+01  0.7818608E-02  0.3373956E+00
         11   -1    0    0    0    0  0.00000000000E+00  0.00000000000E+00  0.39999999674E+01  0.40000000000E+01  0.51100000000E-03 0. -1.
    9000002   -1    0    0    0    0 -0.00000000000E+00 -0.00000000000E+00  0.00000000000E+00  0.93800000000E+00  0.93800000000E+00 0. -1.
         11    1    1    2    0    0 -0.20592370533E+00 -0.68148139643E-01  0.13592350173E+01  0.13764333746E+01  0.51100000000E-03 0. -1.
    9000002    1    1    2    0    0  0.15081295042E+00  0.26771952717E+00  0.77643115034E-01  0.99009633095E+00  0.93800000000E+00 0. -1.
         22    1    1    2    0    0  0.55110754906E-01 -0.19957138753E+00  0.25631218351E+01  0.25714702945E+01  0.00000000000E+00 0. -1.
</event>
<event>
 5    1  0.2173147E+002  0.1544822E+01  0.7818608E-02  0.3415519E+00
         11   -1    0    0    0    0  0.00000000000E+00  0.00000000000E+00  0.39999999674E+01  0.40000000000E+01  0.51100000000E-03 0. -1.
    9000002   -1    0    0    0    0 -0.00000000000E+00 -0.00000000000E+00  0.00000000000E+00  0.93800000000E+00  0.93800000000E+00 0.  1.
         11    1    1    2    0    0  0.99893992968E-01 -0.35606352418E+00  0.27247465556E+01  0.27497280041E+01  0.51100000000E-03 0. -1.
    9000002    1    1    2    0    0 -0.74393996664E-01  0.14495659940E+00  0.59327114251E-01  0.95389233613E+00  0.93800000000E+00 0.  1.
         22    1    1    2    0    0 -0.25499996305E-01  0.21110692479E+00  0.12159262975E+01  0.12343796598E+01  0.00000000000E+00 0. -1.
</event>
<event>
 5    1  0.2173147E+002  0.1598637E+01  0.7818608E-02  0.3354845E+00
         11   -1    0    0    0    0  0.00000000000E+00  0.00000000000E+00  0.39999999674E+01  0.40000000000E+01  0.51100000000E-03 0. -1.
    9000002   -1    0    0    0    0 -0.00000000000E+00 -0.00000000000E+00  0.00000000000E+00  0.93800000000E+00  0.93800000000E+00 0.  1.
         11    1    1    2    0    0 -0.15329524822E+00 -0.90804513033E-01  0.12626532448E+01  0.12751620958E+01  0.51100000000E-03 0. -1.
    9000002    1    1    2    0    0  0.37359188611E+00  0.22074663389E+00  0.12848210256E+00  0.10414660937E+01  0.93800000000E+00 0.  1.
         22    1    1    2    0    0 -0.22029663789E+00 -0.12994212085E+00  0.26088646200E+01  0.26213718105E+01  0.00000000000E+00 0. -1.
</event>
<event>
 5    1  0.2173147E+002  0.1596230E+01  0.7818608E-02  0.3357465E+00
         11   -1    0    0    0    0  0.00000000000E+00  0.00000000000E+00  0.39999999674E+01  0.40000000000E+01  0.51100000000E-03 0.  1.
    9000002   -1    0    0    0    0 -0.00000000000E+00 -0.00000000000E+00  0.00000000000E+00  0.93800000000E+00  0.93800000000E+00 0.  1.
         11    1    1    2    0    0  0.57289797267E-01  0.70611238302E-02  0.15171986242E+01  0.15182963830E+01  0.51100000000E-03 0.  1.
    9000002    1    1    2    0    0 -0.13103307688E+00 -0.19687929671E+00  0.39740813225E-01  0.96817067552E+00  0.93800000000E+00 0.  1.
         22    1    1    2    0    0  0.73743279612E-01  0.18981817288E+00  0.24430605300E+01  0.24515329415E+01  0.00000000000E+00 0.  1.
</event>
<event>
 5    1  0.2704302E+002  0.1564983E+01  0.7818608E-02  0.3392270E+00
         11   -1    0    0    0    0  0.00000000000E+00  0.00000000000E+00  0.39999999674E+01  0.40000000000E+01  0.51100000000E-03 0.  1.
    9000002   -1    0    0    0    0 -0.00000000000E+00 -0.00000000000E+00  0.00000000000E+00  0.93800000000E+00  0.93800000000E+00 0.  1.
         11    1    1    2    0    0 -0.17008880755E+00  0.63940401850E-01  0.93948564832E+00  0.95689713238E+00  0.51100000000E-03 0.  1.
    9000002    1    1    2    0    0 -0.12314813544E-01  0.70133880834E-01  0.28997801907E-01  0.94114573175E+00  0.93800000000E+00 0.  1.
         22    1    1    2    0    0  0.18240362109E+00 -0.13407428268E+00  0.30315165171E+01  0.30399571359E+01  0.00000000000E+00 0.  1.
</event>
<event>
 5    1  0.2173147E+002  0.1591124E+01  0.7818608E-02  0.3363054E+00
         11   -1    0    0    0    0  0.00000000000E+00  0.00000000000E+00  0.39999999674E+01  0.40000000000E+01  0.51100000000E-03 0. -1.
    9000002   -1    0    0    0    0 -0.00000000000E+00 -0.00000000000E+00  0.00000000000E+00  0.93800000000E+00  0.93800000000E+00 0.  1.
         11    1    1    2    0    0 -0.35627653561E-01 -0.57663746211E-01  0.49918833467E+00  0.50376948292E+00  0.51100000000E-03 0. -1.
    9000002    1    1    2    0    0 -0.16734782740E+00  0.81896968512E-01  0.29369796406E-01  0.95677530995E+00  0.93800000000E+00 0.  1.
         22    1    1    2    0    0  0.20297548096E+00 -0.24233222301E-01  0.34714418363E+01  0.34774552071E+01  0.00000000000E+00 0. -1.
</event>
<event>
 5    1  0.2173147E+002  0.1530372E+01  0.7818608E-02  0.3432585E+00
         11   -1    0    0    0    0  0.00000000000E+00  0.00000000000E+00  0.39999999674E+01  0.40000000000E+01  0.51100000000E-03 0. -1.
    9000002   -1    0    0    0    0 -0.00000000000E+00 -0.00000000000E+00  0.00000000000E+00  0.93800000000E+00  0.93800000000E+00 0. -1.
         11    1    1    2    0    0 -0.15465642040E+00 -0.23352453436E+00  0.65448757078E+00  0.71190347516E+00  0.51100000000E-03 0. -1.
    9000002    1    1    2    0    0 -0.46434118224E-01  0.32132746850E+00  0.12766271564E+00  0.10007743194E+01  0.93800000000E+00 0. -1.
         22    1    1    2    0    0  0.20109053863E+00 -0.87802934142E-01  0.32178496809E+01  0.32253222055E+01  0.00000000000E+00 0. -1.
</event>
<event>
 5    1  0.2173147E+002  0.1598671E+01  0.7818608E-02  0.3354807E+00
         11   -1    0    0    0    0  0.00000000000E+00  0.00000000000E+00  0.39999999674E+01  0.40000000000E+01  0.51100000000E-03 0.  1.
    9000002   -1    0    0    0    0 -0.00000000000E+00 -0.00000000000E+00  0.00000000000E+00  0.93800000000E+00  0.93800000000E+00 0. -1.
         11    1    1    2    0    0 -0.57501077880E-02 -0.86234146547E-02  0.18769899953E+00  0.18798564457E+00  0.51100000000E-03 0.  1.
    9000002    1    1    2    0    0 -0.21391552226E+00  0.11433883924E+00  0.39826832002E-01  0.96967179879E+00  0.93800000000E+00 0. -1.
         22    1    1    2    0    0  0.21966563005E+00 -0.10571542459E+00  0.37724741358E+01  0.37803425566E+01  0.00000000000E+00 0.  1.
</event>
<event>
 5    1  0.2173147E+002  0.1456261E+01  0.7818608E-02  0.3525851E+00
         11   -1    0    0    0    0  0.00000000000E+00  0.00000000000E+00  0.39999999674E+01  0.40000000000E+01  0.51100000000E-03 0. -1.
    9000002   -1    0    0    0    0 -0.00000000000E+00 -0.00000000000E+00  0.00000000000E+00  0.93800000000E+00  0.93800000000E+00 0.  1.
         11    1    1    2    0    0  0.33575254384E+00  0.51487394642E-01  0.46093378575E+00  0.57257395895E+00  0.51100000000E-03 0. -1.
    9000002    1    1    2    0    0 -0.11496388910E+00  0.61324982522E-01  0.13996475097E+00  0.95729388423E+00  0.93800000000E+00 0.  1.
         22    1    1    2    0    0 -0.22078865474E+00 -0.11281237716E+00  0.33991014306E+01  0.34081321568E+01  0.00000000000E+00 0. -1.
</event>
<event>
 5    1  0.2173147E+002  0.1581804E+01  0.7818608E-02  0.3373353E+00
         11   -1    0    0    0    0  0.00000000000E+00  0.00000000000E+00  0.39999999674E+01  0.40000000000E+01  0.51100000000E-03 0.  1.
    9000002   -1    0    0    0    0 -0.00000000000E+00 -0.00000000000E+00  0.00000000000E+00  0.93800000000E+00  0.93800000000E+00 0.  1.
         11    1    1    2    0    0  0.66031057255E-01 -0.43177518641E+00  0.16814820597E+01  0.17372887181E+01  0.51100000000E-03 0.  1.
    9000002    1    1    2    0    0 -0.43450026197E+00  0.74873823256E+00  0.59188349253E+00  0.14069717436E+01  0.93800000000E+00 0.  1.
         22    1    1    2    0    0  0.36846920471E+00 -0.31696304615E+00  0.17266344152E+01  0.17937395383E+01  0.00000000000E+00 0.  1.
</event>
<event>
 5    1  0.2173147E+002  0.1599674E+01  0.7818608E-02  0.3353717E+00
         11   -1    0    0    0    0  0.00000000000E+00  0.00000000000E+00  0.39999999674E+01  0.40000000000E+01  0.51100000000E-03 0.  1.
    9000002   -1    0    0    0    0 -0.00000000000E+00 -0.00000000000E+00  0.00000000000E+00  0.93800000000E+00  0.93800000000E+00 0.  1.
         11    1    1    2    0    0 -0.11129149464E+00 -0.97938292662E-02  0.85904663580E+00  0.86628118961E+00  0.51100000000E-03 0.  1.
    9000002    1    1    2    0    0  0.50235431872E+00  0.46735774330E-01  0.17438538061E+00  0.10792582430E+01  0.93800000000E+00 0.  1.
         22    1    1    2    0    0 -0.39106282408E+00 -0.36941945064E-01  0.29665679510E+01  0.29924605674E+01  0.00000000000E+00 0.  1.
</event>
<event>
 5    1  0.2173147E+002  0.1596202E+01  0.7818608E-02  0.3357496E+00
         11   -1    0    0    0    0  0.00000000000E+00  0.00000000000E+00  0.39999999674E+01  0.40000000000E+01  0.51100000000E-03 0.  1.
    9000002   -1    0    0    0    0 -0.00000000000E+00 -0.00000000000E+00  0.00000000000E+00  0.93800000000E+00  0.93800000000E+00 0. -1.
         11    1    1    2    0    0 -0.77716824250E-02 -0.15037101197E+00  0.85444217955E+00  0.86760794118E+00  0.51100000000E-03 0.  1.
    9000002    1    1    2    0    0  0.32563353786E-01  0.41371104669E+00  0.11932041010E+00  0.10326173359E+01  0.93800000000E+00 0. -1.
         22    1    1    2    0    0 -0.24791671361E-01 -0.26334003473E+00  0.30262373777E+01  0.30377747229E+01  0.00000000000E+00 0.  1.
</event>
<event>
 5    1  0.2173147E+002  0.1599484E+01  0.7818608E-02  0.3353924E+00
         11   -1    0    0    0    0  0.00000000000E+00  0.00000000000E+00  0.39999999674E+01  0.40000000000E+01  0.51100000000E-03 0. -1.
    9000002   -1    0    0    0    0 -0.00000000000E+00 -0.00000000000E+00  0.00000000000E+00  0.93800000000E+00  0.93800000000E+00 0.  1.
         11    1    1    2    0    0 -0.42663615290E-01  0.55600356441E-01  0.10625979593E+01  0.10649066944E+01  0.51100000000E-03 0. -1.
    9000002    1    1    2    0    0  0.21012195435E+00 -0.18719644753E+00  0.52892742015E-01  0.98073206730E+00  0.93800000000E+00 0.  1.
         22    1    1    2    0    0 -0.16745833906E+00  0.13159609109E+00  0.28845092661E+01  0.28923612383E+01  0.00000000000E+00 0.  1.
</event>
<event>
 5    1  0.2173147E+002  0.1599578E+01  0.7818608E-02  0.3353822E+00
         11   -1    0    0    0    0  0.00000000000E+00  0.00000000000E+00  0.39999999674E+01  0.40000000000E+01  0.51100000000E-03 0.  1.
    9000002   -1    0    0    0    0 -0.00000000000E+00 -0.00000000000E+00  0.00000000000E+00  0.93800000000E+00  0.93800000000E+00 0.  1.
         11    1    1    2    0    0  0.22512018704E-01  0.18234043660E-01  0.42420696919E+00  0.42519534941E+00  0.51100000000E-03 0.  1.
    9000002    1    1    2    0    0 -0.15205765389E+00 -0.20779512439E+00  0.44144487625E-01  0.97370071357E+00  0.93800000000E+00 0.  1.
         22    1    1    2    0    0  0.12954563519E+00  0.18956108073E+00  0.35316485105E+01  0.35391039370E+01  0.00000000000E+00 0.  1.
</event>
<event>
 5    1  0.2173147E+002  0.1597758E+01  0.7818608E-02  0.3355800E+00
         11   -1    0    0    0    0  0.00000000000E+00  0.00000000000E+00  0.39999999674E+01  0.40000000000E+01  0.51100000000E-03 0. -1.
    9000002   -1    0    0    0    0 -0.00000000000E+00 -0.00000000000E+00  0.00000000000E+00  0.93800000000E+00  0.93800000000E+00 0.  1.
         11    1    1    2    0    0 -0.34665432705E+00 -0.14724829696E+00  0.20561751595E+01  0.20903846132E+01  0.51100000000E-03 0. -1.
    9000002    1    1    2    0    0  0.65581633659E+00  0.17705913090E+00  0.33009063795E+00  0.12042627755E+01  0.93800000000E+00 0.  1.
         22    1    1    2    0    0 -0.30916200954E+00 -0.29810833935E-01  0.16137341699E+01  0.16433526113E+01  0.00000000000E+00 0. -1.
</event>
<event>
 5    1  0.2173147E+002  0.1599641E+01  0.7818608E-02  0.3353753E+00
         11   -1    0    0    0    0  0.00000000000E+00  0.00000000000E+00  0.39999999674E+01  0.40000000000E+01  0.51100000000E-03 0. -1.
    9000002   -1    0    0    0    0 -0.00000000000E+00 -0.00000000000E+00  0.00000000000E+00  0.93800000000E+00  0.93800000000E+00 0.  1.
         11    1    1    2    0    0  0.14284889789E+00 -0.60583179169E-01  0.16372264838E+01  0.16445628446E+01  0.51100000000E-03 0. -1.
    9000002    1    1    2    0    0 -0.35718218242E+00  0.14278846708E+00  0.99644506372E-01  0.10186955803E+01  0.93800000000E+00 0.  1.
         22    1    1    2    0    0  0.21433328452E+00 -0.82205287911E-01  0.22631289772E+01  0.22747415751E+01  0.00000000000E+00 0. -1.
</event>
<event>
 5    1  0.2173147E+002  0.1599668E+01  0.7818608E-02  0.3353723E+00
         11   -1    0    0    0    0  0.00000000000E+00  0.00000000000E+00  0.39999999674E+01  0.40000000000E+01  0.51100000000E-03 0. -1.
    9000002   -1    0    0    0    0 -0.00000000000E+00 -0.00000000000E+00  0.00000000000E+00  0.93800000000E+00  0.93800000000E+00 0.  1.
         11    1    1    2    0    0 -0.20365322380E+00  0.20589951153E+00  0.20146569154E+01  0.20353653216E+01  0.51100000000E-03 0. -1.
    9000002    1    1    2    0    0  0.37954314608E+00 -0.38335159109E+00  0.20061290455E+00  0.11005003315E+01  0.93800000000E+00 0.  1.
         22    1    1    2    0    0 -0.17588992229E+00  0.17745207956E+00  0.17847301474E+01  0.18021343469E+01  0.00000000000E+00 0. -1.
</event>
<event>
 5    1  0.2173147E+002  0.1599589E+01  0.7818608E-02  0.3353810E+00
         11   -1    0    0    0    0  0.00000000000E+00  0.00000000000E+00  0.39999999674E+01  0.40000000000E+01  0.51100000000E-03 0.  1.
    9000002   -1    0    0    0    0 -0.00000000000E+00 -0.00000000000E+00  0.00000000000E+00  0.93800000000E+00  0.93800000000E+00 0. -1.
         11    1    1    2    0    0 -0.28906062963E-01 -0.86714634787E-01  0.92653137241E+00  0.93102934086E+00  0.51100000000E-03 0.  1.
    9000002    1    1    2    0    0  0.81695522500E-01  0.37076463395E+00  0.97051759094E-01  0.10165646148E+01  0.93800000000E+00 0. -1.
         22    1    1    2    0    0 -0.52789459537E-01 -0.28404999916E+00  0.29764168359E+01  0.29904060443E+01  0.00000000000E+00 0.  1.
</event>
<event>
 5    1  0.2173147E+002  0.1599672E+01  0.7818608E-02  0.3353719E+00
         11   -1    0    0    0    0  0.00000000000E+00  0.00000000000E+00  0.39999999674E+01  0.40000000000E+01  0.51100000000E-03 0. -1.
    9000002   -1    0    0    0    0 -0.00000000000E+00 -0.00000000000E+00  0.00000000000E+00  0.93800000000E+00  0.93800000000E+00 0. -1.
         11    1    1    2    0    0 -0.42849003031E-01  0.42809411570E-01  0.49155722470E+00  0.49527512461E+00  0.51100000000E-03 0. -1.
    9000002    1    1    2    0    0  0.34449432273E+00 -0.34314731497E+00  0.16148415866E+00  0.10688066016E+01  0.93800000000E+00 0. -1.
         22    1    1    2    0    0 -0.30164531970E+00  0.30033790340E+00  0.33469585840E+01  0.33739182738E+01  0.00000000000E+00 0. -1.
</event>
<event>
 5    1  0.2173147E+002  0.1568828E+01  0.7818608E-02  0.3387907E+00
         11   -1    0    0    0    0  0.00000000000E+00  0.00000000000E+00  0.39999999674E+01  0.40000000000E+01  0.51100000000E-03 0.  1.
    9000002   -1    0    0    0    0 -0.00000000000E+00 -0.00000000000E+00  0.00000000000E+00  0.93800000000E+00  0.93800000000E+00 0.  1.
         11    1    1    2    0    0 -0.11939777574E+00  0.58518233545E-01  0.30074365511E+00  0.32882703618E+00  0.51100000000E-03 0.  1.
    9000002    1    1    2    0    0  0.40537868357E+00  0.22934327688E+00  0.17518883405E+00  0.10618217098E+01  0.93800000000E+00 0.  1.
         22    1    1    2    0    0 -0.28598090784E+00 -0.28786151043E+00  0.35240674782E+01  0.35473512541E+01  0.00000000000E+00 0.  1.
</event>
<event>
 5    1  0.2173147E+002  0.1599671E+01  0.7818608E-02  0.3353721E+00
         11   -1    0    0    0    0  0.00000000000E+00  0.00000000000E+00  0.39999999674E+01  0.40000000000E+01  0.51100000000E-03 0. -1.
    9000002   -1    0    0    0    0 -0.00000000000E+00 -0.00000000000E+00  0.00000000000E+00  0.93800000000E+00  0.93800000000E+00 0.  1.
         11    1    1    2    0    0 -0.10091347953E+00 -0.27051740789E-03  0.12069827101E+01  0.12111940914E+01  0.51100000000E-03 0. -1.
    9000002    1    1    2    0    0  0.33659544917E+00  0.36031383450E-02  0.75870359580E-01  0.99945474658E+00  0.93800000000E+00 0.  1.
         22    1    1    2    0    0 -0.23568196964E+00 -0.33326209371E-02  0.27171468977E+01  0.27273511620E+01  0.00000000000E+00 0. -1.
</event>
<event>
 5    1  0.2173147E+002  0.1599645E+01  0.7818608E-02  0.3353749E+00
         11   -1    0    0    0    0  0.00000000000E+00  0.00000000000E+00  0.39999999674E+01  0.40000000000E+01  0.51100000000E-03 0.  1.
    9000002   -1    0    0    0    0 -0.00000000000E+00 -0.00000000000E+00  0.00000000000E+00  0.93800000000E+00  0.93800000000E+00 0. -1.
         11    1    1    2    0    0  0.65499686635E-01 -0.51871422300E-01  0.92828547097E+00  0.93203810552E+00  0.51100000000E-03 0.  1.
    9000002    1    1    2    0    0 -0.25239706751E+00  0.21752760784E+00  0.74333497372E-01  0.99819437420E+00  0.93800000000E+00 0. -1.
         22    1    1    2    0    0  0.18689738087E+00 -0.16565618554E+00  0.29973809990E+01  0.30077675203E+01  0.00000000000E+00 0. -1.
</event>
<event>
 5    1  0.2173147E+002  0.1597336E+01  0.7818608E-02  0.3356260E+00
         11   -1    0    0    0    0  0.00000000000E+00  0.00000000000E+00  0.39999999674E+01  0.40000000000E+01  0.51100000000E-03 0.  1.
    9000002   -1    0    0    0    0 -0.00000000000E+00 -0.00000000000E+00  0.00000000000E+00  0.93800000000E+00  0.93800000000E+00 0.  1.
         11    1    1    2    0    0  0.22343731954E-01  0.37396135606E-01  0.65808653753E+00  0.65952700120E+00  0.51100000000E-03 0.  1.
    9000002    1    1    2    0    0 -0.20257558475E+00 -0.46339402765E+00  0.17738174616E+00  0.10803143877E+01  0.93800000000E+00 0.  1.
         22    1    1    2    0    0  0.18023185279E+00  0.42599789204E+00  0.31645316837E+01  0.31981586111E+01  0.00000000000E+00 0.  1.
</event>
<event>
 5    1  0.2173147E+002  0.1581005E+01  0.7818608E-02  0.3374241E+00
         11   -1    0    0    0    0  0.00000000000E+00  0.00000000000E+00  0.39999999674E+01  0.40000000000E+01  0.51100000000E-03 0.  1.
    9000002   -1    0    0    0    0 -0.00000000000E+00 -0.00000000000E+00  0.00000000000E+00  0.93800000000E+00  0.93800000000E+00 0. -1.
         11    1    1    2    0    0  0.41033064879E-01  0.14035682436E+00  0.15660363494E+01  0.15728489627E+01  0.51100000000E-03 0.  1.
    9000002    1    1    2    0    0  0.26318597149E+00 -0.18198595589E+00  0.83356962306E-01  0.99457434458E+00  0.93800000000E+00 0. -1.
         22    1    1    2    0    0 -0.30421903637E+00  0.41629131538E-01  0.23506066556E+01  0.23705766927E+01  0.00000000000E+00 0. -1.
</event>
<event>
 5    1  0.2173147E+002  0.1599650E+01  0.7818608E-02  0.3353743E+00
         11   -1    0    0    0    0  0.00000000000E+00  0.00000000000E+00  0.39999999674E+01  0.40000000000E+01  0.51100000000E-03 0. -1.
    9000002   -1    0    0    0    0 -0.00000000000E+00 -0.00000000000E+00  0.00000000000E+00  0.93800000000E+00  0.93800000000E+00 0.  1.
         11    1    1    2    0    0 -0.48109499386E-01  0.10418812555E-02  0.61279389907E+00  0.61468059455E+00  0.51100000000E-03 0. -1.
    9000002    1    1    2    0    0  0.31761386388E+00 -0.34318287526E-01  0.68232203648E-01  0.99325522652E+00  0.93800000000E+00 0.  1.
         22    1    1    2    0    0 -0.26950436449E+00  0.33276406270E-01  0.33189738646E+01  0.33300641789E+01  0.00000000000E+00 0. -1.
</event>
<event>
 5    1  0.2173147E+002  0.1589011E+01  0.7818608E-02  0.3365377E+00
         11   -1    0    0    0    0  0.00000000000E+00  0.00000000000E+00  0.39999999674E+01  0.40000000000E+01  0.51100000000E-03 0. -1.
    9000002   -1    0    0    0    0 -0.00000000000E+00 -0.00000000000E+00  0.00000000000E+00  0.93800000000E+00  0.93800000000E+00 0. -1.
         11    1    1    2    0    0  0.27238774430E-01  0.79010292380E-02  0.43235272308E-01  0.51710027925E-01  0.51100000000E-03 0. -1.
    9000002    1    1    2    0    0 -0.15415318860E-03 -0.44682504280E+00  0.14478441120E+00  0.10490277253E+01  0.93800000000E+00 0. -1.
         22    1    1    2    0    0 -0.27084621241E-01  0.43892401356E+00  0.38119802838E+01  0.38372622468E+01  0.00000000000E+00 0. -1.
</event>
<event>
 5    1  0.2445393E+002  0.1556981E+01  0.7818608E-02  0.3401420E+00
         11   -1    0    0    0    0  0.00000000000E+00  0.00000000000E+00  0.39999999674E+01  0.40000000000E+01  0.51100000000E-03 0. -1.
    9000002   -1    0    0    0    0 -0.00000000000E+00 -0.00000000000E+00  0.00000000000E+00  0.93800000000E+00  0.93800000000E+00 0. -1.
         11    1    1    2    0    0 -0.30186074774E-01 -0.13625158034E+00  0.37117209168E+00  0.39654088695E+00  0.51100000000E-03 0. -1.
    9000002    1    1    2    0    0  0.64536894007E-02 -0.78016907373E-01  0.35770634581E-01  0.94194045791E+00  0.93800000000E+00 0. -1.
         22    1    1    2    0    0  0.23732385374E-01  0.21426848772E+00  0.35930572411E+01  0.35995186551E+01  0.00000000000E+00 0. -1.
</event>
<event>
 5    1  0.2720880E+002  0.1572095E+01  0.7818608E-02  0.3384219E+00
         11   -1    0    0    0    0  0.00000000000E+00  0.00000000000E+00  0.39999999674E+01  0.40000000000E+01  0.51100000000E-03 0.  1.
    9000002   -1    0    0    0    0 -0.00000000000E+00 -0.00000000000E+00  0.00000000000E+00  0.93800000000E+00  0.93800000000E+00 0. -1.
         11    1    1    2    0    0 -0.55726882399E-01  0.13717637032E+00  0.27940890547E+01  0.27980094262E+01  0.51100000000E-03 0.  1.
    9000002    1    1    2    0    0  0.42446631046E-01  0.62547605920E-01  0.24101063297E-01  0.94134944667E+00  0.93800000000E+00 0. -1.
         22    1    1    2    0    0  0.13280251353E-01 -0.19972397625E+00  0.11818098493E+01  0.11986411272E+01  0.00000000000E+00 0.  1.
</event>
<event>
 5    1  0.2173147E+002  0.1594815E+01  0.7818608E-02  0.3359010E+00
         11   -1    0    0    0    0  0.00000000000E+00  0.00000000000E+00  0.39999999674E+01  0.40000000000E+01  0.51100000000E-03 0. -1.
    9000002   -1    0    0    0    0 -0.00000000000E+00 -0.00000000000E+00  0.00000000000E+00  0.93800000000E+00  0.93800000000E+00 0.  1.
         11    1    1    2    0    0 -0.23201094000E-01  0.21155874417E-01  0.18392640898E+00  0.18658790643E+00  0.51100000000E-03 0. -1.
    9000002    1    1    2    0    0  0.71793601015E-01  0.17389734080E+00  0.27053304963E-01  0.95706347104E+00  0.93800000000E+00 0.  1.
         22    1    1    2    0    0 -0.48592507015E-01 -0.19505321522E+00  0.37890202534E+01  0.37943486225E+01  0.00000000000E+00 0. -1.
</event>
<event>
 5    1  0.2173147E+002  0.1595675E+01  0.7818608E-02  0.3358071E+00
         11   -1    0    0    0    0  0.00000000000E+00  0.00000000000E+00  0.39999999674E+01  0.40000000000E+01  0.51100000000E-03 0. -1.
    9000002   -1    0    0    0    0 -0.00000000000E+00 -0.00000000000E+00  0.00000000000E+00  0.93800000000E+00  0.93800000000E+00 0. -1.
         11    1    1    2    0    0  0.78650779520E-02 -0.83694902692E-03  0.80439776943E-02  0.11292769059E-01  0.51100000000E-03 0. -1.
    9000002    1    1    2    0    0 -0.11818772522E+00  0.42370089724E+00  0.13465960936E+00  0.10447334584E+01  0.93800000000E+00 0. -1.
         22    1    1    2    0    0  0.11032264727E+00 -0.42286394821E+00  0.38572963803E+01  0.38819737725E+01  0.00000000000E+00 0. -1.
</event>
<event>
 5    1  0.2173147E+002  0.1532515E+01  0.7818608E-02  0.3430032E+00
         11   -1    0    0    0    0  0.00000000000E+00  0.00000000000E+00  0.39999999674E+01  0.40000000000E+01  0.51100000000E-03 0.  1.
    9000002   -1    0    0    0    0 -0.00000000000E+00 -0.00000000000E+00  0.00000000000E+00  0.93800000000E+00  0.93800000000E+00 0. -1.
         11    1    1    2    0    0  0.15785087353E+00  0.21837965962E-01  0.31602210616E+01  0.31642362767E+01  0.51100000000E-03 0.  1.
    9000002    1    1    2    0    0  0.11616632364E+00 -0.16429924404E-01  0.59986461133E-01  0.94721007843E+00  0.93800000000E+00 0. -1.
         22    1    1    2    0    0 -0.27401719717E+00 -0.54080415573E-02  0.77979244458E+00  0.82655364489E+00  0.00000000000E+00 0.  1.
</event>
<event>
 5    1  0.2173147E+002  0.1570880E+01  0.7818608E-02  0.3385589E+00
         11   -1    0    0    0    0  0.00000000000E+00  0.00000000000E+00  0.39999999674E+01  0.40000000000E+01  0.51100000000E-03 0. -1.
    9000002   -1    0    0    0    0 -0.00000000000E+00 -0.00000000000E+00  0.00000000000E+00  0.93800000000E+00  0.93800000000E+00 0.  1.
         11    1    1    2    0    0 -0.11678618974E+00  0.48346379916E-01  0.57287479160E+00  0.58665336830E+00  0.51100000000E-03 0. -1.
    9000002    1    1    2    0    0 -0.15552158248E+00 -0.80745802739E-01  0.42020700299E-01  0.95515265090E+00  0.93800000000E+00 0.  1.
         22    1    1    2    0    0  0.27230777222E+00  0.32399422822E-01  0.33851044755E+01  0.33961939808E+01  0.00000000000E+00 0. -1.
</event>
<event>
 5    1  0.2173147E+002  0.1460486E+01  0.7818608E-02  0.3520258E+00
         11   -1    0    0    0    0  0.00000000000E+00  0.00000000000E+00  0.39999999674E+01  0.40000000000E+01  0.51100000000E-03 0. -1.
    9000002   -1    0    0    0    0 -0.00000000000E+00 -0.00000000000E+00  0.00000000000E+00  0.93800000000E+00  0.93800000000E+00 0.  1.
         11    1    1    2    0    0  0.13401186052E+00 -0.28366793239E+00  0.21518174006E+01  0.21745677872E+01  0.51100000000E-03 0. -1.
    9000002    1    1    2    0    0  0.19743781216E+00 -0.16235903888E+00  0.15891182621E+00  0.98510868217E+00  0.93800000000E+00 0.  1.
         22    1    1    2    0    0 -0.33144967268E+00  0.44602697126E+00  0.16892707406E+01  0.17783235306E+01  0.00000000000E+00 0. -1.
</event>
<event>
 5    1  0.2173147E+002  0.1598638E+01  0.7818608E-02  0.3354843E+00
         11   -1    0    0    0    0  0.00000000000E+00  0.00000000000E+00  0.39999999674E+01  0.40000000000E+01  0.51100000000E-03 0. -1.
    9000002   -1    0    0    0    0 -0.00000000000E+00 -0.00000000000E+00  0.00000000000E+00  0.93800000000E+00  0.93800000000E+00 0.  1.
         11    1    1    2    0    0 -0.62141880811E-01  0.60221378808E-01  0.80724634748E+00  0.81187139034E+00  0.51100000000E-03 0. -1.
    9000002    1    1    2    0    0  0.15116270406E+00 -0.27387965099E+00  0.66182625071E-01  0.99100169838E+00  0.93800000000E+00 0.  1.
         22    1    1    2    0    0 -0.89020823251E-01  0.21365827219E+00  0.31265709948E+01  0.31351269113E+01  0.00000000000E+00 0. -1.
</event>
<event>
 5    1  0.2173147E+002  0.1599677E+01  0.7818608E-02  0.3353714E+00
         11   -1    0    0    0    0  0.00000000000E+00  0.00000000000E+00  0.39999999674E+01  0.40000000000E+01  0.51100000000E-03 0.  1.
    9000002   -1    0    0    0    0 -0.00000000000E+00 -0.00000000000E+00  0.00000000000E+00  0.93800000000E+00  0.93800000000E+00 0. -1.
         11    1    1    2    0    0 -0.26722886235E+00 -0.14408014283E+00  0.21879464508E+01  0.22089092976E+01  0.51100000000E-03 0.  1.
    9000002    1    1    2    0    0  0.46468674461E+00  0.25060337078E+00  0.19174002626E+00  0.10933179125E+01  0.93800000000E+00 0. -1.
         22    1    1    2    0    0 -0.19745788226E+00 -0.10652322795E+00  0.16203134903E+01  0.16357727899E+01  0.00000000000E+00 0.  1.
</event>
<event>
 5    1  0.2173147E+002  0.1599673E+01  0.7818608E-02  0.3353719E+00
         11   -1    0    0    0    0  0.00000000000E+00  0.00000000000E+00  0.39999999674E+01  0.40000000000E+01  0.51100000000E-03 0. -1.
    9000002   -1    0    0    0    0 -0.00000000000E+00 -0.00000000000E+00  0.00000000000E+00  0.93800000000E+00  0.93800000000E+00 0.  1.
         11    1    1    2    0    0  0.11416306697E+00 -0.12261179583E+00  0.12783760449E+01  0.12893069579E+01  0.51100000000E-03 0. -1.
    9000002    1    1    2    0    0 -0.33698439452E+00  0.37212732937E+00  0.17259647940E+00  0.10778083207E+01  0.93800000000E+00 0.  1.
         22    1    1    2    0    0  0.22282132755E+00 -0.24951553354E+00  0.25490274431E+01  0.25708847214E+01  0.00000000000E+00 0. -1.
</event>
<event>
 5    1  0.2173147E+002  0.1599675E+01  0.7818608E-02  0.3353717E+00
         11   -1    0    0    0    0  0.00000000000E+00  0.00000000000E+00  0.39999999674E+01  0.40000000000E+01  0.51100000000E-03 0.  1.
    9000002   -1    0    0    0    0 -0.00000000000E+00 -0.00000000000E+00  0.00000000000E+00  0.93800000000E+00  0.93800000000E+00 0. -1.
         11    1    1    2    0    0 -0.13280550590E+00  0.54281658121E-03  0.10748592745E+01  0.10830329257E+01  0.51100000000E-03 0.  1.
    9000002    1    1    2    0    0  0.46968362022E+00 -0.14083692187E-02  0.15028054819E+00  0.10597324803E+01  0.93800000000E+00 0. -1.
         22    1    1    2    0    0 -0.33687811433E+00  0.86555263749E-03  0.27748601447E+01  0.27952345940E+01  0.00000000000E+00 0.  1.
</event>
<event>
 5    1  0.2173147E+002  0.1528397E+01  0.7818608E-02  0.3434944E+00
         11   -1    0    0    0    0  0.00000000000E+00  0.00000000000E+00  0.39999999674E+01  0.40000000000E+01  0.51100000000E-03 0. -1.
    9000002   -1    0    0    0    0 -0.00000000000E+00 -0.00000000000E+00  0.00000000000E+00  0.93800000000E+00  0.93800000000E+00 0.  1.
         11    1    1    2    0    0  0.86657992530E-01  0.35547485936E-01  0.52484565847E-01  0.10736909331E+00  0.51100000000E-03 0. -1.
    9000002    1    1    2    0    0 -0.61565608423E-01 -0.24861686306E+00  0.10036820881E+00  0.97750623838E+00  0.93800000000E+00 0.  1.
         22    1    1    2    0    0 -0.25092384106E-01  0.21306937712E+00  0.38471471927E+01  0.38531246683E+01  0.00000000000E+00 0. -1.
</event>
<event>
 5    1  0.2173147E+002  0.1590961E+01  0.7818608E-02  0.3363233E+00
         11   -1    0    0    0    0  0.00000000000E+00  0.00000000000E+00  0.39999999674E+01  0.40000000000E+01  0.51100000000E-03 0. -1.
    9000002   -1    0    0    0    0 -0.00000000000E+00 -0.00000000000E+00  0.00000000000E+00  0.93800000000E+00  0.93800000000E+00 0. -1.
         11    1    1    2    0    0  0.17239714835E-01  0.10289586084E-01  0.12036632625E+01  0.12038307995E+01  0.51100000000E-03 0. -1.
    9000002    1    1    2    0    0 -0.19368703450E+00 -0.34024160109E+00  0.11052343732E+00  0.10224179403E+01  0.93800000000E+00 0. -1.
         22    1    1    2    0    0  0.17644731967E+00  0.32995201500E+00  0.26858132676E+01  0.27117512602E+01  0.00000000000E+00 0. -1.
</event>
<event>
 5    1  0.2173147E+002  0.1599608E+01  0.7818608E-02  0.3353789E+00
         11   -1    0    0    0    0  0.00000000000E+00  0.00000000000E+00  0.39999999674E+01  0.40000000000E+01  0.51100000000E-03 0. -1.
    9000002   -1    0    0    0    0 -0.00000000000E+00 -0.00000000000E+00  0.00000000000E+00  0.93800000000E+00  0.93800000000E+00 0.  1.
         11    1    1    2    0    0 -0.83263324141E-02  0.19595579249E-01  0.28343596585E+00  0.28423497743E+00  0.51100000000E-03 0. -1.
    9000002    1    1    2    0    0  0.16712006168E+00 -0.22293828996E+00  0.51742600711E-01  0.97987340656E+00  0.93800000000E+00 0.  1.
         22    1    1    2    0    0 -0.15879372926E+00  0.20334271071E+00  0.36648214008E+01  0.36738916160E+01  0.00000000000E+00 0. -1.
</event>
<event>
 5    1  0.2173147E+002  0.1599675E+01  0.7818608E-02  0.3353716E+00
         11   -1    0    0    0    0  0.00000000000E+00  0.00000000000E+00  0.39999999674E+01  0.40000000000E+01  0.51100000000E-03 0. -1.
    9000002   -1    0    0    0    0 -0.00000000000E+00 -0.00000000000E+00  0.00000000000E+00  0.93800000000E+00  0.93800000000E+00 0.  1.
         11    1    1    2    0    0 -0.47828402992E-02  0.46027138997E-02  0.12544486428E+00  0.12562139798E+00  0.51100000000E-03 0. -1.
    9000002    1    1    2    0    0  0.15494748109E+00 -0.13744648215E+00  0.28414511702E-01  0.96101594255E+00  0.93800000000E+00 0.  1.
         22    1    1    2    0    0 -0.15016464079E+00  0.13284376825E+00  0.38461405914E+01  0.38513626595E+01  0.00000000000E+00 0. -1.
</event>
<event>
 5    1  0.2173147E+002  0.1598447E+01  0.7818608E-02  0.3355051E+00
         11   -1    0    0    0    0  0.00000000000E+00  0.00000000000E+00  0.39999999674E+01  0.40000000000E+01  0.51100000000E-03 0.  1.
    9000002   -1    0    0    0    0 -0.00000000000E+00 -0.00000000000E+00  0.00000000000E+00  0.93800000000E+00  0.93800000000E+00 0. -1.
         11    1    1    2    0    0  0.13960049486E+00 -0.33831568675E-01  0.89548952712E+00  0.90693694792E+00  0.51100000000E-03 0.  1.
    9000002    1    1    2    0    0 -0.44822361481E+00  0.17853671066E+00  0.15998458025E+00  0.10668733907E+01  0.93800000000E+00 0. -1.
         22    1    1    2    0    0  0.30862311995E+00 -0.14470514198E+00  0.29445258600E+01  0.29641896614E+01  0.00000000000E+00 0.  1.
</event>
<event>
 5    1  0.2173147E+002  0.1550225E+01  0.7818608E-02  0.3409225E+00
         11   -1    0    0    0    0  0.00000000000E+00  0.00000000000E+00  0.39999999674E+01  0.40000000000E+01  0.51100000000E-03 0.  1.
    9000002   -1    0    0    0    0 -0.00000000000E+00 -0.00000000000E+00  0.00000000000E+00  0.93800000000E+00  0.93800000000E+00 0.  1.
         11    1    1    2    0    0 -0.14458177159E+00 -0.17572382709E+00  0.32592703069E+01  0.32672046074E+01  0.51100000000E-03 0.  1.
    9000002    1    1    2    0    0 -0.16919520705E-01  0.54592098114E-01  0.38940151087E-01  0.94054606624E+00  0.93800000000E+00 0.  1.
         22    1    1    2    0    0  0.16150129229E+00  0.12113172897E+00  0.70178950941E+00  0.73024932639E+00  0.00000000000E+00 0. -1.
</event>
<event>
 5    1  0.2173147E+002  0.1595815E+01  0.7818608E-02  0.3357918E+00
         11   -1    0    0    0    0  0.00000000000E+00  0.00000000000E+00  0.39999999674E+01  0.40000000000E+01  0.51100000000E-03 0. -1.
    9000002   -1    0    0    0    0 -0.00000000000E+00 -0.00000000000E+00  0.00000000000E+00  0.93800000000E+00  0.93800000000E+00 0.  1.
         11    1    1    2    0    0 -0.18840686205E+00 -0.14870782089E+00  0.20066083816E+01  0.20209128185E+01  0.51100000000E-03 0. -1.
    9000002    1    1    2    0    0  0.48008959379E+00  0.33937397231E+00  0.24435302634E+00  0.11336724009E+01  0.93800000000E+00 0.  1.
         22    1    1    2    0    0 -0.29168273175E+00 -0.19066615142E+00  0.17490385594E+01  0.17834147806E+01  0.00000000000E+00 0. -1.
</event>
<event>
 5    1  0.2173147E+002  0.1599675E+01  0.7818608E-02  0.3353716E+00
         11   -1    0    0    0    0  0.00000000000E+00  0.00000000000E+00  0.39999999674E+01  0.40000000000E+01  0.51100000000E-03 0.  1.
    9000002   -1    0    0    0    0 -0.00000000000E+00 -0.00000000000E+00  0.00000000000E+00  0.93800000000E+00  0.93800000000E+00 0.  1.
         11    1    1    2    0    0 -0.11786797776E+00  0.18587813471E+00  0.16019885736E+01  0.16170377832E+01  0.51100000000E-03 0.  1.
    9000002    1    1    2    0    0  0.27896507137E+00 -0.43919111252E+00  0.18596693166E+00  0.10886404567E+01  0.93800000000E+00 0.  1.
         22    1    1    2    0    0 -0.16109709361E+00  0.25331297781E+00  0.22120444621E+01  0.22323217601E+01  0.00000000000E+00 0.  1.
</event>
<event>
 5    1  0.2173147E+002  0.1599675E+01  0.7818608E-02  0.3353717E+00
         11   -1    0    0    0    0  0.00000000000E+00  0.00000000000E+00  0.39999999674E+01  0.40000000000E+01  0.51100000000E-03 0. -1.
    9000002   -1    0    0    0    0 -0.00000000000E+00 -0.00000000000E+00  0.00000000000E+00  0.93800000000E+00  0.93800000000E+00 0.  1.
         11    1    1    2    0    0 -0.10461859924E+00  0.32569615188E-01  0.94757078543E+00  0.95388494361E+00  0.51100000000E-03 0. -1.
    9000002    1    1    2    0    0  0.43253338561E+00 -0.13467073058E+00  0.13944744983E+00  0.10509571478E+01  0.93800000000E+00 0.  1.
         22    1    1    2    0    0 -0.32791478637E+00  0.10210111539E+00  0.29129817321E+01  0.29331579085E+01  0.00000000000E+00 0.  1.
</event>
<event>
 5    1  0.2173147E+002  0.1599670E+01  0.7818608E-02  0.3353722E+00
         11   -1    0    0    0    0  0.00000000000E+00  0.00000000000E+00  0.39999999674E+01  0.40000000000E+01  0.51100000000E-03 0.  1.
    9000002   -1    0    0    0    0 -0.00000000000E+00 -0.00000000000E+00  0.00000000000E+00  0.93800000000E+00  0.93800000000E+00 0.  1.
         11    1    1    2    0    0 -0.28172856665E+00 -0.11812746993E-01  0.16371967810E+01  0.16613019253E+01  0.51100000000E-03 0.  1.
    9000002    1    1    2    0    0  0.63325939807E+00  0.30543308840E-01  0.28257606179E+00  0.11668948494E+01  0.93800000000E+00 0.  1.
         22    1    1    2    0    0 -0.35153083142E+00 -0.18730561847E-01  0.20802271246E+01  0.21098032252E+01  0.00000000000E+00 0.  1.
</event>
<event>
 5    1  0.2173147E+002  0.1480808E+01  0.7818608E-02  0.3493842E+00
         11   -1    0    0    0    0  0.00000000000E+00  0.00000000000E+00  0.39999999674E+01  0.40000000000E+01  0.51100000000E-03 0.  1.
    9000002   -1    0    0    0    0 -0.00000000000E+00 -0.00000000000E+00  0.00000000000E+00  0.93800000000E+00  0.93800000000E+00 0. -1.
         11    1    1    2    0    0  0.25263705186E+00 -0.30503169531E+00  0.17093337793E+01  0.17546201997E+01  0.51100000000E-03 0.  1.
    9000002    1    1    2    0    0  0.72257439485E-01  0.16596701685E-01  0.95642383978E-01  0.94577378568E+00  0.93800000000E+00 0. -1.
         22    1    1    2    0    0 -0.32489449134E+00  0.28843499363E+00  0.21950238041E+01  0.22376060146E+01  0.00000000000E+00 0.  1.
</event>
<event>
 5    1  0.2173147E+002  0.1599674E+01  0.7818608E-02  0.3353717E+00
         11   -1    0    0    0    0  0.00000000000E+00  0.00000000000E+00  0.39999999674E+01  0.40000000000E+01  0.51100000000E-03 0. -1.
    9000002   -1    0    0    0    0 -0.00000000000E+00 -0.00000000000E+00  0.00000000000E+00  0.93800000000E+00  0.93800000000E+00 0. -1.
         11    1    1    2    0    0 -0.24925360189E-01  0.26433801906E-01  0.57661934443E+00  0.57776305606E+00  0.51100000000E-03 0. -1.
    9000002    1    1    2    0    0  0.17832736492E+00 -0.18661663649E+00  0.44289259314E-01  0.97387471298E+00  0.93800000000E+00 0. -1.
         22    1    1    2    0    0 -0.15340200473E+00  0.16018283459E+00  0.33790913636E+01  0.33863622310E+01  0.00000000000E+00 0. -1.
</event>
<event>
 5    1  0.2173147E+002  0.1598106E+01  0.7818608E-02  0.3355422E+00
         11   -1    0    0    0    0  0.00000000000E+00  0.00000000000E+00  0.39999999674E+01  0.40000000000E+01  0.51100000000E-03 0.  1.
    9000002   -1    0    0    0    0 -0.00000000000E+00 -0.00000000000E+00  0.00000000000E+00  0.93800000000E+00  0.93800000000E+00 0.  1.
         11    1    1    2    0    0 -0.48464621097E-01 -0.65436309760E-01  0.10376993477E+01  0.10408894886E+01  0.51100000000E-03 0.  1.
    9000002    1    1    2    0    0  0.27134877423E+00  0.11495861431E+00  0.59134858057E-01  0.98498049306E+00  0.93800000000E+00 0.  1.
         22    1    1    2    0    0 -0.22288415313E+00 -0.49522304555E-01  0.29031657616E+01  0.29121300183E+01  0.00000000000E+00 0.  1.
</event>
<event>
 5    1  0.2173147E+002  0.1599666E+01  0.7818608E-02  0.3353726E+00
         11   -1    0    0    0    0  0.00000000000E+00  0.00000000000E+00  0.39999999674E+01  0.40000000000E+01  0.51100000000E-03 0.  1.
    9000002   -1    0    0    0    0 -0.00000000000E+00 -0.00000000000E+00  0.00000000000E+00  0.93800000000E+00  0.93800000000E+00 0.  1.
         11    1    1    2    0    0 -0.36307279239E-02 -0.16819070325E-02  0.59125860201E-01  0.59263306202E-01  0.51100000000E-03 0.  1.
    9000002    1    1    2    0    0  0.18683572730E+00  0.11642388868E+00  0.32132551771E-01  0.96402210127E+00  0.93800000000E+00 0.  1.
         22    1    1    2    0    0 -0.18320499937E+00 -0.11474198165E+00  0.39087415554E+01  0.39147145925E+01  0.00000000000E+00 0.  1.
</event>
<event>
 5    1  0.2173147E+002  0.1599085E+01  0.7818608E-02  0.3354358E+00
         11   -1    0    0    0    0  0.00000000000E+00  0.00000000000E+00  0.39999999674E+01  0.40000000000E+01  0.51100000000E-03 0. -1.
    9000002   -1    0    0    0    0 -0.00000000000E+00 -0.00000000000E+00  0.00000000000E+00  0.93800000000E+00  0.93800000000E+00 0. -1.
         11    1    1    2    0    0 -0.42803844158E-01 -0.35443861087E-01  0.95475105084E+00  0.95636722370E+00  0.51100000000E-03 0. -1.
    9000002    1    1    2    0    0  0.12701488749E+00  0.23758626088E+00  0.48745749562E-01  0.97713876246E+00  0.93800000000E+00 0. -1.
         22    1    1    2    0    0 -0.84211043328E-01 -0.20214239980E+00  0.29965031670E+01  0.30044940138E+01  0.00000000000E+00 0. -1.
</event>
<event>
 5    1  0.2173147E+002  0.1598488E+01  0.7818608E-02  0.3355006E+00
         11   -1    0    0    0    0  0.00000000000E+00  0.00000000000E+00  0.39999999674E+01  0.40000000000E+01  0.51100000000E-03 0.  1.
    9000002   -1    0    0    0    0 -0.00000000000E+00 -0.00000000000E+00  0.00000000000E+00  0.93800000000E+00  0.93800000000E+00 0.  1.
         11    1    1    2    0    0  0.25310987687E-01  0.29094516325E-01  0.43018700265E+00  0.43191232368E+00  0.51100000000E-03 0.  1.
    9000002    1    1    2    0    0  0.31250661751E-02 -0.24005378696E+00  0.39163497423E-01  0.96902702037E+00  0.93800000000E+00 0.  1.
         22    1    1    2    0    0 -0.28436053862E-01  0.21095927063E+00  0.35306494673E+01  0.35370606560E+01  0.00000000000E+00 0.  1.
</event>
<event>
 5    1  0.2173147E+002  0.1599214E+01  0.7818608E-02  0.3354217E+00
         11   -1    0    0    0    0  0.00000000000E+00  0.00000000000E+00  0.39999999674E+01  0.40000000000E+01  0.51100000000E-03 0.  1.
    9000002   -1    0    0    0    0 -0.00000000000E+00 -0.00000000000E+00  0.00000000000E+00  0.93800000000E+00  0.93800000000E+00 0. -1.
         11    1    1    2    0    0 -0.30928641156E+00 -0.24004972000E+00  0.24763279733E+01  0.25070864455E+01  0.51100000000E-03 0.  1.
    9000002    1    1    2    0    0  0.50007092895E+00  0.37466125303E+00  0.27437776526E+00  0.11599867010E+01  0.93800000000E+00 0. -1.
         22    1    1    2    0    0 -0.19078451739E+00 -0.13461153303E+00  0.12492942288E+01  0.12709268535E+01  0.00000000000E+00 0.  1.
</event>
<event>
 5    1  0.2173147E+002  0.1593614E+01  0.7818608E-02  0.3360323E+00
         11   -1    0    0    0    0  0.00000000000E+00  0.00000000000E+00  0.39999999674E+01  0.40000000000E+01  0.51100000000E-03 0. -1.
    9000002   -1    0    0    0    0 -0.00000000000E+00 -0.00000000000E+00  0.00000000000E+00  0.93800000000E+00  0.93800000000E+00 0. -1.
         11    1    1    2    0    0  0.30191077698E-01  0.98977453620E-01  0.47108188449E+00  0.48231363294E+00  0.51100000000E-03 0. -1.
    9000002    1    1    2    0    0  0.89770175150E-01 -0.43348025117E+00  0.13817769666E+00  0.10463751184E+01  0.93800000000E+00 0. -1.
         22    1    1    2    0    0 -0.11996125285E+00  0.33450279755E+00  0.33907403862E+01  0.34093112487E+01  0.00000000000E+00 0. -1.
</event>
<event>
 5    1  0.2173147E+002  0.1584401E+01  0.7818608E-02  0.3370470E+00
         11   -1    0    0    0    0  0.00000000000E+00  0.00000000000E+00  0.39999999674E+01  0.40000000000E+01  0.51100000000E-03 0. -1.
    9000002   -1    0    0    0    0 -0.00000000000E+00 -0.00000000000E+00  0.00000000000E+00  0.93800000000E+00  0.93800000000E+00 0. -1.
         11    1    1    2    0    0 -0.67839898758E-01 -0.56120593552E-01  0.63309677088E+00  0.63918976471E+00  0.51100000000E-03 0. -1.
    9000002    1    1    2    0    0 -0.96065657110E-01 -0.89195062606E-01  0.22645528535E-01  0.94738650488E+00  0.93800000000E+00 0. -1.
         22    1    1    2    0    0  0.16390555587E+00  0.14531565616E+00  0.33442576679E+01  0.33514237304E+01  0.00000000000E+00 0. -1.
</event>
<event>
 5    1  0.2173147E+002  0.1517815E+01  0.7818608E-02  0.3447698E+00
         11   -1    0    0    0    0  0.00000000000E+00  0.00000000000E+00  0.39999999674E+01  0.40000000000E+01  0.51100000000E-03 0. -1.
    9000002   -1    0    0    0    0 -0.00000000000E+00 -0.00000000000E+00  0.00000000000E+00  0.93800000000E+00  0.93800000000E+00 0.  1.
         11    1    1    2    0    0  0.34867761074E+00 -0.12390154404E+00  0.18568323146E+01  0.18933447057E+01  0.51100000000E-03 0. -1.
    9000002    1    1    2    0    0 -0.75690422944E-01 -0.39159455212E-01  0.66961778201E-01  0.94424063818E+00  0.93800000000E+00 0.  1.
         22    1    1    2    0    0 -0.27298718780E+00  0.16306099925E+00  0.20762058745E+01  0.21004146561E+01  0.00000000000E+00 0. -1.
</event>
<event>
 5    1  0.2173147E+002  0.1575605E+01  0.7818608E-02  0.3380273E+00
         11   -1    0    0    0    0  0.00000000000E+00  0.00000000000E+00  0.39999999674E+01  0.40000000000E+01  0.51100000000E-03 0. -1.
    9000002   -1    0    0    0    0 -0.00000000000E+00 -0.00000000000E+00  0.00000000000E+00  0.93800000000E+00  0.93800000000E+00 0.  1.
         11    1    1    2    0    0  0.10607386526E+00  0.12071324758E+00  0.25415623056E+01  0.25466375021E+01  0.51100000000E-03 0. -1.
    9000002    1    1    2    0    0 -0.89709042980E-01  0.81182289902E-01  0.27511577898E-01  0.94617078982E+00  0.93800000000E+00 0.  1.
         22    1    1    2    0    0 -0.16364822283E-01 -0.20189553748E+00  0.14309260839E+01  0.14451917081E+01  0.00000000000E+00 0. -1.
</event>
<event>
 5    1  0.2173147E+002  0.1599631E+01  0.7818608E-02  0.3353764E+00
         11   -1    0    0    0    0  0.00000000000E+00  0.00000000000E+00  0.39999999674E+01  0.40000000000E+01  0.51100000000E-03 0.  1.
    9000002   -1    0    0    0    0 -0.00000000000E+00 -0.00000000000E+00  0.00000000000E+00  0.93800000000E+00  0.93800000000E+00 0.  1.
         11    1    1    2    0    0  0.67620084239E-01 -0.48190007926E-01  0.11733085610E+01  0.11762431692E+01  0.51100000000E-03 0.  1.
    9000002    1    1    2    0    0 -0.22492043572E+00  0.18705659818E+00  0.57088172518E-01  0.98421665947E+00  0.93800000000E+00 0.  1.
         22    1    1    2    0    0  0.15730035148E+00 -0.13886659026E+00  0.27696032339E+01  0.27775401714E+01  0.00000000000E+00 0.  1.
</event>
<event>
 5    1  0.2173147E+002  0.1599622E+01  0.7818608E-02  0.3353773E+00
         11   -1    0    0    0    0  0.00000000000E+00  0.00000000000E+00  0.39999999674E+01  0.40000000000E+01  0.51100000000E-03 0. -1.
    9000002   -1    0    0    0    0 -0.00000000000E+00 -0.00000000000E+00  0.00000000000E+00  0.93800000000E+00  0.93800000000E+00 0. -1.
         11    1    1    2    0    0 -0.45181795755E-01  0.78358768494E-01  0.12198278711E+01  0.12231769241E+01  0.51100000000E-03 0. -1.
    9000002    1    1    2    0    0  0.17173108102E+00 -0.25839582855E+00  0.64321580384E-01  0.99007132779E+00  0.93800000000E+00 0. -1.
         22    1    1    2    0    0 -0.12654928526E+00  0.18003706006E+00  0.27158505158E+01  0.27247517481E+01  0.00000000000E+00 0. -1.
</event>
<event>
 5    1  0.2173147E+002  0.1531149E+01  0.7818608E-02  0.3431659E+00
         11   -1    0    0    0    0  0.00000000000E+00  0.00000000000E+00  0.39999999674E+01  0.40000000000E+01  0.51100000000E-03 0. -1.
    9000002   -1    0    0    0    0 -0.00000000000E+00 -0.00000000000E+00  0.00000000000E+00  0.93800000000E+00  0.93800000000E+00 0.  1.
         11    1    1    2    0    0 -0.15995713113E+00 -0.41398941870E+00  0.24643144185E+01  0.25039607299E+01  0.51100000000E-03 0. -1.
    9000002    1    1    2    0    0 -0.88527485866E-01  0.31702377830E+00  0.12914291119E+00  0.10024285926E+01  0.93800000000E+00 0.  1.
         22    1    1    2    0    0  0.24848461700E+00  0.96965640403E-01  0.14065426377E+01  0.14316106775E+01  0.00000000000E+00 0. -1.
</event>
<event>
 5    1  0.2173147E+002  0.1598441E+01  0.7818608E-02  0.3355058E+00
         11   -1    0    0    0    0  0.00000000000E+00  0.00000000000E+00  0.39999999674E+01  0.40000000000E+01  0.51100000000E-03 0.  1.
    9000002   -1    0    0    0    0 -0.00000000000E+00 -0.00000000000E+00  0.00000000000E+00  0.93800000000E+00  0.93800000000E+00 0. -1.
         11    1    1    2    0    0 -0.73599650094E-01 -0.16738490085E-01  0.13469722527E+01  0.13490854666E+01  0.51100000000E-03 0.  1.
    9000002    1    1    2    0    0  0.29173634185E+00 -0.40398667242E-01  0.58803115675E-01  0.98490809311E+00  0.93800000000E+00 0. -1.
         22    1    1    2    0    0 -0.21813669175E+00  0.57137157327E-01  0.25942245990E+01  0.26040064403E+01  0.00000000000E+00 0.  1.
</event>
<event>
 5    1  0.3681523E+002  0.1554028E+01  0.7818608E-02  0.3404823E+00
         11   -1    0    0    0    0  0.00000000000E+00  0.00000000000E+00  0.39999999674E+01  0.40000000000E+01  0.51100000000E-03 0.  1.
    9000002   -1    0    0    0    0 -0.00000000000E+00 -0.00000000000E+00  0.00000000000E+00  0.93800000000E+00  0.93800000000E+00 0. -1.
         11    1    1    2    0    0  0.24043285629E+00 -0.78351479384E-01  0.15076142734E+01  0.15286752341E+01  0.51100000000E-03 0.  1.
    9000002    1    1    2    0    0 -0.22860925592E-01 -0.38720278879E-01  0.35187161998E-01  0.93973614291E+00  0.93800000000E+00 0. -1.
         22    1    1    2    0    0 -0.21757193070E+00  0.11707175826E+00  0.24571985319E+01  0.24695886230E+01  0.00000000000E+00 0.  1.
</event>
<event>
 5    1  0.2173147E+002  0.1599425E+01  0.7818608E-02  0.3353987E+00
         11   -1    0    0    0    0  0.00000000000E+00  0.00000000000E+00  0.39999999674E+01  0.40000000000E+01  0.51100000000E-03 0.  1.
    9000002   -1    0    0    0    0 -0.00000000000E+00 -0.00000000000E+00  0.00000000000E+00  0.93800000000E+00  0.93800000000E+00 0.  1.
         11    1    1    2    0    0  0.22760014388E-01  0.52262080788E-01  0.10415052028E+01  0.10430640881E+01  0.51100000000E-03 0.  1.
    9000002    1    1    2    0    0 -0.12915359857E+00 -0.24550734378E+00  0.51428488472E-01  0.97951181580E+00  0.93800000000E+00 0.  1.
         22    1    1    2    0    0  0.10639358418E+00  0.19324526299E+00  0.29070662761E+01  0.29154240961E+01  0.00000000000E+00 0.  1.
</event>
<event>
 5    1  0.2173147E+002  0.1599652E+01  0.7818608E-02  0.3353741E+00
         11   -1    0    0    0    0  0.00000000000E+00  0.00000000000E+00  0.39999999674E+01  0.40000000000E+01  0.51100000000E-03 0. -1.
    9000002   -1    0    0    0    0 -0.00000000000E+00 -0.00000000000E+00  0.00000000000E+00  0.93800000000E+00  0.93800000000E+00 0. -1.
         11    1    1    2    0    0  0.55753097650E-01  0.30518209092E+00  0.22606800577E+01  0.22818674591E+01  0.51100000000E-03 0. -1.
    9000002    1    1    2    0    0 -0.10176147953E+00 -0.52008271574E+00  0.19328099865E+00  0.10945514946E+01  0.93800000000E+00 0. -1.
         22    1    1    2    0    0  0.46008381879E-01  0.21490062482E+00  0.15460389110E+01  0.15615810463E+01  0.00000000000E+00 0. -1.
</event>
<event>
 5    1  0.2173147E+002  0.1588814E+01  0.7818608E-02  0.3365594E+00
         11   -1    0    0    0    0  0.00000000000E+00  0.00000000000E+00  0.39999999674E+01  0.40000000000E+01  0.51100000000E-03 0.  1.
    9000002   -1    0    0    0    0 -0.00000000000E+00 -0.00000000000E+00  0.00000000000E+00  0.93800000000E+00  0.93800000000E+00 0. -1.
         11    1    1    2    0    0  0.49024196506E-02 -0.16629199727E-01  0.17693069496E-01  0.24776396655E-01  0.51100000000E-03 0.  1.
    9000002    1    1    2    0    0 -0.14732460108E+00 -0.22988135490E+00  0.58050850143E-01  0.97865411490E+00  0.93800000000E+00 0. -1.
         22    1    1    2    0    0  0.14242218143E+00  0.24651055463E+00  0.39242560477E+01  0.39345694884E+01  0.00000000000E+00 0.  1.
</event>
<event>
 5    1  0.2173147E+002  0.1599675E+01  0.7818608E-02  0.3353717E+00
         11   -1    0    0    0    0  0.00000000000E+00  0.00000000000E+00  0.39999999674E+01  0.40000000000E+01  0.51100000000E-03 0. -1.
    9000002   -1    0    0    0    0 -0.00000000000E+00 -0.00000000000E+00  0.00000000000E+00  0.93800000000E+00  0.93800000000E+00 0.  1.
         11    1    1    2    0    0  0.34527017548E-01  0.20752762923E-01  0.49735471767E+00  0.49898373563E+00  0.51100000000E-03 0. -1.
    9000002    1    1    2    0    0 -0.26728755033E+00 -0.17149126182E+00  0.67395075958E-01  0.99259154928E+00  0.93800000000E+00 0.  1.
         22    1    1    2    0    0  0.23276053279E+00  0.15073849889E+00  0.34352501737E+01  0.34464247151E+01  0.00000000000E+00 0. -1.
</event>
<event>
 5    1  0.2173147E+002  0.1551438E+01  0.7818608E-02  0.3407818E+00
         11   -1    0    0    0    0  0.00000000000E+00  0.00000000000E+00  0.39999999674E+01  0.40000000000E+01  0.51100000000E-03 0. -1.
    9000002   -1    0    0    0    0 -0.00000000000E+00 -0.00000000000E+00  0.00000000000E+00  0.93800000000E+00  0.93800000000E+00 0. -1.
         11    1    1    2    0    0  0.20672167286E+00 -0.30301086784E-01  0.90277104390E+00  0.92663251870E+00  0.51100000000E-03 0. -1.
    9000002    1    1    2    0    0  0.29073043437E-01 -0.14285841273E+00  0.50477043045E-01  0.95060280865E+00  0.93800000000E+00 0. -1.
         22    1    1    2    0    0 -0.23579471630E+00  0.17315949951E+00  0.30467518804E+01  0.30607646726E+01  0.00000000000E+00 0. -1.
</event>
<event>
 5    1  0.2173147E+002  0.1599677E+01  0.7818608E-02  0.3353714E+00
         11   -1    0    0    0    0  0.00000000000E+00  0.00000000000E+00  0.39999999674E+01  0.40000000000E+01  0.51100000000E-03 0. -1.
    9000002   -1    0    0    0    0 -0.00000000000E+00 -0.00000000000E+00  0.00000000000E+00  0.93800000000E+00  0.93800000000E+00 0. -1.
         11    1    1    2    0    0  0.67160466448E-01  0.53798455071E-02  0.77841875535E+00  0.78132931009E+00  0.51100000000E-03 0. -1.
    9000002    1    1    2    0    0 -0.33623219598E+00 -0.28017037211E-01  0.76225311490E-01  0.99974563870E+00  0.93800000000E+00 0. -1.
         22    1    1    2    0    0  0.26907172953E+00  0.22637191704E-01  0.31453559005E+01  0.31569250512E+01  0.00000000000E+00 0. -1.
</event>
<event>
 5    1  0.2173147E+002  0.1599677E+01  0.7818608E-02  0.3353714E+00
         11   -1    0    0    0    0  0.00000000000E+00  0.00000000000E+00  0.39999999674E+01  0.40000000000E+01  0.51100000000E-03 0.  1.
    9000002   -1    0    0    0    0 -0.00000000000E+00 -0.00000000000E+00  0.00000000000E+00  0.93800000000E+00  0.93800000000E+00 0.  1.
         11    1    1    2    0    0 -0.15040147901E+00  0.30671880328E+00  0.19654224836E+01  0.19948891772E+01  0.51100000000E-03 0. -1.
    9000002    1    1    2    0    0  0.28346400505E+00 -0.57854484102E+00  0.29249008242E+00  0.11749299654E+01  0.93800000000E+00 0.  1.
         22    1    1    2    0    0 -0.13306252604E+00  0.27182603774E+00  0.17420874013E+01  0.17681808574E+01  0.00000000000E+00 0.  1.
</event>
<event>
 5    1  0.2173147E+002  0.1520882E+01  0.7818608E-02  0.3443982E+00
         11   -1    0    0    0    0  0.00000000000E+00  0.00000000000E+00  0.39999999674E+01  0.40000000000E+01  0.51100000000E-03 0. -1.
    9000002   -1    0    0    0    0 -0.00000000000E+00 -0.00000000000E+00  0.00000000000E+00  0.93800000000E+00  0.93800000000E+00 0. -1.
         11    1    1    2    0    0  0.60835400524E-02 -0.27465521529E+00  0.86431650778E+00  0.90692655904E+00  0.51100000000E-03 0. -1.
    9000002    1    1    2    0    0  0.26660001153E-01 -0.28429989614E-01  0.60435490223E-01  0.94075260746E+00  0.93800000000E+00 0. -1.
         22    1    1    2    0    0 -0.32743541205E-01  0.30308520491E+00  0.30752479694E+01  0.30903208335E+01  0.00000000000E+00 0.  1.
</event>
<event>
 5    1  0.2173147E+002  0.1574455E+01  0.7818608E-02  0.3381564E+00
         11   -1    0    0    0    0  0.00000000000E+00  0.00000000000E+00  0.39999999674E+01  0.40000000000E+01  0.51100000000E-03 0.  1.
    9000002   -1    0    0    0    0 -0.00000000000E+00 -0.00000000000E+00  0.00000000000E+00  0.93800000000E+00  0.93800000000E+00 0. -1.
         11    1    1    2    0    0 -0.41781988494E-01  0.18937531584E+00  0.74625366150E+00  0.77104055227E+00  0.51100000000E-03 0.  1.
    9000002    1    1    2    0    0  0.24365499268E+00 -0.19998406474E+00  0.86558235122E-01  0.99332658762E+00  0.93800000000E+00 0. -1.
         22    1    1    2    0    0 -0.20187300419E+00  0.10608748892E-01  0.31671880707E+01  0.31736328601E+01  0.00000000000E+00 0.  1.
</event>
<event>
 5    1  0.2173147E+002  0.1599394E+01  0.7818608E-02  0.3354021E+00
         11   -1    0    0    0    0  0.00000000000E+00  0.00000000000E+00  0.39999999674E+01  0.40000000000E+01  0.51100000000E-03 0.  1.
    9000002   -1    0    0    0    0 -0.00000000000E+00 -0.00000000000E+00  0.00000000000E+00  0.93800000000E+00  0.93800000000E+00 0. -1.
         11    1    1    2    0    0 -0.51777575276E-01 -0.24466497604E-01  0.89722133343E+00  0.89904722295E+00  0.51100000000E-03 0.  1.
    9000002    1    1    2    0    0  0.22221418898E+00  0.18202413575E+00  0.55201022552E-01  0.98254927849E+00  0.93800000000E+00 0. -1.
         22    1    1    2    0    0 -0.17043661370E+00 -0.15755763815E+00  0.30475776114E+01  0.30564034986E+01  0.00000000000E+00 0.  1.
</event>
<event>
 5    1  0.2173147E+002  0.1598237E+01  0.7818608E-02  0.3355279E+00
         11   -1    0    0    0    0  0.00000000000E+00  0.00000000000E+00  0.39999999674E+01  0.40000000000E+01  0.51100000000E-03 0.  1.
    9000002   -1    0    0    0    0 -0.00000000000E+00 -0.00000000000E+00  0.00000000000E+00  0.93800000000E+00  0.93800000000E+00 0.  1.
         11    1    1    2    0    0 -0.66717694668E-01  0.15549332194E-01  0.94660402335E+00  0.94907980204E+00  0.51100000000E-03 0.  1.
    9000002    1    1    2    0    0  0.19509992210E+00 -0.20454238044E+00  0.54337778732E-01  0.98117182960E+00  0.93800000000E+00 0.  1.
         22    1    1    2    0    0 -0.12838222743E+00  0.18899304825E+00  0.29990581653E+01  0.30077483684E+01  0.00000000000E+00 0.  1.
</event>
<event>
 5    1  0.2173147E+002  0.1599574E+01  0.7818608E-02  0.3353826E+00
         11   -1    0    0    0    0  0.00000000000E+00  0.00000000000E+00  0.39999999674E+01  0.40000000000E+01  0.51100000000E-03 0. -1.
    9000002   -1    0    0    0    0 -0.00000000000E+00 -0.00000000000E+00  0.00000000000E+00  0.93800000000E+00  0.93800000000E+00 0.  1.
         11    1    1    2    0    0 -0.21503342348E-01 -0.19077599562E-01  0.29002107711E+00  0.29144267845E+00  0.51100000000E-03 0. -1.
    9000002    1    1    2    0    0  0.20553302746E+00  0.24708317231E+00  0.69133155109E-01  0.99394029627E+00  0.93800000000E+00 0.  1.
         22    1    1    2    0    0 -0.18402968511E+00 -0.22800557275E+00  0.36408457351E+01  0.36526170253E+01  0.00000000000E+00 0. -1.
</event>
<event>
 5    1  0.2173147E+002  0.1599659E+01  0.7818608E-02  0.3353733E+00
         11   -1    0    0    0    0  0.00000000000E+00  0.00000000000E+00  0.39999999674E+01  0.40000000000E+01  0.51100000000E-03 0. -1.
    9000002   -1    0    0    0    0 -0.00000000000E+00 -0.00000000000E+00  0.00000000000E+00  0.93800000000E+00  0.93800000000E+00 0. -1.
         11    1    1    2    0    0 -0.16797651996E+00  0.17533681491E+00  0.14250698483E+01  0.14456083300E+01  0.51100000000E-03 0. -1.
    9000002    1    1    2    0    0  0.43564695515E+00 -0.46932628450E+00  0.28871192489E+00  0.11718592093E+01  0.93800000000E+00 0. -1.
         22    1    1    2    0    0 -0.26767043519E+00  0.29398946959E+00  0.22862181941E+01  0.23205324607E+01  0.00000000000E+00 0. -1.
</event>
<event>
 5    1  0.2173147E+002  0.1599650E+01  0.7818608E-02  0.3353743E+00
         11   -1    0    0    0    0  0.00000000000E+00  0.00000000000E+00  0.39999999674E+01  0.40000000000E+01  0.51100000000E-03 0. -1.
    9000002   -1    0    0    0    0 -0.00000000000E+00 -0.00000000000E+00  0.00000000000E+00  0.93800000000E+00  0.93800000000E+00 0. -1.
         11    1    1    2    0    0 -0.98726828321E-02  0.10546169686E-01  0.19222049501E+00  0.19276325217E+00  0.51100000000E-03 0. -1.
    9000002    1    1    2    0    0  0.20020110242E+00 -0.26927917636E+00  0.75397695130E-01  0.99905984238E+00  0.93800000000E+00 0. -1.
         22    1    1    2    0    0 -0.19032841959E+00  0.25873300667E+00  0.37323817772E+01  0.37461769055E+01  0.00000000000E+00 0. -1.
</event>
<event>
 5    1  0.2173147E+002  0.1599560E+01  0.7818608E-02  0.3353841E+00
         11   -1    0    0    0    0  0.00000000000E+00  0.00000000000E+00  0.39999999674E+01  0.40000000000E+01  0.51100000000E-03 0.  1.
    9000002   -1    0    0    0    0 -0.00000000000E+00 -0.00000000000E+00  0.00000000000E+00  0.93800000000E+00  0.93800000000E+00 0. -1.
         11    1    1    2    0    0  0.98121598489E-02 -0.80607721791E-01  0.84941664098E+00  0.85328938490E+00  0.51100000000E-03 0.  1.
    9000002    1    1    2    0    0 -0.12857549901E-01  0.33493357520E+00  0.75302219962E-01  0.99892954742E+00  0.93800000000E+00 0. -1.
         22    1    1    2    0    0  0.30453900520E-02 -0.25432585341E+00  0.30752811064E+01  0.30857810677E+01  0.00000000000E+00 0.  1.
</event>
<event>
 5    1  0.2173147E+002  0.1599654E+01  0.7818608E-02  0.3353739E+00
         11   -1    0    0    0    0  0.00000000000E+00  0.00000000000E+00  0.39999999674E+01  0.40000000000E+01  0.51100000000E-03 0. -1.
    9000002   -1    0    0    0    0 -0.00000000000E+00 -0.00000000000E+00  0.00000000000E+00  0.93800000000E+00  0.93800000000E+00 0.  1.
         11    1    1    2    0    0 -0.69394330869E-02  0.40012640896E+00  0.21800589409E+01  0.22164851784E+01  0.51100000000E-03 0. -1.
    9000002    1    1    2    0    0  0.19132067656E-01 -0.66963439142E+00  0.31825439998E+00  0.11957868193E+01  0.93800000000E+00 0.  1.
         22    1    1    2    0    0 -0.12192634570E-01  0.26950798245E+00  0.15016866265E+01  0.15257280023E+01  0.00000000000E+00 0. -1.
</event>
<event>
 5    1  0.2173147E+002  0.1599515E+01  0.7818608E-02  0.3353890E+00
         11   -1    0    0    0    0  0.00000000000E+00  0.00000000000E+00  0.39999999674E+01  0.40000000000E+01  0.51100000000E-03 0. -1.
    9000002   -1    0    0    0    0 -0.00000000000E+00 -0.00000000000E+00  0.00000000000E+00  0.93800000000E+00  0.93800000000E+00 0.  1.
         11    1    1    2    0    0 -0.23726840309E+00  0.11256349304E+00  0.18738797907E+01  0.18921925288E+01  0.51100000000E-03 0. -1.
    9000002    1    1    2    0    0  0.45306600185E+00 -0.23578818327E+00  0.17905071237E+00  0.10829441477E+01  0.93800000000E+00 0.  1.
         22    1    1    2    0    0 -0.21579759876E+00  0.12322469023E+00  0.19470694643E+01  0.19628633235E+01  0.00000000000E+00 0. -1.
</event>
<event>
 5    1  0.2173147E+002  0.1470788E+01  0.7818608E-02  0.3506768E+00
         11   -1    0    0    0    0  0.00000000000E+00  0.00000000000E+00  0.39999999674E+01  0.40000000000E+01  0.51100000000E-03 0. -1.
    9000002   -1    0    0    0    0 -0.00000000000E+00 -0.00000000000E+00  0.00000000000E+00  0.93800000000E+00  0.93800000000E+00 0. -1.
         11    1    1    2    0    0  0.30994156703E+00  0.22008176529E+00  0.13613687918E+01  0.14134443770E+01  0.51100000000E-03 0. -1.
    9000002    1    1    2    0    0 -0.13772896253E+00  0.28429347752E+00  0.17647377477E+00  0.10053750751E+01  0.93800000000E+00 0. -1.
         22    1    1    2    0    0 -0.17221260450E+00 -0.50437524281E+00  0.24621574008E+01  0.25191805479E+01  0.00000000000E+00 0. -1.
</event>
<event>
 5    1  0.2173147E+002  0.1599668E+01  0.7818608E-02  0.3353724E+00
         11   -1    0    0    0    0  0.00000000000E+00  0.00000000000E+00  0.39999999674E+01  0.40000000000E+01  0.51100000000E-03 0.  1.
    9000002   -1    0    0    0    0 -0.00000000000E+00 -0.00000000000E+00  0.00000000000E+00  0.93800000000E+00  0.93800000000E+00 0. -1.
         11    1    1    2    0    0 -0.15504749441E+00 -0.16378801359E+00  0.17448404589E+01  0.17593563389E+01  0.51100000000E-03 0.  1.
    9000002    1    1    2    0    0  0.33392300482E+00  0.36386004194E+00  0.16679956002E+00  0.10731098716E+01  0.93800000000E+00 0. -1.
         22    1    1    2    0    0 -0.17887551041E+00 -0.20007202834E+00  0.20883599484E+01  0.21055337895E+01  0.00000000000E+00 0.  1.
</event>
<event>
 5    1  0.2173147E+002  0.1599264E+01  0.7818608E-02  0.3354163E+00
         11   -1    0    0    0    0  0.00000000000E+00  0.00000000000E+00  0.39999999674E+01  0.40000000000E+01  0.51100000000E-03 0.  1.
    9000002   -1    0    0    0    0 -0.00000000000E+00 -0.00000000000E+00  0.00000000000E+00  0.93800000000E+00  0.93800000000E+00 0. -1.
         11    1    1    2    0    0 -0.29568954485E-02 -0.42280147034E-01  0.80462806091E+00  0.80574371334E+00  0.51100000000E-03 0.  1.
    9000002    1    1    2    0    0 -0.39126717580E-01  0.28779059765E+00  0.56546642257E-01  0.98356283524E+00  0.93800000000E+00 0. -1.
         22    1    1    2    0    0  0.42083613029E-01 -0.24551045061E+00  0.31388252642E+01  0.31486934514E+01  0.00000000000E+00 0.  1.
</event>
<event>
 5    1  0.2173147E+002  0.1599333E+01  0.7818608E-02  0.3354087E+00
         11   -1    0    0    0    0  0.00000000000E+00  0.00000000000E+00  0.39999999674E+01  0.40000000000E+01  0.51100000000E-03 0.  1.
    9000002   -1    0    0    0    0 -0.00000000000E+00 -0.00000000000E+00  0.00000000000E+00  0.93800000000E+00  0.93800000000E+00 0. -1.
         11    1    1    2    0    0  0.10566776061E+00  0.64758268665E-01  0.14972455100E+01  0.15023660297E+01  0.51100000000E-03 0.  1.
    9000002    1    1    2    0    0 -0.31400999004E+00 -0.12672135237E+00  0.77061127613E-01  0.10002214717E+01  0.93800000000E+00 0. -1.
         22    1    1    2    0    0  0.20834222943E+00  0.61963083704E-01  0.24256933298E+01  0.24354124986E+01  0.00000000000E+00 0.  1.
</event>
<event>
 5    1  0.2173147E+002  0.1599416E+01  0.7818608E-02  0.3353998E+00
         11   -1    0    0    0    0  0.00000000000E+00  0.00000000000E+00  0.39999999674E+01  0.40000000000E+01  0.51100000000E-03 0.  1.
    9000002   -1    0    0    0    0 -0.00000000000E+00 -0.00000000000E+00  0.00000000000E+00  0.93800000000E+00  0.93800000000E+00 0.  1.
         11    1    1    2    0    0 -0.40216264906E-01 -0.11146760588E+00  0.11159559882E+01  0.11222301029E+01  0.51100000000E-03 0.  1.
    9000002    1    1    2    0    0  0.14027947837E+00  0.32909358562E+00  0.86098308183E-01  0.10075901145E+01  0.93800000000E+00 0.  1.
         22    1    1    2    0    0 -0.10006321346E+00 -0.21762597974E+00  0.27979456710E+01  0.28081797826E+01  0.00000000000E+00 0.  1.
</event>
<event>
 5    1  0.2173147E+002  0.1593391E+01  0.7818608E-02  0.3360568E+00
         11   -1    0    0    0    0  0.00000000000E+00  0.00000000000E+00  0.39999999674E+01  0.40000000000E+01  0.51100000000E-03 0.  1.
    9000002   -1    0    0    0    0 -0.00000000000E+00 -0.00000000000E+00  0.00000000000E+00  0.93800000000E+00  0.93800000000E+00 0.  1.
         11    1    1    2    0    0  0.82175516352E-01  0.22795574250E-01  0.85815431546E+00  0.86238132166E+00  0.51100000000E-03 0.  1.
    9000002    1    1    2    0    0 -0.11767942464E+00 -0.35584589707E+00  0.99617670273E-01  0.10150085860E+01  0.93800000000E+00 0.  1.
         22    1    1    2    0    0  0.35503908286E-01  0.33305032282E+00  0.30422279816E+01  0.30606100923E+01  0.00000000000E+00 0.  1.
</event>
<event>
 5    1  0.2173147E+002  0.1599634E+01  0.7818608E-02  0.3353761E+00
         11   -1    0    0    0    0  0.00000000000E+00  0.00000000000E+00  0.39999999674E+01  0.40000000000E+01  0.51100000000E-03 0.  1.
    9000002   -1    0    0    0    0 -0.00000000000E+00 -0.00000000000E+00  0.00000000000E+00  0.93800000000E+00  0.93800000000E+00 0.  1.
         11    1    1    2    0    0 -0.52528237381E-01  0.15782766199E+00  0.17813538827E+01  0.17891033238E+01  0.51100000000E-03 0.  1.
    9000002    1    1    2    0    0  0.12539991010E+00 -0.35968650853E+00  0.97675200600E-01  0.10170958493E+01  0.93800000000E+00 0.  1.
         22    1    1    2    0    0 -0.72871672717E-01  0.20185884653E+00  0.21209708840E+01  0.21318008269E+01  0.00000000000E+00 0.  1.
</event>
<event>
 5    1  0.2173147E+002  0.1598110E+01  0.7818608E-02  0.3355417E+00
         11   -1    0    0    0    0  0.00000000000E+00  0.00000000000E+00  0.39999999674E+01  0.40000000000E+01  0.51100000000E-03 0.  1.
    9000002   -1    0    0    0    0 -0.00000000000E+00 -0.00000000000E+00  0.00000000000E+00  0.93800000000E+00  0.93800000000E+00 0. -1.
         11    1    1    2    0    0  0.15731748715E-01  0.57618141952E-01  0.79912133559E+00  0.80135042791E+00  0.51100000000E-03 0.  1.
    9000002    1    1    2    0    0 -0.24730585540E+00 -0.20160591210E+00  0.69280356813E-01  0.99320133797E+00  0.93800000000E+00 0. -1.
         22    1    1    2    0    0  0.23157410669E+00  0.14398777015E+00  0.31315982750E+01  0.31434482341E+01  0.00000000000E+00 0.  1.
</event>
<event>
 5    1  0.2173147E+002  0.1590330E+01  0.7818608E-02  0.3363926E+00
         11   -1    0    0    0    0  0.00000000000E+00  0.00000000000E+00  0.39999999674E+01  0.40000000000E+01  0.51100000000E-03 0. -1.
    9000002   -1    0    0    0    0 -0.00000000000E+00 -0.00000000000E+00  0.00000000000E+00  0.93800000000E+00  0.93800000000E+00 0. -1.
         11    1    1    2    0    0 -0.66376480059E-01 -0.94473169574E-02  0.10010611152E+01  0.10033038954E+01  0.51100000000E-03 0. -1.
    9000002    1    1    2    0    0 -0.13615989600E+00  0.54775524973E-02  0.19161119311E-01  0.94804043656E+00  0.93800000000E+00 0. -1.
         22    1    1    2    0    0  0.20253637606E+00  0.39697644601E-02  0.29797777328E+01  0.29866556681E+01  0.00000000000E+00 0. -1.
</event>
<event>
 5    1  0.2173147E+002  0.1599677E+01  0.7818608E-02  0.3353714E+00
         11   -1    0    0    0    0  0.00000000000E+00  0.00000000000E+00  0.39999999674E+01  0.40000000000E+01  0.51100000000E-03 0.  1.
    9000002   -1    0    0    0    0 -0.00000000000E+00 -0.00000000000E+00  0.00000000000E+00  0.93800000000E+00  0.93800000000E+00 0.  1.
         11    1    1    2    0    0  0.17102105036E+00 -0.22956431803E+00  0.22198596735E+01  0.22382415435E+01  0.51100000000E-03 0.  1.
    9000002    1    1    2    0    0 -0.29533723272E+00  0.39765156754E+00  0.16782588551E+00  0.10739461709E+01  0.93800000000E+00 0.  1.
         22    1    1    2    0    0  0.12431618237E+00 -0.16808724951E+00  0.16123144084E+01  0.16258122856E+01  0.00000000000E+00 0.  1.
</event>
<event>
 5    1  0.2173147E+002  0.1569102E+01  0.7818608E-02  0.3387597E+00
         11   -1    0    0    0    0  0.00000000000E+00  0.00000000000E+00  0.39999999674E+01  0.40000000000E+01  0.51100000000E-03 0.  1.
    9000002   -1    0    0    0    0 -0.00000000000E+00 -0.00000000000E+00  0.00000000000E+00  0.93800000000E+00  0.93800000000E+00 0. -1.
         11    1    1    2    0    0 -0.16798971565E+00  0.35152649161E-01  0.10679669672E+01  0.10816699854E+01  0.51100000000E-03 0.  1.
    9000002    1    1    2    0    0 -0.26741236110E-01  0.10982989675E+00  0.31143994447E-01  0.94529976638E+00  0.93800000000E+00 0. -1.
         22    1    1    2    0    0  0.19473095176E+00 -0.14498254592E+00  0.29008890058E+01  0.29110302482E+01  0.00000000000E+00 0.  1.
</event>
<event>
 5    1  0.2173147E+002  0.1437305E+01  0.7818608E-02  0.3551385E+00
         11   -1    0    0    0    0  0.00000000000E+00  0.00000000000E+00  0.39999999674E+01  0.40000000000E+01  0.51100000000E-03 0. -1.
    9000002   -1    0    0    0    0 -0.00000000000E+00 -0.00000000000E+00  0.00000000000E+00  0.93800000000E+00  0.93800000000E+00 0. -1.
         11    1    1    2    0    0  0.56415062945E+00 -0.64164074223E-01  0.20206115865E+00  0.60267066801E+00  0.51100000000E-03 0. -1.
    9000002    1    1    2    0    0 -0.10605943679E+01  0.24680769695E+00  0.20113357133E+01  0.24720618528E+01  0.93800000000E+00 0. -1.
         22    1    1    2    0    0  0.49644373847E+00 -0.18264362273E+00  0.17866030954E+01  0.18632674792E+01  0.00000000000E+00 0.  1.
</event>
<event>
 5    1  0.2173147E+002  0.1599357E+01  0.7818608E-02  0.3354061E+00
         11   -1    0    0    0    0  0.00000000000E+00  0.00000000000E+00  0.39999999674E+01  0.40000000000E+01  0.51100000000E-03 0. -1.
    9000002   -1    0    0    0    0 -0.00000000000E+00 -0.00000000000E+00  0.00000000000E+00  0.93800000000E+00  0.93800000000E+00 0. -1.
         11    1    1    2    0    0 -0.68562551213E+00 -0.22591476123E-01  0.18701944916E+01  0.19920392605E+01  0.51100000000E-03 0. -1.
    9000002    1    1    2    0    0  0.10994244172E+01  0.64671476802E-01  0.10462829868E+01  0.17853482958E+01  0.93800000000E+00 0. -1.
         22    1    1    2    0    0 -0.41379890508E+00 -0.42080000680E-01  0.10835224890E+01  0.11606124437E+01  0.00000000000E+00 0. -1.
</event>
<event>
 5    1  0.2173147E+002  0.1599660E+01  0.7818608E-02  0.3353733E+00
         11   -1    0    0    0    0  0.00000000000E+00  0.00000000000E+00  0.39999999674E+01  0.40000000000E+01  0.51100000000E-03 0.  1.
    9000002   -1    0    0    0    0 -0.00000000000E+00 -0.00000000000E+00  0.00000000000E+00  0.93800000000E+00  0.93800000000E+00 0. -1.
         11    1    1    2    0    0 -0.38722505958E-01  0.26782278908E-01  0.70817955823E+00  0.70974310194E+00  0.51100000000E-03 0.  1.
    9000002    1    1    2    0    0  0.23087678451E+00 -0.13427581168E+00  0.47463942713E-01  0.97643786750E+00  0.93800000000E+00 0. -1.
         22    1    1    2    0    0 -0.19215427856E+00  0.10749353277E+00  0.32443564664E+01  0.32518190306E+01  0.00000000000E+00 0.  1.
</event>
<event>
 5    1  0.2173147E+002  0.1570359E+01  0.7818608E-02  0.3386177E+00
         11   -1    0    0    0    0  0.00000000000E+00  0.00000000000E+00  0.39999999674E+01  0.40000000000E+01  0.51100000000E-03 0.  1.
    9000002   -1    0    0    0    0 -0.00000000000E+00 -0.00000000000E+00  0.00000000000E+00  0.93800000000E+00  0.93800000000E+00 0. -1.
         11    1    1    2    0    0 -0.19286688489E+00 -0.24919870677E-01  0.21032098520E+01  0.21121814738E+01  0.51100000000E-03 0.  1.
    9000002    1    1    2    0    0  0.18698775851E-01 -0.13023346969E+00  0.33279681752E-01  0.94776681629E+00  0.93800000000E+00 0. -1.
         22    1    1    2    0    0  0.17416810904E+00  0.15515334037E+00  0.18635104336E+01  0.18780517100E+01  0.00000000000E+00 0.  1.
</event>
<event>
 5    1  0.2173147E+002  0.1599669E+01  0.7818608E-02  0.3353723E+00
         11   -1    0    0    0    0  0.00000000000E+00  0.00000000000E+00  0.39999999674E+01  0.40000000000E+01  0.51100000000E-03 0. -1.
    9000002   -1    0    0    0    0 -0.00000000000E+00 -0.00000000000E+00  0.00000000000E+00  0.93800000000E+00  0.93800000000E+00 0. -1.
         11    1    1    2    0    0 -0.63762565929E-02  0.63486284906E-03  0.55072004227E-01  0.55445887761E-01  0.51100000000E-03 0. -1.
    9000002    1    1    2    0    0  0.44082757676E+00 -0.38248615638E-03  0.13181591078E+00  0.10447720005E+01  0.93800000000E+00 0. -1.
         22    1    1    2    0    0 -0.43445132017E+00 -0.25237669269E-03  0.38131120523E+01  0.38377821117E+01  0.00000000000E+00 0. -1.
</event>
<event>
 5    1  0.2173147E+002  0.1599639E+01  0.7818608E-02  0.3353755E+00
         11   -1    0    0    0    0  0.00000000000E+00  0.00000000000E+00  0.39999999674E+01  0.40000000000E+01  0.51100000000E-03 0. -1.
    9000002   -1    0    0    0    0 -0.00000000000E+00 -0.00000000000E+00  0.00000000000E+00  0.93800000000E+00  0.93800000000E+00 0. -1.
         11    1    1    2    0    0 -0.12789897525E-01 -0.18249168096E+00  0.17930518749E+01  0.18023601422E+01  0.51100000000E-03 0. -1.
    9000002    1    1    2    0    0  0.38433317709E-01  0.38470157290E+00  0.10068383753E+00  0.10195360000E+01  0.93800000000E+00 0. -1.
         22    1    1    2    0    0 -0.25643420184E-01 -0.20220989194E+00  0.21062642549E+01  0.21161038578E+01  0.00000000000E+00 0.  1.
</event>
<event>
 5    1  0.2173147E+002  0.1566390E+01  0.7818608E-02  0.3390670E+00
         11   -1    0    0    0    0  0.00000000000E+00  0.00000000000E+00  0.39999999674E+01  0.40000000000E+01  0.51100000000E-03 0. -1.
    9000002   -1    0    0    0    0 -0.00000000000E+00 -0.00000000000E+00  0.00000000000E+00  0.93800000000E+00  0.93800000000E+00 0. -1.
         11    1    1    2    0    0  0.15926991594E+00 -0.14468946955E+00  0.15948318817E+01  0.16092827411E+01  0.51100000000E-03 0. -1.
    9000002    1    1    2    0    0 -0.65777218718E-01 -0.61537994809E-01  0.30012352095E-01  0.94279282379E+00  0.93800000000E+00 0. -1.
         22    1    1    2    0    0 -0.93492697220E-01  0.20622746436E+00  0.23751557335E+01  0.23859244351E+01  0.00000000000E+00 0. -1.
</event>
<event>
 5    1  0.2173147E+002  0.1599670E+01  0.7818608E-02  0.3353722E+00
         11   -1    0    0    0    0  0.00000000000E+00  0.00000000000E+00  0.39999999674E+01  0.40000000000E+01  0.51100000000E-03 0. -1.
    9000002   -1    0    0    0    0 -0.00000000000E+00 -0.00000000000E+00  0.00000000000E+00  0.93800000000E+00  0.93800000000E+00 0.  1.
         11    1    1    2    0    0 -0.21084259305E-01 -0.32003522754E-01  0.66530811702E+00  0.66641122676E+00  0.51100000000E-03 0. -1.
    9000002    1    1    2    0    0  0.13502404238E+00  0.20108534776E+00  0.38954368664E-01  0.96955054120E+00  0.93800000000E+00 0.  1.
         22    1    1    2    0    0 -0.11393978308E+00 -0.16908182501E+00  0.32957374817E+01  0.33020382320E+01  0.00000000000E+00 0. -1.
</event>
<event>
 5    1  0.2173147E+002  0.1598811E+01  0.7818608E-02  0.3354655E+00
         11   -1    0    0    0    0  0.00000000000E+00  0.00000000000E+00  0.39999999674E+01  0.40000000000E+01  0.51100000000E-03 0.  1.
    9000002   -1    0    0    0    0 -0.00000000000E+00 -0.00000000000E+00  0.00000000000E+00  0.93800000000E+00  0.93800000000E+00 0.  1.
         11    1    1    2    0    0  0.20943696376E-01  0.34858500504E-01  0.54876603724E+00  0.55027100434E+00  0.51100000000E-03 0.  1.
    9000002    1    1    2    0    0 -0.22436126783E+00 -0.90873857596E-01  0.39561469600E-01  0.96953862552E+00  0.93800000000E+00 0.  1.
         22    1    1    2    0    0  0.20341757145E+00  0.56015357092E-01  0.34116724605E+01  0.34181903701E+01  0.00000000000E+00 0.  1.
</event>
<event>
 5    1  0.2173147E+002  0.1595883E+01  0.7818608E-02  0.3357843E+00
         11   -1    0    0    0    0  0.00000000000E+00  0.00000000000E+00  0.39999999674E+01  0.40000000000E+01  0.51100000000E-03 0. -1.
    9000002   -1    0    0    0    0 -0.00000000000E+00 -0.00000000000E+00  0.00000000000E+00  0.93800000000E+00  0.93800000000E+00 0. -1.
         11    1    1    2    0    0 -0.72332195828E-01  0.43438890938E-01  0.11690731712E+01  0.11721139981E+01  0.51100000000E-03 0. -1.
    9000002    1    1    2    0    0  0.23946266132E+00  0.81787484404E-01  0.45454002142E-01  0.97259530385E+00  0.93800000000E+00 0. -1.
         22    1    1    2    0    0 -0.16713046549E+00 -0.12522637534E+00  0.27854727941E+01  0.27932906981E+01  0.00000000000E+00 0. -1.
</event>
<event>
 5    1  0.2173147E+002  0.1543404E+01  0.7818608E-02  0.3417178E+00
         11   -1    0    0    0    0  0.00000000000E+00  0.00000000000E+00  0.39999999674E+01  0.40000000000E+01  0.51100000000E-03 0.  1.
    9000002   -1    0    0    0    0 -0.00000000000E+00 -0.00000000000E+00  0.00000000000E+00  0.93800000000E+00  0.93800000000E+00 0.  1.
         11    1    1    2    0    0  0.77477146834E-01 -0.27281694408E+00  0.20245697160E+01  0.20443372005E+01  0.51100000000E-03 0.  1.
    9000002    1    1    2    0    0 -0.77193611884E-01 -0.19523193942E-01  0.46303953621E-01  0.94251157284E+00  0.93800000000E+00 0.  1.
         22    1    1    2    0    0 -0.28353494986E-03  0.29234013802E+00  0.19291262977E+01  0.19511512266E+01  0.00000000000E+00 0.  1.
</event>
<event>
 5    1  0.2173147E+002  0.1584959E+01  0.7818608E-02  0.3369852E+00
         11   -1    0    0    0    0  0.00000000000E+00  0.00000000000E+00  0.39999999674E+01  0.40000000000E+01  0.51100000000E-03 0. -1.
    9000002   -1    0    0    0    0 -0.00000000000E+00 -0.00000000000E+00  0.00000000000E+00  0.93800000000E+00  0.93800000000E+00 0. -1.
         11    1    1    2    0    0 -0.54226768036E-01  0.41187360726E-01  0.27376013166E+00  0.28210248468E+00  0.51100000000E-03 0. -1.
    9000002    1    1    2    0    0  0.39189996439E-01  0.18017481608E+00  0.33541322505E-01  0.95653951329E+00  0.93800000000E+00 0. -1.
         22    1    1    2    0    0  0.15036771598E-01 -0.22136217681E+00  0.36926985132E+01  0.36993580020E+01  0.00000000000E+00 0. -1.
</event>
<event>
 5    1  0.2173147E+002  0.1599677E+01  0.7818608E-02  0.3353714E+00
         11   -1    0    0    0    0  0.00000000000E+00  0.00000000000E+00  0.39999999674E+01  0.40000000000E+01  0.51100000000E-03 0.  1.
    9000002   -1    0    0    0    0 -0.00000000000E+00 -0.00000000000E+00  0.00000000000E+00  0.93800000000E+00  0.93800000000E+00 0.  1.
         11    1    1    2    0    0  0.45492225823E+00  0.15352205936E+00  0.23686753544E+01  0.24168463913E+01  0.51100000000E-03 0.  1.
    9000002    1    1    2    0    0 -0.69377487799E+00 -0.23357082608E+00  0.38641921465E+00  0.12510166752E+01  0.93800000000E+00 0.  1.
         22    1    1    2    0    0  0.23885261976E+00  0.80048766718E-01  0.12449053984E+01  0.12701369335E+01  0.00000000000E+00 0. -1.
</event>
<event>
 5    1  0.2173147E+002  0.1599276E+01  0.7818608E-02  0.3354149E+00
         11   -1    0    0    0    0  0.00000000000E+00  0.00000000000E+00  0.39999999674E+01  0.40000000000E+01  0.51100000000E-03 0.  1.
    9000002   -1    0    0    0    0 -0.00000000000E+00 -0.00000000000E+00  0.00000000000E+00  0.93800000000E+00  0.93800000000E+00 0.  1.
         11    1    1    2    0    0 -0.62736503656E-01  0.92654178476E-02  0.74097170621E+00  0.74368074291E+00  0.51100000000E-03 0.  1.
    9000002    1    1    2    0    0  0.38775759263E+00 -0.12901157706E+00  0.11310714504E+00  0.10293867902E+01  0.93800000000E+00 0.  1.
         22    1    1    2    0    0 -0.32502108897E+00  0.11974615921E+00  0.31459211161E+01  0.31649324668E+01  0.00000000000E+00 0.  1.
</event>
<event>
 5    1  0.2173147E+002  0.1597830E+01  0.7818608E-02  0.3355722E+00
         11   -1    0    0    0    0  0.00000000000E+00  0.00000000000E+00  0.39999999674E+01  0.40000000000E+01  0.51100000000E-03 0.  1.
    9000002   -1    0    0    0    0 -0.00000000000E+00 -0.00000000000E+00  0.00000000000E+00  0.93800000000E+00  0.93800000000E+00 0.  1.
         11    1    1    2    0    0 -0.28134590491E+00 -0.34306454567E+00  0.22642262101E+01  0.23072861531E+01  0.51100000000E-03 0.  1.
    9000002    1    1    2    0    0  0.38817504376E+00  0.51857591777E+00  0.29787343191E+00  0.11782077188E+01  0.93800000000E+00 0.  1.
         22    1    1    2    0    0 -0.10682913885E+00 -0.17551137211E+00  0.14379003254E+01  0.14525061281E+01  0.00000000000E+00 0.  1.
</event>
<event>
 5    1  0.2173147E+002  0.1599677E+01  0.7818608E-02  0.3353714E+00
         11   -1    0    0    0    0  0.00000000000E+00  0.00000000000E+00  0.39999999674E+01  0.40000000000E+01  0.51100000000E-03 0. -1.
    9000002   -1    0    0    0    0 -0.00000000000E+00 -0.00000000000E+00  0.00000000000E+00  0.93800000000E+00  0.93800000000E+00 0. -1.
         11    1    1    2    0    0  0.87896051589E-01 -0.57290094166E-01  0.11093608496E+01  0.11143112790E+01  0.51100000000E-03 0.  1.
    9000002    1    1    2    0    0 -0.30847085462E+00  0.20344321328E+00  0.91757508266E-01  0.10123274418E+01  0.93800000000E+00 0. -1.
         22    1    1    2    0    0  0.22057480303E+00 -0.14615311911E+00  0.27988816095E+01  0.28113612791E+01  0.00000000000E+00 0. -1.
</event>
<event>
 5    1  0.2173147E+002  0.1599657E+01  0.7818608E-02  0.3353736E+00
         11   -1    0    0    0    0  0.00000000000E+00  0.00000000000E+00  0.39999999674E+01  0.40000000000E+01  0.51100000000E-03 0. -1.
    9000002   -1    0    0    0    0 -0.00000000000E+00 -0.00000000000E+00  0.00000000000E+00  0.93800000000E+00  0.93800000000E+00 0.  1.
         11    1    1    2    0    0  0.10862724115E+00  0.47213201658E+00  0.24842816166E+01  0.25310795978E+01  0.51100000000E-03 0. -1.
    9000002    1    1    2    0    0 -0.15316122847E+00 -0.69566317671E+00  0.36387459589E+00  0.12327426085E+01  0.93800000000E+00 0.  1.
         22    1    1    2    0    0  0.44533987327E-01  0.22353116013E+00  0.11518437549E+01  0.11741777937E+01  0.00000000000E+00 0.  1.
</event>
<event>
 5    1  0.2173147E+002  0.1599673E+01  0.7818608E-02  0.3353718E+00
         11   -1    0    0    0    0  0.00000000000E+00  0.00000000000E+00  0.39999999674E+01  0.40000000000E+01  0.51100000000E-03 0.  1.
    9000002   -1    0    0    0    0 -0.00000000000E+00 -0.00000000000E+00  0.00000000000E+00  0.93800000000E+00  0.93800000000E+00 0. -1.
         11    1    1    2    0    0 -0.46878032471E-01 -0.43770744663E-01  0.72327258124E+00  0.72611081518E+00  0.51100000000E-03 0.  1.
    9000002    1    1    2    0    0  0.25313350962E+00  0.22762927459E+00  0.77628908744E-01  0.10008805662E+01  0.93800000000E+00 0. -1.
         22    1    1    2    0    0 -0.20625547715E+00 -0.18385852993E+00  0.31990984774E+01  0.32110086186E+01  0.00000000000E+00 0.  1.
</event>
<event>
 5    1  0.2173147E+002  0.1561795E+01  0.7818608E-02  0.3395903E+00
         11   -1    0    0    0    0  0.00000000000E+00  0.00000000000E+00  0.39999999674E+01  0.40000000000E+01  0.51100000000E-03 0. -1.
    9000002   -1    0    0    0    0 -0.00000000000E+00 -0.00000000000E+00  0.00000000000E+00  0.93800000000E+00  0.93800000000E+00 0.  1.
         11    1    1    2    0    0 -0.16446768232E+00 -0.19784168677E+00  0.17518866889E+01  0.17706773234E+01  0.51100000000E-03 0. -1.
    9000002    1    1    2    0    0 -0.22484450998E-01  0.99182362388E-01  0.35009542120E-01  0.94414636555E+00  0.93800000000E+00 0.  1.
         22    1    1    2    0    0  0.18695213332E+00  0.98659324381E-01  0.22131037363E+01  0.22231763111E+01  0.00000000000E+00 0. -1.
</event>
<event>
 5    1  0.2173147E+002  0.1594798E+01  0.7818608E-02  0.3359029E+00
         11   -1    0    0    0    0  0.00000000000E+00  0.00000000000E+00  0.39999999674E+01  0.40000000000E+01  0.51100000000E-03 0. -1.
    9000002   -1    0    0    0    0 -0.00000000000E+00 -0.00000000000E+00  0.00000000000E+00  0.93800000000E+00  0.93800000000E+00 0.  1.
         11    1    1    2    0    0  0.26547946401E+00  0.29645167967E+00  0.18508886549E+01  0.18931856798E+01  0.51100000000E-03 0. -1.
    9000002    1    1    2    0    0 -0.35771338196E+00 -0.60120084427E+00  0.35520704100E+00  0.12228725857E+01  0.93800000000E+00 0.  1.
         22    1    1    2    0    0  0.92233917944E-01  0.30474916460E+00  0.17939042714E+01  0.18219417345E+01  0.00000000000E+00 0. -1.
</event>
<event>
 5    1  0.2173147E+002  0.1559440E+01  0.7818608E-02  0.3398598E+00
         11   -1    0    0    0    0  0.00000000000E+00  0.00000000000E+00  0.39999999674E+01  0.40000000000E+01  0.51100000000E-03 0.  1.
    9000002   -1    0    0    0    0 -0.00000000000E+00 -0.00000000000E+00  0.00000000000E+00  0.93800000000E+00  0.93800000000E+00 0.  1.
         11    1    1    2    0    0  0.20649778756E+00 -0.95956281388E-01  0.25644908570E+01  0.25745800746E+01  0.51100000000E-03 0.  1.
    9000002    1    1    2    0    0 -0.14570009799E+00 -0.16217032609E+00  0.62491505496E-01  0.96502690195E+00  0.93800000000E+00 0.  1.
         22    1    1    2    0    0 -0.60797689567E-01  0.25812660748E+00  0.13730176049E+01  0.13983930234E+01  0.00000000000E+00 0.  1.
</event>
<event>
 5    1  0.2173147E+002  0.1599541E+01  0.7818608E-02  0.3353862E+00
         11   -1    0    0    0    0  0.00000000000E+00  0.00000000000E+00  0.39999999674E+01  0.40000000000E+01  0.51100000000E-03 0. -1.
    9000002   -1    0    0    0    0 -0.00000000000E+00 -0.00000000000E+00  0.00000000000E+00  0.93800000000E+00  0.93800000000E+00 0. -1.
         11    1    1    2    0    0 -0.27565808598E+00  0.21065173243E+00  0.13898042215E+01  0.14324515936E+01  0.51100000000E-03 0. -1.
    9000002    1    1    2    0    0  0.66634979707E+00 -0.50170695684E+00  0.51888619499E+00  0.13582410706E+01  0.93800000000E+00 0. -1.
         22    1    1    2    0    0 -0.39069171109E+00  0.29105522441E+00  0.20913095508E+01  0.21473073358E+01  0.00000000000E+00 0. -1.
</event>
<event>
 5    1  0.2173147E+002  0.1599677E+01  0.7818608E-02  0.3353714E+00
         11   -1    0    0    0    0  0.00000000000E+00  0.00000000000E+00  0.39999999674E+01  0.40000000000E+01  0.51100000000E-03 0.  1.
    9000002   -1    0    0    0    0 -0.00000000000E+00 -0.00000000000E+00  0.00000000000E+00  0.93800000000E+00  0.93800000000E+00 0.  1.
         11    1    1    2    0    0  0.73653998290E-02  0.46003385669E-01  0.72034379277E+00  0.72184901573E+00  0.51100000000E-03 0.  1.
    9000002    1    1    2    0    0 -0.39548745991E-01 -0.25102328368E+00  0.42911582390E-01  0.97276009178E+00  0.93800000000E+00 0.  1.
         22    1    1    2    0    0  0.32183346162E-01  0.20501989801E+00  0.32367445922E+01  0.32433908925E+01  0.00000000000E+00 0.  1.
</event>
<event>
 5    1  0.2173147E+002  0.1599151E+01  0.7818608E-02  0.3354285E+00
         11   -1    0    0    0    0  0.00000000000E+00  0.00000000000E+00  0.39999999674E+01  0.40000000000E+01  0.51100000000E-03 0.  1.
    9000002   -1    0    0    0    0 -0.00000000000E+00 -0.00000000000E+00  0.00000000000E+00  0.93800000000E+00  0.93800000000E+00 0. -1.
         11    1    1    2    0    0 -0.15363091311E-01  0.82831254825E-01  0.82762689449E+00  0.83190358754E+00  0.51100000000E-03 0.  1.
    9000002    1    1    2    0    0  0.77611989588E-01 -0.28711094902E+00  0.59407239542E-01  0.98581414987E+00  0.93800000000E+00 0. -1.
         22    1    1    2    0    0 -0.62248898277E-01  0.20427969419E+00  0.31129658333E+01  0.31202822626E+01  0.00000000000E+00 0.  1.
</event>
<event>
 5    1  0.2173147E+002  0.1599620E+01  0.7818608E-02  0.3353776E+00
         11   -1    0    0    0    0  0.00000000000E+00  0.00000000000E+00  0.39999999674E+01  0.40000000000E+01  0.51100000000E-03 0.  1.
    9000002   -1    0    0    0    0 -0.00000000000E+00 -0.00000000000E+00  0.00000000000E+00  0.93800000000E+00  0.93800000000E+00 0. -1.
         11    1    1    2    0    0 -0.16526253424E-01 -0.19565804465E-01  0.32869032961E+00  0.32968702076E+00  0.51100000000E-03 0.  1.
    9000002    1    1    2    0    0  0.14397616822E+00  0.26082622731E+00  0.59245934336E-01  0.98595818299E+00  0.93800000000E+00 0. -1.
         22    1    1    2    0    0 -0.12744991479E+00 -0.24126042285E+00  0.36120637034E+01  0.36223547963E+01  0.00000000000E+00 0.  1.
</event>
<event>
 5    1  0.2173147E+002  0.1509608E+01  0.7818608E-02  0.3457721E+00
         11   -1    0    0    0    0  0.00000000000E+00  0.00000000000E+00  0.39999999674E+01  0.40000000000E+01  0.51100000000E-03 0. -1.
    9000002   -1    0    0    0    0 -0.00000000000E+00 -0.00000000000E+00  0.00000000000E+00  0.93800000000E+00  0.93800000000E+00 0.  1.
         11    1    1    2    0    0 -0.10508314984E+00 -0.18163868800E+00  0.27960325189E+01  0.28038960732E+01  0.51100000000E-03 0. -1.
    9000002    1    1    2    0    0 -0.11477241250E+00 -0.12398710225E+00  0.88945242657E-01  0.95723600245E+00  0.93800000000E+00 0.  1.
         22    1    1    2    0    0  0.21985556234E+00  0.30562579025E+00  0.11150222058E+01  0.11768679243E+01  0.00000000000E+00 0. -1.
</event>
<event>
 5    1  0.2173147E+002  0.1599653E+01  0.7818608E-02  0.3353740E+00
         11   -1    0    0    0    0  0.00000000000E+00  0.00000000000E+00  0.39999999674E+01  0.40000000000E+01  0.51100000000E-03 0. -1.
    9000002   -1    0    0    0    0 -0.00000000000E+00 -0.00000000000E+00  0.00000000000E+00  0.93800000000E+00  0.93800000000E+00 0. -1.
         11    1    1    2    0    0  0.63623681043E-01  0.55862669879E-01  0.96870203973E+00  0.97239524555E+00  0.51100000000E-03 0. -1.
    9000002    1    1    2    0    0 -0.24939378582E+00 -0.24507054516E+00  0.81990942821E-01  0.10044019849E+01  0.93800000000E+00 0. -1.
         22    1    1    2    0    0  0.18577010478E+00  0.18920787528E+00  0.29493069848E+01  0.29612027696E+01  0.00000000000E+00 0. -1.
</event>
<event>
 5    1  0.2173147E+002  0.1598645E+01  0.7818608E-02  0.3354836E+00
         11   -1    0    0    0    0  0.00000000000E+00  0.00000000000E+00  0.39999999674E+01  0.40000000000E+01  0.51100000000E-03 0.  1.
    9000002   -1    0    0    0    0 -0.00000000000E+00 -0.00000000000E+00  0.00000000000E+00  0.93800000000E+00  0.93800000000E+00 0.  1.
         11    1    1    2    0    0 -0.28973885136E-01 -0.42649245533E-01  0.70119992083E+00  0.70309319031E+00  0.51100000000E-03 0.  1.
    9000002    1    1    2    0    0 -0.24283242212E-02  0.25565880029E+00  0.44233140810E-01  0.97322550813E+00  0.93800000000E+00 0.  1.
         22    1    1    2    0    0  0.31402209357E-01 -0.21300955476E+00  0.32545669057E+01  0.32616813016E+01  0.00000000000E+00 0.  1.
</event>
<event>
 5    1  0.2173147E+002  0.1586904E+01  0.7818608E-02  0.3367701E+00
         11   -1    0    0    0    0  0.00000000000E+00  0.00000000000E+00  0.39999999674E+01  0.40000000000E+01  0.51100000000E-03 0. -1.
    9000002   -1    0    0    0    0 -0.00000000000E+00 -0.00000000000E+00  0.00000000000E+00  0.93800000000E+00  0.93800000000E+00 0. -1.
         11    1    1    2    0    0  0.72778534277E-01  0.12806295194E-01  0.68100887470E+00  0.68500661660E+00  0.51100000000E-03 0. -1.
    9000002    1    1    2    0    0  0.16738811294E+00  0.10427443441E-01  0.28121787464E-01  0.95329027419E+00  0.93800000000E+00 0. -1.
         22    1    1    2    0    0 -0.24016664722E+00 -0.23233738635E-01  0.32908693052E+01  0.32997031092E+01  0.00000000000E+00 0. -1.
</event>
<event>
 5    1  0.2173147E+002  0.1598878E+01  0.7818608E-02  0.3354582E+00
         11   -1    0    0    0    0  0.00000000000E+00  0.00000000000E+00  0.39999999674E+01  0.40000000000E+01  0.51100000000E-03 0.  1.
    9000002   -1    0    0    0    0 -0.00000000000E+00 -0.00000000000E+00  0.00000000000E+00  0.93800000000E+00  0.93800000000E+00 0.  1.
         11    1    1    2    0    0 -0.65122458677E-01  0.14690955578E+00  0.11837750676E+01  0.11946325895E+01  0.51100000000E-03 0.  1.
    9000002    1    1    2    0    0  0.22911525651E+00 -0.37830002141E+00  0.13338825864E+00  0.10455817206E+01  0.93800000000E+00 0.  1.
         22    1    1    2    0    0 -0.16399279783E+00  0.23139046563E+00  0.26828366411E+01  0.26977856898E+01  0.00000000000E+00 0.  1.
</event>
<event>
 5    1  0.2173147E+002  0.1556693E+01  0.7818608E-02  0.3401752E+00
         11   -1    0    0    0    0  0.00000000000E+00  0.00000000000E+00  0.39999999674E+01  0.40000000000E+01  0.51100000000E-03 0.  1.
    9000002   -1    0    0    0    0 -0.00000000000E+00 -0.00000000000E+00  0.00000000000E+00  0.93800000000E+00  0.93800000000E+00 0.  1.
         11    1    1    2    0    0 -0.22254323071E+00 -0.92043047506E-01  0.59551301831E+00  0.64236549426E+00  0.51100000000E-03 0.  1.
    9000002    1    1    2    0    0  0.26800012259E+00  0.35066665305E+00  0.16998408644E+00  0.10504902460E+01  0.93800000000E+00 0.  1.
         22    1    1    2    0    0 -0.45456891885E-01 -0.25862360554E+00  0.32345028626E+01  0.32451442597E+01  0.00000000000E+00 0.  1.
</event>
<event>
 5    1  0.2173147E+002  0.1489382E+01  0.7818608E-02  0.3482930E+00
         11   -1    0    0    0    0  0.00000000000E+00  0.00000000000E+00  0.39999999674E+01  0.40000000000E+01  0.51100000000E-03 0.  1.
    9000002   -1    0    0    0    0 -0.00000000000E+00 -0.00000000000E+00  0.00000000000E+00  0.93800000000E+00  0.93800000000E+00 0.  1.
         11    1    1    2    0    0 -0.23465423341E+00  0.26338948448E+00  0.10461486693E+01  0.11040217068E+01  0.51100000000E-03 0.  1.
    9000002    1    1    2    0    0  0.29084839303E-01  0.38692619954E-01  0.86259610581E-01  0.94320080955E+00  0.93800000000E+00 0.  1.
         22    1    1    2    0    0  0.20556939411E+00 -0.30208210443E+00  0.28675916875E+01  0.28907774836E+01  0.00000000000E+00 0.  1.
</event>
<event>
 5    1  0.2173147E+002  0.1599676E+01  0.7818608E-02  0.3353715E+00
         11   -1    0    0    0    0  0.00000000000E+00  0.00000000000E+00  0.39999999674E+01  0.40000000000E+01  0.51100000000E-03 0.  1.
    9000002   -1    0    0    0    0 -0.00000000000E+00 -0.00000000000E+00  0.00000000000E+00  0.93800000000E+00  0.93800000000E+00 0.  1.
         11    1    1    2    0    0 -0.10116524079E+00  0.50279155376E-01  0.80419302162E+00  0.81208932794E+00  0.51100000000E-03 0.  1.
    9000002    1    1    2    0    0  0.48088856365E+00 -0.24139641335E+00  0.19953117849E+00  0.10996284510E+01  0.93800000000E+00 0.  1.
         22    1    1    2    0    0 -0.37972332286E+00  0.19111725797E+00  0.29962757672E+01  0.30262822211E+01  0.00000000000E+00 0.  1.
</event>
<event>
 5    1  0.2173147E+002  0.1599641E+01  0.7818608E-02  0.3353753E+00
         11   -1    0    0    0    0  0.00000000000E+00  0.00000000000E+00  0.39999999674E+01  0.40000000000E+01  0.51100000000E-03 0.  1.
    9000002   -1    0    0    0    0 -0.00000000000E+00 -0.00000000000E+00  0.00000000000E+00  0.93800000000E+00  0.93800000000E+00 0.  1.
         11    1    1    2    0    0 -0.11356596527E+00  0.13115642776E+00  0.16137134863E+01  0.16230128508E+01  0.51100000000E-03 0.  1.
    9000002    1    1    2    0    0  0.28670307237E+00 -0.30493198020E+00  0.11848363503E+00  0.10339557708E+01  0.93800000000E+00 0.  1.
         22    1    1    2    0    0 -0.17313710710E+00  0.17377555244E+00  0.22678028460E+01  0.22810313783E+01  0.00000000000E+00 0.  1.
</event>
<event>
 5    1  0.2173147E+002  0.1510356E+01  0.7818608E-02  0.3456802E+00
         11   -1    0    0    0    0  0.00000000000E+00  0.00000000000E+00  0.39999999674E+01  0.40000000000E+01  0.51100000000E-03 0. -1.
    9000002   -1    0    0    0    0 -0.00000000000E+00 -0.00000000000E+00  0.00000000000E+00  0.93800000000E+00  0.93800000000E+00 0. -1.
         11    1    1    2    0    0  0.30404654370E+00  0.28325253326E+00  0.15510848775E+01  0.16057835647E+01  0.51100000000E-03 0. -1.
    9000002    1    1    2    0    0  0.84749054137E-01 -0.43954738683E+00  0.21757337018E+00  0.10618693323E+01  0.93800000000E+00 0. -1.
         22    1    1    2    0    0 -0.38879559783E+00  0.15629485357E+00  0.22313417197E+01  0.22703471030E+01  0.00000000000E+00 0.  1.
</event>
<event>
 5    1  0.2173147E+002  0.1598243E+01  0.7818608E-02  0.3355273E+00
         11   -1    0    0    0    0  0.00000000000E+00  0.00000000000E+00  0.39999999674E+01  0.40000000000E+01  0.51100000000E-03 0.  1.
    9000002   -1    0    0    0    0 -0.00000000000E+00 -0.00000000000E+00  0.00000000000E+00  0.93800000000E+00  0.93800000000E+00 0.  1.
         11    1    1    2    0    0 -0.16361385383E-01 -0.36712762716E-01  0.70073935947E+00  0.70189132557E+00  0.51100000000E-03 0.  1.
    9000002    1    1    2    0    0 -0.10352390417E+00  0.22197640020E+00  0.40930166736E-01  0.97031438180E+00  0.93800000000E+00 0.  1.
         22    1    1    2    0    0  0.11988528955E+00 -0.18526363749E+00  0.32583304412E+01  0.32657942926E+01  0.00000000000E+00 0.  1.
</event>
<event>
 5    1  0.2173147E+002  0.1599667E+01  0.7818608E-02  0.3353724E+00
         11   -1    0    0    0    0  0.00000000000E+00  0.00000000000E+00  0.39999999674E+01  0.40000000000E+01  0.51100000000E-03 0. -1.
    9000002   -1    0    0    0    0 -0.00000000000E+00 -0.00000000000E+00  0.00000000000E+00  0.93800000000E+00  0.93800000000E+00 0. -1.
         11    1    1    2    0    0  0.38122999240E-01  0.22036573380E-01  0.29388856472E+00  0.29716951935E+00  0.51100000000E-03 0. -1.
    9000002    1    1    2    0    0 -0.50732127664E+00 -0.29758513764E+00  0.24076389988E+00  0.11330238512E+01  0.93800000000E+00 0. -1.
         22    1    1    2    0    0  0.46919827740E+00  0.27554856426E+00  0.34653475028E+01  0.35078066295E+01  0.00000000000E+00 0. -1.
</event>
<event>
 5    1  0.2173147E+002  0.1599676E+01  0.7818608E-02  0.3353715E+00
         11   -1    0    0    0    0  0.00000000000E+00  0.00000000000E+00  0.39999999674E+01  0.40000000000E+01  0.51100000000E-03 0. -1.
    9000002   -1    0    0    0    0 -0.00000000000E+00 -0.00000000000E+00  0.00000000000E+00  0.93800000000E+00  0.93800000000E+00 0. -1.
         11    1    1    2    0    0 -0.59037984764E-01  0.37849400788E-01  0.84649541762E+00  0.84939555800E+00  0.51100000000E-03 0.  1.
    9000002    1    1    2    0    0  0.27040618806E+00 -0.17884935662E+00  0.70283935821E-01  0.99493237486E+00  0.93800000000E+00 0. -1.
         22    1    1    2    0    0 -0.21136820329E+00  0.14099995583E+00  0.30832206139E+01  0.30936720671E+01  0.00000000000E+00 0. -1.
</event>
<event>
 5    1  0.2173147E+002  0.1597877E+01  0.7818608E-02  0.3355671E+00
         11   -1    0    0    0    0  0.00000000000E+00  0.00000000000E+00  0.39999999674E+01  0.40000000000E+01  0.51100000000E-03 0. -1.
    9000002   -1    0    0    0    0 -0.00000000000E+00 -0.00000000000E+00  0.00000000000E+00  0.93800000000E+00  0.93800000000E+00 0.  1.
         11    1    1    2    0    0 -0.18603496873E-02  0.17048798093E-01  0.17542944027E+00  0.17626648023E+00  0.51100000000E-03 0. -1.
    9000002    1    1    2    0    0 -0.20233857967E+00  0.21284054295E-01  0.28761056760E-01  0.96024221433E+00  0.93800000000E+00 0.  1.
         22    1    1    2    0    0  0.20419892936E+00 -0.38332852388E-01  0.37958094703E+01  0.38014913054E+01  0.00000000000E+00 0. -1.
</event>
<event>
 5    1  0.2173147E+002  0.1556444E+01  0.7818608E-02  0.3402038E+00
         11   -1    0    0    0    0  0.00000000000E+00  0.00000000000E+00  0.39999999674E+01  0.40000000000E+01  0.51100000000E-03 0.  1.
    9000002   -1    0    0    0    0 -0.00000000000E+00 -0.00000000000E+00  0.00000000000E+00  0.93800000000E+00  0.93800000000E+00 0.  1.
         11    1    1    2    0    0 -0.55741428122E-01 -0.10563876079E+00  0.10258681749E+01  0.10327983482E+01  0.51100000000E-03 0.  1.
    9000002    1    1    2    0    0 -0.33582665176E+00 -0.23043221272E+00  0.14908635075E+00  0.10334163172E+01  0.93800000000E+00 0.  1.
         22    1    1    2    0    0  0.39156807988E+00  0.33607097351E+00  0.28250454417E+01  0.28717853346E+01  0.00000000000E+00 0.  1.
</event>
<event>
 5    1  0.2173147E+002  0.1596321E+01  0.7818608E-02  0.3357367E+00
         11   -1    0    0    0    0  0.00000000000E+00  0.00000000000E+00  0.39999999674E+01  0.40000000000E+01  0.51100000000E-03 0. -1.
    9000002   -1    0    0    0    0 -0.00000000000E+00 -0.00000000000E+00  0.00000000000E+00  0.93800000000E+00  0.93800000000E+00 0. -1.
         11    1    1    2    0    0  0.49060596415E+00  0.49962749073E+00  0.19046912165E+01  0.20293276554E+01  0.51100000000E-03 0. -1.
    9000002    1    1    2    0    0 -0.77846095218E+00 -0.69815971370E+00  0.91209719877E+00  0.16748712607E+01  0.93800000000E+00 0. -1.
         22    1    1    2    0    0  0.28785498804E+00  0.19853222297E+00  0.11832115521E+01  0.12338010839E+01  0.00000000000E+00 0.  1.
</event>
<event>
 5    1  0.2173147E+002  0.1598304E+01  0.7818608E-02  0.3355206E+00
         11   -1    0    0    0    0  0.00000000000E+00  0.00000000000E+00  0.39999999674E+01  0.40000000000E+01  0.51100000000E-03 0.  1.
    9000002   -1    0    0    0    0 -0.00000000000E+00 -0.00000000000E+00  0.00000000000E+00  0.93800000000E+00  0.93800000000E+00 0. -1.
         11    1    1    2    0    0  0.22514340751E-01  0.78285209001E-01  0.10148475563E+01  0.10181116310E+01  0.51100000000E-03 0.  1.
    9000002    1    1    2    0    0 -0.21715531713E+00 -0.22599027859E+00  0.66696196980E-01  0.99122168079E+00  0.93800000000E+00 0. -1.
         22    1    1    2    0    0  0.19464097637E+00  0.14770506958E+00  0.29184562140E+01  0.29286666882E+01  0.00000000000E+00 0.  1.
</event>
<event>
 5    1  0.2173147E+002  0.1599677E+01  0.7818608E-02  0.3353714E+00
         11   -1    0    0    0    0  0.00000000000E+00  0.00000000000E+00  0.39999999674E+01  0.40000000000E+01  0.51100000000E-03 0. -1.
    9000002   -1    0    0    0    0 -0.00000000000E+00 -0.00000000000E+00  0.00000000000E+00  0.93800000000E+00  0.93800000000E+00 0. -1.
         11    1    1    2    0    0 -0.14374959900E-01  0.27048235633E+00  0.22026119649E+01  0.22192041532E+01  0.51100000000E-03 0. -1.
    9000002    1    1    2    0    0  0.23982102319E-01 -0.47261108758E+00  0.15263239094E+00  0.10616388407E+01  0.93800000000E+00 0. -1.
         22    1    1    2    0    0 -0.96071424187E-02  0.20212873125E+00  0.16447556115E+01  0.16571570061E+01  0.00000000000E+00 0. -1.
</event>
<event>
 5    1  0.2173147E+002  0.1580692E+01  0.7818608E-02  0.3374590E+00
         11   -1    0    0    0    0  0.00000000000E+00  0.00000000000E+00  0.39999999674E+01  0.40000000000E+01  0.51100000000E-03 0. -1.
    9000002   -1    0    0    0    0 -0.00000000000E+00 -0.00000000000E+00  0.00000000000E+00  0.93800000000E+00  0.93800000000E+00 0. -1.
         11    1    1    2    0    0 -0.56966306097E-01 -0.92346070475E-01  0.33297854828E+00  0.35021126695E+00  0.51100000000E-03 0. -1.
    9000002    1    1    2    0    0 -0.93987829689E-01  0.29319379509E+00  0.78361032973E-01  0.99034376107E+00  0.93800000000E+00 0. -1.
         22    1    1    2    0    0  0.15095413579E+00 -0.20084772461E+00  0.35886603861E+01  0.35974449720E+01  0.00000000000E+00 0. -1.
</event>
<event>
 5    1  0.2173147E+002  0.1599651E+01  0.7818608E-02  0.3353742E+00
         11   -1    0    0    0    0  0.00000000000E+00  0.00000000000E+00  0.39999999674E+01  0.40000000000E+01  0.51100000000E-03 0. -1.
    9000002   -1    0    0    0    0 -0.00000000000E+00 -0.00000000000E+00  0.00000000000E+00  0.93800000000E+00  0.93800000000E+00 0.  1.
         11    1    1    2    0    0 -0.22529341371E-01  0.72156677625E-02  0.34263729650E+00  0.34345336679E+00  0.51100000000E-03 0. -1.
    9000002    1    1    2    0    0  0.23733272892E+00 -0.51658257886E-01  0.39188515051E-01  0.96972941563E+00  0.93800000000E+00 0.  1.
         22    1    1    2    0    0 -0.21480338755E+00  0.44442590123E-01  0.36181741558E+01  0.36248172176E+01  0.00000000000E+00 0. -1.
</event>
<event>
 5    1  0.2173147E+002  0.1599677E+01  0.7818608E-02  0.3353714E+00
         11   -1    0    0    0    0  0.00000000000E+00  0.00000000000E+00  0.39999999674E+01  0.40000000000E+01  0.51100000000E-03 0.  1.
    9000002   -1    0    0    0    0 -0.00000000000E+00 -0.00000000000E+00  0.00000000000E+00  0.93800000000E+00  0.93800000000E+00 0.  1.
         11    1    1    2    0    0  0.80829555861E-01  0.38137253069E+00  0.18162879639E+01  0.18576546108E+01  0.51100000000E-03 0.  1.
    9000002    1    1    2    0    0 -0.15858705415E+00 -0.75126437231E+00  0.42973513901E+00  0.12861043117E+01  0.93800000000E+00 0.  1.
         22    1    1    2    0    0  0.77757498285E-01  0.36989184163E+00  0.17539768645E+01  0.17942410775E+01  0.00000000000E+00 0.  1.
</event>
<event>
 5    1  0.2173147E+002  0.1599651E+01  0.7818608E-02  0.3353742E+00
         11   -1    0    0    0    0  0.00000000000E+00  0.00000000000E+00  0.39999999674E+01  0.40000000000E+01  0.51100000000E-03 0.  1.
    9000002   -1    0    0    0    0 -0.00000000000E+00 -0.00000000000E+00  0.00000000000E+00  0.93800000000E+00  0.93800000000E+00 0.  1.
         11    1    1    2    0    0  0.21736804740E+00  0.58179692275E-01  0.18024621017E+01  0.18164535871E+01  0.51100000000E-03 0.  1.
    9000002    1    1    2    0    0 -0.47080861999E+00 -0.11351881724E+00  0.16016923068E+00  0.10677291140E+01  0.93800000000E+00 0.  1.
         22    1    1    2    0    0  0.25344057259E+00  0.55339124967E-01  0.20373686350E+01  0.20538172989E+01  0.00000000000E+00 0.  1.
</event>
<event>
 5    1  0.2173147E+002  0.1599674E+01  0.7818608E-02  0.3353717E+00
         11   -1    0    0    0    0  0.00000000000E+00  0.00000000000E+00  0.39999999674E+01  0.40000000000E+01  0.51100000000E-03 0. -1.
    9000002   -1    0    0    0    0 -0.00000000000E+00 -0.00000000000E+00  0.00000000000E+00  0.93800000000E+00  0.93800000000E+00 0. -1.
         11    1    1    2    0    0  0.57035986874E-01 -0.25606243764E-01  0.81536714130E+00  0.81776073503E+00  0.51100000000E-03 0. -1.
    9000002    1    1    2    0    0 -0.28029972319E+00  0.11713515799E+00  0.61591102358E-01  0.98788969220E+00  0.93800000000E+00 0. -1.
         22    1    1    2    0    0  0.22326373632E+00 -0.91528914231E-01  0.31230417237E+01  0.31323495728E+01  0.00000000000E+00 0. -1.
</event>
<event>
 5    1  0.2173147E+002  0.1584047E+01  0.7818608E-02  0.3370862E+00
         11   -1    0    0    0    0  0.00000000000E+00  0.00000000000E+00  0.39999999674E+01  0.40000000000E+01  0.51100000000E-03 0. -1.
    9000002   -1    0    0    0    0 -0.00000000000E+00 -0.00000000000E+00  0.00000000000E+00  0.93800000000E+00  0.93800000000E+00 0. -1.
         11    1    1    2    0    0  0.71777851579E-01 -0.12234042085E-01  0.23043905933E+00  0.24166951184E+00  0.51100000000E-03 0. -1.
    9000002    1    1    2    0    0 -0.10616749450E+00 -0.27260054335E+00  0.69341518466E-01  0.98500499456E+00  0.93800000000E+00 0. -1.
         22    1    1    2    0    0  0.34389642924E-01  0.28483458544E+00  0.37002193896E+01  0.37113254936E+01  0.00000000000E+00 0. -1.
</event>
<event>
 5    1  0.2173147E+002  0.1569941E+01  0.7818608E-02  0.3386649E+00
         11   -1    0    0    0    0  0.00000000000E+00  0.00000000000E+00  0.39999999674E+01  0.40000000000E+01  0.51100000000E-03 0.  1.
    9000002   -1    0    0    0    0 -0.00000000000E+00 -0.00000000000E+00  0.00000000000E+00  0.93800000000E+00  0.93800000000E+00 0. -1.
         11    1    1    2    0    0 -0.12787323655E+00 -0.36152111176E+00  0.15511513368E+01  0.15978484939E+01  0.51100000000E-03 0.  1.
    9000002    1    1    2    0    0  0.60122130733E+00  0.47138973305E+00  0.46237991224E+00  0.12951117805E+01  0.93800000000E+00 0. -1.
         22    1    1    2    0    0 -0.47334807078E+00 -0.10986862129E+00  0.19864687184E+01  0.20450397255E+01  0.00000000000E+00 0.  1.
</event>
<event>
 5    1  0.2173147E+002  0.1599661E+01  0.7818608E-02  0.3353731E+00
         11   -1    0    0    0    0  0.00000000000E+00  0.00000000000E+00  0.39999999674E+01  0.40000000000E+01  0.51100000000E-03 0. -1.
    9000002   -1    0    0    0    0 -0.00000000000E+00 -0.00000000000E+00  0.00000000000E+00  0.93800000000E+00  0.93800000000E+00 0. -1.
         11    1    1    2    0    0  0.10350395220E-01 -0.18246397683E-01  0.26752322966E+00  0.26834492959E+00  0.51100000000E-03 0. -1.
    9000002    1    1    2    0    0 -0.17251992978E+00  0.24031323218E+00  0.58371194088E-01  0.98527395786E+00  0.93800000000E+00 0. -1.
         22    1    1    2    0    0  0.16216953456E+00 -0.22206683450E+00  0.36741055436E+01  0.36843811126E+01  0.00000000000E+00 0. -1.
</event>
<event>
 5    1  0.2173147E+002  0.1599627E+01  0.7818608E-02  0.3353768E+00
         11   -1    0    0    0    0  0.00000000000E+00  0.00000000000E+00  0.39999999674E+01  0.40000000000E+01  0.51100000000E-03 0. -1.
    9000002   -1    0    0    0    0 -0.00000000000E+00 -0.00000000000E+00  0.00000000000E+00  0.93800000000E+00  0.93800000000E+00 0.  1.
         11    1    1    2    0    0  0.42416355064E-01 -0.22098527005E-01  0.63103382497E+00  0.63284393135E+00  0.51100000000E-03 0. -1.
    9000002    1    1    2    0    0 -0.22812415765E+00  0.14869650296E+00  0.49384417919E-01  0.97797448946E+00  0.93800000000E+00 0.  1.
         22    1    1    2    0    0  0.18570780259E+00 -0.12659797595E+00  0.33195817245E+01  0.33271815792E+01  0.00000000000E+00 0. -1.
</event>
<event>
 5    1  0.2173147E+002  0.1554656E+01  0.7818608E-02  0.3404098E+00
         11   -1    0    0    0    0  0.00000000000E+00  0.00000000000E+00  0.39999999674E+01  0.40000000000E+01  0.51100000000E-03 0.  1.
    9000002   -1    0    0    0    0 -0.00000000000E+00 -0.00000000000E+00  0.00000000000E+00  0.93800000000E+00  0.93800000000E+00 0. -1.
         11    1    1    2    0    0 -0.19933885672E+00 -0.81876950372E-01  0.50146648798E+00  0.54581014510E+00  0.51100000000E-03 0.  1.
    9000002    1    1    2    0    0  0.40222353965E+00 -0.11502849378E+00  0.15732758341E+00  0.10390434537E+01  0.93800000000E+00 0. -1.
         22    1    1    2    0    0 -0.20288468293E+00  0.19690544415E+00  0.33412058960E+01  0.33531464012E+01  0.00000000000E+00 0.  1.
</event>
<event>
 5    1  0.2173147E+002  0.1599371E+01  0.7818608E-02  0.3354047E+00
         11   -1    0    0    0    0  0.00000000000E+00  0.00000000000E+00  0.39999999674E+01  0.40000000000E+01  0.51100000000E-03 0.  1.
    9000002   -1    0    0    0    0 -0.00000000000E+00 -0.00000000000E+00  0.00000000000E+00  0.93800000000E+00  0.93800000000E+00 0.  1.
         11    1    1    2    0    0  0.32293449788E-01  0.48269752848E-01  0.14397615120E+00  0.15524892648E+00  0.51100000000E-03 0.  1.
    9000002    1    1    2    0    0 -0.53530834065E+00 -0.90527507513E+00  0.91957871805E+00  0.16827201193E+01  0.93800000000E+00 0.  1.
         22    1    1    2    0    0  0.50301489087E+00  0.85700532228E+00  0.29364450981E+01  0.31000309542E+01  0.00000000000E+00 0.  1.
</event>
<event>
 5    1  0.2173147E+002  0.1521863E+01  0.7818608E-02  0.3442796E+00
         11   -1    0    0    0    0  0.00000000000E+00  0.00000000000E+00  0.39999999674E+01  0.40000000000E+01  0.51100000000E-03 0. -1.
    9000002   -1    0    0    0    0 -0.00000000000E+00 -0.00000000000E+00  0.00000000000E+00  0.93800000000E+00  0.93800000000E+00 0. -1.
         11    1    1    2    0    0  0.13703365731E+00 -0.23945131358E+00  0.20643786761E+01  0.20827325162E+01  0.51100000000E-03 0. -1.
    9000002    1    1    2    0    0  0.12471810384E+00 -0.53130043979E-01  0.71701449544E-01  0.95045384152E+00  0.93800000000E+00 0. -1.
         22    1    1    2    0    0 -0.26175176114E+00  0.29258135756E+00  0.18639198418E+01  0.19048136423E+01  0.00000000000E+00 0. -1.
</event>
<event>
 5    1  0.2173147E+002  0.1599677E+01  0.7818608E-02  0.3353714E+00
         11   -1    0    0    0    0  0.00000000000E+00  0.00000000000E+00  0.39999999674E+01  0.40000000000E+01  0.51100000000E-03 0. -1.
    9000002   -1    0    0    0    0 -0.00000000000E+00 -0.00000000000E+00  0.00000000000E+00  0.93800000000E+00  0.93800000000E+00 0.  1.
         11    1    1    2    0    0 -0.67924027299E-01  0.38493319974E-01  0.10030506790E+01  0.10060846560E+01  0.51100000000E-03 0.  1.
    9000002    1    1    2    0    0  0.26656240777E+00 -0.15162207386E+00  0.62777871851E-01  0.98885278566E+00  0.93800000000E+00 0.  1.
         22    1    1    2    0    0 -0.19863838047E+00  0.11312875389E+00  0.29341714165E+01  0.29430625583E+01  0.00000000000E+00 0. -1.
</event>
<event>
 5    1  0.2173147E+002  0.1596273E+01  0.7818608E-02  0.3357419E+00
         11   -1    0    0    0    0  0.00000000000E+00  0.00000000000E+00  0.39999999674E+01  0.40000000000E+01  0.51100000000E-03 0. -1.
    9000002   -1    0    0    0    0 -0.00000000000E+00 -0.00000000000E+00  0.00000000000E+00  0.93800000000E+00  0.93800000000E+00 0. -1.
         11    1    1    2    0    0  0.79125176910E-01 -0.49741244199E-01  0.49523801538E+00  0.50398009682E+00  0.51100000000E-03 0. -1.
    9000002    1    1    2    0    0 -0.31680525126E+00  0.18337306985E+00  0.92779395602E-01  0.10111593674E+01  0.93800000000E+00 0. -1.
         22    1    1    2    0    0  0.23768007435E+00 -0.13363182565E+00  0.34119825564E+01  0.34228605358E+01  0.00000000000E+00 0. -1.
</event>
<event>
 5    1  0.2173147E+002  0.1598279E+01  0.7818608E-02  0.3355234E+00
         11   -1    0    0    0    0  0.00000000000E+00  0.00000000000E+00  0.39999999674E+01  0.40000000000E+01  0.51100000000E-03 0.  1.
    9000002   -1    0    0    0    0 -0.00000000000E+00 -0.00000000000E+00  0.00000000000E+00  0.93800000000E+00  0.93800000000E+00 0.  1.
         11    1    1    2    0    0 -0.61419678501E-01  0.12801303839E-01  0.85465905367E+00  0.85695893100E+00  0.51100000000E-03 0.  1.
    9000002    1    1    2    0    0  0.18242502562E+00 -0.19714256481E+00  0.49074057246E-01  0.97693210814E+00  0.93800000000E+00 0.  1.
         22    1    1    2    0    0 -0.12100534711E+00  0.18434126097E+00  0.30962668564E+01  0.31041089609E+01  0.00000000000E+00 0.  1.
</event>
<event>
 5    1  0.2173147E+002  0.1574344E+01  0.7818608E-02  0.3381689E+00
         11   -1    0    0    0    0  0.00000000000E+00  0.00000000000E+00  0.39999999674E+01  0.40000000000E+01  0.51100000000E-03 0. -1.
    9000002   -1    0    0    0    0 -0.00000000000E+00 -0.00000000000E+00  0.00000000000E+00  0.93800000000E+00  0.93800000000E+00 0.  1.
         11    1    1    2    0    0  0.10217433827E+00  0.19395463308E+00  0.19946027005E+01  0.20066136123E+01  0.51100000000E-03 0. -1.
    9000002    1    1    2    0    0  0.16916406657E+00 -0.31604774469E+00  0.10704093718E+00  0.10098536629E+01  0.93800000000E+00 0.  1.
         22    1    1    2    0    0 -0.27133840485E+00  0.12209311161E+00  0.18983563296E+01  0.19215327247E+01  0.00000000000E+00 0. -1.
</event>
<event>
 5    1  0.2173147E+002  0.1597367E+01  0.7818608E-02  0.3356226E+00
         11   -1    0    0    0    0  0.00000000000E+00  0.00000000000E+00  0.39999999674E+01  0.40000000000E+01  0.51100000000E-03 0.  1.
    9000002   -1    0    0    0    0 -0.00000000000E+00 -0.00000000000E+00  0.00000000000E+00  0.93800000000E+00  0.93800000000E+00 0.  1.
         11    1    1    2    0    0 -0.10859387171E+00  0.89989664980E-01  0.87245695651E+00  0.88378287541E+00  0.51100000000E-03 0.  1.
    9000002    1    1    2    0    0  0.30565837700E+00 -0.27676078547E+00  0.11681097837E+00  0.10312673661E+01  0.93800000000E+00 0.  1.
         22    1    1    2    0    0 -0.19706450529E+00  0.18677112049E+00  0.30107320325E+01  0.30229497584E+01  0.00000000000E+00 0.  1.
</event>
<event>
 5    1  0.2173147E+002  0.1599676E+01  0.7818608E-02  0.3353715E+00
         11   -1    0    0    0    0  0.00000000000E+00  0.00000000000E+00  0.39999999674E+01  0.40000000000E+01  0.51100000000E-03 0. -1.
    9000002   -1    0    0    0    0 -0.00000000000E+00 -0.00000000000E+00  0.00000000000E+00  0.93800000000E+00  0.93800000000E+00 0.  1.
         11    1    1    2    0    0 -0.13647819633E+00 -0.63746084494E-01  0.12737812409E+01  0.12826569191E+01  0.51100000000E-03 0. -1.
    9000002    1    1    2    0    0  0.41105282193E+00  0.19367189600E+00  0.14032526478E+00  0.10516693424E+01  0.93800000000E+00 0.  1.
         22    1    1    2    0    0 -0.27457462560E+00 -0.12992581151E+00  0.25858934617E+01  0.26036737385E+01  0.00000000000E+00 0. -1.
</event>
<event>
 5    1  0.2173147E+002  0.1599665E+01  0.7818608E-02  0.3353727E+00
         11   -1    0    0    0    0  0.00000000000E+00  0.00000000000E+00  0.39999999674E+01  0.40000000000E+01  0.51100000000E-03 0. -1.
    9000002   -1    0    0    0    0 -0.00000000000E+00 -0.00000000000E+00  0.00000000000E+00  0.93800000000E+00  0.93800000000E+00 0. -1.
         11    1    1    2    0    0 -0.67826176639E-01 -0.18954313388E+00  0.15882733525E+01  0.16009807911E+01  0.51100000000E-03 0. -1.
    9000002    1    1    2    0    0  0.15873398933E+00  0.45039090526E+00  0.15555151406E+00  0.10639965791E+01  0.93800000000E+00 0. -1.
         22    1    1    2    0    0 -0.90907812687E-01 -0.26084777138E+00  0.22561751008E+01  0.22730226298E+01  0.00000000000E+00 0. -1.
</event>
<event>
 5    1  0.2173147E+002  0.1599370E+01  0.7818608E-02  0.3354047E+00
         11   -1    0    0    0    0  0.00000000000E+00  0.00000000000E+00  0.39999999674E+01  0.40000000000E+01  0.51100000000E-03 0. -1.
    9000002   -1    0    0    0    0 -0.00000000000E+00 -0.00000000000E+00  0.00000000000E+00  0.93800000000E+00  0.93800000000E+00 0. -1.
         11    1    1    2    0    0  0.27112029016E+00 -0.14425537070E+00  0.19019120420E+01  0.19265475598E+01  0.51100000000E-03 0. -1.
    9000002    1    1    2    0    0 -0.51026023270E+00  0.31815400181E+00  0.25265580247E+00  0.11424825725E+01  0.93800000000E+00 0. -1.
         22    1    1    2    0    0  0.23913994253E+00 -0.17389863111E+00  0.18454321229E+01  0.18689698677E+01  0.00000000000E+00 0. -1.
</event>
<event>
 5    1  0.2173147E+002  0.1599676E+01  0.7818608E-02  0.3353715E+00
         11   -1    0    0    0    0  0.00000000000E+00  0.00000000000E+00  0.39999999674E+01  0.40000000000E+01  0.51100000000E-03 0. -1.
    9000002   -1    0    0    0    0 -0.00000000000E+00 -0.00000000000E+00  0.00000000000E+00  0.93800000000E+00  0.93800000000E+00 0. -1.
         11    1    1    2    0    0  0.22961783658E-01  0.50781810349E-01  0.76602009487E+00  0.76804497435E+00  0.51100000000E-03 0.  1.
    9000002    1    1    2    0    0 -0.11685798798E+00 -0.26428194093E+00  0.55648689470E-01  0.98307757084E+00  0.93800000000E+00 0. -1.
         22    1    1    2    0    0  0.93896204325E-01  0.21350013058E+00  0.31783311830E+01  0.31868774548E+01  0.00000000000E+00 0. -1.
</event>
<event>
 5    1  0.2173147E+002  0.1583977E+01  0.7818608E-02  0.3370940E+00
         11   -1    0    0    0    0  0.00000000000E+00  0.00000000000E+00  0.39999999674E+01  0.40000000000E+01  0.51100000000E-03 0. -1.
    9000002   -1    0    0    0    0 -0.00000000000E+00 -0.00000000000E+00  0.00000000000E+00  0.93800000000E+00  0.93800000000E+00 0.  1.
         11    1    1    2    0    0  0.10415826322E+00 -0.61580174354E-01  0.48386796893E+00  0.49876801636E+00  0.51100000000E-03 0. -1.
    9000002    1    1    2    0    0 -0.26559182243E+00 -0.64706015368E-01  0.61959141493E-01  0.97898356461E+00  0.93800000000E+00 0.  1.
         22    1    1    2    0    0  0.16143355921E+00  0.12628618972E+00  0.34541728569E+01  0.34602484190E+01  0.00000000000E+00 0. -1.
</event>
<event>
 5    1  0.2173147E+002  0.1599672E+01  0.7818608E-02  0.3353720E+00
         11   -1    0    0    0    0  0.00000000000E+00  0.00000000000E+00  0.39999999674E+01  0.40000000000E+01  0.51100000000E-03 0.  1.
    9000002   -1    0    0    0    0 -0.00000000000E+00 -0.00000000000E+00  0.00000000000E+00  0.93800000000E+00  0.93800000000E+00 0. -1.
         11    1    1    2    0    0 -0.31949074206E+00 -0.24586867944E+00  0.14500262322E+01  0.15050256067E+01  0.51100000000E-03 0.  1.
    9000002    1    1    2    0    0  0.73435682469E+00  0.56012603157E+00  0.65984700277E+00  0.14725023546E+01  0.93800000000E+00 0. -1.
         22    1    1    2    0    0 -0.41486608262E+00 -0.31425735213E+00  0.18901267324E+01  0.19604720387E+01  0.00000000000E+00 0. -1.
</event>
<event>
 5    1  0.2173147E+002  0.1599430E+01  0.7818608E-02  0.3353983E+00
         11   -1    0    0    0    0  0.00000000000E+00  0.00000000000E+00  0.39999999674E+01  0.40000000000E+01  0.51100000000E-03 0.  1.
    9000002   -1    0    0    0    0 -0.00000000000E+00 -0.00000000000E+00  0.00000000000E+00  0.93800000000E+00  0.93800000000E+00 0.  1.
         11    1    1    2    0    0  0.59090975292E-02 -0.14812002327E-02  0.11676609566E+00  0.11692601765E+00  0.51100000000E-03 0.  1.
    9000002    1    1    2    0    0 -0.95843238417E-01  0.23974609861E+00  0.44502276230E-01  0.97390377899E+00  0.93800000000E+00 0.  1.
         22    1    1    2    0    0  0.89934140887E-01 -0.23826489838E+00  0.38387315955E+01  0.38471702034E+01  0.00000000000E+00 0.  1.
</event>
<event>
 5    1  0.2173147E+002  0.1505445E+01  0.7818608E-02  0.3462851E+00
         11   -1    0    0    0    0  0.00000000000E+00  0.00000000000E+00  0.39999999674E+01  0.40000000000E+01  0.51100000000E-03 0. -1.
    9000002   -1    0    0    0    0 -0.00000000000E+00 -0.00000000000E+00  0.00000000000E+00  0.93800000000E+00  0.93800000000E+00 0.  1.
         11    1    1    2    0    0 -0.14915031059E+00  0.61953325322E-01  0.16268878377E+00  0.22924207981E+00  0.51100000000E-03 0. -1.
    9000002    1    1    2    0    0  0.10035845531E+00  0.18261502934E+00  0.10327214660E+00  0.96640012663E+00  0.93800000000E+00 0.  1.
         22    1    1    2    0    0  0.48791855283E-01 -0.24456835466E+00  0.37340390370E+01  0.37423577936E+01  0.00000000000E+00 0.  1.
</event>
<event>
 5    1  0.2173147E+002  0.1512394E+01  0.7818608E-02  0.3454305E+00
         11   -1    0    0    0    0  0.00000000000E+00  0.00000000000E+00  0.39999999674E+01  0.40000000000E+01  0.51100000000E-03 0. -1.
    9000002   -1    0    0    0    0 -0.00000000000E+00 -0.00000000000E+00  0.00000000000E+00  0.93800000000E+00  0.93800000000E+00 0.  1.
         11    1    1    2    0    0 -0.22806754796E+00 -0.16841284194E+00  0.43901728548E+00  0.52260322409E+00  0.51100000000E-03 0. -1.
    9000002    1    1    2    0    0  0.53533721467E-01  0.60352903850E+00  0.34980876163E+00  0.11701808960E+01  0.93800000000E+00 0.  1.
         22    1    1    2    0    0  0.17453382649E+00 -0.43511619657E+00  0.32111739203E+01  0.32452158799E+01  0.00000000000E+00 0. -1.
</event>
<event>
 5    1  0.2173147E+002  0.1588082E+01  0.7818608E-02  0.3366401E+00
         11   -1    0    0    0    0  0.00000000000E+00  0.00000000000E+00  0.39999999674E+01  0.40000000000E+01  0.51100000000E-03 0.  1.
    9000002   -1    0    0    0    0 -0.00000000000E+00 -0.00000000000E+00  0.00000000000E+00  0.93800000000E+00  0.93800000000E+00 0. -1.
         11    1    1    2    0    0 -0.25799576374E-01  0.29262719800E-03  0.45510257243E-01  0.52317763781E-01  0.51100000000E-03 0.  1.
    9000002    1    1    2    0    0 -0.22343876556E+00 -0.28578032454E+00  0.97833620821E-01  0.10104507376E+01  0.93800000000E+00 0. -1.
         22    1    1    2    0    0  0.24923834193E+00  0.28548769734E+00  0.38566560893E+01  0.38752314986E+01  0.00000000000E+00 0.  1.
</event>
<event>
 5    1  0.2173147E+002  0.1593692E+01  0.7818608E-02  0.3360238E+00
         11   -1    0    0    0    0  0.00000000000E+00  0.00000000000E+00  0.39999999674E+01  0.40000000000E+01  0.51100000000E-03 0.  1.
    9000002   -1    0    0    0    0 -0.00000000000E+00 -0.00000000000E+00  0.00000000000E+00  0.93800000000E+00  0.93800000000E+00 0. -1.
         11    1    1    2    0    0  0.28044209398E-01  0.96590055026E-02  0.68811363269E+00  0.68875279069E+00  0.51100000000E-03 0.  1.
    9000002    1    1    2    0    0  0.24254750298E+00 -0.94635683799E-01  0.49674163994E-01  0.97472905282E+00  0.93800000000E+00 0. -1.
         22    1    1    2    0    0 -0.27059171237E+00  0.84976678296E-01  0.32622121707E+01  0.32745181565E+01  0.00000000000E+00 0.  1.
</event>
<event>
 5    1  0.2173147E+002  0.1597793E+01  0.7818608E-02  0.3355762E+00
         11   -1    0    0    0    0  0.00000000000E+00  0.00000000000E+00  0.39999999674E+01  0.40000000000E+01  0.51100000000E-03 0.  1.
    9000002   -1    0    0    0    0 -0.00000000000E+00 -0.00000000000E+00  0.00000000000E+00  0.93800000000E+00  0.93800000000E+00 0. -1.
         11    1    1    2    0    0 -0.32449830371E+00  0.12360866885E+00  0.26773853072E+01  0.26998093629E+01  0.51100000000E-03 0.  1.
    9000002    1    1    2    0    0  0.52174409888E+00 -0.19931639087E+00  0.21760771893E+00  0.11131671248E+01  0.93800000000E+00 0. -1.
         22    1    1    2    0    0 -0.19724579517E+00  0.75707722012E-01  0.11050069413E+01  0.11250235123E+01  0.00000000000E+00 0. -1.
</event>
<event>
 5    1  0.2173147E+002  0.1599650E+01  0.7818608E-02  0.3353743E+00
         11   -1    0    0    0    0  0.00000000000E+00  0.00000000000E+00  0.39999999674E+01  0.40000000000E+01  0.51100000000E-03 0. -1.
    9000002   -1    0    0    0    0 -0.00000000000E+00 -0.00000000000E+00  0.00000000000E+00  0.93800000000E+00  0.93800000000E+00 0.  1.
         11    1    1    2    0    0 -0.32626491915E-01 -0.51973710227E-02  0.38064242220E+00  0.38207383493E+00  0.51100000000E-03 0. -1.
    9000002    1    1    2    0    0  0.32297147972E+00  0.18377805807E-01  0.69992884703E-01  0.99468151906E+00  0.93800000000E+00 0.  1.
         22    1    1    2    0    0 -0.29034498780E+00 -0.13180434784E-01  0.35493646605E+01  0.35612446460E+01  0.00000000000E+00 0. -1.
</event>
<event>
 5    1  0.2173147E+002  0.1599509E+01  0.7818608E-02  0.3353897E+00
         11   -1    0    0    0    0  0.00000000000E+00  0.00000000000E+00  0.39999999674E+01  0.40000000000E+01  0.51100000000E-03 0.  1.
    9000002   -1    0    0    0    0 -0.00000000000E+00 -0.00000000000E+00  0.00000000000E+00  0.93800000000E+00  0.93800000000E+00 0. -1.
         11    1    1    2    0    0  0.14987021492E-01  0.17076540969E-01  0.57067245248E+00  0.57112479215E+00  0.51100000000E-03 0.  1.
    9000002    1    1    2    0    0 -0.11420597050E+00 -0.19419778600E+00  0.33783447471E-01  0.96526737493E+00  0.93800000000E+00 0. -1.
         22    1    1    2    0    0  0.99218949006E-01  0.17712124503E+00  0.33955440674E+01  0.34016078329E+01  0.00000000000E+00 0.  1.
</event>
<event>
 5    1  0.2173147E+002  0.1596594E+01  0.7818608E-02  0.3357068E+00
         11   -1    0    0    0    0  0.00000000000E+00  0.00000000000E+00  0.39999999674E+01  0.40000000000E+01  0.51100000000E-03 0. -1.
    9000002   -1    0    0    0    0 -0.00000000000E+00 -0.00000000000E+00  0.00000000000E+00  0.93800000000E+00  0.93800000000E+00 0. -1.
         11    1    1    2    0    0 -0.55145895022E-02  0.24340038506E-01  0.48273061958E+00  0.48337558934E+00  0.51100000000E-03 0. -1.
    9000002    1    1    2    0    0  0.10488465809E+00  0.15396903694E+00  0.25261438102E-01  0.95665531729E+00  0.93800000000E+00 0. -1.
         22    1    1    2    0    0 -0.99370068586E-01 -0.17830907545E+00  0.34920079097E+01  0.34979690934E+01  0.00000000000E+00 0. -1.
</event>
<event>
 5    1  0.2173147E+002  0.1574507E+01  0.7818608E-02  0.3381507E+00
         11   -1    0    0    0    0  0.00000000000E+00  0.00000000000E+00  0.39999999674E+01  0.40000000000E+01  0.51100000000E-03 0. -1.
    9000002   -1    0    0    0    0 -0.00000000000E+00 -0.00000000000E+00  0.00000000000E+00  0.93800000000E+00  0.93800000000E+00 0.  1.
         11    1    1    2    0    0  0.12839160507E+00 -0.46003700768E-01  0.83139746203E+00  0.84250978969E+00  0.51100000000E-03 0. -1.
    9000002    1    1    2    0    0  0.38891078651E-01 -0.13579506995E+00  0.31940225078E-01  0.94911379455E+00  0.93800000000E+00 0.  1.
         22    1    1    2    0    0 -0.16728268372E+00  0.18179877071E+00  0.31366622803E+01  0.31463764158E+01  0.00000000000E+00 0. -1.
</event>
<event>
 5    1  0.2173147E+002  0.1593036E+01  0.7818608E-02  0.3360957E+00
         11   -1    0    0    0    0  0.00000000000E+00  0.00000000000E+00  0.39999999674E+01  0.40000000000E+01  0.51100000000E-03 0.  1.
    9000002   -1    0    0    0    0 -0.00000000000E+00 -0.00000000000E+00  0.00000000000E+00  0.93800000000E+00  0.93800000000E+00 0.  1.
         11    1    1    2    0    0  0.37408764007E-01  0.15033627415E-02  0.52235958353E+00  0.52369979125E+00  0.51100000000E-03 0.  1.
    9000002    1    1    2    0    0  0.20699190454E+00  0.10001796351E+00  0.40105219533E-01  0.96659281510E+00  0.93800000000E+00 0.  1.
         22    1    1    2    0    0 -0.24440066855E+00 -0.10152132625E+00  0.34375351643E+01  0.34477073937E+01  0.00000000000E+00 0.  1.
</event>
<event>
 5    1  0.2173147E+002  0.1598987E+01  0.7818608E-02  0.3354464E+00
         11   -1    0    0    0    0  0.00000000000E+00  0.00000000000E+00  0.39999999674E+01  0.40000000000E+01  0.51100000000E-03 0.  1.
    9000002   -1    0    0    0    0 -0.00000000000E+00 -0.00000000000E+00  0.00000000000E+00  0.93800000000E+00  0.93800000000E+00 0.  1.
         11    1    1    2    0    0  0.23280951057E-01 -0.36716323502E-01  0.34805378660E+00  0.35075887812E+00  0.51100000000E-03 0.  1.
    9000002    1    1    2    0    0 -0.25370069400E+00  0.21109445153E+00  0.73429187163E-01  0.99707610298E+00  0.93800000000E+00 0.  1.
         22    1    1    2    0    0  0.23041974295E+00 -0.17437812803E+00  0.35785169936E+01  0.35901650189E+01  0.00000000000E+00 0.  1.
</event>
<event>
 5    1  0.2173147E+002  0.1597688E+01  0.7818608E-02  0.3355876E+00
         11   -1    0    0    0    0  0.00000000000E+00  0.00000000000E+00  0.39999999674E+01  0.40000000000E+01  0.51100000000E-03 0. -1.
    9000002   -1    0    0    0    0 -0.00000000000E+00 -0.00000000000E+00  0.00000000000E+00  0.93800000000E+00  0.93800000000E+00 0.  1.
         11    1    1    2    0    0 -0.11488881044E-01 -0.85284844991E-02  0.90486692174E-01  0.91612401000E-01  0.51100000000E-03 0. -1.
    9000002    1    1    2    0    0  0.74204622169E-01 -0.18274602347E+00  0.27240275996E-01  0.95889961293E+00  0.93800000000E+00 0.  1.
         22    1    1    2    0    0 -0.62715741125E-01  0.19127450797E+00  0.38822729992E+01  0.38874879861E+01  0.00000000000E+00 0. -1.
</event>
<event>
 5    1  0.2173147E+002  0.1599676E+01  0.7818608E-02  0.3353715E+00
         11   -1    0    0    0    0  0.00000000000E+00  0.00000000000E+00  0.39999999674E+01  0.40000000000E+01  0.51100000000E-03 0.  1.
    9000002   -1    0    0    0    0 -0.00000000000E+00 -0.00000000000E+00  0.00000000000E+00  0.93800000000E+00  0.93800000000E+00 0. -1.
         11    1    1    2    0    0  0.71930569086E-01 -0.54907999654E-01  0.10634807783E+01  0.10673240005E+01  0.51100000000E-03 0.  1.
    9000002    1    1    2    0    0 -0.26969156129E+00  0.20259198456E+00  0.76185109346E-01  0.99971256935E+00  0.93800000000E+00 0. -1.
         22    1    1    2    0    0  0.19776099220E+00 -0.14768398491E+00  0.28603340797E+01  0.28709634301E+01  0.00000000000E+00 0.  1.
</event>
<event>
 5    1  0.2173147E+002  0.1579129E+01  0.7818608E-02  0.3376333E+00
         11   -1    0    0    0    0  0.00000000000E+00  0.00000000000E+00  0.39999999674E+01  0.40000000000E+01  0.51100000000E-03 0. -1.
    9000002   -1    0    0    0    0 -0.00000000000E+00 -0.00000000000E+00  0.00000000000E+00  0.93800000000E+00  0.93800000000E+00 0. -1.
         11    1    1    2    0    0  0.16091441119E+00  0.38294304916E-01  0.16437151454E+01  0.16520168407E+01  0.51100000000E-03 0. -1.
    9000002    1    1    2    0    0  0.88811249026E-02 -0.19439510058E+00  0.40592385409E-01  0.95883266072E+00  0.93800000000E+00 0. -1.
         22    1    1    2    0    0 -0.16979553609E+00  0.15610079567E+00  0.23156924365E+01  0.23271504986E+01  0.00000000000E+00 0. -1.
</event>
<event>
 5    1  0.2173147E+002  0.1599674E+01  0.7818608E-02  0.3353717E+00
         11   -1    0    0    0    0  0.00000000000E+00  0.00000000000E+00  0.39999999674E+01  0.40000000000E+01  0.51100000000E-03 0.  1.
    9000002   -1    0    0    0    0 -0.00000000000E+00 -0.00000000000E+00  0.00000000000E+00  0.93800000000E+00  0.93800000000E+00 0. -1.
         11    1    1    2    0    0 -0.19210780604E+00  0.19810553363E-01  0.14851833254E+01  0.14976874301E+01  0.51100000000E-03 0.  1.
    9000002    1    1    2    0    0  0.49990111914E+00 -0.48707106291E-01  0.17276416663E+00  0.10779447891E+01  0.93800000000E+00 0. -1.
         22    1    1    2    0    0 -0.30779331310E+00  0.28896552929E-01  0.23420524754E+01  0.23623677808E+01  0.00000000000E+00 0. -1.
</event>
<event>
 5    1  0.2173147E+002  0.1599584E+01  0.7818608E-02  0.3353815E+00
         11   -1    0    0    0    0  0.00000000000E+00  0.00000000000E+00  0.39999999674E+01  0.40000000000E+01  0.51100000000E-03 0.  1.
    9000002   -1    0    0    0    0 -0.00000000000E+00 -0.00000000000E+00  0.00000000000E+00  0.93800000000E+00  0.93800000000E+00 0.  1.
         11    1    1    2    0    0  0.85875577180E-02  0.99648654454E-02  0.34199229538E+00  0.34224557837E+00  0.51100000000E-03 0.  1.
    9000002    1    1    2    0    0 -0.16122369100E+00 -0.15882069524E+00  0.34034497330E-01  0.96551511577E+00  0.93800000000E+00 0.  1.
         22    1    1    2    0    0  0.15263613328E+00  0.14885582979E+00  0.36239731747E+01  0.36302393059E+01  0.00000000000E+00 0.  1.
</event>
<event>
 5    1  0.2173147E+002  0.1599585E+01  0.7818608E-02  0.3353814E+00
         11   -1    0    0    0    0  0.00000000000E+00  0.00000000000E+00  0.39999999674E+01  0.40000000000E+01  0.51100000000E-03 0. -1.
    9000002   -1    0    0    0    0 -0.00000000000E+00 -0.00000000000E+00  0.00000000000E+00  0.93800000000E+00  0.93800000000E+00 0. -1.
         11    1    1    2    0    0  0.35550028117E-02  0.14722981003E+00  0.17579270018E+01  0.17640852757E+01  0.51100000000E-03 0. -1.
    9000002    1    1    2    0    0 -0.15759110801E-01 -0.35248959849E+00  0.83577377279E-01  0.10056472764E+01  0.93800000000E+00 0. -1.
         22    1    1    2    0    0  0.12204107989E-01  0.20525978847E+00  0.21584955882E+01  0.21682674479E+01  0.00000000000E+00 0.  1.
</event>
<event>
 5    1  0.2173147E+002  0.1599677E+01  0.7818608E-02  0.3353715E+00
         11   -1    0    0    0    0  0.00000000000E+00  0.00000000000E+00  0.39999999674E+01  0.40000000000E+01  0.51100000000E-03 0.  1.
    9000002   -1    0    0    0    0 -0.00000000000E+00 -0.00000000000E+00  0.00000000000E+00  0.93800000000E+00  0.93800000000E+00 0. -1.
         11    1    1    2    0    0 -0.26389868048E+00  0.11054157306E+00  0.14361481061E+01  0.14643713998E+01  0.51100000000E-03 0.  1.
    9000002    1    1    2    0    0  0.66428586355E+00 -0.27936637953E+00  0.37326245516E+00  0.12403588767E+01  0.93800000000E+00 0. -1.
         22    1    1    2    0    0 -0.40038718307E+00  0.16882480646E+00  0.21905894061E+01  0.22332697235E+01  0.00000000000E+00 0.  1.
</event>
<event>
 5    1  0.2173147E+002  0.1575678E+01  0.7818608E-02  0.3380192E+00
         11   -1    0    0    0    0  0.00000000000E+00  0.00000000000E+00  0.39999999674E+01  0.40000000000E+01  0.51100000000E-03 0. -1.
    9000002   -1    0    0    0    0 -0.00000000000E+00 -0.00000000000E+00  0.00000000000E+00  0.93800000000E+00  0.93800000000E+00 0.  1.
         11    1    1    2    0    0  0.29638101370E-01  0.16949660645E-01  0.24962841134E-01  0.42297903108E-01  0.51100000000E-03 0. -1.
    9000002    1    1    2    0    0 -0.12134071010E+00  0.21883075989E+00  0.60164149985E-01  0.97266345379E+00  0.93800000000E+00 0.  1.
         22    1    1    2    0    0  0.91702608725E-01 -0.23578042053E+00  0.39148729762E+01  0.39230386431E+01  0.00000000000E+00 0. -1.
</event>
<event>
 5    1  0.2173147E+002  0.1566581E+01  0.7818608E-02  0.3390454E+00
         11   -1    0    0    0    0  0.00000000000E+00  0.00000000000E+00  0.39999999674E+01  0.40000000000E+01  0.51100000000E-03 0.  1.
    9000002   -1    0    0    0    0 -0.00000000000E+00 -0.00000000000E+00  0.00000000000E+00  0.93800000000E+00  0.93800000000E+00 0. -1.
         11    1    1    2    0    0  0.11467985370E+00 -0.18778265193E+00  0.16893090493E+01  0.17035783276E+01  0.51100000000E-03 0.  1.
    9000002    1    1    2    0    0  0.71115794457E-01  0.63404410358E-01  0.30525335545E-01  0.94332039710E+00  0.93800000000E+00 0. -1.
         22    1    1    2    0    0 -0.18579564815E+00  0.12437824157E+00  0.22801655825E+01  0.22911012753E+01  0.00000000000E+00 0.  1.
</event>
<event>
 5    1  0.2173147E+002  0.1599613E+01  0.7818608E-02  0.3353784E+00
         11   -1    0    0    0    0  0.00000000000E+00  0.00000000000E+00  0.39999999674E+01  0.40000000000E+01  0.51100000000E-03 0.  1.
    9000002   -1    0    0    0    0 -0.00000000000E+00 -0.00000000000E+00  0.00000000000E+00  0.93800000000E+00  0.93800000000E+00 0.  1.
         11    1    1    2    0    0  0.17035128644E-01  0.49701064468E-01  0.69524718890E+00  0.69722973704E+00  0.51100000000E-03 0.  1.
    9000002    1    1    2    0    0 -0.10444261390E+00 -0.24157022315E+00  0.46108792896E-01  0.97531248997E+00  0.93800000000E+00 0.  1.
         22    1    1    2    0    0  0.87407485260E-01  0.19186915868E+00  0.32586439856E+01  0.32654577730E+01  0.00000000000E+00 0.  1.
</event>
<event>
 5    1  0.2173147E+002  0.1599504E+01  0.7818608E-02  0.3353902E+00
         11   -1    0    0    0    0  0.00000000000E+00  0.00000000000E+00  0.39999999674E+01  0.40000000000E+01  0.51100000000E-03 0.  1.
    9000002   -1    0    0    0    0 -0.00000000000E+00 -0.00000000000E+00  0.00000000000E+00  0.93800000000E+00  0.93800000000E+00 0. -1.
         11    1    1    2    0    0  0.55373963047E-02 -0.46399770389E-01  0.76197792831E+00  0.76340960552E+00  0.51100000000E-03 0.  1.
    9000002    1    1    2    0    0  0.35801154589E-01  0.24703564281E+00  0.41521931579E-01  0.97153301657E+00  0.93800000000E+00 0. -1.
         22    1    1    2    0    0 -0.41338550894E-01 -0.20063587242E+00  0.31965001075E+01  0.32030573779E+01  0.00000000000E+00 0.  1.
</event>
<event>
 5    1  0.2173147E+002  0.1599666E+01  0.7818608E-02  0.3353726E+00
         11   -1    0    0    0    0  0.00000000000E+00  0.00000000000E+00  0.39999999674E+01  0.40000000000E+01  0.51100000000E-03 0. -1.
    9000002   -1    0    0    0    0 -0.00000000000E+00 -0.00000000000E+00  0.00000000000E+00  0.93800000000E+00  0.93800000000E+00 0. -1.
         11    1    1    2    0    0 -0.23326073807E+00 -0.12614572341E+00  0.15268274420E+01  0.15496856502E+01  0.51100000000E-03 0. -1.
    9000002    1    1    2    0    0  0.56788812014E+00  0.29699423506E+00  0.28919517359E+00  0.11722543841E+01  0.93800000000E+00 0. -1.
         22    1    1    2    0    0 -0.33462738207E+00 -0.17084851165E+00  0.21839773517E+01  0.22160599657E+01  0.00000000000E+00 0. -1.
</event>
<event>
 5    1  0.2173147E+002  0.1599677E+01  0.7818608E-02  0.3353714E+00
         11   -1    0    0    0    0  0.00000000000E+00  0.00000000000E+00  0.39999999674E+01  0.40000000000E+01  0.51100000000E-03 0.  1.
    9000002   -1    0    0    0    0 -0.00000000000E+00 -0.00000000000E+00  0.00000000000E+00  0.93800000000E+00  0.93800000000E+00 0. -1.
         11    1    1    2    0    0  0.61772578965E-01  0.89237578480E-01  0.12902164239E+01  0.12947732924E+01  0.51100000000E-03 0.  1.
    9000002    1    1    2    0    0 -0.18930147907E+00 -0.27193288818E+00  0.73463567096E-01  0.99750861718E+00  0.93800000000E+00 0. -1.
         22    1    1    2    0    0  0.12752890010E+00  0.18269530970E+00  0.26363199763E+01  0.26457180905E+01  0.00000000000E+00 0.  1.
</event>
<event>
 5    1  0.2173147E+002  0.1568821E+01  0.7818608E-02  0.3387915E+00
         11   -1    0    0    0    0  0.00000000000E+00  0.00000000000E+00  0.39999999674E+01  0.40000000000E+01  0.51100000000E-03 0. -1.
    9000002   -1    0    0    0    0 -0.00000000000E+00 -0.00000000000E+00  0.00000000000E+00  0.93800000000E+00  0.93800000000E+00 0.  1.
         11    1    1    2    0    0 -0.41416435088E-01  0.14735466688E+00  0.27478999895E+01  0.27521597577E+01  0.51100000000E-03 0. -1.
    9000002    1    1    2    0    0  0.23571508634E+00  0.53855846683E-02  0.60706187397E-01  0.96908196126E+00  0.93800000000E+00 0.  1.
         22    1    1    2    0    0 -0.19429865126E+00 -0.15274025155E+00  0.11913937905E+01  0.12167582810E+01  0.00000000000E+00 0. -1.
</event>
<event>
 5    1  0.2173147E+002  0.1599676E+01  0.7818608E-02  0.3353715E+00
         11   -1    0    0    0    0  0.00000000000E+00  0.00000000000E+00  0.39999999674E+01  0.40000000000E+01  0.51100000000E-03 0.  1.
    9000002   -1    0    0    0    0 -0.00000000000E+00 -0.00000000000E+00  0.00000000000E+00  0.93800000000E+00  0.93800000000E+00 0.  1.
         11    1    1    2    0    0 -0.99931018277E-01  0.10652978061E+00  0.14709983217E+01  0.14782324331E+01  0.51100000000E-03 0.  1.
    9000002    1    1    2    0    0  0.26205623940E+00 -0.28308509202E+00  0.10019694969E+00  0.10191634171E+01  0.93800000000E+00 0.  1.
         22    1    1    2    0    0 -0.16212522113E+00  0.17655531141E+00  0.24288046959E+01  0.24406041499E+01  0.00000000000E+00 0.  1.
</event>
<event>
 5    1  0.2173147E+002  0.1599646E+01  0.7818608E-02  0.3353748E+00
         11   -1    0    0    0    0  0.00000000000E+00  0.00000000000E+00  0.39999999674E+01  0.40000000000E+01  0.51100000000E-03 0. -1.
    9000002   -1    0    0    0    0 -0.00000000000E+00 -0.00000000000E+00  0.00000000000E+00  0.93800000000E+00  0.93800000000E+00 0.  1.
         11    1    1    2    0    0 -0.38950610263E-01 -0.14790681067E-01  0.55687017525E+00  0.55842686853E+00  0.51100000000E-03 0. -1.
    9000002    1    1    2    0    0  0.25031102932E+00  0.12572313646E+00  0.52273872031E-01  0.98032569901E+00  0.93800000000E+00 0.  1.
         22    1    1    2    0    0 -0.21136041906E+00 -0.11093245539E+00  0.33908559201E+01  0.33992474325E+01  0.00000000000E+00 0. -1.
</event>
<event>
 5    1  0.2173147E+002  0.1548582E+01  0.7818608E-02  0.3411134E+00
         11   -1    0    0    0    0  0.00000000000E+00  0.00000000000E+00  0.39999999674E+01  0.40000000000E+01  0.51100000000E-03 0. -1.
    9000002   -1    0    0    0    0 -0.00000000000E+00 -0.00000000000E+00  0.00000000000E+00  0.93800000000E+00  0.93800000000E+00 0.  1.
         11    1    1    2    0    0 -0.10730387576E+00  0.26628445863E+00  0.15892158209E+01  0.16149392314E+01  0.51100000000E-03 0. -1.
    9000002    1    1    2    0    0  0.29888907626E+00  0.16491323965E-02  0.10069403598E+00  0.98960633003E+00  0.93800000000E+00 0.  1.
         22    1    1    2    0    0 -0.19158520051E+00 -0.26793359102E+00  0.23100901105E+01  0.23334544385E+01  0.00000000000E+00 0. -1.
</event>
<event>
 5    1  0.2173147E+002  0.1593831E+01  0.7818608E-02  0.3360086E+00
         11   -1    0    0    0    0  0.00000000000E+00  0.00000000000E+00  0.39999999674E+01  0.40000000000E+01  0.51100000000E-03 0.  1.
    9000002   -1    0    0    0    0 -0.00000000000E+00 -0.00000000000E+00  0.00000000000E+00  0.93800000000E+00  0.93800000000E+00 0. -1.
         11    1    1    2    0    0 -0.62888025445E-01  0.23960886295E-01  0.34384763755E+00  0.35037192637E+00  0.51100000000E-03 0.  1.
    9000002    1    1    2    0    0  0.12199649592E+00 -0.30080415264E+00  0.75111238220E-01  0.99541548178E+00  0.93800000000E+00 0. -1.
         22    1    1    2    0    0 -0.59108470473E-01  0.27684326635E+00  0.35810410916E+01  0.35922125919E+01  0.00000000000E+00 0.  1.
</event>
<event>
 5    1  0.2173147E+002  0.1599651E+01  0.7818608E-02  0.3353742E+00
         11   -1    0    0    0    0  0.00000000000E+00  0.00000000000E+00  0.39999999674E+01  0.40000000000E+01  0.51100000000E-03 0. -1.
    9000002   -1    0    0    0    0 -0.00000000000E+00 -0.00000000000E+00  0.00000000000E+00  0.93800000000E+00  0.93800000000E+00 0.  1.
         11    1    1    2    0    0  0.23015748447E+00 -0.48591560913E-01  0.15308503265E+01  0.15488178043E+01  0.51100000000E-03 0. -1.
    9000002    1    1    2    0    0 -0.55317940386E+00  0.11743906324E+00  0.22157442301E+00  0.11174697362E+01  0.93800000000E+00 0.  1.
         22    1    1    2    0    0  0.32302191939E+00 -0.68847502330E-01  0.22475752178E+01  0.22717124595E+01  0.00000000000E+00 0. -1.
</event>
<event>
 5    1  0.2173147E+002  0.1599579E+01  0.7818608E-02  0.3353821E+00
         11   -1    0    0    0    0  0.00000000000E+00  0.00000000000E+00  0.39999999674E+01  0.40000000000E+01  0.51100000000E-03 0.  1.
    9000002   -1    0    0    0    0 -0.00000000000E+00 -0.00000000000E+00  0.00000000000E+00  0.93800000000E+00  0.93800000000E+00 0.  1.
         11    1    1    2    0    0  0.10602503658E+00 -0.89085098846E-01  0.14464466066E+01  0.14530607386E+01  0.51100000000E-03 0.  1.
    9000002    1    1    2    0    0 -0.25885257143E+00  0.22845390923E+00  0.79959347294E-01  0.10027129896E+01  0.93800000000E+00 0.  1.
         22    1    1    2    0    0  0.15282753485E+00 -0.13936881038E+00  0.24735940134E+01  0.24822262717E+01  0.00000000000E+00 0.  1.
</event>
<event>
 5    1  0.2173147E+002  0.1582529E+01  0.7818608E-02  0.3372546E+00
         11   -1    0    0    0    0  0.00000000000E+00  0.00000000000E+00  0.39999999674E+01  0.40000000000E+01  0.51100000000E-03 0.  1.
    9000002   -1    0    0    0    0 -0.00000000000E+00 -0.00000000000E+00  0.00000000000E+00  0.93800000000E+00  0.93800000000E+00 0. -1.
         11    1    1    2    0    0 -0.18270411827E-01  0.51322978784E-01  0.24504406044E+01  0.24510461589E+01  0.51100000000E-03 0.  1.
    9000002    1    1    2    0    0  0.63044912884E-01  0.16302535911E+00  0.33052317949E-01  0.95471900813E+00  0.93800000000E+00 0. -1.
         22    1    1    2    0    0 -0.44774501057E-01 -0.21434833790E+00  0.15165070450E+01  0.15322348330E+01  0.00000000000E+00 0.  1.
</event>
<event>
 5    1  0.2173147E+002  0.1599659E+01  0.7818608E-02  0.3353733E+00
         11   -1    0    0    0    0  0.00000000000E+00  0.00000000000E+00  0.39999999674E+01  0.40000000000E+01  0.51100000000E-03 0. -1.
    9000002   -1    0    0    0    0 -0.00000000000E+00 -0.00000000000E+00  0.00000000000E+00  0.93800000000E+00  0.93800000000E+00 0.  1.
         11    1    1    2    0    0 -0.11681733062E+00  0.89656651546E-01  0.15012846845E+01  0.15084894991E+01  0.51100000000E-03 0. -1.
    9000002    1    1    2    0    0  0.30956194182E+00 -0.24380080682E+00  0.10466639377E+00  0.10227739160E+01  0.93800000000E+00 0.  1.
         22    1    1    2    0    0 -0.19274461120E+00  0.15414415528E+00  0.23940488891E+01  0.24067365849E+01  0.00000000000E+00 0. -1.
</event>
<event>
 5    1  0.2173147E+002  0.1599677E+01  0.7818608E-02  0.3353714E+00
         11   -1    0    0    0    0  0.00000000000E+00  0.00000000000E+00  0.39999999674E+01  0.40000000000E+01  0.51100000000E-03 0. -1.
    9000002   -1    0    0    0    0 -0.00000000000E+00 -0.00000000000E+00  0.00000000000E+00  0.93800000000E+00  0.93800000000E+00 0. -1.
         11    1    1    2    0    0 -0.33179526235E+00  0.32259399445E+00  0.21993883504E+01  0.22475462972E+01  0.51100000000E-03 0. -1.
    9000002    1    1    2    0    0  0.54044960987E+00 -0.52592311303E+00  0.41276915653E+00  0.12723613002E+01  0.93800000000E+00 0. -1.
         22    1    1    2    0    0 -0.20865434752E+00  0.20332911858E+00  0.13878424605E+01  0.14180924026E+01  0.00000000000E+00 0. -1.
</event>
<event>
 5    1  0.2173147E+002  0.1599464E+01  0.7818608E-02  0.3353945E+00
         11   -1    0    0    0    0  0.00000000000E+00  0.00000000000E+00  0.39999999674E+01  0.40000000000E+01  0.51100000000E-03 0.  1.
    9000002   -1    0    0    0    0 -0.00000000000E+00 -0.00000000000E+00  0.00000000000E+00  0.93800000000E+00  0.93800000000E+00 0. -1.
         11    1    1    2    0    0 -0.18063781056E-01 -0.14243539991E+00  0.60174189515E+00  0.61863374692E+00  0.51100000000E-03 0.  1.
    9000002    1    1    2    0    0  0.63987929314E-01  0.77518326455E+00  0.44267197733E+00  0.12964590345E+01  0.93800000000E+00 0. -1.
         22    1    1    2    0    0 -0.45924148258E-01 -0.63274786464E+00  0.29555860949E+01  0.30229072185E+01  0.00000000000E+00 0.  1.
</event>
<event>
 5    1  0.2173147E+002  0.1558868E+01  0.7818608E-02  0.3399254E+00
         11   -1    0    0    0    0  0.00000000000E+00  0.00000000000E+00  0.39999999674E+01  0.40000000000E+01  0.51100000000E-03 0.  1.
    9000002   -1    0    0    0    0 -0.00000000000E+00 -0.00000000000E+00  0.00000000000E+00  0.93800000000E+00  0.93800000000E+00 0.  1.
         11    1    1    2    0    0  0.19553970353E+00  0.10926729394E-01  0.81894484017E+00  0.84203686465E+00  0.51100000000E-03 0.  1.
    9000002    1    1    2    0    0  0.90287644845E-02 -0.84697625509E-01  0.35112853338E-01  0.94251372341E+00  0.93800000000E+00 0.  1.
         22    1    1    2    0    0 -0.20456846801E+00  0.73770896115E-01  0.31459422739E+01  0.31534494119E+01  0.00000000000E+00 0.  1.
</event>
<event>
 5    1  0.2173147E+002  0.1599657E+01  0.7818608E-02  0.3353736E+00
         11   -1    0    0    0    0  0.00000000000E+00  0.00000000000E+00  0.39999999674E+01  0.40000000000E+01  0.51100000000E-03 0. -1.
    9000002   -1    0    0    0    0 -0.00000000000E+00 -0.00000000000E+00  0.00000000000E+00  0.93800000000E+00  0.93800000000E+00 0. -1.
         11    1    1    2    0    0 -0.31548989433E+00  0.73737251970E-01  0.12336109880E+01  0.12754479161E+01  0.51100000000E-03 0. -1.
    9000002    1    1    2    0    0  0.86987436508E+00 -0.21620693061E+00  0.61401946726E+00  0.14353712948E+01  0.93800000000E+00 0. -1.
         22    1    1    2    0    0 -0.55438447074E+00  0.14246967864E+00  0.21523695121E+01  0.22271807891E+01  0.00000000000E+00 0. -1.
</event>
<event>
 5    1  0.2173147E+002  0.1599600E+01  0.7818608E-02  0.3353798E+00
         11   -1    0    0    0    0  0.00000000000E+00  0.00000000000E+00  0.39999999674E+01  0.40000000000E+01  0.51100000000E-03 0. -1.
    9000002   -1    0    0    0    0 -0.00000000000E+00 -0.00000000000E+00  0.00000000000E+00  0.93800000000E+00  0.93800000000E+00 0.  1.
         11    1    1    2    0    0  0.17959901853E+00  0.20456226499E-02  0.12808860629E+01  0.12934177049E+01  0.51100000000E-03 0. -1.
    9000002    1    1    2    0    0 -0.50690096134E+00  0.75318538156E-03  0.17617179848E+00  0.10806616744E+01  0.93800000000E+00 0.  1.
         22    1    1    2    0    0  0.32730194281E+00 -0.27988080315E-02  0.25429421059E+01  0.25639206207E+01  0.00000000000E+00 0. -1.
</event>
<event>
 5    1  0.2173147E+002  0.1598466E+01  0.7818608E-02  0.3355030E+00
         11   -1    0    0    0    0  0.00000000000E+00  0.00000000000E+00  0.39999999674E+01  0.40000000000E+01  0.51100000000E-03 0. -1.
    9000002   -1    0    0    0    0 -0.00000000000E+00 -0.00000000000E+00  0.00000000000E+00  0.93800000000E+00  0.93800000000E+00 0.  1.
         11    1    1    2    0    0 -0.87413537929E-01 -0.43736269727E-01  0.16303250593E+01  0.16332525978E+01  0.51100000000E-03 0. -1.
    9000002    1    1    2    0    0  0.21214605811E+00  0.20554265764E+00  0.59129629086E-01  0.98518731575E+00  0.93800000000E+00 0.  1.
         22    1    1    2    0    0 -0.12473252018E+00 -0.16180638791E+00  0.23105452789E+01  0.23195600865E+01  0.00000000000E+00 0. -1.
</event>
<event>
 5    1  0.2173147E+002  0.1599669E+01  0.7818608E-02  0.3353723E+00
         11   -1    0    0    0    0  0.00000000000E+00  0.00000000000E+00  0.39999999674E+01  0.40000000000E+01  0.51100000000E-03 0.  1.
    9000002   -1    0    0    0    0 -0.00000000000E+00 -0.00000000000E+00  0.00000000000E+00  0.93800000000E+00  0.93800000000E+00 0. -1.
         11    1    1    2    0    0  0.66374164531E-01 -0.60055662843E-01  0.11365878062E+01  0.11401071505E+01  0.51100000000E-03 0.  1.
    9000002    1    1    2    0    0 -0.22954107290E+00  0.19725804924E+00  0.61129032593E-01  0.98751232942E+00  0.93800000000E+00 0. -1.
         22    1    1    2    0    0  0.16316690837E+00 -0.13720238640E+00  0.28022831286E+01  0.28103805201E+01  0.00000000000E+00 0.  1.
</event>
<event>
 5    1  0.2173147E+002  0.1599369E+01  0.7818608E-02  0.3354049E+00
         11   -1    0    0    0    0  0.00000000000E+00  0.00000000000E+00  0.39999999674E+01  0.40000000000E+01  0.51100000000E-03 0. -1.
    9000002   -1    0    0    0    0 -0.00000000000E+00 -0.00000000000E+00  0.00000000000E+00  0.93800000000E+00  0.93800000000E+00 0. -1.
         11    1    1    2    0    0  0.37212863814E-01 -0.15752232083E-01  0.35243500040E+00  0.35474444418E+00  0.51100000000E-03 0. -1.
    9000002    1    1    2    0    0 -0.31480983481E+00  0.26742432634E+00  0.11554313667E+00  0.10314141839E+01  0.93800000000E+00 0. -1.
         22    1    1    2    0    0  0.27759697100E+00 -0.25167209425E+00  0.35320218303E+01  0.35518413719E+01  0.00000000000E+00 0. -1.
</event>
<event>
 5    1  0.2173147E+002  0.1599672E+01  0.7818608E-02  0.3353719E+00
         11   -1    0    0    0    0  0.00000000000E+00  0.00000000000E+00  0.39999999674E+01  0.40000000000E+01  0.51100000000E-03 0. -1.
    9000002   -1    0    0    0    0 -0.00000000000E+00 -0.00000000000E+00  0.00000000000E+00  0.93800000000E+00  0.93800000000E+00 0.  1.
         11    1    1    2    0    0 -0.60295241028E-03  0.41763203387E-01  0.48509086074E+00  0.48688595482E+00  0.51100000000E-03 0. -1.
    9000002    1    1    2    0    0 -0.30767318063E-02 -0.32741927341E+00  0.71718660895E-01  0.99609257260E+00  0.93800000000E+00 0.  1.
         22    1    1    2    0    0  0.36796842166E-02  0.28565607002E+00  0.34431904457E+01  0.34550214726E+01  0.00000000000E+00 0. -1.
</event>
<event>
 5    1  0.2173147E+002  0.1599673E+01  0.7818608E-02  0.3353718E+00
         11   -1    0    0    0    0  0.00000000000E+00  0.00000000000E+00  0.39999999674E+01  0.40000000000E+01  0.51100000000E-03 0.  1.
    9000002   -1    0    0    0    0 -0.00000000000E+00 -0.00000000000E+00  0.00000000000E+00  0.93800000000E+00  0.93800000000E+00 0. -1.
         11    1    1    2    0    0 -0.14853308925E-01  0.25213261612E-01  0.27769423115E+00  0.27923229842E+00  0.51100000000E-03 0.  1.
    9000002    1    1    2    0    0  0.22306900084E+00 -0.35668486527E+00  0.11970961408E+00  0.10349677599E+01  0.93800000000E+00 0. -1.
         22    1    1    2    0    0 -0.20821569191E+00  0.33147160366E+00  0.36025961221E+01  0.36237999417E+01  0.00000000000E+00 0.  1.
</event>
<event>
 5    1  0.2173147E+002  0.1519577E+01  0.7818608E-02  0.3445561E+00
         11   -1    0    0    0    0  0.00000000000E+00  0.00000000000E+00  0.39999999674E+01  0.40000000000E+01  0.51100000000E-03 0. -1.
    9000002   -1    0    0    0    0 -0.00000000000E+00 -0.00000000000E+00  0.00000000000E+00  0.93800000000E+00  0.93800000000E+00 0.  1.
         11    1    1    2    0    0 -0.12757617674E+00 -0.14672396216E+00  0.27089314739E+00  0.33344708780E+00  0.51100000000E-03 0. -1.
    9000002    1    1    2    0    0  0.27059518053E+00 -0.33021208086E-02  0.11329879796E+00  0.98280886918E+00  0.93800000000E+00 0.  1.
         22    1    1    2    0    0 -0.14301900379E+00  0.15002608297E+00  0.36158080220E+01  0.36217440430E+01  0.00000000000E+00 0. -1.
</event>
<event>
 5    1  0.2173147E+002  0.1563623E+01  0.7818608E-02  0.3393817E+00
         11   -1    0    0    0    0  0.00000000000E+00  0.00000000000E+00  0.39999999674E+01  0.40000000000E+01  0.51100000000E-03 0.  1.
    9000002   -1    0    0    0    0 -0.00000000000E+00 -0.00000000000E+00  0.00000000000E+00  0.93800000000E+00  0.93800000000E+00 0. -1.
         11    1    1    2    0    0  0.18662614081E+00  0.19274101557E-01  0.15219021593E+01  0.15334233763E+01  0.51100000000E-03 0.  1.
    9000002    1    1    2    0    0  0.63907042542E-01  0.13018047629E+00  0.40945894354E-01  0.95002717475E+00  0.93800000000E+00 0. -1.
         22    1    1    2    0    0 -0.25053318336E+00 -0.14945457784E+00  0.24371519138E+01  0.24545494490E+01  0.00000000000E+00 0.  1.
</event>
<event>
 5    1  0.2173147E+002  0.1599152E+01  0.7818608E-02  0.3354284E+00
         11   -1    0    0    0    0  0.00000000000E+00  0.00000000000E+00  0.39999999674E+01  0.40000000000E+01  0.51100000000E-03 0. -1.
    9000002   -1    0    0    0    0 -0.00000000000E+00 -0.00000000000E+00  0.00000000000E+00  0.93800000000E+00  0.93800000000E+00 0. -1.
         11    1    1    2    0    0 -0.26723523423E+00 -0.86034749795E-01  0.21195414534E+01  0.21380535265E+01  0.51100000000E-03 0. -1.
    9000002    1    1    2    0    0  0.44631162083E+00  0.18821055671E+00  0.16066245651E+00  0.10678359900E+01  0.93800000000E+00 0. -1.
         22    1    1    2    0    0 -0.17907638660E+00 -0.10217580692E+00  0.17197960575E+01  0.17321104835E+01  0.00000000000E+00 0. -1.
</event>
<event>
 5    1  0.2173147E+002  0.1598855E+01  0.7818608E-02  0.3354608E+00
         11   -1    0    0    0    0  0.00000000000E+00  0.00000000000E+00  0.39999999674E+01  0.40000000000E+01  0.51100000000E-03 0. -1.
    9000002   -1    0    0    0    0 -0.00000000000E+00 -0.00000000000E+00  0.00000000000E+00  0.93800000000E+00  0.93800000000E+00 0.  1.
         11    1    1    2    0    0  0.15996597635E-01  0.12955540945E-01  0.62793463481E+00  0.62827215750E+00  0.51100000000E-03 0. -1.
    9000002    1    1    2    0    0 -0.99431207267E-01 -0.24055792867E+00  0.45676673483E-01  0.97451785029E+00  0.93800000000E+00 0.  1.
         22    1    1    2    0    0  0.83434609632E-01  0.22760238773E+00  0.33263886591E+01  0.33352099922E+01  0.00000000000E+00 0. -1.
</event>
<event>
 5    1  0.2173147E+002  0.1592965E+01  0.7818608E-02  0.3361035E+00
         11   -1    0    0    0    0  0.00000000000E+00  0.00000000000E+00  0.39999999674E+01  0.40000000000E+01  0.51100000000E-03 0. -1.
    9000002   -1    0    0    0    0 -0.00000000000E+00 -0.00000000000E+00  0.00000000000E+00  0.93800000000E+00  0.93800000000E+00 0.  1.
         11    1    1    2    0    0 -0.86675762367E-01  0.81917794329E-02  0.67368197708E+00  0.67928452095E+00  0.51100000000E-03 0. -1.
    9000002    1    1    2    0    0  0.14946902072E+00  0.19812929120E+00  0.46055279445E-01  0.97137083184E+00  0.93800000000E+00 0.  1.
         22    1    1    2    0    0 -0.62793258351E-01 -0.20632107063E+00  0.32802627108E+01  0.32873446472E+01  0.00000000000E+00 0. -1.
</event>
<event>
 5    1  0.2173147E+002  0.1599652E+01  0.7818608E-02  0.3353742E+00
         11   -1    0    0    0    0  0.00000000000E+00  0.00000000000E+00  0.39999999674E+01  0.40000000000E+01  0.51100000000E-03 0. -1.
    9000002   -1    0    0    0    0 -0.00000000000E+00 -0.00000000000E+00  0.00000000000E+00  0.93800000000E+00  0.93800000000E+00 0.  1.
         11    1    1    2    0    0 -0.61230716203E-02  0.15319027132E-01  0.25764536691E+00  0.25817350912E+00  0.51100000000E-03 0. -1.
    9000002    1    1    2    0    0  0.11006137104E+00 -0.19317527270E+00  0.32789708771E-01  0.96454619194E+00  0.93800000000E+00 0.  1.
         22    1    1    2    0    0 -0.10393829942E+00  0.17785624556E+00  0.37095648917E+01  0.37152802989E+01  0.00000000000E+00 0. -1.
</event>
<event>
 5    1  0.2173147E+002  0.1599475E+01  0.7818608E-02  0.3353933E+00
         11   -1    0    0    0    0  0.00000000000E+00  0.00000000000E+00  0.39999999674E+01  0.40000000000E+01  0.51100000000E-03 0. -1.
    9000002   -1    0    0    0    0 -0.00000000000E+00 -0.00000000000E+00  0.00000000000E+00  0.93800000000E+00  0.93800000000E+00 0.  1.
         11    1    1    2    0    0 -0.40119490489E-01 -0.12712625460E+00  0.15734656404E+01  0.15791026061E+01  0.51100000000E-03 0. -1.
    9000002    1    1    2    0    0  0.72018965632E-01  0.34749202353E+00  0.84651134696E-01  0.10064528069E+01  0.93800000000E+00 0.  1.
         22    1    1    2    0    0 -0.31899475143E-01 -0.22036576893E+00  0.23418831923E+01  0.23524445870E+01  0.00000000000E+00 0. -1.
</event>
<event>
 5    1  0.2173147E+002  0.1597139E+01  0.7818608E-02  0.3356475E+00
         11   -1    0    0    0    0  0.00000000000E+00  0.00000000000E+00  0.39999999674E+01  0.40000000000E+01  0.51100000000E-03 0. -1.
    9000002   -1    0    0    0    0 -0.00000000000E+00 -0.00000000000E+00  0.00000000000E+00  0.93800000000E+00  0.93800000000E+00 0.  1.
         11    1    1    2    0    0  0.23501395426E-01  0.10457436860E+00  0.69087977449E+00  0.69914464747E+00  0.51100000000E-03 0. -1.
    9000002    1    1    2    0    0 -0.59013682482E-01 -0.34002749711E+00  0.81856245772E-01  0.10028189061E+01  0.93800000000E+00 0.  1.
         22    1    1    2    0    0  0.35512287056E-01  0.23545312851E+00  0.32272639471E+01  0.32360364464E+01  0.00000000000E+00 0. -1.
</event>
<event>
 5    1  0.2173147E+002  0.1599663E+01  0.7818608E-02  0.3353729E+00
         11   -1    0    0    0    0  0.00000000000E+00  0.00000000000E+00  0.39999999674E+01  0.40000000000E+01  0.51100000000E-03 0.  1.
    9000002   -1    0    0    0    0 -0.00000000000E+00 -0.00000000000E+00  0.00000000000E+00  0.93800000000E+00  0.93800000000E+00 0.  1.
         11    1    1    2    0    0  0.91634269713E-01  0.60536831721E-01  0.13194968973E+01  0.13240596175E+01  0.51100000000E-03 0.  1.
    9000002    1    1    2    0    0 -0.27925205131E+00 -0.16923513130E+00  0.71324635354E-01  0.99576776481E+00  0.93800000000E+00 0.  1.
         22    1    1    2    0    0  0.18761778159E+00  0.10869829958E+00  0.26091784347E+01  0.26181726177E+01  0.00000000000E+00 0.  1.
</event>
<event>
 5    1  0.2173147E+002  0.1599674E+01  0.7818608E-02  0.3353718E+00
         11   -1    0    0    0    0  0.00000000000E+00  0.00000000000E+00  0.39999999674E+01  0.40000000000E+01  0.51100000000E-03 0. -1.
    9000002   -1    0    0    0    0 -0.00000000000E+00 -0.00000000000E+00  0.00000000000E+00  0.93800000000E+00  0.93800000000E+00 0.  1.
         11    1    1    2    0    0 -0.23532506448E-01 -0.25518011728E-01  0.47828243028E+00  0.47954070945E+00  0.51100000000E-03 0. -1.
    9000002    1    1    2    0    0  0.18955362502E+00  0.20009101285E+00  0.50571318387E-01  0.97896294538E+00  0.93800000000E+00 0.  1.
         22    1    1    2    0    0 -0.16602111857E+00 -0.17457300112E+00  0.34711462187E+01  0.34794963452E+01  0.00000000000E+00 0. -1.
</event>
<event>
 5    1  0.2173147E+002  0.1569656E+01  0.7818608E-02  0.3386971E+00
         11   -1    0    0    0    0  0.00000000000E+00  0.00000000000E+00  0.39999999674E+01  0.40000000000E+01  0.51100000000E-03 0.  1.
    9000002   -1    0    0    0    0 -0.00000000000E+00 -0.00000000000E+00  0.00000000000E+00  0.93800000000E+00  0.93800000000E+00 0.  1.
         11    1    1    2    0    0 -0.67426848697E-01  0.77841701092E-01  0.23477036359E+00  0.25636515967E+00  0.51100000000E-03 0.  1.
    9000002    1    1    2    0    0 -0.11827850323E+00 -0.17138871751E+00  0.51635243052E-01  0.96222351621E+00  0.93800000000E+00 0.  1.
         22    1    1    2    0    0  0.18570535193E+00  0.93547016417E-01  0.37135943607E+01  0.37194113241E+01  0.00000000000E+00 0.  1.
</event>
<event>
 5    1  0.2173147E+002  0.1459128E+01  0.7818608E-02  0.3522053E+00
         11   -1    0    0    0    0  0.00000000000E+00  0.00000000000E+00  0.39999999674E+01  0.40000000000E+01  0.51100000000E-03 0. -1.
    9000002   -1    0    0    0    0 -0.00000000000E+00 -0.00000000000E+00  0.00000000000E+00  0.93800000000E+00  0.93800000000E+00 0. -1.
         11    1    1    2    0    0  0.43887743470E-01 -0.41900965671E+00  0.87545886564E+00  0.97155736474E+00  0.51100000000E-03 0. -1.
    9000002    1    1    2    0    0  0.11615499490E-01  0.39619524764E-01  0.13048162634E+00  0.94793147505E+00  0.93800000000E+00 0. -1.
         22    1    1    2    0    0 -0.55503242959E-01  0.37939013195E+00  0.29940594754E+01  0.30185111602E+01  0.00000000000E+00 0. -1.
</event>
<event>
 5    1  0.2173147E+002  0.1599674E+01  0.7818608E-02  0.3353717E+00
         11   -1    0    0    0    0  0.00000000000E+00  0.00000000000E+00  0.39999999674E+01  0.40000000000E+01  0.51100000000E-03 0. -1.
    9000002   -1    0    0    0    0 -0.00000000000E+00 -0.00000000000E+00  0.00000000000E+00  0.93800000000E+00  0.93800000000E+00 0. -1.
         11    1    1    2    0    0  0.25105364240E-01  0.27272004919E-01  0.52811360473E+00  0.52941314886E+00  0.51100000000E-03 0.  1.
    9000002    1    1    2    0    0 -0.18929654261E+00 -0.19436363065E+00  0.48984285842E-01  0.97767779059E+00  0.93800000000E+00 0. -1.
         22    1    1    2    0    0  0.16419117837E+00  0.16709162573E+00  0.34229020768E+01  0.34309090605E+01  0.00000000000E+00 0. -1.
</event>
<event>
 5    1  0.2173147E+002  0.1599632E+01  0.7818608E-02  0.3353763E+00
         11   -1    0    0    0    0  0.00000000000E+00  0.00000000000E+00  0.39999999674E+01  0.40000000000E+01  0.51100000000E-03 0.  1.
    9000002   -1    0    0    0    0 -0.00000000000E+00 -0.00000000000E+00  0.00000000000E+00  0.93800000000E+00  0.93800000000E+00 0. -1.
         11    1    1    2    0    0  0.39516685756E-01 -0.33791947615E-01  0.45597987349E+00  0.45893503933E+00  0.51100000000E-03 0.  1.
    9000002    1    1    2    0    0 -0.32271339473E+00  0.24625960993E+00  0.11127565190E+00  0.10281118623E+01  0.93800000000E+00 0. -1.
         22    1    1    2    0    0  0.28319670897E+00 -0.21246766231E+00  0.34327444420E+01  0.34509530984E+01  0.00000000000E+00 0.  1.
</event>
<event>
 5    1  0.2173147E+002  0.1599677E+01  0.7818608E-02  0.3353714E+00
         11   -1    0    0    0    0  0.00000000000E+00  0.00000000000E+00  0.39999999674E+01  0.40000000000E+01  0.51100000000E-03 0. -1.
    9000002   -1    0    0    0    0 -0.00000000000E+00 -0.00000000000E+00  0.00000000000E+00  0.93800000000E+00  0.93800000000E+00 0.  1.
         11    1    1    2    0    0 -0.39597176952E-02 -0.19862413302E+00  0.12124112537E+01  0.12285798854E+01  0.51100000000E-03 0.  1.
    9000002    1    1    2    0    0  0.11194945345E-01  0.61282779923E+00  0.26285023319E+00  0.11509202767E+01  0.93800000000E+00 0.  1.
         22    1    1    2    0    0 -0.72352276496E-02 -0.41420366621E+00  0.25247384805E+01  0.25584998379E+01  0.00000000000E+00 0. -1.
</event>
<event>
 5    1  0.2173147E+002  0.1599564E+01  0.7818608E-02  0.3353837E+00
         11   -1    0    0    0    0  0.00000000000E+00  0.00000000000E+00  0.39999999674E+01  0.40000000000E+01  0.51100000000E-03 0.  1.
    9000002   -1    0    0    0    0 -0.00000000000E+00 -0.00000000000E+00  0.00000000000E+00  0.93800000000E+00  0.93800000000E+00 0.  1.
         11    1    1    2    0    0  0.27465350846E-01  0.42821343214E-03  0.35519870991E+00  0.35625961531E+00  0.51100000000E-03 0.  1.
    9000002    1    1    2    0    0 -0.24949579531E+00 -0.63592552944E-01  0.44149702822E-01  0.97369674998E+00  0.93800000000E+00 0.  1.
         22    1    1    2    0    0  0.22203044446E+00  0.63164339512E-01  0.36006515546E+01  0.36080436347E+01  0.00000000000E+00 0.  1.
</event>
<event>
 5    1  0.2173147E+002  0.1596436E+01  0.7818608E-02  0.3357241E+00
         11   -1    0    0    0    0  0.00000000000E+00  0.00000000000E+00  0.39999999674E+01  0.40000000000E+01  0.51100000000E-03 0.  1.
    9000002   -1    0    0    0    0 -0.00000000000E+00 -0.00000000000E+00  0.00000000000E+00  0.93800000000E+00  0.93800000000E+00 0.  1.
         11    1    1    2    0    0  0.33104402518E-01  0.16824585717E+00  0.20548618077E+01  0.20620038505E+01  0.51100000000E-03 0.  1.
    9000002    1    1    2    0    0  0.62187747353E-01 -0.35618675582E+00  0.90406977235E-01  0.10093333158E+01  0.93800000000E+00 0.  1.
         22    1    1    2    0    0 -0.95292149871E-01  0.18794089864E+00  0.18547311825E+01  0.18666628336E+01  0.00000000000E+00 0.  1.
</event>
<event>
 5    1  0.2173147E+002  0.1598351E+01  0.7818608E-02  0.3355155E+00
         11   -1    0    0    0    0  0.00000000000E+00  0.00000000000E+00  0.39999999674E+01  0.40000000000E+01  0.51100000000E-03 0. -1.
    9000002   -1    0    0    0    0 -0.00000000000E+00 -0.00000000000E+00  0.00000000000E+00  0.93800000000E+00  0.93800000000E+00 0.  1.
         11    1    1    2    0    0  0.60256405758E-02  0.11287782460E-01  0.98687023546E-01  0.99514381446E-01  0.51100000000E-03 0. -1.
    9000002    1    1    2    0    0 -0.26973287600E+00  0.95178269818E-01  0.55541604699E-01  0.98221362101E+00  0.93800000000E+00 0.  1.
         22    1    1    2    0    0  0.26370723543E+00 -0.10646605228E+00  0.38457713391E+01  0.38562719975E+01  0.00000000000E+00 0. -1.
</event>
<event>
 5    1  0.2173147E+002  0.1576436E+01  0.7818608E-02  0.3379342E+00
         11   -1    0    0    0    0  0.00000000000E+00  0.00000000000E+00  0.39999999674E+01  0.40000000000E+01  0.51100000000E-03 0. -1.
    9000002   -1    0    0    0    0 -0.00000000000E+00 -0.00000000000E+00  0.00000000000E+00  0.93800000000E+00  0.93800000000E+00 0. -1.
         11    1    1    2    0    0 -0.14370064754E-01  0.13707883809E+00  0.12802340707E+01  0.12876321848E+01  0.51100000000E-03 0. -1.
    9000002    1    1    2    0    0 -0.16138524881E-01  0.10316902649E+00  0.24364896756E-01  0.94410907643E+00  0.93800000000E+00 0. -1.
         22    1    1    2    0    0  0.30508589635E-01 -0.24024786458E+00  0.26954010000E+01  0.27062587387E+01  0.00000000000E+00 0. -1.
</event>
<event>
 5    1  0.2173147E+002  0.1598574E+01  0.7818608E-02  0.3354913E+00
         11   -1    0    0    0    0  0.00000000000E+00  0.00000000000E+00  0.39999999674E+01  0.40000000000E+01  0.51100000000E-03 0. -1.
    9000002   -1    0    0    0    0 -0.00000000000E+00 -0.00000000000E+00  0.00000000000E+00  0.93800000000E+00  0.93800000000E+00 0.  1.
         11    1    1    2    0    0 -0.65538800672E-02  0.11295232196E-01  0.25620458626E+00  0.25653769071E+00  0.51100000000E-03 0. -1.
    9000002    1    1    2    0    0  0.20776865024E+00  0.11003617759E+00  0.37517004490E-01  0.96774340505E+00  0.93800000000E+00 0.  1.
         22    1    1    2    0    0 -0.20121477017E+00 -0.12133140979E+00  0.37062783766E+01  0.37137189042E+01  0.00000000000E+00 0. -1.
</event>
<event>
 5    1  0.2173147E+002  0.1598001E+01  0.7818608E-02  0.3355536E+00
         11   -1    0    0    0    0  0.00000000000E+00  0.00000000000E+00  0.39999999674E+01  0.40000000000E+01  0.51100000000E-03 0.  1.
    9000002   -1    0    0    0    0 -0.00000000000E+00 -0.00000000000E+00  0.00000000000E+00  0.93800000000E+00  0.93800000000E+00 0. -1.
         11    1    1    2    0    0 -0.56729445506E-01 -0.19048167383E+00  0.16559587180E+01  0.16678432285E+01  0.51100000000E-03 0.  1.
    9000002    1    1    2    0    0  0.18394580522E+00  0.53320218615E+00  0.22194271667E+00  0.11168004298E+01  0.93800000000E+00 0. -1.
         22    1    1    2    0    0 -0.12721635971E+00 -0.34272051232E+00  0.21220985327E+01  0.21533563417E+01  0.00000000000E+00 0.  1.
</event>
<event>
 5    1  0.2173147E+002  0.1599667E+01  0.7818608E-02  0.3353725E+00
         11   -1    0    0    0    0  0.00000000000E+00  0.00000000000E+00  0.39999999674E+01  0.40000000000E+01  0.51100000000E-03 0.  1.
    9000002   -1    0    0    0    0 -0.00000000000E+00 -0.00000000000E+00  0.00000000000E+00  0.93800000000E+00  0.93800000000E+00 0. -1.
         11    1    1    2    0    0  0.28214729168E-01  0.13231877070E+00  0.11177130749E+01  0.11258717098E+01  0.51100000000E-03 0.  1.
    9000002    1    1    2    0    0 -0.98786572303E-01 -0.44505641389E+00  0.14128964755E+00  0.10524451353E+01  0.93800000000E+00 0. -1.
         22    1    1    2    0    0  0.70571843135E-01  0.31273764319E+00  0.27409972449E+01  0.27596831548E+01  0.00000000000E+00 0.  1.
</event>
<event>
 5    1  0.2173147E+002  0.1599676E+01  0.7818608E-02  0.3353715E+00
         11   -1    0    0    0    0  0.00000000000E+00  0.00000000000E+00  0.39999999674E+01  0.40000000000E+01  0.51100000000E-03 0.  1.
    9000002   -1    0    0    0    0 -0.00000000000E+00 -0.00000000000E+00  0.00000000000E+00  0.93800000000E+00  0.93800000000E+00 0.  1.
         11    1    1    2    0    0 -0.11713973936E-01 -0.62122583599E-02  0.20821944576E+00  0.20864181760E+00  0.51100000000E-03 0. -1.
    9000002    1    1    2    0    0  0.22469816078E+00  0.11644686079E+00  0.42557919723E-01  0.97247329597E+00  0.93800000000E+00 0.  1.
         22    1    1    2    0    0 -0.21298418684E+00 -0.11023460243E+00  0.37492226019E+01  0.37568848864E+01  0.00000000000E+00 0.  1.
</event>
<event>
 5    1  0.2173147E+002  0.1599152E+01  0.7818608E-02  0.3354284E+00
         11   -1    0    0    0    0  0.00000000000E+00  0.00000000000E+00  0.39999999674E+01  0.40000000000E+01  0.51100000000E-03 0.  1.
    9000002   -1    0    0    0    0 -0.00000000000E+00 -0.00000000000E+00  0.00000000000E+00  0.93800000000E+00  0.93800000000E+00 0.  1.
         11    1    1    2    0    0 -0.20878340778E-01 -0.37447740525E-02  0.14795417375E+00  0.14946781291E+00  0.51100000000E-03 0.  1.
    9000002    1    1    2    0    0  0.30192045865E+00 -0.18792386962E-01  0.61472416143E-01  0.98748770884E+00  0.93800000000E+00 0.  1.
         22    1    1    2    0    0 -0.28104211788E+00  0.22537161014E-01  0.37905733775E+01  0.38010444782E+01  0.00000000000E+00 0.  1.
</event>
<event>
 5    1  0.2173147E+002  0.1450428E+01  0.7818608E-02  0.3533631E+00
         11   -1    0    0    0    0  0.00000000000E+00  0.00000000000E+00  0.39999999674E+01  0.40000000000E+01  0.51100000000E-03 0. -1.
    9000002   -1    0    0    0    0 -0.00000000000E+00 -0.00000000000E+00  0.00000000000E+00  0.93800000000E+00  0.93800000000E+00 0. -1.
         11    1    1    2    0    0  0.21265048405E-01  0.23568940407E+00  0.19463694501E+00  0.30640740683E+00  0.51100000000E-03 0. -1.
    9000002    1    1    2    0    0 -0.33217301466E+00 -0.98982951537E-01  0.21200127518E+00  0.10222157683E+01  0.93800000000E+00 0. -1.
         22    1    1    2    0    0  0.31090796626E+00 -0.13670645253E+00  0.35933617472E+01  0.36093768248E+01  0.00000000000E+00 0. -1.
</event>
<event>
 5    1  0.2173147E+002  0.1599675E+01  0.7818608E-02  0.3353716E+00
         11   -1    0    0    0    0  0.00000000000E+00  0.00000000000E+00  0.39999999674E+01  0.40000000000E+01  0.51100000000E-03 0. -1.
    9000002   -1    0    0    0    0 -0.00000000000E+00 -0.00000000000E+00  0.00000000000E+00  0.93800000000E+00  0.93800000000E+00 0. -1.
         11    1    1    2    0    0 -0.64854683584E-02  0.30392006982E-01  0.35208278887E+00  0.35345195816E+00  0.51100000000E-03 0. -1.
    9000002    1    1    2    0    0  0.80921573108E-01 -0.33304249182E+00  0.78701266880E-01  0.10017502143E+01  0.93800000000E+00 0. -1.
         22    1    1    2    0    0 -0.74436104750E-01  0.30265048483E+00  0.35692159116E+01  0.35827978276E+01  0.00000000000E+00 0. -1.
</event>
<event>
 5    1  0.2173147E+002  0.1530863E+01  0.7818608E-02  0.3431999E+00
         11   -1    0    0    0    0  0.00000000000E+00  0.00000000000E+00  0.39999999674E+01  0.40000000000E+01  0.51100000000E-03 0. -1.
    9000002   -1    0    0    0    0 -0.00000000000E+00 -0.00000000000E+00  0.00000000000E+00  0.93800000000E+00  0.93800000000E+00 0.  1.
         11    1    1    2    0    0 -0.16959385492E-01  0.10963010755E+00  0.11852286395E+00  0.16234011099E+00  0.51100000000E-03 0. -1.
    9000002    1    1    2    0    0  0.14429026932E+00  0.19229117229E+00  0.92705840546E-01  0.97274557292E+00  0.93800000000E+00 0.  1.
         22    1    1    2    0    0 -0.12733088383E+00 -0.30192127984E+00  0.37887712629E+01  0.38029143161E+01  0.00000000000E+00 0. -1.
</event>
<event>
 5    1  0.2173147E+002  0.1588640E+01  0.7818608E-02  0.3365786E+00
         11   -1    0    0    0    0  0.00000000000E+00  0.00000000000E+00  0.39999999674E+01  0.40000000000E+01  0.51100000000E-03 0.  1.
    9000002   -1    0    0    0    0 -0.00000000000E+00 -0.00000000000E+00  0.00000000000E+00  0.93800000000E+00  0.93800000000E+00 0. -1.
         11    1    1    2    0    0  0.14448086795E-01 -0.34628708104E-01  0.23531766073E+01  0.23534757915E+01  0.51100000000E-03 0.  1.
    9000002    1    1    2    0    0  0.33625024149E-01  0.25853375369E+00  0.53712933614E-01  0.97503816504E+00  0.93800000000E+00 0. -1.
         22    1    1    2    0    0 -0.48073110944E-01 -0.22390504558E+00  0.15931104264E+01  0.16094860435E+01  0.00000000000E+00 0.  1.
</event>
<event>
 5    1  0.2173147E+002  0.1599677E+01  0.7818608E-02  0.3353714E+00
         11   -1    0    0    0    0  0.00000000000E+00  0.00000000000E+00  0.39999999674E+01  0.40000000000E+01  0.51100000000E-03 0.  1.
    9000002   -1    0    0    0    0 -0.00000000000E+00 -0.00000000000E+00  0.00000000000E+00  0.93800000000E+00  0.93800000000E+00 0. -1.
         11    1    1    2    0    0 -0.23280938536E-01  0.16522461956E+00  0.15217135241E+01  0.15308342457E+01  0.51100000000E-03 0.  1.
    9000002    1    1    2    0    0  0.60423916155E-01 -0.42066777676E+00  0.12223244428E+00  0.10370135961E+01  0.93800000000E+00 0. -1.
         22    1    1    2    0    0 -0.37142977619E-01  0.25544315720E+00  0.23560539989E+01  0.23701521582E+01  0.00000000000E+00 0.  1.
</event>
<event>
 5    1  0.2173147E+002  0.1599018E+01  0.7818608E-02  0.3354430E+00
         11   -1    0    0    0    0  0.00000000000E+00  0.00000000000E+00  0.39999999674E+01  0.40000000000E+01  0.51100000000E-03 0. -1.
    9000002   -1    0    0    0    0 -0.00000000000E+00 -0.00000000000E+00  0.00000000000E+00  0.93800000000E+00  0.93800000000E+00 0.  1.
         11    1    1    2    0    0  0.18143350499E-01 -0.11466923396E-01  0.50826551277E+00  0.50871874753E+00  0.51100000000E-03 0. -1.
    9000002    1    1    2    0    0 -0.16696376359E+00  0.24741068625E+00  0.59939346205E-01  0.98616716192E+00  0.93800000000E+00 0.  1.
         22    1    1    2    0    0  0.14882041309E+00 -0.23594376286E+00  0.34317951084E+01  0.34431140905E+01  0.00000000000E+00 0. -1.
</event>
<event>
 5    1  0.2173147E+002  0.1599677E+01  0.7818608E-02  0.3353714E+00
         11   -1    0    0    0    0  0.00000000000E+00  0.00000000000E+00  0.39999999674E+01  0.40000000000E+01  0.51100000000E-03 0.  1.
    9000002   -1    0    0    0    0 -0.00000000000E+00 -0.00000000000E+00  0.00000000000E+00  0.93800000000E+00  0.93800000000E+00 0.  1.
         11    1    1    2    0    0  0.17414174383E+00  0.22325272286E-01  0.18168883752E+01  0.18253513070E+01  0.51100000000E-03 0.  1.
    9000002    1    1    2    0    0 -0.37265728936E+00 -0.47566222074E-01  0.94912999837E-01  0.10148834802E+01  0.93800000000E+00 0.  1.
         22    1    1    2    0    0  0.19851554553E+00  0.25240949788E-01  0.20881985923E+01  0.20977652128E+01  0.00000000000E+00 0.  1.
</event>
<event>
 5    1  0.2173147E+002  0.1599245E+01  0.7818608E-02  0.3354183E+00
         11   -1    0    0    0    0  0.00000000000E+00  0.00000000000E+00  0.39999999674E+01  0.40000000000E+01  0.51100000000E-03 0. -1.
    9000002   -1    0    0    0    0 -0.00000000000E+00 -0.00000000000E+00  0.00000000000E+00  0.93800000000E+00  0.93800000000E+00 0.  1.
         11    1    1    2    0    0 -0.20342449147E-02 -0.70026856901E-02  0.75994510848E-01  0.76345285114E-01  0.51100000000E-03 0. -1.
    9000002    1    1    2    0    0  0.24831910455E+00  0.37643335103E-01  0.42237126902E-01  0.97196058215E+00  0.93800000000E+00 0.  1.
         22    1    1    2    0    0 -0.24628485963E+00 -0.30640649413E-01  0.38817683296E+01  0.38896941327E+01  0.00000000000E+00 0. -1.
</event>
<event>
 5    1  0.2173147E+002  0.1599577E+01  0.7818608E-02  0.3353823E+00
         11   -1    0    0    0    0  0.00000000000E+00  0.00000000000E+00  0.39999999674E+01  0.40000000000E+01  0.51100000000E-03 0.  1.
    9000002   -1    0    0    0    0 -0.00000000000E+00 -0.00000000000E+00  0.00000000000E+00  0.93800000000E+00  0.93800000000E+00 0. -1.
         11    1    1    2    0    0 -0.14100290131E-01 -0.13148381837E-01  0.26113925403E+00  0.26185047115E+00  0.51100000000E-03 0.  1.
    9000002    1    1    2    0    0  0.14171755089E+00  0.25395425616E+00  0.56452785600E-01  0.98367044555E+00  0.93800000000E+00 0. -1.
         22    1    1    2    0    0 -0.12761726076E+00 -0.24080587433E+00  0.36824079277E+01  0.36924790833E+01  0.00000000000E+00 0.  1.
</event>
<event>
 5    1  0.2173147E+002  0.1598917E+01  0.7818608E-02  0.3354540E+00
         11   -1    0    0    0    0  0.00000000000E+00  0.00000000000E+00  0.39999999674E+01  0.40000000000E+01  0.51100000000E-03 0.  1.
    9000002   -1    0    0    0    0 -0.00000000000E+00 -0.00000000000E+00  0.00000000000E+00  0.93800000000E+00  0.93800000000E+00 0.  1.
         11    1    1    2    0    0 -0.20589138125E+00 -0.19805554992E+00  0.24320069044E+01  0.24487292839E+01  0.51100000000E-03 0.  1.
    9000002    1    1    2    0    0  0.32171427729E+00  0.36318293558E+00  0.16142915000E+00  0.10683189090E+01  0.93800000000E+00 0.  1.
         22    1    1    2    0    0 -0.11582289604E+00 -0.16512738566E+00  0.14065639130E+01  0.14209518071E+01  0.00000000000E+00 0. -1.
</event>
<event>
 5    1  0.2173147E+002  0.1599629E+01  0.7818608E-02  0.3353766E+00
         11   -1    0    0    0    0  0.00000000000E+00  0.00000000000E+00  0.39999999674E+01  0.40000000000E+01  0.51100000000E-03 0. -1.
    9000002   -1    0    0    0    0 -0.00000000000E+00 -0.00000000000E+00  0.00000000000E+00  0.93800000000E+00  0.93800000000E+00 0. -1.
         11    1    1    2    0    0  0.58103525843E-01  0.43135452083E-01  0.88451776292E+00  0.88747316634E+00  0.51100000000E-03 0. -1.
    9000002    1    1    2    0    0 -0.22789064820E+00 -0.18978025063E+00  0.58692002855E-01  0.98551481078E+00  0.93800000000E+00 0. -1.
         22    1    1    2    0    0  0.16978712236E+00  0.14664479855E+00  0.30567902016E+01  0.30650120229E+01  0.00000000000E+00 0. -1.
</event>
<event>
 5    1  0.2173147E+002  0.1596214E+01  0.7818608E-02  0.3357483E+00
         11   -1    0    0    0    0  0.00000000000E+00  0.00000000000E+00  0.39999999674E+01  0.40000000000E+01  0.51100000000E-03 0.  1.
    9000002   -1    0    0    0    0 -0.00000000000E+00 -0.00000000000E+00  0.00000000000E+00  0.93800000000E+00  0.93800000000E+00 0.  1.
         11    1    1    2    0    0 -0.84834045132E-01  0.15803016774E+00  0.16337615674E+01  0.16435776432E+01  0.51100000000E-03 0.  1.
    9000002    1    1    2    0    0  0.29940826410E+00 -0.24143151279E+00  0.10244894542E+00  0.10189574429E+01  0.93800000000E+00 0.  1.
         22    1    1    2    0    0 -0.21457421897E+00  0.83401345048E-01  0.22637894546E+01  0.22754649139E+01  0.00000000000E+00 0.  1.
</event>
<event>
 5    1  0.2173147E+002  0.1599673E+01  0.7818608E-02  0.3353718E+00
         11   -1    0    0    0    0  0.00000000000E+00  0.00000000000E+00  0.39999999674E+01  0.40000000000E+01  0.51100000000E-03 0.  1.
    9000002   -1    0    0    0    0 -0.00000000000E+00 -0.00000000000E+00  0.00000000000E+00  0.93800000000E+00  0.93800000000E+00 0.  1.
         11    1    1    2    0    0  0.38139156815E+00  0.22288486673E-02  0.20466776911E+01  0.20819112201E+01  0.51100000000E-03 0.  1.
    9000002    1    1    2    0    0 -0.68000715441E+00 -0.29743783981E-02  0.32875069115E+00  0.12043004583E+01  0.93800000000E+00 0.  1.
         22    1    1    2    0    0  0.29861558626E+00  0.74552973080E-03  0.16245715851E+01  0.16517883216E+01  0.00000000000E+00 0.  1.
</event>
<event>
 5    1  0.2173147E+002  0.1595368E+01  0.7818608E-02  0.3358407E+00
         11   -1    0    0    0    0  0.00000000000E+00  0.00000000000E+00  0.39999999674E+01  0.40000000000E+01  0.51100000000E-03 0.  1.
    9000002   -1    0    0    0    0 -0.00000000000E+00 -0.00000000000E+00  0.00000000000E+00  0.93800000000E+00  0.93800000000E+00 0.  1.
         11    1    1    2    0    0  0.40021124495E-02 -0.12013429838E-01  0.12181285736E+01  0.12181944928E+01  0.51100000000E-03 0.  1.
    9000002    1    1    2    0    0  0.16721505456E+00 -0.11557229704E+00  0.30598726423E-01  0.96025939848E+00  0.93800000000E+00 0.  1.
         22    1    1    2    0    0 -0.17121716701E+00  0.12758572688E+00  0.27512726674E+01  0.27595461087E+01  0.00000000000E+00 0.  1.
</event>
<event>
 5    1  0.2173147E+002  0.1597296E+01  0.7818608E-02  0.3356303E+00
         11   -1    0    0    0    0  0.00000000000E+00  0.00000000000E+00  0.39999999674E+01  0.40000000000E+01  0.51100000000E-03 0.  1.
    9000002   -1    0    0    0    0 -0.00000000000E+00 -0.00000000000E+00  0.00000000000E+00  0.93800000000E+00  0.93800000000E+00 0.  1.
         11    1    1    2    0    0 -0.25179314289E+00  0.14205345852E+00  0.19112298786E+01  0.19329715160E+01  0.51100000000E-03 0.  1.
    9000002    1    1    2    0    0  0.45084260610E+00 -0.18015343910E+00  0.16309463034E+00  0.10687180056E+01  0.93800000000E+00 0.  1.
         22    1    1    2    0    0 -0.19904946321E+00  0.38099980578E-01  0.19256754585E+01  0.19363104784E+01  0.00000000000E+00 0.  1.
</event>
<event>
 5    1  0.2173147E+002  0.1599664E+01  0.7818608E-02  0.3353729E+00
         11   -1    0    0    0    0  0.00000000000E+00  0.00000000000E+00  0.39999999674E+01  0.40000000000E+01  0.51100000000E-03 0. -1.
    9000002   -1    0    0    0    0 -0.00000000000E+00 -0.00000000000E+00  0.00000000000E+00  0.93800000000E+00  0.93800000000E+00 0.  1.
         11    1    1    2    0    0 -0.37640154482E-01 -0.54925520081E-01  0.67500964654E+00  0.67828598543E+00  0.51100000000E-03 0. -1.
    9000002    1    1    2    0    0  0.20320583536E+00  0.30568224148E+00  0.90526500221E-01  0.10113225457E+01  0.93800000000E+00 0.  1.
         22    1    1    2    0    0 -0.16556568087E+00 -0.25075672140E+00  0.32344638206E+01  0.32483914688E+01  0.00000000000E+00 0.  1.
</event>
<event>
 5    1  0.2173147E+002  0.1599664E+01  0.7818608E-02  0.3353728E+00
         11   -1    0    0    0    0  0.00000000000E+00  0.00000000000E+00  0.39999999674E+01  0.40000000000E+01  0.51100000000E-03 0. -1.
    9000002   -1    0    0    0    0 -0.00000000000E+00 -0.00000000000E+00  0.00000000000E+00  0.93800000000E+00  0.93800000000E+00 0.  1.
         11    1    1    2    0    0  0.18161675591E+00 -0.47718462768E-01  0.79571340283E+00  0.81757065644E+00  0.51100000000E-03 0. -1.
    9000002    1    1    2    0    0 -0.80897210965E+00  0.21368594378E+00  0.52247519939E+00  0.13612207355E+01  0.93800000000E+00 0.  1.
         22    1    1    2    0    0  0.62735535374E+00 -0.16596748101E+00  0.26818113651E+01  0.27592086081E+01  0.00000000000E+00 0. -1.
</event>
<event>
 5    1  0.2173147E+002  0.1599665E+01  0.7818608E-02  0.3353727E+00
         11   -1    0    0    0    0  0.00000000000E+00  0.00000000000E+00  0.39999999674E+01  0.40000000000E+01  0.51100000000E-03 0. -1.
    9000002   -1    0    0    0    0 -0.00000000000E+00 -0.00000000000E+00  0.00000000000E+00  0.93800000000E+00  0.93800000000E+00 0.  1.
         11    1    1    2    0    0  0.19713035498E-01  0.15647517071E-01  0.36003616046E+00  0.36091515141E+00  0.51100000000E-03 0. -1.
    9000002    1    1    2    0    0 -0.19541635721E+00 -0.18654069014E+00  0.48570375897E-01  0.97733723103E+00  0.93800000000E+00 0.  1.
         22    1    1    2    0    0  0.17570332171E+00  0.17089317307E+00  0.35913934310E+01  0.35997476176E+01  0.00000000000E+00 0. -1.
</event>
<event>
 5    1  0.2173147E+002  0.1548281E+01  0.7818608E-02  0.3411485E+00
         11   -1    0    0    0    0  0.00000000000E+00  0.00000000000E+00  0.39999999674E+01  0.40000000000E+01  0.51100000000E-03 0.  1.
    9000002   -1    0    0    0    0 -0.00000000000E+00 -0.00000000000E+00  0.00000000000E+00  0.93800000000E+00  0.93800000000E+00 0.  1.
         11    1    1    2    0    0  0.39519051429E+00 -0.37459175905E+00  0.12408136049E+01  0.13550325427E+01  0.51100000000E-03 0.  1.
    9000002    1    1    2    0    0 -0.85808333052E+00  0.30235007518E+00  0.72267027387E+00  0.14932578126E+01  0.93800000000E+00 0.  1.
         22    1    1    2    0    0  0.46289281623E+00  0.72241683872E-01  0.20365160886E+01  0.20897096447E+01  0.00000000000E+00 0.  1.
</event>
<event>
 5    1  0.2428587E+002  0.1575834E+01  0.7818608E-02  0.3380017E+00
         11   -1    0    0    0    0  0.00000000000E+00  0.00000000000E+00  0.39999999674E+01  0.40000000000E+01  0.51100000000E-03 0.  1.
    9000002   -1    0    0    0    0 -0.00000000000E+00 -0.00000000000E+00  0.00000000000E+00  0.93800000000E+00  0.93800000000E+00 0.  1.
         11    1    1    2    0    0 -0.10077146246E+00 -0.10409089432E+00  0.98409061340E+00  0.99469814438E+00  0.51100000000E-03 0.  1.
    9000002    1    1    2    0    0 -0.74767956799E-01 -0.13065545140E-01  0.21342896227E-01  0.94130785350E+00  0.93800000000E+00 0.  1.
         22    1    1    2    0    0  0.17553941926E+00  0.11715643946E+00  0.29945664577E+01  0.30019940021E+01  0.00000000000E+00 0.  1.
</event>
<event>
 5    1  0.2173147E+002  0.1599586E+01  0.7818608E-02  0.3353813E+00
         11   -1    0    0    0    0  0.00000000000E+00  0.00000000000E+00  0.39999999674E+01  0.40000000000E+01  0.51100000000E-03 0.  1.
    9000002   -1    0    0    0    0 -0.00000000000E+00 -0.00000000000E+00  0.00000000000E+00  0.93800000000E+00  0.93800000000E+00 0. -1.
         11    1    1    2    0    0 -0.28263550721E+00 -0.15602547972E-01  0.20918661349E+01  0.21109311824E+01  0.51100000000E-03 0.  1.
    9000002    1    1    2    0    0  0.52514725714E+00  0.10277618336E-01  0.18977112223E+00  0.10916695241E+01  0.93800000000E+00 0. -1.
         22    1    1    2    0    0 -0.24251174993E+00  0.53249296351E-02  0.17183627102E+01  0.17353992934E+01  0.00000000000E+00 0.  1.
</event>
<event>
 5    1  0.2173147E+002  0.1599472E+01  0.7818608E-02  0.3353936E+00
         11   -1    0    0    0    0  0.00000000000E+00  0.00000000000E+00  0.39999999674E+01  0.40000000000E+01  0.51100000000E-03 0.  1.
    9000002   -1    0    0    0    0 -0.00000000000E+00 -0.00000000000E+00  0.00000000000E+00  0.93800000000E+00  0.93800000000E+00 0. -1.
         11    1    1    2    0    0  0.77307085468E-01  0.33476748449E-01  0.91124449112E+00  0.91513051630E+00  0.51100000000E-03 0.  1.
    9000002    1    1    2    0    0 -0.31974112205E+00 -0.83045508877E-01  0.73182781047E-01  0.99716130145E+00  0.93800000000E+00 0. -1.
         22    1    1    2    0    0  0.24243403658E+00  0.49568760427E-01  0.30155726952E+01  0.30257081822E+01  0.00000000000E+00 0.  1.
</event>
<event>
 5    1  0.2173147E+002  0.1599674E+01  0.7818608E-02  0.3353717E+00
         11   -1    0    0    0    0  0.00000000000E+00  0.00000000000E+00  0.39999999674E+01  0.40000000000E+01  0.51100000000E-03 0. -1.
    9000002   -1    0    0    0    0 -0.00000000000E+00 -0.00000000000E+00  0.00000000000E+00  0.93800000000E+00  0.93800000000E+00 0.  1.
         11    1    1    2    0    0 -0.85169744782E-01  0.77626704050E-01  0.13959268982E+01  0.14006755359E+01  0.51100000000E-03 0. -1.
    9000002    1    1    2    0    0  0.24360506870E+00 -0.21455677712E+00  0.70469796335E-01  0.99508192241E+00  0.93800000000E+00 0.  1.
         22    1    1    2    0    0 -0.15843532392E+00  0.13693007307E+00  0.25336032729E+01  0.25422425417E+01  0.00000000000E+00 0. -1.
</event>
<event>
 5    1  0.2173147E+002  0.1597908E+01  0.7818608E-02  0.3355638E+00
         11   -1    0    0    0    0  0.00000000000E+00  0.00000000000E+00  0.39999999674E+01  0.40000000000E+01  0.51100000000E-03 0. -1.
    9000002   -1    0    0    0    0 -0.00000000000E+00 -0.00000000000E+00  0.00000000000E+00  0.93800000000E+00  0.93800000000E+00 0. -1.
         11    1    1    2    0    0  0.16646390825E-02  0.47877902358E-02  0.78449334856E-02  0.93540398230E-02  0.51100000000E-03 0. -1.
    9000002    1    1    2    0    0  0.78023274203E-01 -0.22188450343E+00  0.38053431144E-01  0.96778738771E+00  0.93800000000E+00 0. -1.
         22    1    1    2    0    0 -0.79687913285E-01  0.21709671320E+00  0.39541016027E+01  0.39608585725E+01  0.00000000000E+00 0. -1.
</event>
<event>
 5    1  0.2173147E+002  0.1567015E+01  0.7818608E-02  0.3389961E+00
         11   -1    0    0    0    0  0.00000000000E+00  0.00000000000E+00  0.39999999674E+01  0.40000000000E+01  0.51100000000E-03 0.  1.
    9000002   -1    0    0    0    0 -0.00000000000E+00 -0.00000000000E+00  0.00000000000E+00  0.93800000000E+00  0.93800000000E+00 0.  1.
         11    1    1    2    0    0  0.39884716071E-01 -0.20346940056E+00  0.12607751709E+01  0.12777107968E+01  0.51100000000E-03 0.  1.
    9000002    1    1    2    0    0 -0.11554294944E+00  0.25026073327E-02  0.33114965367E-01  0.94567279602E+00  0.93800000000E+00 0.  1.
         22    1    1    2    0    0  0.75658233365E-01  0.20096679323E+00  0.27061098311E+01  0.27146164072E+01  0.00000000000E+00 0.  1.
</event>
<event>
 5    1  0.2173147E+002  0.1515977E+01  0.7818608E-02  0.3449932E+00
         11   -1    0    0    0    0  0.00000000000E+00  0.00000000000E+00  0.39999999674E+01  0.40000000000E+01  0.51100000000E-03 0.  1.
    9000002   -1    0    0    0    0 -0.00000000000E+00 -0.00000000000E+00  0.00000000000E+00  0.93800000000E+00  0.93800000000E+00 0.  1.
         11    1    1    2    0    0  0.39946016191E+00  0.84040470485E-01  0.26694164961E+01  0.27004473541E+01  0.51100000000E-03 0.  1.
    9000002    1    1    2    0    0 -0.11391066695E+00 -0.59129290487E-01  0.75042975768E-01  0.94970909296E+00  0.93800000000E+00 0.  1.
         22    1    1    2    0    0 -0.28554949496E+00 -0.24911179998E-01  0.12555404955E+01  0.12878435529E+01  0.00000000000E+00 0.  1.
</event>
<event>
 5    1  0.2173147E+002  0.1570864E+01  0.7818608E-02  0.3385606E+00
         11   -1    0    0    0    0  0.00000000000E+00  0.00000000000E+00  0.39999999674E+01  0.40000000000E+01  0.51100000000E-03 0. -1.
    9000002   -1    0    0    0    0 -0.00000000000E+00 -0.00000000000E+00  0.00000000000E+00  0.93800000000E+00  0.93800000000E+00 0. -1.
         11    1    1    2    0    0  0.14116621742E-01  0.99522804843E-01  0.28247286469E+00  0.29982536267E+00  0.51100000000E-03 0. -1.
    9000002    1    1    2    0    0 -0.86264276061E-01  0.89590890520E-01  0.31644173648E-01  0.94673829896E+00  0.93800000000E+00 0. -1.
         22    1    1    2    0    0  0.72147654320E-01 -0.18911369536E+00  0.36858829290E+01  0.36914363384E+01  0.00000000000E+00 0. -1.
</event>
<event>
 5    1  0.2173147E+002  0.1463868E+01  0.7818608E-02  0.3515808E+00
         11   -1    0    0    0    0  0.00000000000E+00  0.00000000000E+00  0.39999999674E+01  0.40000000000E+01  0.51100000000E-03 0.  1.
    9000002   -1    0    0    0    0 -0.00000000000E+00 -0.00000000000E+00  0.00000000000E+00  0.93800000000E+00  0.93800000000E+00 0.  1.
         11    1    1    2    0    0  0.52024144576E-01 -0.27560821241E+00  0.29915583668E+00  0.41007423000E+00  0.51100000000E-03 0.  1.
    9000002    1    1    2    0    0  0.14916032654E+00  0.30619742696E+00  0.19576366525E+00  0.10169430072E+01  0.93800000000E+00 0.  1.
         22    1    1    2    0    0 -0.20118447111E+00 -0.30589214545E-01  0.35050804654E+01  0.35109827628E+01  0.00000000000E+00 0.  1.
</event>
<event>
 5    1  0.2173147E+002  0.1599663E+01  0.7818608E-02  0.3353730E+00
         11   -1    0    0    0    0  0.00000000000E+00  0.00000000000E+00  0.39999999674E+01  0.40000000000E+01  0.51100000000E-03 0.  1.
    9000002   -1    0    0    0    0 -0.00000000000E+00 -0.00000000000E+00  0.00000000000E+00  0.93800000000E+00  0.93800000000E+00 0.  1.
         11    1    1    2    0    0  0.11038470427E+00  0.19618666747E+00  0.17013627445E+01  0.17161903860E+01  0.51100000000E-03 0.  1.
    9000002    1    1    2    0    0 -0.24614059318E+00 -0.43172516384E+00  0.16899317581E+00  0.10748834831E+01  0.93800000000E+00 0.  1.
         22    1    1    2    0    0  0.13575588891E+00  0.23553849637E+00  0.21296440470E+01  0.21469261309E+01  0.00000000000E+00 0.  1.
</event>
<event>
 5    1  0.2173147E+002  0.1599673E+01  0.7818608E-02  0.3353718E+00
         11   -1    0    0    0    0  0.00000000000E+00  0.00000000000E+00  0.39999999674E+01  0.40000000000E+01  0.51100000000E-03 0. -1.
    9000002   -1    0    0    0    0 -0.00000000000E+00 -0.00000000000E+00  0.00000000000E+00  0.93800000000E+00  0.93800000000E+00 0.  1.
         11    1    1    2    0    0 -0.98869634380E-02  0.12872855015E-01  0.27764087378E+00  0.27811540475E+00  0.51100000000E-03 0. -1.
    9000002    1    1    2    0    0  0.13597675101E+00 -0.16966398389E+00  0.31334477990E-01  0.96338019170E+00  0.93800000000E+00 0.  1.
         22    1    1    2    0    0 -0.12608978757E+00  0.15679112888E+00  0.36910246156E+01  0.36965044036E+01  0.00000000000E+00 0. -1.
</event>
<event>
 5    1  0.2173147E+002  0.1587001E+01  0.7818608E-02  0.3367595E+00
         11   -1    0    0    0    0  0.00000000000E+00  0.00000000000E+00  0.39999999674E+01  0.40000000000E+01  0.51100000000E-03 0.  1.
    9000002   -1    0    0    0    0 -0.00000000000E+00 -0.00000000000E+00  0.00000000000E+00  0.93800000000E+00  0.93800000000E+00 0.  1.
         11    1    1    2    0    0  0.81049289404E-01  0.85482392670E-01  0.25630561991E+01  0.25657617909E+01  0.51100000000E-03 0.  1.
    9000002    1    1    2    0    0 -0.64377372123E-01 -0.31947501257E+00  0.81164043011E-01  0.99631337017E+00  0.93800000000E+00 0.  1.
         22    1    1    2    0    0 -0.16671917281E-01  0.23399261990E+00  0.13557797252E+01  0.13759248389E+01  0.00000000000E+00 0.  1.
</event>
<event>
 5    1  0.2173147E+002  0.1599676E+01  0.7818608E-02  0.3353715E+00
         11   -1    0    0    0    0  0.00000000000E+00  0.00000000000E+00  0.39999999674E+01  0.40000000000E+01  0.51100000000E-03 0.  1.
    9000002   -1    0    0    0    0 -0.00000000000E+00 -0.00000000000E+00  0.00000000000E+00  0.93800000000E+00  0.93800000000E+00 0. -1.
         11    1    1    2    0    0  0.11582420280E-01  0.15091937738E-01  0.21166155037E+00  0.21251539254E+00  0.51100000000E-03 0.  1.
    9000002    1    1    2    0    0 -0.21885113404E+00 -0.27982269406E+00  0.84666184929E-01  0.10065827943E+01  0.93800000000E+00 0. -1.
         22    1    1    2    0    0  0.20726871376E+00  0.26473075633E+00  0.37036722321E+01  0.37189018131E+01  0.00000000000E+00 0.  1.
</event>
<event>
 5    1  0.2173147E+002  0.1599677E+01  0.7818608E-02  0.3353714E+00
         11   -1    0    0    0    0  0.00000000000E+00  0.00000000000E+00  0.39999999674E+01  0.40000000000E+01  0.51100000000E-03 0.  1.
    9000002   -1    0    0    0    0 -0.00000000000E+00 -0.00000000000E+00  0.00000000000E+00  0.93800000000E+00  0.93800000000E+00 0.  1.
         11    1    1    2    0    0 -0.13017361826E-01  0.84527510110E-01  0.10327827544E+01  0.10363179197E+01  0.51100000000E-03 0.  1.
    9000002    1    1    2    0    0  0.49142229584E-01 -0.32021811569E+00  0.70179828823E-01  0.99484863608E+00  0.93800000000E+00 0.  1.
         22    1    1    2    0    0 -0.36124867759E-01  0.23569060558E+00  0.28970373841E+01  0.29068334443E+01  0.00000000000E+00 0.  1.
</event>
<event>
 5    1  0.2173147E+002  0.1599677E+01  0.7818608E-02  0.3353714E+00
         11   -1    0    0    0    0  0.00000000000E+00  0.00000000000E+00  0.39999999674E+01  0.40000000000E+01  0.51100000000E-03 0. -1.
    9000002   -1    0    0    0    0 -0.00000000000E+00 -0.00000000000E+00  0.00000000000E+00  0.93800000000E+00  0.93800000000E+00 0.  1.
         11    1    1    2    0    0 -0.25064254902E+00  0.15383123099E+00  0.21461593298E+01  0.21662146396E+01  0.51100000000E-03 0. -1.
    9000002    1    1    2    0    0  0.44515446965E+00 -0.27435685460E+00  0.18792365043E+00  0.10902263453E+01  0.93800000000E+00 0.  1.
         22    1    1    2    0    0 -0.19451192063E+00  0.12052562361E+00  0.16659169871E+01  0.16815590151E+01  0.00000000000E+00 0.  1.
</event>
<event>
 5    1  0.2173147E+002  0.1599665E+01  0.7818608E-02  0.3353727E+00
         11   -1    0    0    0    0  0.00000000000E+00  0.00000000000E+00  0.39999999674E+01  0.40000000000E+01  0.51100000000E-03 0. -1.
    9000002   -1    0    0    0    0 -0.00000000000E+00 -0.00000000000E+00  0.00000000000E+00  0.93800000000E+00  0.93800000000E+00 0.  1.
         11    1    1    2    0    0 -0.86992559580E-01 -0.23044935638E+00  0.20001592492E+01  0.20152696828E+01  0.51100000000E-03 0. -1.
    9000002    1    1    2    0    0  0.17151463597E+00  0.44924557715E+00  0.15781077039E+00  0.10658269551E+01  0.93800000000E+00 0.  1.
         22    1    1    2    0    0 -0.84522076390E-01 -0.21879622077E+00  0.18420299478E+01  0.18569033621E+01  0.00000000000E+00 0. -1.
</event>
<event>
 5    1  0.2173147E+002  0.1599677E+01  0.7818608E-02  0.3353714E+00
         11   -1    0    0    0    0  0.00000000000E+00  0.00000000000E+00  0.39999999674E+01  0.40000000000E+01  0.51100000000E-03 0. -1.
    9000002   -1    0    0    0    0 -0.00000000000E+00 -0.00000000000E+00  0.00000000000E+00  0.93800000000E+00  0.93800000000E+00 0. -1.
         11    1    1    2    0    0 -0.10639579173E+00  0.16947747649E-01  0.11321265944E+01  0.11372414773E+01  0.51100000000E-03 0. -1.
    9000002    1    1    2    0    0  0.36890030218E+00 -0.57897739146E-01  0.93746803436E-01  0.10139388760E+01  0.93800000000E+00 0. -1.
         22    1    1    2    0    0 -0.26250451046E+00  0.40949991497E-01  0.27741265695E+01  0.27868196467E+01  0.00000000000E+00 0. -1.
</event>
<event>
 5    1  0.2173147E+002  0.1599668E+01  0.7818608E-02  0.3353724E+00
         11   -1    0    0    0    0  0.00000000000E+00  0.00000000000E+00  0.39999999674E+01  0.40000000000E+01  0.51100000000E-03 0.  1.
    9000002   -1    0    0    0    0 -0.00000000000E+00 -0.00000000000E+00  0.00000000000E+00  0.93800000000E+00  0.93800000000E+00 0. -1.
         11    1    1    2    0    0  0.41097176439E-01  0.17121728327E+00  0.13063714153E+01  0.13181846881E+01  0.51100000000E-03 0.  1.
    9000002    1    1    2    0    0 -0.11698556247E+00 -0.49151313743E+00  0.17491066247E+00  0.10796798257E+01  0.93800000000E+00 0. -1.
         22    1    1    2    0    0  0.75888386029E-01  0.32029585416E+00  0.25187178896E+01  0.25401354863E+01  0.00000000000E+00 0.  1.
</event>
<event>
 5    1  0.2173147E+002  0.1599674E+01  0.7818608E-02  0.3353717E+00
         11   -1    0    0    0    0  0.00000000000E+00  0.00000000000E+00  0.39999999674E+01  0.40000000000E+01  0.51100000000E-03 0. -1.
    9000002   -1    0    0    0    0 -0.00000000000E+00 -0.00000000000E+00  0.00000000000E+00  0.93800000000E+00  0.93800000000E+00 0. -1.
         11    1    1    2    0    0  0.10883521452E-01 -0.21861547269E-01  0.40182309157E+00  0.40256482252E+00  0.51100000000E-03 0. -1.
    9000002    1    1    2    0    0 -0.97355945106E-01  0.22201509432E+00  0.39019644128E-01  0.96960580381E+00  0.93800000000E+00 0. -1.
         22    1    1    2    0    0  0.86472423654E-01 -0.20015354706E+00  0.35591572317E+01  0.35658293737E+01  0.00000000000E+00 0.  1.
</event>
<event>
 5    1  0.2173147E+002  0.1596175E+01  0.7818608E-02  0.3357526E+00
         11   -1    0    0    0    0  0.00000000000E+00  0.00000000000E+00  0.39999999674E+01  0.40000000000E+01  0.51100000000E-03 0.  1.
    9000002   -1    0    0    0    0 -0.00000000000E+00 -0.00000000000E+00  0.00000000000E+00  0.93800000000E+00  0.93800000000E+00 0.  1.
         11    1    1    2    0    0 -0.74671479480E-01 -0.73847391030E-01  0.11362266366E+01  0.11410698918E+01  0.51100000000E-03 0.  1.
    9000002    1    1    2    0    0  0.40001663536E+00  0.84662102430E-01  0.11583514421E+00  0.10297780153E+01  0.93800000000E+00 0.  1.
         22    1    1    2    0    0 -0.32534515588E+00 -0.10814711401E-01  0.27479381865E+01  0.27671520929E+01  0.00000000000E+00 0.  1.
</event>
<event>
 5    1  0.2173147E+002  0.1599576E+01  0.7818608E-02  0.3353824E+00
         11   -1    0    0    0    0  0.00000000000E+00  0.00000000000E+00  0.39999999674E+01  0.40000000000E+01  0.51100000000E-03 0. -1.
    9000002   -1    0    0    0    0 -0.00000000000E+00 -0.00000000000E+00  0.00000000000E+00  0.93800000000E+00  0.93800000000E+00 0. -1.
         11    1    1    2    0    0  0.94586113516E-01 -0.16396184801E-01  0.96660175299E+00  0.97135708046E+00  0.51100000000E-03 0. -1.
    9000002    1    1    2    0    0 -0.34544990117E+00  0.47646120608E-01  0.81607620957E-01  0.10040466079E+01  0.93800000000E+00 0. -1.
         22    1    1    2    0    0  0.25086378765E+00 -0.31249935808E-01  0.29517905934E+01  0.29625963116E+01  0.00000000000E+00 0.  1.
</event>
<event>
 5    1  0.2173147E+002  0.1599666E+01  0.7818608E-02  0.3353726E+00
         11   -1    0    0    0    0  0.00000000000E+00  0.00000000000E+00  0.39999999674E+01  0.40000000000E+01  0.51100000000E-03 0.  1.
    9000002   -1    0    0    0    0 -0.00000000000E+00 -0.00000000000E+00  0.00000000000E+00  0.93800000000E+00  0.93800000000E+00 0. -1.
         11    1    1    2    0    0  0.21304441900E+00  0.91088353217E-01  0.17051547812E+01  0.17208248318E+01  0.51100000000E-03 0.  1.
    9000002    1    1    2    0    0 -0.47551684459E+00 -0.21256618169E+00  0.18639967060E+00  0.10889855317E+01  0.93800000000E+00 0. -1.
         22    1    1    2    0    0  0.26247242559E+00  0.12147782848E+00  0.21084455155E+01  0.21281896365E+01  0.00000000000E+00 0.  1.
</event>
<event>
 5    1  0.2173147E+002  0.1599152E+01  0.7818608E-02  0.3354284E+00
         11   -1    0    0    0    0  0.00000000000E+00  0.00000000000E+00  0.39999999674E+01  0.40000000000E+01  0.51100000000E-03 0.  1.
    9000002   -1    0    0    0    0 -0.00000000000E+00 -0.00000000000E+00  0.00000000000E+00  0.93800000000E+00  0.93800000000E+00 0. -1.
         11    1    1    2    0    0  0.25845376778E-02  0.82616838281E-02  0.30083567444E+00  0.30096062764E+00  0.51100000000E-03 0.  1.
    9000002    1    1    2    0    0  0.14987009020E+00 -0.16562611002E+00  0.33476796020E-01  0.96480969529E+00  0.93800000000E+00 0. -1.
         22    1    1    2    0    0 -0.15245462788E+00  0.15736442619E+00  0.36656874969E+01  0.36722296771E+01  0.00000000000E+00 0.  1.
</event>
<event>
 5    1  0.2173147E+002  0.1516233E+01  0.7818608E-02  0.3449621E+00
         11   -1    0    0    0    0  0.00000000000E+00  0.00000000000E+00  0.39999999674E+01  0.40000000000E+01  0.51100000000E-03 0.  1.
    9000002   -1    0    0    0    0 -0.00000000000E+00 -0.00000000000E+00  0.00000000000E+00  0.93800000000E+00  0.93800000000E+00 0. -1.
         11    1    1    2    0    0  0.35520804076E+00 -0.47928277373E+00  0.25281949351E+01  0.25976248036E+01  0.51100000000E-03 0.  1.
    9000002    1    1    2    0    0 -0.72295654457E-01  0.54742374112E+00  0.29444037069E+00  0.11275808379E+01  0.93800000000E+00 0. -1.
         22    1    1    2    0    0 -0.28291238631E+00 -0.68140967389E-01  0.11773646616E+01  0.12127943585E+01  0.00000000000E+00 0. -1.
</event>
<event>
 5    1  0.2173147E+002  0.1599676E+01  0.7818608E-02  0.3353716E+00
         11   -1    0    0    0    0  0.00000000000E+00  0.00000000000E+00  0.39999999674E+01  0.40000000000E+01  0.51100000000E-03 0. -1.
    9000002   -1    0    0    0    0 -0.00000000000E+00 -0.00000000000E+00  0.00000000000E+00  0.93800000000E+00  0.93800000000E+00 0. -1.
         11    1    1    2    0    0  0.55935537948E-01  0.24188438960E-01  0.80840482862E+00  0.81069876838E+00  0.51100000000E-03 0. -1.
    9000002    1    1    2    0    0 -0.27470701940E+00 -0.12300418201E+00  0.60443047885E-01  0.98696065643E+00  0.93800000000E+00 0. -1.
         22    1    1    2    0    0  0.21877148145E+00  0.98815743051E-01  0.31311520909E+01  0.31403405752E+01  0.00000000000E+00 0. -1.
</event>
<event>
 5    1  0.2173147E+002  0.1596055E+01  0.7818608E-02  0.3357657E+00
         11   -1    0    0    0    0  0.00000000000E+00  0.00000000000E+00  0.39999999674E+01  0.40000000000E+01  0.51100000000E-03 0.  1.
    9000002   -1    0    0    0    0 -0.00000000000E+00 -0.00000000000E+00  0.00000000000E+00  0.93800000000E+00  0.93800000000E+00 0. -1.
         11    1    1    2    0    0  0.73376014632E-01 -0.63590880636E-01  0.78435837903E+00  0.79034560004E+00  0.51100000000E-03 0.  1.
    9000002    1    1    2    0    0 -0.52474281516E+00  0.79667265362E-01  0.19724189840E+00  0.10956506112E+01  0.93800000000E+00 0. -1.
         22    1    1    2    0    0  0.45136680053E+00 -0.16076384726E-01  0.30183996899E+01  0.30520037888E+01  0.00000000000E+00 0.  1.
</event>
<event>
 5    1  0.2173147E+002  0.1599676E+01  0.7818608E-02  0.3353716E+00
         11   -1    0    0    0    0  0.00000000000E+00  0.00000000000E+00  0.39999999674E+01  0.40000000000E+01  0.51100000000E-03 0. -1.
    9000002   -1    0    0    0    0 -0.00000000000E+00 -0.00000000000E+00  0.00000000000E+00  0.93800000000E+00  0.93800000000E+00 0. -1.
         11    1    1    2    0    0 -0.63820268998E-01 -0.24200461057E-01  0.68223808606E+00  0.68564404486E+00  0.51100000000E-03 0. -1.
    9000002    1    1    2    0    0  0.36040025324E+00  0.14231956755E+00  0.10111610263E+00  0.10199076762E+01  0.93800000000E+00 0. -1.
         22    1    1    2    0    0 -0.29657998425E+00 -0.11811910649E+00  0.32166457787E+01  0.32324482789E+01  0.00000000000E+00 0. -1.
</event>
<event>
 5    1  0.2173147E+002  0.1539932E+01  0.7818608E-02  0.3421256E+00
         11   -1    0    0    0    0  0.00000000000E+00  0.00000000000E+00  0.39999999674E+01  0.40000000000E+01  0.51100000000E-03 0. -1.
    9000002   -1    0    0    0    0 -0.00000000000E+00 -0.00000000000E+00  0.00000000000E+00  0.93800000000E+00  0.93800000000E+00 0.  1.
         11    1    1    2    0    0 -0.37410225931E+00  0.23065973202E+00  0.20180040350E+01  0.20653079574E+01  0.51100000000E-03 0. -1.
    9000002    1    1    2    0    0  0.15558011115E+00 -0.37804372144E+00  0.16470398920E+00  0.10363848852E+01  0.93800000000E+00 0.  1.
         22    1    1    2    0    0  0.21852214817E+00  0.14738398941E+00  0.18172919431E+01  0.18363071573E+01  0.00000000000E+00 0. -1.
</event>
<event>
 5    1  0.2173147E+002  0.1599677E+01  0.7818608E-02  0.3353714E+00
         11   -1    0    0    0    0  0.00000000000E+00  0.00000000000E+00  0.39999999674E+01  0.40000000000E+01  0.51100000000E-03 0. -1.
    9000002   -1    0    0    0    0 -0.00000000000E+00 -0.00000000000E+00  0.00000000000E+00  0.93800000000E+00  0.93800000000E+00 0.  1.
         11    1    1    2    0    0 -0.11142933433E+00 -0.12726100094E+00  0.15099317499E+01  0.15193768490E+01  0.51100000000E-03 0. -1.
    9000002    1    1    2    0    0  0.28454548445E+00  0.32720636609E+00  0.12740594865E+00  0.10412043097E+01  0.93800000000E+00 0.  1.
         22    1    1    2    0    0 -0.17311615012E+00 -0.19994536516E+00  0.23626622688E+01  0.23774188413E+01  0.00000000000E+00 0. -1.
</event>
<event>
 5    1  0.2173147E+002  0.1599671E+01  0.7818608E-02  0.3353720E+00
         11   -1    0    0    0    0  0.00000000000E+00  0.00000000000E+00  0.39999999674E+01  0.40000000000E+01  0.51100000000E-03 0.  1.
    9000002   -1    0    0    0    0 -0.00000000000E+00 -0.00000000000E+00  0.00000000000E+00  0.93800000000E+00  0.93800000000E+00 0. -1.
         11    1    1    2    0    0  0.90624220896E-02  0.18733339449E-01  0.29836604702E+00  0.29909133160E+00  0.51100000000E-03 0.  1.
    9000002    1    1    2    0    0 -0.12588671617E+00 -0.26607298375E+00  0.57774604403E-01  0.98479652868E+00  0.93800000000E+00 0. -1.
         22    1    1    2    0    0  0.11682429408E+00  0.24733964430E+00  0.36438593159E+01  0.36541121397E+01  0.00000000000E+00 0.  1.
</event>
<event>
 5    1  0.2173147E+002  0.1599674E+01  0.7818608E-02  0.3353718E+00
         11   -1    0    0    0    0  0.00000000000E+00  0.00000000000E+00  0.39999999674E+01  0.40000000000E+01  0.51100000000E-03 0. -1.
    9000002   -1    0    0    0    0 -0.00000000000E+00 -0.00000000000E+00  0.00000000000E+00  0.93800000000E+00  0.93800000000E+00 0.  1.
         11    1    1    2    0    0 -0.80959690313E-01  0.39087828200E-01  0.12094688901E+01  0.12128056675E+01  0.51100000000E-03 0. -1.
    9000002    1    1    2    0    0  0.26976582536E+00 -0.12473525894E+00  0.58914973468E-01  0.98572179618E+00  0.93800000000E+00 0.  1.
         22    1    1    2    0    0 -0.18880613505E+00  0.85647430745E-01  0.27316161038E+01  0.27394725364E+01  0.00000000000E+00 0.  1.
</event>
<event>
 5    1  0.2173147E+002  0.1599283E+01  0.7818608E-02  0.3354142E+00
         11   -1    0    0    0    0  0.00000000000E+00  0.00000000000E+00  0.39999999674E+01  0.40000000000E+01  0.51100000000E-03 0. -1.
    9000002   -1    0    0    0    0 -0.00000000000E+00 -0.00000000000E+00  0.00000000000E+00  0.93800000000E+00  0.93800000000E+00 0.  1.
         11    1    1    2    0    0  0.21293127458E-02  0.12320724883E-02  0.92667072797E-02  0.96012999221E-02  0.51100000000E-03 0. -1.
    9000002    1    1    2    0    0 -0.21105950581E+00  0.14861061436E+00  0.44592575792E-01  0.97389102445E+00  0.93800000000E+00 0.  1.
         22    1    1    2    0    0  0.20893019307E+00 -0.14984268685E+00  0.39461406843E+01  0.39545076756E+01  0.00000000000E+00 0. -1.
</event>
<event>
 5    1  0.2173147E+002  0.1580682E+01  0.7818608E-02  0.3374601E+00
         11   -1    0    0    0    0  0.00000000000E+00  0.00000000000E+00  0.39999999674E+01  0.40000000000E+01  0.51100000000E-03 0. -1.
    9000002   -1    0    0    0    0 -0.00000000000E+00 -0.00000000000E+00  0.00000000000E+00  0.93800000000E+00  0.93800000000E+00 0.  1.
         11    1    1    2    0    0  0.16925052587E+00 -0.11648659542E+00  0.17413802298E+01  0.17534595043E+01  0.51100000000E-03 0. -1.
    9000002    1    1    2    0    0 -0.30197006681E+00 -0.10023271951E+00  0.82819364062E-01  0.99394947878E+00  0.93800000000E+00 0.  1.
         22    1    1    2    0    0  0.13271954093E+00  0.21671931493E+00  0.21758003735E+01  0.21905910169E+01  0.00000000000E+00 0. -1.
</event>
<event>
 5    1  0.2173147E+002  0.1572860E+01  0.7818608E-02  0.3383357E+00
         11   -1    0    0    0    0  0.00000000000E+00  0.00000000000E+00  0.39999999674E+01  0.40000000000E+01  0.51100000000E-03 0. -1.
    9000002   -1    0    0    0    0 -0.00000000000E+00 -0.00000000000E+00  0.00000000000E+00  0.93800000000E+00  0.93800000000E+00 0.  1.
         11    1    1    2    0    0 -0.82225361824E-01  0.12297226384E+00  0.14209635884E+01  0.14286430514E+01  0.51100000000E-03 0. -1.
    9000002    1    1    2    0    0  0.18863131340E+00  0.18219648068E+00  0.66629348057E-01  0.97624832906E+00  0.93800000000E+00 0.  1.
         22    1    1    2    0    0 -0.10640595158E+00 -0.30516874452E+00  0.25124070309E+01  0.25331086195E+01  0.00000000000E+00 0. -1.
</event>
<event>
 5    1  0.2173147E+002  0.1599663E+01  0.7818608E-02  0.3353729E+00
         11   -1    0    0    0    0  0.00000000000E+00  0.00000000000E+00  0.39999999674E+01  0.40000000000E+01  0.51100000000E-03 0.  1.
    9000002   -1    0    0    0    0 -0.00000000000E+00 -0.00000000000E+00  0.00000000000E+00  0.93800000000E+00  0.93800000000E+00 0.  1.
         11    1    1    2    0    0  0.37026491033E-01  0.15923514388E-01  0.32393768944E+00  0.32643591578E+00  0.51100000000E-03 0.  1.
    9000002    1    1    2    0    0 -0.45336985433E+00 -0.21276557790E+00  0.17173182329E+00  0.10771022398E+01  0.93800000000E+00 0.  1.
         22    1    1    2    0    0  0.41634336330E+00  0.19684206351E+00  0.35043304546E+01  0.35344618444E+01  0.00000000000E+00 0.  1.
</event>
<event>
 5    1  0.2173147E+002  0.1465703E+01  0.7818608E-02  0.3513401E+00
         11   -1    0    0    0    0  0.00000000000E+00  0.00000000000E+00  0.39999999674E+01  0.40000000000E+01  0.51100000000E-03 0.  1.
    9000002   -1    0    0    0    0 -0.00000000000E+00 -0.00000000000E+00  0.00000000000E+00  0.93800000000E+00  0.93800000000E+00 0.  1.
         11    1    1    2    0    0 -0.17572523917E+00  0.28773070261E+00  0.16132500645E+01  0.16481032579E+01  0.51100000000E-03 0.  1.
    9000002    1    1    2    0    0 -0.21571715296E+00  0.13357409093E+00  0.15346254935E+00  0.98375336437E+00  0.93800000000E+00 0.  1.
         22    1    1    2    0    0  0.39144239213E+00 -0.42130479354E+00  0.22332873535E+01  0.23061433777E+01  0.00000000000E+00 0.  1.
</event>
<event>
 5    1  0.2173147E+002  0.1595839E+01  0.7818608E-02  0.3357892E+00
         11   -1    0    0    0    0  0.00000000000E+00  0.00000000000E+00  0.39999999674E+01  0.40000000000E+01  0.51100000000E-03 0. -1.
    9000002   -1    0    0    0    0 -0.00000000000E+00 -0.00000000000E+00  0.00000000000E+00  0.93800000000E+00  0.93800000000E+00 0.  1.
         11    1    1    2    0    0  0.61608575656E-01  0.13478956205E-01  0.77254515381E+00  0.77511520089E+00  0.51100000000E-03 0. -1.
    9000002    1    1    2    0    0 -0.82454648924E-01 -0.26216340805E+00  0.53245739740E-01  0.97888075395E+00  0.93800000000E+00 0.  1.
         22    1    1    2    0    0  0.20846073268E-01  0.24868445184E+00  0.31742090738E+01  0.31840040452E+01  0.00000000000E+00 0. -1.
</event>
<event>
 5    1  0.2173147E+002  0.1539700E+01  0.7818608E-02  0.3421529E+00
         11   -1    0    0    0    0  0.00000000000E+00  0.00000000000E+00  0.39999999674E+01  0.40000000000E+01  0.51100000000E-03 0. -1.
    9000002   -1    0    0    0    0 -0.00000000000E+00 -0.00000000000E+00  0.00000000000E+00  0.93800000000E+00  0.93800000000E+00 0.  1.
         11    1    1    2    0    0  0.58978615298E-01  0.32776779639E+00  0.11991806559E+01  0.12445660738E+01  0.51100000000E-03 0. -1.
    9000002    1    1    2    0    0 -0.22613466439E+00 -0.17699471703E+00  0.10314153105E+00  0.98638034841E+00  0.93800000000E+00 0.  1.
         22    1    1    2    0    0  0.16715604909E+00 -0.15077307936E+00  0.26976777804E+01  0.27070535778E+01  0.00000000000E+00 0. -1.
</event>
<event>
 5    1  0.2173147E+002  0.1598749E+01  0.7818608E-02  0.3354722E+00
         11   -1    0    0    0    0  0.00000000000E+00  0.00000000000E+00  0.39999999674E+01  0.40000000000E+01  0.51100000000E-03 0.  1.
    9000002   -1    0    0    0    0 -0.00000000000E+00 -0.00000000000E+00  0.00000000000E+00  0.93800000000E+00  0.93800000000E+00 0.  1.
         11    1    1    2    0    0  0.10589213596E+00  0.67998292934E-02  0.42651364768E+00  0.43951511341E+00  0.51100000000E-03 0.  1.
    9000002    1    1    2    0    0 -0.71230757195E+00  0.19142514929E-01  0.36517958167E+00  0.12332674648E+01  0.93800000000E+00 0.  1.
         22    1    1    2    0    0  0.60641543599E+00 -0.25942344223E-01  0.32083067380E+01  0.32652174218E+01  0.00000000000E+00 0.  1.
</event>
<event>
 5    1  0.2173147E+002  0.1561118E+01  0.7818608E-02  0.3396677E+00
         11   -1    0    0    0    0  0.00000000000E+00  0.00000000000E+00  0.39999999674E+01  0.40000000000E+01  0.51100000000E-03 0. -1.
    9000002   -1    0    0    0    0 -0.00000000000E+00 -0.00000000000E+00  0.00000000000E+00  0.93800000000E+00  0.93800000000E+00 0. -1.
         11    1    1    2    0    0 -0.15624271083E+00 -0.34277891320E-01  0.10724188649E+01  0.10842828235E+01  0.51100000000E-03 0. -1.
    9000002    1    1    2    0    0 -0.19858923592E+00  0.10910291716E+00  0.63820174364E-01  0.96708745510E+00  0.93800000000E+00 0. -1.
         22    1    1    2    0    0  0.35483194675E+00 -0.74825025838E-01  0.28637609281E+01  0.28866297214E+01  0.00000000000E+00 0. -1.
</event>
<event>
 5    1  0.2173147E+002  0.1593638E+01  0.7818608E-02  0.3360297E+00
         11   -1    0    0    0    0  0.00000000000E+00  0.00000000000E+00  0.39999999674E+01  0.40000000000E+01  0.51100000000E-03 0. -1.
    9000002   -1    0    0    0    0 -0.00000000000E+00 -0.00000000000E+00  0.00000000000E+00  0.93800000000E+00  0.93800000000E+00 0. -1.
         11    1    1    2    0    0  0.17983626642E-01 -0.35852368219E-01  0.47805735192E+00  0.47973731977E+00  0.51100000000E-03 0. -1.
    9000002    1    1    2    0    0 -0.60848128316E-01 -0.19990170832E+00  0.33475532485E-01  0.96157568552E+00  0.93800000000E+00 0. -1.
         22    1    1    2    0    0  0.42864501673E-01  0.23575407654E+00  0.34884670830E+01  0.34966869947E+01  0.00000000000E+00 0. -1.
</event>
<event>
 5    1  0.2173147E+002  0.1599671E+01  0.7818608E-02  0.3353721E+00
         11   -1    0    0    0    0  0.00000000000E+00  0.00000000000E+00  0.39999999674E+01  0.40000000000E+01  0.51100000000E-03 0.  1.
    9000002   -1    0    0    0    0 -0.00000000000E+00 -0.00000000000E+00  0.00000000000E+00  0.93800000000E+00  0.93800000000E+00 0. -1.
         11    1    1    2    0    0  0.52341935163E-02  0.41447515660E-03  0.80689219743E-01  0.80861485735E-01  0.51100000000E-03 0.  1.
    9000002    1    1    2    0    0 -0.26108448913E+00 -0.52870549738E-01  0.47204140585E-01  0.97623390455E+00  0.93800000000E+00 0. -1.
         22    1    1    2    0    0  0.25585029562E+00  0.52456074582E-01  0.38721066070E+01  0.38809046097E+01  0.00000000000E+00 0.  1.
</event>
<event>
 5    1  0.2173147E+002  0.1598147E+01  0.7818608E-02  0.3355377E+00
         11   -1    0    0    0    0  0.00000000000E+00  0.00000000000E+00  0.39999999674E+01  0.40000000000E+01  0.51100000000E-03 0.  1.
    9000002   -1    0    0    0    0 -0.00000000000E+00 -0.00000000000E+00  0.00000000000E+00  0.93800000000E+00  0.93800000000E+00 0. -1.
         11    1    1    2    0    0 -0.55575837619E-01  0.59602997083E-01  0.84432017147E+00  0.84824407104E+00  0.51100000000E-03 0.  1.
    9000002    1    1    2    0    0  0.79072783412E-01 -0.28211276828E+00  0.58422533372E-01  0.98442740286E+00  0.93800000000E+00 0. -1.
         22    1    1    2    0    0 -0.23496945793E-01  0.22250977120E+00  0.30972572625E+01  0.31053285261E+01  0.00000000000E+00 0.  1.
</event>
<event>
 5    1  0.2173147E+002  0.1599677E+01  0.7818608E-02  0.3353714E+00
         11   -1    0    0    0    0  0.00000000000E+00  0.00000000000E+00  0.39999999674E+01  0.40000000000E+01  0.51100000000E-03 0.  1.
    9000002   -1    0    0    0    0 -0.00000000000E+00 -0.00000000000E+00  0.00000000000E+00  0.93800000000E+00  0.93800000000E+00 0. -1.
         11    1    1    2    0    0  0.66651596995E-01  0.55308904072E-01  0.87649724857E+00  0.88076625623E+00  0.51100000000E-03 0.  1.
    9000002    1    1    2    0    0 -0.29593380505E+00 -0.24438256383E+00  0.99155147367E-01  0.10183198897E+01  0.93800000000E+00 0. -1.
         22    1    1    2    0    0  0.22928220806E+00  0.18907365976E+00  0.30243475714E+01  0.30389138541E+01  0.00000000000E+00 0.  1.
</event>
<event>
 5    1  0.2173147E+002  0.1599671E+01  0.7818608E-02  0.3353720E+00
         11   -1    0    0    0    0  0.00000000000E+00  0.00000000000E+00  0.39999999674E+01  0.40000000000E+01  0.51100000000E-03 0. -1.
    9000002   -1    0    0    0    0 -0.00000000000E+00 -0.00000000000E+00  0.00000000000E+00  0.93800000000E+00  0.93800000000E+00 0.  1.
         11    1    1    2    0    0 -0.16022206196E-02 -0.26462250136E-02  0.47839484639E-01  0.47942121660E-01  0.51100000000E-03 0. -1.
    9000002    1    1    2    0    0  0.10226508603E+00  0.21842944105E+00  0.38620109994E-01  0.96928070312E+00  0.93800000000E+00 0.  1.
         22    1    1    2    0    0 -0.10066286541E+00 -0.21578321603E+00  0.39135403727E+01  0.39207771752E+01  0.00000000000E+00 0. -1.
</event>
<event>
 5    1  0.6469799E+002  0.1571615E+01  0.7818608E-02  0.3384760E+00
         11   -1    0    0    0    0  0.00000000000E+00  0.00000000000E+00  0.39999999674E+01  0.40000000000E+01  0.51100000000E-03 0.  1.
    9000002   -1    0    0    0    0 -0.00000000000E+00 -0.00000000000E+00  0.00000000000E+00  0.93800000000E+00  0.93800000000E+00 0.  1.
         11    1    1    2    0    0 -0.11365976652E+00 -0.11585177397E+00  0.98384164156E+00  0.99713831179E+00  0.51100000000E-03 0.  1.
    9000002    1    1    2    0    0 -0.17702341446E-01 -0.49165514344E-01  0.22439837220E-01  0.93972238826E+00  0.93800000000E+00 0.  1.
         22    1    1    2    0    0  0.13136210796E+00  0.16501728831E+00  0.29937184886E+01  0.30011393000E+01  0.00000000000E+00 0.  1.
</event>
<event>
 5    1  0.2173147E+002  0.1599451E+01  0.7818608E-02  0.3353959E+00
         11   -1    0    0    0    0  0.00000000000E+00  0.00000000000E+00  0.39999999674E+01  0.40000000000E+01  0.51100000000E-03 0.  1.
    9000002   -1    0    0    0    0 -0.00000000000E+00 -0.00000000000E+00  0.00000000000E+00  0.93800000000E+00  0.93800000000E+00 0. -1.
         11    1    1    2    0    0 -0.17584353703E-01  0.39706297073E-02  0.41150435039E+00  0.41189934074E+00  0.51100000000E-03 0.  1.
    9000002    1    1    2    0    0  0.27139849215E+00 -0.10850888015E-01  0.49267156034E-01  0.97777611751E+00  0.93800000000E+00 0. -1.
         22    1    1    2    0    0 -0.25381413845E+00  0.68802583072E-02  0.35392284609E+01  0.35483245417E+01  0.00000000000E+00 0.  1.
</event>
<event>
 5    1  0.2173147E+002  0.1576470E+01  0.7818608E-02  0.3379305E+00
         11   -1    0    0    0    0  0.00000000000E+00  0.00000000000E+00  0.39999999674E+01  0.40000000000E+01  0.51100000000E-03 0. -1.
    9000002   -1    0    0    0    0 -0.00000000000E+00 -0.00000000000E+00  0.00000000000E+00  0.93800000000E+00  0.93800000000E+00 0.  1.
         11    1    1    2    0    0  0.26272524532E-01  0.96083559238E-01  0.55288458516E+00  0.56178636645E+00  0.51100000000E-03 0. -1.
    9000002    1    1    2    0    0  0.17684548654E+00  0.14701977206E+00  0.52880767931E-01  0.96722774728E+00  0.93800000000E+00 0.  1.
         22    1    1    2    0    0 -0.20311801107E+00 -0.24310333130E+00  0.33942346143E+01  0.34089858863E+01  0.00000000000E+00 0. -1.
</event>
<event>
 5    1  0.2173147E+002  0.1599470E+01  0.7818608E-02  0.3353938E+00
         11   -1    0    0    0    0  0.00000000000E+00  0.00000000000E+00  0.39999999674E+01  0.40000000000E+01  0.51100000000E-03 0.  1.
    9000002   -1    0    0    0    0 -0.00000000000E+00 -0.00000000000E+00  0.00000000000E+00  0.93800000000E+00  0.93800000000E+00 0. -1.
         11    1    1    2    0    0 -0.55067212957E-02 -0.75451323157E-03  0.62519111897E-01  0.62767776311E-01  0.51100000000E-03 0.  1.
    9000002    1    1    2    0    0  0.15145078082E+00  0.23449810895E+00  0.52048937614E-01  0.98004071039E+00  0.93800000000E+00 0. -1.
         22    1    1    2    0    0 -0.14594405952E+00 -0.23374359572E+00  0.38854319178E+01  0.38951915133E+01  0.00000000000E+00 0.  1.
</event>
<event>
 5    1  0.2173147E+002  0.1599669E+01  0.7818608E-02  0.3353723E+00
         11   -1    0    0    0    0  0.00000000000E+00  0.00000000000E+00  0.39999999674E+01  0.40000000000E+01  0.51100000000E-03 0. -1.
    9000002   -1    0    0    0    0 -0.00000000000E+00 -0.00000000000E+00  0.00000000000E+00  0.93800000000E+00  0.93800000000E+00 0. -1.
         11    1    1    2    0    0  0.84396308066E-01  0.68111167549E-01  0.10208112932E+01  0.10265562943E+01  0.51100000000E-03 0. -1.
    9000002    1    1    2    0    0 -0.33206225847E+00 -0.25768936562E+00  0.11949398406E+00  0.10347907831E+01  0.93800000000E+00 0. -1.
         22    1    1    2    0    0  0.24766595040E+00  0.18957819807E+00  0.28596946901E+01  0.28766529225E+01  0.00000000000E+00 0. -1.
</event>
<event>
 5    1  0.2173147E+002  0.1476333E+01  0.7818608E-02  0.3499592E+00
         11   -1    0    0    0    0  0.00000000000E+00  0.00000000000E+00  0.39999999674E+01  0.40000000000E+01  0.51100000000E-03 0. -1.
    9000002   -1    0    0    0    0 -0.00000000000E+00 -0.00000000000E+00  0.00000000000E+00  0.93800000000E+00  0.93800000000E+00 0.  1.
         11    1    1    2    0    0 -0.17339052865E+00 -0.26198554207E+00  0.59173528684E+00  0.66996388745E+00  0.51100000000E-03 0. -1.
    9000002    1    1    2    0    0 -0.84280717633E-01  0.91926089599E-01  0.10690738436E+00  0.95227455817E+00  0.93800000000E+00 0.  1.
         22    1    1    2    0    0  0.25767124628E+00  0.17005945247E+00  0.33013572962E+01  0.33157615544E+01  0.00000000000E+00 0. -1.
</event>
<event>
 5    1  0.2173147E+002  0.1572939E+01  0.7818608E-02  0.3383269E+00
         11   -1    0    0    0    0  0.00000000000E+00  0.00000000000E+00  0.39999999674E+01  0.40000000000E+01  0.51100000000E-03 0.  1.
    9000002   -1    0    0    0    0 -0.00000000000E+00 -0.00000000000E+00  0.00000000000E+00  0.93800000000E+00  0.93800000000E+00 0. -1.
         11    1    1    2    0    0 -0.31334441596E-01 -0.14598429979E+00  0.30526842811E+00  0.33982692262E+00  0.51100000000E-03 0.  1.
    9000002    1    1    2    0    0  0.22130729594E+00  0.44535757979E+00  0.19366538641E+00  0.10791990433E+01  0.93800000000E+00 0. -1.
         22    1    1    2    0    0 -0.18997285434E+00 -0.29937328000E+00  0.35010661528E+01  0.35189740341E+01  0.00000000000E+00 0.  1.
</event>
<event>
 5    1  0.2173147E+002  0.1599416E+01  0.7818608E-02  0.3353998E+00
         11   -1    0    0    0    0  0.00000000000E+00  0.00000000000E+00  0.39999999674E+01  0.40000000000E+01  0.51100000000E-03 0. -1.
    9000002   -1    0    0    0    0 -0.00000000000E+00 -0.00000000000E+00  0.00000000000E+00  0.93800000000E+00  0.93800000000E+00 0.  1.
         11    1    1    2    0    0  0.64830052777E-01 -0.40982497223E-01  0.71944804926E+00  0.72352488384E+00  0.51100000000E-03 0. -1.
    9000002    1    1    2    0    0 -0.37036085994E+00  0.14249470088E+00  0.10639162258E+00  0.10240288491E+01  0.93800000000E+00 0.  1.
         22    1    1    2    0    0  0.30553080717E+00 -0.10151220365E+00  0.31741602955E+01  0.31904462671E+01  0.00000000000E+00 0. -1.
</event>
<event>
 5    1  0.2173147E+002  0.1599644E+01  0.7818608E-02  0.3353749E+00
         11   -1    0    0    0    0  0.00000000000E+00  0.00000000000E+00  0.39999999674E+01  0.40000000000E+01  0.51100000000E-03 0. -1.
    9000002   -1    0    0    0    0 -0.00000000000E+00 -0.00000000000E+00  0.00000000000E+00  0.93800000000E+00  0.93800000000E+00 0. -1.
         11    1    1    2    0    0 -0.11698065020E-01  0.42222962732E-01  0.60639002767E+00  0.60797101089E+00  0.51100000000E-03 0. -1.
    9000002    1    1    2    0    0  0.10440657164E+00 -0.25957427140E+00  0.52151805149E-01  0.98022617051E+00  0.93800000000E+00 0. -1.
         22    1    1    2    0    0 -0.92708506621E-01  0.21735130867E+00  0.33414581345E+01  0.33498028186E+01  0.00000000000E+00 0. -1.
</event>
<event>
 5    1  0.2173147E+002  0.1598112E+01  0.7818608E-02  0.3355415E+00
         11   -1    0    0    0    0  0.00000000000E+00  0.00000000000E+00  0.39999999674E+01  0.40000000000E+01  0.51100000000E-03 0. -1.
    9000002   -1    0    0    0    0 -0.00000000000E+00 -0.00000000000E+00  0.00000000000E+00  0.93800000000E+00  0.93800000000E+00 0. -1.
         11    1    1    2    0    0 -0.52840578660E-02 -0.23341054837E-01  0.91488951989E+00  0.91520261190E+00  0.51100000000E-03 0. -1.
    9000002    1    1    2    0    0 -0.11159906852E+00  0.21119214322E+00  0.39061482630E-01  0.96872404372E+00  0.93800000000E+00 0. -1.
         22    1    1    2    0    0  0.11688312638E+00 -0.18785108839E+00  0.30460489648E+01  0.30540733444E+01  0.00000000000E+00 0. -1.
</event>
<event>
 5    1  0.2173147E+002  0.1582413E+01  0.7818608E-02  0.3372676E+00
         11   -1    0    0    0    0  0.00000000000E+00  0.00000000000E+00  0.39999999674E+01  0.40000000000E+01  0.51100000000E-03 0.  1.
    9000002   -1    0    0    0    0 -0.00000000000E+00 -0.00000000000E+00  0.00000000000E+00  0.93800000000E+00  0.93800000000E+00 0. -1.
         11    1    1    2    0    0 -0.43702667939E-01 -0.49434512281E-01  0.12174107139E+00  0.13847326014E+00  0.51100000000E-03 0.  1.
    9000002    1    1    2    0    0  0.15134502743E+00  0.25095859140E+00  0.70846741577E-01  0.98526584875E+00  0.93800000000E+00 0. -1.
         22    1    1    2    0    0 -0.10764235949E+00 -0.20152407912E+00  0.38074121544E+01  0.38142608911E+01  0.00000000000E+00 0.  1.
</event>
<event>
 5    1  0.2173147E+002  0.1597225E+01  0.7818608E-02  0.3356381E+00
         11   -1    0    0    0    0  0.00000000000E+00  0.00000000000E+00  0.39999999674E+01  0.40000000000E+01  0.51100000000E-03 0. -1.
    9000002   -1    0    0    0    0 -0.00000000000E+00 -0.00000000000E+00  0.00000000000E+00  0.93800000000E+00  0.93800000000E+00 0. -1.
         11    1    1    2    0    0 -0.40835246880E-03  0.12927091347E-01  0.21942416244E+00  0.21980559735E+00  0.51100000000E-03 0. -1.
    9000002    1    1    2    0    0  0.28622126197E+00  0.17122800208E+00  0.76414232158E-01  0.99846120324E+00  0.93800000000E+00 0. -1.
         22    1    1    2    0    0 -0.28581290950E+00 -0.18415509342E+00  0.37041615728E+01  0.37197331994E+01  0.00000000000E+00 0. -1.
</event>
<event>
 5    1  0.2173147E+002  0.1599642E+01  0.7818608E-02  0.3353752E+00
         11   -1    0    0    0    0  0.00000000000E+00  0.00000000000E+00  0.39999999674E+01  0.40000000000E+01  0.51100000000E-03 0.  1.
    9000002   -1    0    0    0    0 -0.00000000000E+00 -0.00000000000E+00  0.00000000000E+00  0.93800000000E+00  0.93800000000E+00 0.  1.
         11    1    1    2    0    0 -0.38000350090E-02  0.52543360723E-02  0.11434821901E+00  0.11453307219E+00  0.51100000000E-03 0.  1.
    9000002    1    1    2    0    0  0.20515862110E+00 -0.14731739272E+00  0.42412194848E-01  0.97233495684E+00  0.93800000000E+00 0.  1.
         22    1    1    2    0    0 -0.20135858609E+00  0.14206305665E+00  0.38432395535E+01  0.38511319710E+01  0.00000000000E+00 0.  1.
</event>
<event>
 5    1  0.2173147E+002  0.1547412E+01  0.7818608E-02  0.3412495E+00
         11   -1    0    0    0    0  0.00000000000E+00  0.00000000000E+00  0.39999999674E+01  0.40000000000E+01  0.51100000000E-03 0.  1.
    9000002   -1    0    0    0    0 -0.00000000000E+00 -0.00000000000E+00  0.00000000000E+00  0.93800000000E+00  0.93800000000E+00 0. -1.
         11    1    1    2    0    0  0.25821224697E-01 -0.32274192939E-01  0.60995059356E-02  0.41783061980E-01  0.51100000000E-03 0.  1.
    9000002    1    1    2    0    0  0.21937691058E+00 -0.12260351621E+00  0.83049777741E-01  0.97462768105E+00  0.93800000000E+00 0. -1.
         22    1    1    2    0    0 -0.24519813528E+00  0.15487770915E+00  0.39108506837E+01  0.39215892570E+01  0.00000000000E+00 0.  1.
</event>
<event>
 5    1  0.2173147E+002  0.1599669E+01  0.7818608E-02  0.3353723E+00
         11   -1    0    0    0    0  0.00000000000E+00  0.00000000000E+00  0.39999999674E+01  0.40000000000E+01  0.51100000000E-03 0. -1.
    9000002   -1    0    0    0    0 -0.00000000000E+00 -0.00000000000E+00  0.00000000000E+00  0.93800000000E+00  0.93800000000E+00 0. -1.
         11    1    1    2    0    0  0.16951035835E-01 -0.10842099352E+00  0.13567007971E+01  0.13611317950E+01  0.51100000000E-03 0. -1.
    9000002    1    1    2    0    0 -0.52434514785E-01  0.30552173161E+00  0.64171982903E-01  0.98997724732E+00  0.93800000000E+00 0. -1.
         22    1    1    2    0    0  0.35483478950E-01 -0.19710073809E+00  0.25791271874E+01  0.25868909577E+01  0.00000000000E+00 0. -1.
</event>
<event>
 5    1  0.2173147E+002  0.1554263E+01  0.7818608E-02  0.3404551E+00
         11   -1    0    0    0    0  0.00000000000E+00  0.00000000000E+00  0.39999999674E+01  0.40000000000E+01  0.51100000000E-03 0. -1.
    9000002   -1    0    0    0    0 -0.00000000000E+00 -0.00000000000E+00  0.00000000000E+00  0.93800000000E+00  0.93800000000E+00 0. -1.
         11    1    1    2    0    0  0.48749334924E-01  0.19107635172E-01  0.32247214287E-01  0.61495880575E-01  0.51100000000E-03 0. -1.
    9000002    1    1    2    0    0  0.21042351194E+00  0.22957568252E+00  0.10143422076E+00  0.99353709016E+00  0.93800000000E+00 0. -1.
         22    1    1    2    0    0 -0.25917284686E+00 -0.24868331769E+00  0.38663185323E+01  0.38829670293E+01  0.00000000000E+00 0. -1.
</event>
<event>
 5    1  0.2173147E+002  0.1599662E+01  0.7818608E-02  0.3353730E+00
         11   -1    0    0    0    0  0.00000000000E+00  0.00000000000E+00  0.39999999674E+01  0.40000000000E+01  0.51100000000E-03 0. -1.
    9000002   -1    0    0    0    0 -0.00000000000E+00 -0.00000000000E+00  0.00000000000E+00  0.93800000000E+00  0.93800000000E+00 0. -1.
         11    1    1    2    0    0  0.20941951859E+00 -0.26264850186E+00  0.17662339625E+01  0.17978941686E+01  0.51100000000E-03 0. -1.
    9000002    1    1    2    0    0 -0.43110089417E+00  0.53564053285E+00  0.33677312792E+00  0.12107926747E+01  0.93800000000E+00 0. -1.
         22    1    1    2    0    0  0.22168137558E+00 -0.27299203099E+00  0.18969928770E+01  0.19293131567E+01  0.00000000000E+00 0. -1.
</event>
<event>
 5    1  0.2173147E+002  0.1599641E+01  0.7818608E-02  0.3353754E+00
         11   -1    0    0    0    0  0.00000000000E+00  0.00000000000E+00  0.39999999674E+01  0.40000000000E+01  0.51100000000E-03 0. -1.
    9000002   -1    0    0    0    0 -0.00000000000E+00 -0.00000000000E+00  0.00000000000E+00  0.93800000000E+00  0.93800000000E+00 0.  1.
         11    1    1    2    0    0  0.23446431315E-01  0.62351068995E-01  0.77265624437E+00  0.77552261349E+00  0.51100000000E-03 0. -1.
    9000002    1    1    2    0    0 -0.10037162621E+00 -0.29508319268E+00  0.64909739475E-01  0.99055834166E+00  0.93800000000E+00 0.  1.
         22    1    1    2    0    0  0.76925194898E-01  0.23273212369E+00  0.31624339835E+01  0.31719190449E+01  0.00000000000E+00 0. -1.
</event>
<event>
 5    1  0.2173147E+002  0.1598156E+01  0.7818608E-02  0.3355367E+00
         11   -1    0    0    0    0  0.00000000000E+00  0.00000000000E+00  0.39999999674E+01  0.40000000000E+01  0.51100000000E-03 0.  1.
    9000002   -1    0    0    0    0 -0.00000000000E+00 -0.00000000000E+00  0.00000000000E+00  0.93800000000E+00  0.93800000000E+00 0.  1.
         11    1    1    2    0    0  0.46753852122E-02 -0.11941138565E-01  0.20529706202E+00  0.20569782403E+00  0.51100000000E-03 0.  1.
    9000002    1    1    2    0    0 -0.92209158662E-01 -0.17086609916E+00  0.26086294540E-01  0.95823913902E+00  0.93800000000E+00 0.  1.
         22    1    1    2    0    0  0.87533773450E-01  0.18280723773E+00  0.37686166108E+01  0.37740630370E+01  0.00000000000E+00 0.  1.
</event>
<event>
 5    1  0.2173147E+002  0.1599543E+01  0.7818608E-02  0.3353859E+00
         11   -1    0    0    0    0  0.00000000000E+00  0.00000000000E+00  0.39999999674E+01  0.40000000000E+01  0.51100000000E-03 0. -1.
    9000002   -1    0    0    0    0 -0.00000000000E+00 -0.00000000000E+00  0.00000000000E+00  0.93800000000E+00  0.93800000000E+00 0.  1.
         11    1    1    2    0    0 -0.35829620164E-02 -0.47905178152E-01  0.71590674728E+00  0.71751688177E+00  0.51100000000E-03 0. -1.
    9000002    1    1    2    0    0 -0.39218644121E-01  0.26818320147E+00  0.48984289587E-01  0.97760103939E+00  0.93800000000E+00 0.  1.
         22    1    1    2    0    0  0.42801606137E-01 -0.22027802332E+00  0.32351089305E+01  0.32428820788E+01  0.00000000000E+00 0. -1.
</event>
<event>
 5    1  0.2173147E+002  0.1599634E+01  0.7818608E-02  0.3353761E+00
         11   -1    0    0    0    0  0.00000000000E+00  0.00000000000E+00  0.39999999674E+01  0.40000000000E+01  0.51100000000E-03 0. -1.
    9000002   -1    0    0    0    0 -0.00000000000E+00 -0.00000000000E+00  0.00000000000E+00  0.93800000000E+00  0.93800000000E+00 0. -1.
         11    1    1    2    0    0 -0.16969723110E+00  0.12943300051E+00  0.17034354499E+01  0.17167535190E+01  0.51100000000E-03 0. -1.
    9000002    1    1    2    0    0  0.39938441228E+00 -0.29357950350E+00  0.16811077332E+00  0.10741517890E+01  0.93800000000E+00 0. -1.
         22    1    1    2    0    0 -0.22968718118E+00  0.16414650299E+00  0.21284537442E+01  0.21470946921E+01  0.00000000000E+00 0. -1.
</event>
<event>
 5    1  0.2173147E+002  0.1599674E+01  0.7818608E-02  0.3353718E+00
         11   -1    0    0    0    0  0.00000000000E+00  0.00000000000E+00  0.39999999674E+01  0.40000000000E+01  0.51100000000E-03 0.  1.
    9000002   -1    0    0    0    0 -0.00000000000E+00 -0.00000000000E+00  0.00000000000E+00  0.93800000000E+00  0.93800000000E+00 0. -1.
         11    1    1    2    0    0 -0.16087912061E-02  0.33482969960E-02  0.65145110093E-01  0.65252937037E-01  0.51100000000E-03 0. -1.
    9000002    1    1    2    0    0  0.82713673679E-01 -0.20029829534E+00  0.31124331610E-01  0.96321009284E+00  0.93800000000E+00 0. -1.
         22    1    1    2    0    0 -0.81104882473E-01  0.19694999835E+00  0.39037305257E+01  0.39095369701E+01  0.00000000000E+00 0.  1.
</event>
<event>
 5    1  0.2173147E+002  0.1599674E+01  0.7818608E-02  0.3353717E+00
         11   -1    0    0    0    0  0.00000000000E+00  0.00000000000E+00  0.39999999674E+01  0.40000000000E+01  0.51100000000E-03 0.  1.
    9000002   -1    0    0    0    0 -0.00000000000E+00 -0.00000000000E+00  0.00000000000E+00  0.93800000000E+00  0.93800000000E+00 0. -1.
         11    1    1    2    0    0 -0.89114326375E-02 -0.39373452208E-01  0.61268811721E+00  0.61401683402E+00  0.51100000000E-03 0.  1.
    9000002    1    1    2    0    0  0.51507637846E-01  0.24818860260E+00  0.42694418781E-01  0.97258286671E+00  0.93800000000E+00 0. -1.
         22    1    1    2    0    0 -0.42596205208E-01 -0.20881515040E+00  0.33446174314E+01  0.33514002993E+01  0.00000000000E+00 0.  1.
</event>
<event>
 5    1  0.2173147E+002  0.1599568E+01  0.7818608E-02  0.3353833E+00
         11   -1    0    0    0    0  0.00000000000E+00  0.00000000000E+00  0.39999999674E+01  0.40000000000E+01  0.51100000000E-03 0. -1.
    9000002   -1    0    0    0    0 -0.00000000000E+00 -0.00000000000E+00  0.00000000000E+00  0.93800000000E+00  0.93800000000E+00 0. -1.
         11    1    1    2    0    0 -0.34672755890E-03  0.21326710176E-03  0.12424231604E-01  0.12441396819E-01  0.51100000000E-03 0. -1.
    9000002    1    1    2    0    0 -0.27195799813E+00  0.10013586561E+00  0.56062493275E-01  0.98334904662E+00  0.93800000000E+00 0. -1.
         22    1    1    2    0    0  0.27230472569E+00 -0.10034913271E+00  0.39315132425E+01  0.39422095566E+01  0.00000000000E+00 0. -1.
</event>
<event>
 5    1  0.2173147E+002  0.1529799E+01  0.7818608E-02  0.3433269E+00
         11   -1    0    0    0    0  0.00000000000E+00  0.00000000000E+00  0.39999999674E+01  0.40000000000E+01  0.51100000000E-03 0.  1.
    9000002   -1    0    0    0    0 -0.00000000000E+00 -0.00000000000E+00  0.00000000000E+00  0.93800000000E+00  0.93800000000E+00 0. -1.
         11    1    1    2    0    0 -0.11466130325E+00  0.10614512536E+00  0.14672412234E+00  0.21434138961E+00  0.51100000000E-03 0.  1.
    9000002    1    1    2    0    0 -0.26325173992E-03 -0.63401691181E+00  0.35879980502E+00  0.11876694885E+01  0.93800000000E+00 0. -1.
         22    1    1    2    0    0  0.11492455499E+00  0.52787178645E+00  0.34944760400E+01  0.35359891219E+01  0.00000000000E+00 0.  1.
</event>
<event>
 5    1  0.2173147E+002  0.1553123E+01  0.7818608E-02  0.3405868E+00
         11   -1    0    0    0    0  0.00000000000E+00  0.00000000000E+00  0.39999999674E+01  0.40000000000E+01  0.51100000000E-03 0. -1.
    9000002   -1    0    0    0    0 -0.00000000000E+00 -0.00000000000E+00  0.00000000000E+00  0.93800000000E+00  0.93800000000E+00 0. -1.
         11    1    1    2    0    0 -0.28930635674E+00 -0.52013160860E-01  0.16365196052E+01  0.16627086985E+01  0.51100000000E-03 0. -1.
    9000002    1    1    2    0    0  0.90795171396E-01  0.14574818352E-01  0.40314009173E-01  0.94335857860E+00  0.93800000000E+00 0. -1.
         22    1    1    2    0    0  0.19851118534E+00  0.37438342508E-01  0.23231663530E+01  0.23319327229E+01  0.00000000000E+00 0. -1.
</event>
<event>
 5    1  0.2173147E+002  0.1588635E+01  0.7818608E-02  0.3365792E+00
         11   -1    0    0    0    0  0.00000000000E+00  0.00000000000E+00  0.39999999674E+01  0.40000000000E+01  0.51100000000E-03 0.  1.
    9000002   -1    0    0    0    0 -0.00000000000E+00 -0.00000000000E+00  0.00000000000E+00  0.93800000000E+00  0.93800000000E+00 0. -1.
         11    1    1    2    0    0  0.34111906557E-01  0.41385519402E-01  0.16449262884E+01  0.16458004553E+01  0.51100000000E-03 0.  1.
    9000002    1    1    2    0    0  0.13520040099E+00  0.10796394118E+00  0.28036083405E-01  0.95423549661E+00  0.93800000000E+00 0. -1.
         22    1    1    2    0    0 -0.16931230755E+00 -0.14934946059E+00  0.23270375956E+01  0.23379640481E+01  0.00000000000E+00 0.  1.
</event>
<event>
 5    1  0.2173147E+002  0.1546765E+01  0.7818608E-02  0.3413250E+00
         11   -1    0    0    0    0  0.00000000000E+00  0.00000000000E+00  0.39999999674E+01  0.40000000000E+01  0.51100000000E-03 0. -1.
    9000002   -1    0    0    0    0 -0.00000000000E+00 -0.00000000000E+00  0.00000000000E+00  0.93800000000E+00  0.93800000000E+00 0.  1.
         11    1    1    2    0    0  0.16925862913E+00  0.15151237000E+00  0.11874688267E+01  0.12090024637E+01  0.51100000000E-03 0. -1.
    9000002    1    1    2    0    0  0.24945956693E+00 -0.26845565553E+00  0.13459353770E+00  0.10160009522E+01  0.93800000000E+00 0.  1.
         22    1    1    2    0    0 -0.41871819607E+00  0.11694328552E+00  0.26779376030E+01  0.27129965841E+01  0.00000000000E+00 0. -1.
</event>
<event>
 5    1  0.2173147E+002  0.1599675E+01  0.7818608E-02  0.3353716E+00
         11   -1    0    0    0    0  0.00000000000E+00  0.00000000000E+00  0.39999999674E+01  0.40000000000E+01  0.51100000000E-03 0. -1.
    9000002   -1    0    0    0    0 -0.00000000000E+00 -0.00000000000E+00  0.00000000000E+00  0.93800000000E+00  0.93800000000E+00 0. -1.
         11    1    1    2    0    0 -0.93692879437E-01  0.15827235882E+00  0.16694908382E+01  0.16795917406E+01  0.51100000000E-03 0. -1.
    9000002    1    1    2    0    0  0.22130071022E+00 -0.36743774986E+00  0.12458415193E+00  0.10389175690E+01  0.93800000000E+00 0. -1.
         22    1    1    2    0    0 -0.12760783078E+00  0.20916539104E+00  0.22059249773E+01  0.22194906904E+01  0.00000000000E+00 0. -1.
</event>
<event>
 5    1  0.2173147E+002  0.1599676E+01  0.7818608E-02  0.3353715E+00
         11   -1    0    0    0    0  0.00000000000E+00  0.00000000000E+00  0.39999999674E+01  0.40000000000E+01  0.51100000000E-03 0.  1.
    9000002   -1    0    0    0    0 -0.00000000000E+00 -0.00000000000E+00  0.00000000000E+00  0.93800000000E+00  0.93800000000E+00 0. -1.
         11    1    1    2    0    0 -0.21022712683E+00 -0.44533690826E-01  0.19258962316E+01  0.19378480979E+01  0.51100000000E-03 0.  1.
    9000002    1    1    2    0    0  0.42438318380E+00  0.88314028241E-01  0.12731577707E+00  0.10411310011E+01  0.93800000000E+00 0. -1.
         22    1    1    2    0    0 -0.21415605696E+00 -0.43780337415E-01  0.19467879586E+01  0.19590209010E+01  0.00000000000E+00 0.  1.
</event>
<event>
 5    1  0.2173147E+002  0.1599427E+01  0.7818608E-02  0.3353986E+00
         11   -1    0    0    0    0  0.00000000000E+00  0.00000000000E+00  0.39999999674E+01  0.40000000000E+01  0.51100000000E-03 0. -1.
    9000002   -1    0    0    0    0 -0.00000000000E+00 -0.00000000000E+00  0.00000000000E+00  0.93800000000E+00  0.93800000000E+00 0.  1.
         11    1    1    2    0    0  0.21701846289E-01  0.85108814086E-01  0.86347737122E+00  0.86793312651E+00  0.51100000000E-03 0. -1.
    9000002    1    1    2    0    0 -0.13425638917E+00 -0.32400027215E+00  0.82681404207E-01  0.10048289252E+01  0.93800000000E+00 0.  1.
         22    1    1    2    0    0  0.11255454288E+00  0.23889145807E+00  0.30538411919E+01  0.30652379483E+01  0.00000000000E+00 0. -1.
</event>
<event>
 5    1  0.2173147E+002  0.1599676E+01  0.7818608E-02  0.3353715E+00
         11   -1    0    0    0    0  0.00000000000E+00  0.00000000000E+00  0.39999999674E+01  0.40000000000E+01  0.51100000000E-03 0.  1.
    9000002   -1    0    0    0    0 -0.00000000000E+00 -0.00000000000E+00  0.00000000000E+00  0.93800000000E+00  0.93800000000E+00 0. -1.
         11    1    1    2    0    0  0.76523296854E-01 -0.41982133960E-01  0.11500513606E+01  0.11533588807E+01  0.51100000000E-03 0.  1.
    9000002    1    1    2    0    0 -0.26208694706E+00  0.14764405993E+00  0.60371272490E-01  0.98690274434E+00  0.93800000000E+00 0. -1.
         22    1    1    2    0    0  0.18556365020E+00 -0.10566192597E+00  0.27895773343E+01  0.27977383750E+01  0.00000000000E+00 0.  1.
</event>
<event>
 5    1  0.2173147E+002  0.1597353E+01  0.7818608E-02  0.3356242E+00
         11   -1    0    0    0    0  0.00000000000E+00  0.00000000000E+00  0.39999999674E+01  0.40000000000E+01  0.51100000000E-03 0.  1.
    9000002   -1    0    0    0    0 -0.00000000000E+00 -0.00000000000E+00  0.00000000000E+00  0.93800000000E+00  0.93800000000E+00 0.  1.
         11    1    1    2    0    0  0.38575055791E-01  0.88642818350E-02  0.56000111360E+00  0.56139836015E+00  0.51100000000E-03 0.  1.
    9000002    1    1    2    0    0 -0.12480770773E+00  0.18184296153E+00  0.34002242435E-01  0.96418047017E+00  0.93800000000E+00 0.  1.
         22    1    1    2    0    0  0.86232651941E-01 -0.19070724337E+00  0.34059966113E+01  0.34124211697E+01  0.00000000000E+00 0.  1.
</event>
<event>
 5    1  0.2173147E+002  0.1599664E+01  0.7818608E-02  0.3353729E+00
         11   -1    0    0    0    0  0.00000000000E+00  0.00000000000E+00  0.39999999674E+01  0.40000000000E+01  0.51100000000E-03 0. -1.
    9000002   -1    0    0    0    0 -0.00000000000E+00 -0.00000000000E+00  0.00000000000E+00  0.93800000000E+00  0.93800000000E+00 0.  1.
         11    1    1    2    0    0  0.10123431396E+00  0.11977256353E+00  0.15650310027E+01  0.15728687656E+01  0.51100000000E-03 0. -1.
    9000002    1    1    2    0    0 -0.24599472867E+00 -0.28999116758E+00  0.97312488593E-01  0.10168195534E+01  0.93800000000E+00 0.  1.
         22    1    1    2    0    0  0.14476041471E+00  0.17021860405E+00  0.23376564761E+01  0.23483116809E+01  0.00000000000E+00 0.  1.
</event>
<event>
 5    1  0.2173147E+002  0.1599493E+01  0.7818608E-02  0.3353914E+00
         11   -1    0    0    0    0  0.00000000000E+00  0.00000000000E+00  0.39999999674E+01  0.40000000000E+01  0.51100000000E-03 0. -1.
    9000002   -1    0    0    0    0 -0.00000000000E+00 -0.00000000000E+00  0.00000000000E+00  0.93800000000E+00  0.93800000000E+00 0.  1.
         11    1    1    2    0    0  0.10218128814E-01  0.19703895385E-01  0.28508345106E+00  0.28594665384E+00  0.51100000000E-03 0. -1.
    9000002    1    1    2    0    0 -0.18871111770E+00 -0.16630822895E+00  0.42175430316E-01  0.97205610943E+00  0.93800000000E+00 0.  1.
         22    1    1    2    0    0  0.17849298889E+00  0.14660433356E+00  0.36727410860E+01  0.36799972367E+01  0.00000000000E+00 0. -1.
</event>
<event>
 5    1  0.2173147E+002  0.1598126E+01  0.7818608E-02  0.3355400E+00
         11   -1    0    0    0    0  0.00000000000E+00  0.00000000000E+00  0.39999999674E+01  0.40000000000E+01  0.51100000000E-03 0. -1.
    9000002   -1    0    0    0    0 -0.00000000000E+00 -0.00000000000E+00  0.00000000000E+00  0.93800000000E+00  0.93800000000E+00 0. -1.
         11    1    1    2    0    0 -0.18878941461E+00 -0.27723751363E+00  0.22328616755E+01  0.22579135513E+01  0.51100000000E-03 0. -1.
    9000002    1    1    2    0    0  0.24382238125E+00  0.49031550465E+00  0.20847982036E+00  0.11059685724E+01  0.93800000000E+00 0. -1.
         22    1    1    2    0    0 -0.55032966648E-01 -0.21307799102E+00  0.15586584715E+01  0.15741178763E+01  0.00000000000E+00 0. -1.
</event>
<event>
 5    1  0.2173147E+002  0.1599670E+01  0.7818608E-02  0.3353722E+00
         11   -1    0    0    0    0  0.00000000000E+00  0.00000000000E+00  0.39999999674E+01  0.40000000000E+01  0.51100000000E-03 0.  1.
    9000002   -1    0    0    0    0 -0.00000000000E+00 -0.00000000000E+00  0.00000000000E+00  0.93800000000E+00  0.93800000000E+00 0.  1.
         11    1    1    2    0    0 -0.13075472989E+00 -0.70229943190E-01  0.14129002091E+01  0.14206745955E+01  0.51100000000E-03 0.  1.
    9000002    1    1    2    0    0  0.35166208510E+00  0.19241466407E+00  0.10840628757E+00  0.10258097037E+01  0.93800000000E+00 0.  1.
         22    1    1    2    0    0 -0.22090735521E+00 -0.12218472088E+00  0.24786934707E+01  0.24915157008E+01  0.00000000000E+00 0.  1.
</event>
<event>
 5    1  0.2173147E+002  0.1586793E+01  0.7818608E-02  0.3367824E+00
         11   -1    0    0    0    0  0.00000000000E+00  0.00000000000E+00  0.39999999674E+01  0.40000000000E+01  0.51100000000E-03 0.  1.
    9000002   -1    0    0    0    0 -0.00000000000E+00 -0.00000000000E+00  0.00000000000E+00  0.93800000000E+00  0.93800000000E+00 0. -1.
         11    1    1    2    0    0  0.87920336625E-01 -0.17652140716E-01  0.19707871576E+01  0.19728263647E+01  0.51100000000E-03 0.  1.
    9000002    1    1    2    0    0  0.27552925087E-01 -0.14871226887E+00  0.24678245361E-01  0.95043543620E+00  0.93800000000E+00 0. -1.
         22    1    1    2    0    0 -0.11547326171E+00  0.16636440958E+00  0.20045345644E+01  0.20147381991E+01  0.00000000000E+00 0.  1.
</event>
<event>
 5    1  0.2173147E+002  0.1599675E+01  0.7818608E-02  0.3353716E+00
         11   -1    0    0    0    0  0.00000000000E+00  0.00000000000E+00  0.39999999674E+01  0.40000000000E+01  0.51100000000E-03 0. -1.
    9000002   -1    0    0    0    0 -0.00000000000E+00 -0.00000000000E+00  0.00000000000E+00  0.93800000000E+00  0.93800000000E+00 0. -1.
         11    1    1    2    0    0  0.65553539981E-01 -0.15688211592E+00  0.16775578769E+01  0.16861524120E+01  0.51100000000E-03 0. -1.
    9000002    1    1    2    0    0 -0.15584365288E+00  0.36471661350E+00  0.10606132817E+00  0.10239133057E+01  0.93800000000E+00 0. -1.
         22    1    1    2    0    0  0.90290112899E-01 -0.20783449757E+00  0.22163807623E+01  0.22279342823E+01  0.00000000000E+00 0. -1.
</event>
<event>
 5    1  0.2173147E+002  0.1599412E+01  0.7818608E-02  0.3354001E+00
         11   -1    0    0    0    0  0.00000000000E+00  0.00000000000E+00  0.39999999674E+01  0.40000000000E+01  0.51100000000E-03 0. -1.
    9000002   -1    0    0    0    0 -0.00000000000E+00 -0.00000000000E+00  0.00000000000E+00  0.93800000000E+00  0.93800000000E+00 0. -1.
         11    1    1    2    0    0 -0.26798807394E-02  0.11553385069E+00  0.33925163449E+00  0.35839529160E+00  0.51100000000E-03 0. -1.
    9000002    1    1    2    0    0 -0.58783723226E-01 -0.10041266830E+01  0.81718256714E+00  0.15997991342E+01  0.93800000000E+00 0. -1.
         22    1    1    2    0    0  0.61463603965E-01  0.88859283230E+00  0.28435657657E+01  0.29798055742E+01  0.00000000000E+00 0. -1.
</event>
<event>
 5    1  0.2173147E+002  0.1598705E+01  0.7818608E-02  0.3354770E+00
         11   -1    0    0    0    0  0.00000000000E+00  0.00000000000E+00  0.39999999674E+01  0.40000000000E+01  0.51100000000E-03 0. -1.
    9000002   -1    0    0    0    0 -0.00000000000E+00 -0.00000000000E+00  0.00000000000E+00  0.93800000000E+00  0.93800000000E+00 0.  1.
         11    1    1    2    0    0 -0.47526500536E-01  0.54056606221E-01  0.11743713004E+01  0.11765751558E+01  0.51100000000E-03 0. -1.
    9000002    1    1    2    0    0  0.27299890769E+00 -0.16434718340E+00  0.68627770457E-01  0.99302173751E+00  0.93800000000E+00 0.  1.
         22    1    1    2    0    0 -0.22547240715E+00  0.11029057717E+00  0.27570008965E+01  0.27684031066E+01  0.00000000000E+00 0.  1.
</event>
<event>
 5    1  0.2173147E+002  0.1556730E+01  0.7818608E-02  0.3401710E+00
         11   -1    0    0    0    0  0.00000000000E+00  0.00000000000E+00  0.39999999674E+01  0.40000000000E+01  0.51100000000E-03 0. -1.
    9000002   -1    0    0    0    0 -0.00000000000E+00 -0.00000000000E+00  0.00000000000E+00  0.93800000000E+00  0.93800000000E+00 0. -1.
         11    1    1    2    0    0  0.14725927725E+00 -0.15319435374E+00  0.12618846810E+01  0.12796511298E+01  0.51100000000E-03 0. -1.
    9000002    1    1    2    0    0  0.46485307969E-01 -0.42132620839E-01  0.34454926535E-01  0.94072694421E+00  0.93800000000E+00 0. -1.
         22    1    1    2    0    0 -0.19374458522E+00  0.19532697458E+00  0.27036603598E+01  0.27176219260E+01  0.00000000000E+00 0. -1.
</event>
<event>
 5    1  0.2173147E+002  0.1469866E+01  0.7818608E-02  0.3507967E+00
         11   -1    0    0    0    0  0.00000000000E+00  0.00000000000E+00  0.39999999674E+01  0.40000000000E+01  0.51100000000E-03 0. -1.
    9000002   -1    0    0    0    0 -0.00000000000E+00 -0.00000000000E+00  0.00000000000E+00  0.93800000000E+00  0.93800000000E+00 0.  1.
         11    1    1    2    0    0 -0.12391779560E+00  0.43419166789E+00  0.95085411500E+00  0.10526166604E+01  0.51100000000E-03 0. -1.
    9000002    1    1    2    0    0  0.36402707261E+00 -0.20612723132E+00  0.23731499906E+00  0.10541188519E+01  0.93800000000E+00 0.  1.
         22    1    1    2    0    0 -0.24010927701E+00 -0.22806443657E+00  0.28118308533E+01  0.28312644878E+01  0.00000000000E+00 0. -1.
</event>
<event>
 5    1  0.2173147E+002  0.1599531E+01  0.7818608E-02  0.3353872E+00
         11   -1    0    0    0    0  0.00000000000E+00  0.00000000000E+00  0.39999999674E+01  0.40000000000E+01  0.51100000000E-03 0.  1.
    9000002   -1    0    0    0    0 -0.00000000000E+00 -0.00000000000E+00  0.00000000000E+00  0.93800000000E+00  0.93800000000E+00 0.  1.
         11    1    1    2    0    0  0.22293332922E+00 -0.28221708507E+00  0.23968846318E+01  0.24237165576E+01  0.51100000000E-03 0.  1.
    9000002    1    1    2    0    0 -0.34252403093E+00  0.46430873357E+00  0.23129933518E+00  0.11252771633E+01  0.93800000000E+00 0.  1.
         22    1    1    2    0    0  0.11959070171E+00 -0.18209164850E+00  0.13718160004E+01  0.13890062791E+01  0.00000000000E+00 0. -1.
</event>
<event>
 5    1  0.2173147E+002  0.1593474E+01  0.7818608E-02  0.3360477E+00
         11   -1    0    0    0    0  0.00000000000E+00  0.00000000000E+00  0.39999999674E+01  0.40000000000E+01  0.51100000000E-03 0.  1.
    9000002   -1    0    0    0    0 -0.00000000000E+00 -0.00000000000E+00  0.00000000000E+00  0.93800000000E+00  0.93800000000E+00 0.  1.
         11    1    1    2    0    0  0.25737166555E-01  0.39478721611E-01  0.73016657206E+00  0.73168603600E+00  0.51100000000E-03 0.  1.
    9000002    1    1    2    0    0  0.15666001487E+00  0.52556241259E-01  0.22652865004E-01  0.95271279568E+00  0.93800000000E+00 0.  1.
         22    1    1    2    0    0 -0.18239718142E+00 -0.92034962869E-01  0.32471805303E+01  0.32536011683E+01  0.00000000000E+00 0.  1.
</event>
<event>
 5    1  0.2173147E+002  0.1599671E+01  0.7818608E-02  0.3353721E+00
         11   -1    0    0    0    0  0.00000000000E+00  0.00000000000E+00  0.39999999674E+01  0.40000000000E+01  0.51100000000E-03 0. -1.
    9000002   -1    0    0    0    0 -0.00000000000E+00 -0.00000000000E+00  0.00000000000E+00  0.93800000000E+00  0.93800000000E+00 0. -1.
         11    1    1    2    0    0  0.10480972371E+00 -0.11299563642E-01  0.12786123590E+01  0.12829507333E+01  0.51100000000E-03 0. -1.
    9000002    1    1    2    0    0 -0.32420766521E+00  0.26339783636E-01  0.70762266891E-01  0.99531688059E+00  0.93800000000E+00 0. -1.
         22    1    1    2    0    0  0.21939794149E+00 -0.15040219994E-01  0.26506253414E+01  0.26597323861E+01  0.00000000000E+00 0. -1.
</event>
<event>
 5    1  0.2173147E+002  0.1579936E+01  0.7818608E-02  0.3375432E+00
         11   -1    0    0    0    0  0.00000000000E+00  0.00000000000E+00  0.39999999674E+01  0.40000000000E+01  0.51100000000E-03 0. -1.
    9000002   -1    0    0    0    0 -0.00000000000E+00 -0.00000000000E+00  0.00000000000E+00  0.93800000000E+00  0.93800000000E+00 0.  1.
         11    1    1    2    0    0  0.14843554838E+00  0.20075435654E-01  0.24071075835E+01  0.24117635280E+01  0.51100000000E-03 0. -1.
    9000002    1    1    2    0    0 -0.72119066420E-02 -0.16656886406E+00  0.33151438528E-01  0.95327866647E+00  0.93800000000E+00 0.  1.
         22    1    1    2    0    0 -0.14122364174E+00  0.14649342841E+00  0.15597409453E+01  0.15729578055E+01  0.00000000000E+00 0. -1.
</event>
<event>
 5    1  0.2173147E+002  0.1599639E+01  0.7818608E-02  0.3353755E+00
         11   -1    0    0    0    0  0.00000000000E+00  0.00000000000E+00  0.39999999674E+01  0.40000000000E+01  0.51100000000E-03 0. -1.
    9000002   -1    0    0    0    0 -0.00000000000E+00 -0.00000000000E+00  0.00000000000E+00  0.93800000000E+00  0.93800000000E+00 0. -1.
         11    1    1    2    0    0 -0.11381978779E+00  0.15323451487E+00  0.18746337274E+01  0.18843268383E+01  0.51100000000E-03 0. -1.
    9000002    1    1    2    0    0  0.22172620165E+00 -0.32241802469E+00  0.10319713147E+00  0.10215720920E+01  0.93800000000E+00 0. -1.
         22    1    1    2    0    0 -0.10790641385E+00  0.16918350982E+00  0.20221691085E+01  0.20321010697E+01  0.00000000000E+00 0.  1.
</event>
<event>
 5    1  0.2173147E+002  0.1599677E+01  0.7818608E-02  0.3353714E+00
         11   -1    0    0    0    0  0.00000000000E+00  0.00000000000E+00  0.39999999674E+01  0.40000000000E+01  0.51100000000E-03 0. -1.
    9000002   -1    0    0    0    0 -0.00000000000E+00 -0.00000000000E+00  0.00000000000E+00  0.93800000000E+00  0.93800000000E+00 0.  1.
         11    1    1    2    0    0 -0.87414449131E-01 -0.31838876043E-02  0.11727696993E+01  0.11760274026E+01  0.51100000000E-03 0.  1.
    9000002    1    1    2    0    0  0.29458243859E+00  0.10012797987E-01  0.57930118123E-01  0.98492586921E+00  0.93800000000E+00 0.  1.
         22    1    1    2    0    0 -0.20716798946E+00 -0.68289103824E-02  0.27693001500E+01  0.27770467282E+01  0.00000000000E+00 0. -1.
</event>
<event>
 5    1  0.2173147E+002  0.1599399E+01  0.7818608E-02  0.3354016E+00
         11   -1    0    0    0    0  0.00000000000E+00  0.00000000000E+00  0.39999999674E+01  0.40000000000E+01  0.51100000000E-03 0. -1.
    9000002   -1    0    0    0    0 -0.00000000000E+00 -0.00000000000E+00  0.00000000000E+00  0.93800000000E+00  0.93800000000E+00 0.  1.
         11    1    1    2    0    0  0.45968854202E-01 -0.68133800721E-02  0.72468532347E+00  0.72617397150E+00  0.51100000000E-03 0. -1.
    9000002    1    1    2    0    0 -0.24161816166E+00 -0.46958420196E-01  0.40445816175E-01  0.97059996565E+00  0.93800000000E+00 0.  1.
         22    1    1    2    0    0  0.19564930746E+00  0.53771800268E-01  0.32348688277E+01  0.32412260629E+01  0.00000000000E+00 0. -1.
</event>
<event>
 5    1  0.2173147E+002  0.1599677E+01  0.7818608E-02  0.3353714E+00
         11   -1    0    0    0    0  0.00000000000E+00  0.00000000000E+00  0.39999999674E+01  0.40000000000E+01  0.51100000000E-03 0. -1.
    9000002   -1    0    0    0    0 -0.00000000000E+00 -0.00000000000E+00  0.00000000000E+00  0.93800000000E+00  0.93800000000E+00 0.  1.
         11    1    1    2    0    0  0.13101010766E-01  0.21536173580E+00  0.18095938392E+01  0.18224111605E+01  0.51100000000E-03 0. -1.
    9000002    1    1    2    0    0 -0.27376416854E-01 -0.45934384648E+00  0.14403331814E+00  0.10546733306E+01  0.93800000000E+00 0.  1.
         22    1    1    2    0    0  0.14275406088E-01  0.24398211068E+00  0.20463728100E+01  0.20609155089E+01  0.00000000000E+00 0. -1.
</event>
<event>
 5    1  0.7198858E+002  0.1563697E+01  0.7818608E-02  0.3393733E+00
         11   -1    0    0    0    0  0.00000000000E+00  0.00000000000E+00  0.39999999674E+01  0.40000000000E+01  0.51100000000E-03 0.  1.
    9000002   -1    0    0    0    0 -0.00000000000E+00 -0.00000000000E+00  0.00000000000E+00  0.93800000000E+00  0.93800000000E+00 0.  1.
         11    1    1    2    0    0 -0.63949993584E-01  0.24001632785E+00  0.20144512823E+01  0.20297072866E+01  0.51100000000E-03 0.  1.
    9000002    1    1    2    0    0  0.25450204328E-01 -0.34668754189E-01  0.27768129805E-01  0.93939592529E+00  0.93800000000E+00 0.  1.
         22    1    1    2    0    0  0.38499789256E-01 -0.20534757366E+00  0.19577805553E+01  0.19688967881E+01  0.00000000000E+00 0.  1.
</event>
<event>
 5    1  0.2173147E+002  0.1523668E+01  0.7818608E-02  0.3440621E+00
         11   -1    0    0    0    0  0.00000000000E+00  0.00000000000E+00  0.39999999674E+01  0.40000000000E+01  0.51100000000E-03 0.  1.
    9000002   -1    0    0    0    0 -0.00000000000E+00 -0.00000000000E+00  0.00000000000E+00  0.93800000000E+00  0.93800000000E+00 0.  1.
         11    1    1    2    0    0  0.22962464906E+00  0.93083957256E-01  0.31344580538E+01  0.31442359414E+01  0.51100000000E-03 0.  1.
    9000002    1    1    2    0    0  0.47424695325E-01 -0.73353472510E-01  0.62595537297E-01  0.94413560199E+00  0.93800000000E+00 0.  1.
         22    1    1    2    0    0 -0.27704934439E+00 -0.19730484745E-01  0.80294637621E+00  0.84962845664E+00  0.00000000000E+00 0.  1.
</event>
<event>
 5    1  0.5297165E+002  0.1561010E+01  0.7818608E-02  0.3396801E+00
         11   -1    0    0    0    0  0.00000000000E+00  0.00000000000E+00  0.39999999674E+01  0.40000000000E+01  0.51100000000E-03 0. -1.
    9000002   -1    0    0    0    0 -0.00000000000E+00 -0.00000000000E+00  0.00000000000E+00  0.93800000000E+00  0.93800000000E+00 0.  1.
         11    1    1    2    0    0  0.20004702536E+00  0.15687359314E+00  0.18151701932E+01  0.18328860379E+01  0.51100000000E-03 0. -1.
    9000002    1    1    2    0    0 -0.31599414525E-01 -0.25067705466E-01  0.29637603011E-01  0.93933449866E+00  0.93800000000E+00 0.  1.
         22    1    1    2    0    0 -0.16844761084E+00 -0.13180588768E+00  0.21551921712E+01  0.21657794634E+01  0.00000000000E+00 0. -1.
</event>
<event>
 5    1  0.2173147E+002  0.1594742E+01  0.7818608E-02  0.3359091E+00
         11   -1    0    0    0    0  0.00000000000E+00  0.00000000000E+00  0.39999999674E+01  0.40000000000E+01  0.51100000000E-03 0.  1.
    9000002   -1    0    0    0    0 -0.00000000000E+00 -0.00000000000E+00  0.00000000000E+00  0.93800000000E+00  0.93800000000E+00 0.  1.
         11    1    1    2    0    0  0.11055543388E+00 -0.24145030673E-01  0.58410629862E+00  0.59496715513E+00  0.51100000000E-03 0.  1.
    9000002    1    1    2    0    0 -0.38568892927E+00 -0.41283760776E-01  0.10541703278E+00  0.10204984321E+01  0.93800000000E+00 0.  1.
         22    1    1    2    0    0  0.27513349539E+00  0.65428791448E-01  0.33104766360E+01  0.33225344128E+01  0.00000000000E+00 0.  1.
</event>
<event>
 5    1  0.2173147E+002  0.1593001E+01  0.7818608E-02  0.3360995E+00
         11   -1    0    0    0    0  0.00000000000E+00  0.00000000000E+00  0.39999999674E+01  0.40000000000E+01  0.51100000000E-03 0. -1.
    9000002   -1    0    0    0    0 -0.00000000000E+00 -0.00000000000E+00  0.00000000000E+00  0.93800000000E+00  0.93800000000E+00 0. -1.
         11    1    1    2    0    0 -0.32846479080E-01  0.39492315191E-01  0.30315237414E+00  0.30747383176E+00  0.51100000000E-03 0. -1.
    9000002    1    1    2    0    0  0.18709195619E+00  0.12418097481E+00  0.38500231023E-01  0.96527228405E+00  0.93800000000E+00 0. -1.
         22    1    1    2    0    0 -0.15424547711E+00 -0.16367329000E+00  0.36583473622E+01  0.36652538842E+01  0.00000000000E+00 0. -1.
</event>
<event>
 5    1  0.2173147E+002  0.1599668E+01  0.7818608E-02  0.3353724E+00
         11   -1    0    0    0    0  0.00000000000E+00  0.00000000000E+00  0.39999999674E+01  0.40000000000E+01  0.51100000000E-03 0.  1.
    9000002   -1    0    0    0    0 -0.00000000000E+00 -0.00000000000E+00  0.00000000000E+00  0.93800000000E+00  0.93800000000E+00 0.  1.
         11    1    1    2    0    0 -0.53459624900E-01 -0.97277619258E-01  0.12558388972E+01  0.12607348903E+01  0.51100000000E-03 0.  1.
    9000002    1    1    2    0    0  0.16457925669E+00  0.31354191056E+00  0.84124080807E-01  0.10061390174E+01  0.93800000000E+00 0.  1.
         22    1    1    2    0    0 -0.11111963179E+00 -0.21626429131E+00  0.26600369894E+01  0.26711260923E+01  0.00000000000E+00 0.  1.
</event>
<event>
 5    1  0.2173147E+002  0.1599662E+01  0.7818608E-02  0.3353731E+00
         11   -1    0    0    0    0  0.00000000000E+00  0.00000000000E+00  0.39999999674E+01  0.40000000000E+01  0.51100000000E-03 0. -1.
    9000002   -1    0    0    0    0 -0.00000000000E+00 -0.00000000000E+00  0.00000000000E+00  0.93800000000E+00  0.93800000000E+00 0. -1.
         11    1    1    2    0    0  0.26380246998E+00  0.32974584393E-01  0.16431228350E+01  0.16644915075E+01  0.51100000000E-03 0. -1.
    9000002    1    1    2    0    0 -0.59486313060E+00 -0.67207068886E-01  0.24998373147E+00  0.11404888427E+01  0.93800000000E+00 0. -1.
         22    1    1    2    0    0  0.33106066062E+00  0.34232484492E-01  0.21068934008E+01  0.21330196498E+01  0.00000000000E+00 0.  1.
</event>
<event>
 5    1  0.2173147E+002  0.1599676E+01  0.7818608E-02  0.3353715E+00
         11   -1    0    0    0    0  0.00000000000E+00  0.00000000000E+00  0.39999999674E+01  0.40000000000E+01  0.51100000000E-03 0. -1.
    9000002   -1    0    0    0    0 -0.00000000000E+00 -0.00000000000E+00  0.00000000000E+00  0.93800000000E+00  0.93800000000E+00 0. -1.
         11    1    1    2    0    0  0.27850965464E-01  0.63527389622E-01  0.98487694462E+00  0.98731669826E+00  0.51100000000E-03 0.  1.
    9000002    1    1    2    0    0 -0.11359880007E+00 -0.25264743793E+00  0.51086607264E-01  0.97938207902E+00  0.93800000000E+00 0. -1.
         22    1    1    2    0    0  0.85747834606E-01  0.18912004831E+00  0.29640364155E+01  0.29713012227E+01  0.00000000000E+00 0. -1.
</event>
<event>
 5    1  0.2173147E+002  0.1567215E+01  0.7818608E-02  0.3389735E+00
         11   -1    0    0    0    0  0.00000000000E+00  0.00000000000E+00  0.39999999674E+01  0.40000000000E+01  0.51100000000E-03 0. -1.
    9000002   -1    0    0    0    0 -0.00000000000E+00 -0.00000000000E+00  0.00000000000E+00  0.93800000000E+00  0.93800000000E+00 0. -1.
         11    1    1    2    0    0 -0.10324877511E+00  0.10484135867E+00  0.13127499839E+01  0.13209711585E+01  0.51100000000E-03 0. -1.
    9000002    1    1    2    0    0 -0.28724501981E+00 -0.17804822793E+00  0.10290036345E+00  0.10023189900E+01  0.93800000000E+00 0. -1.
         22    1    1    2    0    0  0.39049379491E+00  0.73206869267E-01  0.25843496200E+01  0.26147098516E+01  0.00000000000E+00 0. -1.
</event>
<event>
 5    1  0.2173147E+002  0.1598698E+01  0.7818608E-02  0.3354778E+00
         11   -1    0    0    0    0  0.00000000000E+00  0.00000000000E+00  0.39999999674E+01  0.40000000000E+01  0.51100000000E-03 0.  1.
    9000002   -1    0    0    0    0 -0.00000000000E+00 -0.00000000000E+00  0.00000000000E+00  0.93800000000E+00  0.93800000000E+00 0. -1.
         11    1    1    2    0    0 -0.27324585481E-01  0.26559994466E-01  0.26010333396E+00  0.26288033729E+00  0.51100000000E-03 0.  1.
    9000002    1    1    2    0    0  0.17345594699E+00 -0.24951015122E+00  0.62393110364E-01  0.98796719649E+00  0.93800000000E+00 0. -1.
         22    1    1    2    0    0 -0.14613136151E+00  0.22295015676E+00  0.36775035230E+01  0.36871524662E+01  0.00000000000E+00 0.  1.
</event>
<event>
 5    1  0.2173147E+002  0.1599677E+01  0.7818608E-02  0.3353714E+00
         11   -1    0    0    0    0  0.00000000000E+00  0.00000000000E+00  0.39999999674E+01  0.40000000000E+01  0.51100000000E-03 0.  1.
    9000002   -1    0    0    0    0 -0.00000000000E+00 -0.00000000000E+00  0.00000000000E+00  0.93800000000E+00  0.93800000000E+00 0. -1.
         11    1    1    2    0    0  0.11004740821E+00 -0.17635335538E+00  0.15842587431E+01  0.15978382159E+01  0.51100000000E-03 0.  1.
    9000002    1    1    2    0    0 -0.26740567742E+00  0.42519422319E+00  0.17277767094E+00  0.10779573495E+01  0.93800000000E+00 0. -1.
         22    1    1    2    0    0  0.15735826921E+00 -0.24884086781E+00  0.22429635533E+01  0.22622044346E+01  0.00000000000E+00 0.  1.
</event>
<event>
 5    1  0.2173147E+002  0.1599635E+01  0.7818608E-02  0.3353759E+00
         11   -1    0    0    0    0  0.00000000000E+00  0.00000000000E+00  0.39999999674E+01  0.40000000000E+01  0.51100000000E-03 0.  1.
    9000002   -1    0    0    0    0 -0.00000000000E+00 -0.00000000000E+00  0.00000000000E+00  0.93800000000E+00  0.93800000000E+00 0. -1.
         11    1    1    2    0    0  0.95137972254E-02 -0.22418392186E-01  0.33829661729E+00  0.33917246209E+00  0.51100000000E-03 0.  1.
    9000002    1    1    2    0    0 -0.68286908613E-01  0.23588809028E+00  0.40079138724E-01  0.97044146160E+00  0.93800000000E+00 0. -1.
         22    1    1    2    0    0  0.58773111387E-01 -0.21346969809E+00  0.36216242113E+01  0.36283860763E+01  0.00000000000E+00 0.  1.
</event>
<event>
 5    1  0.2173147E+002  0.1599673E+01  0.7818608E-02  0.3353718E+00
         11   -1    0    0    0    0  0.00000000000E+00  0.00000000000E+00  0.39999999674E+01  0.40000000000E+01  0.51100000000E-03 0.  1.
    9000002   -1    0    0    0    0 -0.00000000000E+00 -0.00000000000E+00  0.00000000000E+00  0.93800000000E+00  0.93800000000E+00 0.  1.
         11    1    1    2    0    0  0.11827990739E+00 -0.17559728740E+00  0.13372906824E+01  0.13539465182E+01  0.51100000000E-03 0.  1.
    9000002    1    1    2    0    0 -0.32625817104E+00  0.49131344468E+00  0.24216319004E+00  0.11341606172E+01  0.93800000000E+00 0.  1.
         22    1    1    2    0    0  0.20797826365E+00 -0.31571615727E+00  0.24205460949E+01  0.24498928645E+01  0.00000000000E+00 0.  1.
</event>
<event>
 5    1  0.2173147E+002  0.1599675E+01  0.7818608E-02  0.3353716E+00
         11   -1    0    0    0    0  0.00000000000E+00  0.00000000000E+00  0.39999999674E+01  0.40000000000E+01  0.51100000000E-03 0. -1.
    9000002   -1    0    0    0    0 -0.00000000000E+00 -0.00000000000E+00  0.00000000000E+00  0.93800000000E+00  0.93800000000E+00 0.  1.
         11    1    1    2    0    0 -0.11560783114E-03  0.41031920086E-01  0.61582721949E+00  0.61719288493E+00  0.51100000000E-03 0. -1.
    9000002    1    1    2    0    0 -0.30775809647E-02 -0.25672350496E+00  0.43812200940E-01  0.97348854048E+00  0.93800000000E+00 0.  1.
         22    1    1    2    0    0  0.31931887958E-02  0.21569158487E+00  0.33403605469E+01  0.33473185746E+01  0.00000000000E+00 0. -1.
</event>
<event>
 5    1  0.2173147E+002  0.1599675E+01  0.7818608E-02  0.3353716E+00
         11   -1    0    0    0    0  0.00000000000E+00  0.00000000000E+00  0.39999999674E+01  0.40000000000E+01  0.51100000000E-03 0.  1.
    9000002   -1    0    0    0    0 -0.00000000000E+00 -0.00000000000E+00  0.00000000000E+00  0.93800000000E+00  0.93800000000E+00 0.  1.
         11    1    1    2    0    0  0.41132972167E-01  0.15060781705E+00  0.15551106209E+01  0.15629280023E+01  0.51100000000E-03 0.  1.
    9000002    1    1    2    0    0 -0.99180459633E-01 -0.37957095239E+00  0.10371662572E+00  0.10220137034E+01  0.93800000000E+00 0.  1.
         22    1    1    2    0    0  0.58047487466E-01  0.22896313534E+00  0.23411727207E+01  0.23530582943E+01  0.00000000000E+00 0.  1.
</event>
<event>
 5    1  0.2173147E+002  0.1545887E+01  0.7818608E-02  0.3414274E+00
         11   -1    0    0    0    0  0.00000000000E+00  0.00000000000E+00  0.39999999674E+01  0.40000000000E+01  0.51100000000E-03 0.  1.
    9000002   -1    0    0    0    0 -0.00000000000E+00 -0.00000000000E+00  0.00000000000E+00  0.93800000000E+00  0.93800000000E+00 0.  1.
         11    1    1    2    0    0 -0.14430782991E+00  0.16659184262E+00  0.18384582607E+01  0.18516227016E+01  0.51100000000E-03 0.  1.
    9000002    1    1    2    0    0 -0.12378284467E+00  0.53963894089E-01  0.52680504096E-01  0.94913304126E+00  0.93800000000E+00 0.  1.
         22    1    1    2    0    0  0.26809067458E+00 -0.22055573671E+00  0.21088612026E+01  0.21372442571E+01  0.00000000000E+00 0.  1.
</event>
<event>
 5    1  0.2173147E+002  0.1599677E+01  0.7818608E-02  0.3353714E+00
         11   -1    0    0    0    0  0.00000000000E+00  0.00000000000E+00  0.39999999674E+01  0.40000000000E+01  0.51100000000E-03 0. -1.
    9000002   -1    0    0    0    0 -0.00000000000E+00 -0.00000000000E+00  0.00000000000E+00  0.93800000000E+00  0.93800000000E+00 0. -1.
         11    1    1    2    0    0  0.14633657769E+00  0.35472415997E+00  0.20371389252E+01  0.20729637926E+01  0.51100000000E-03 0. -1.
    9000002    1    1    2    0    0 -0.26274171926E+00 -0.63684334386E+00  0.33818929949E+00  0.12119482901E+01  0.93800000000E+00 0. -1.
         22    1    1    2    0    0  0.11640514156E+00  0.28211918389E+00  0.16246717427E+01  0.16530879173E+01  0.00000000000E+00 0.  1.
</event>
<event>
 5    1  0.2173147E+002  0.1594085E+01  0.7818608E-02  0.3359808E+00
         11   -1    0    0    0    0  0.00000000000E+00  0.00000000000E+00  0.39999999674E+01  0.40000000000E+01  0.51100000000E-03 0. -1.
    9000002   -1    0    0    0    0 -0.00000000000E+00 -0.00000000000E+00  0.00000000000E+00  0.93800000000E+00  0.93800000000E+00 0. -1.
         11    1    1    2    0    0  0.90286035577E-01  0.62346028202E-01  0.44416922288E+00  0.45752066087E+00  0.51100000000E-03 0. -1.
    9000002    1    1    2    0    0 -0.43596950008E+00 -0.17190003268E+00  0.15450177634E+00  0.10598744384E+01  0.93800000000E+00 0. -1.
         22    1    1    2    0    0  0.34568346450E+00  0.10955400448E+00  0.34013289681E+01  0.34206049008E+01  0.00000000000E+00 0. -1.
</event>
<event>
 5    1  0.2173147E+002  0.1506364E+01  0.7818608E-02  0.3461716E+00
         11   -1    0    0    0    0  0.00000000000E+00  0.00000000000E+00  0.39999999674E+01  0.40000000000E+01  0.51100000000E-03 0. -1.
    9000002   -1    0    0    0    0 -0.00000000000E+00 -0.00000000000E+00  0.00000000000E+00  0.93800000000E+00  0.93800000000E+00 0. -1.
         11    1    1    2    0    0  0.32127758214E+00 -0.59454138581E+00  0.25680350064E+01  0.26554665879E+01  0.51100000000E-03 0. -1.
    9000002    1    1    2    0    0 -0.14973074694E+00  0.48361063054E+00  0.26570706292E+00  0.10985184486E+01  0.93800000000E+00 0. -1.
         22    1    1    2    0    0 -0.17154683521E+00  0.11093075527E+00  0.11662578981E+01  0.11840149636E+01  0.00000000000E+00 0. -1.
</event>
<event>
 5    1  0.2173147E+002  0.1599677E+01  0.7818608E-02  0.3353714E+00
         11   -1    0    0    0    0  0.00000000000E+00  0.00000000000E+00  0.39999999674E+01  0.40000000000E+01  0.51100000000E-03 0. -1.
    9000002   -1    0    0    0    0 -0.00000000000E+00 -0.00000000000E+00  0.00000000000E+00  0.93800000000E+00  0.93800000000E+00 0. -1.
         11    1    1    2    0    0  0.31496576742E+00 -0.11065391532E+00  0.22180573561E+01  0.22430395493E+01  0.51100000000E-03 0. -1.
    9000002    1    1    2    0    0 -0.53628640989E+00  0.18944901902E+00  0.22425354123E+00  0.11196551679E+01  0.93800000000E+00 0. -1.
         22    1    1    2    0    0  0.22132064247E+00 -0.78795103702E-01  0.15576890700E+01  0.15753052828E+01  0.00000000000E+00 0.  1.
</event>
<event>
 5    1  0.2173147E+002  0.1526382E+01  0.7818608E-02  0.3437358E+00
         11   -1    0    0    0    0  0.00000000000E+00  0.00000000000E+00  0.39999999674E+01  0.40000000000E+01  0.51100000000E-03 0.  1.
    9000002   -1    0    0    0    0 -0.00000000000E+00 -0.00000000000E+00  0.00000000000E+00  0.93800000000E+00  0.93800000000E+00 0.  1.
         11    1    1    2    0    0 -0.33619133162E+00 -0.26461701269E-01  0.18631476738E+01  0.18934213342E+01  0.51100000000E-03 0.  1.
    9000002    1    1    2    0    0  0.22498377015E+00 -0.42390334089E+00  0.22518816428E+00  0.10774346609E+01  0.93800000000E+00 0.  1.
         22    1    1    2    0    0  0.11120756147E+00  0.45036504216E+00  0.19116641292E+01  0.19671440049E+01  0.00000000000E+00 0. -1.
</event>
<event>
 5    1  0.2173147E+002  0.1594039E+01  0.7818608E-02  0.3359858E+00
         11   -1    0    0    0    0  0.00000000000E+00  0.00000000000E+00  0.39999999674E+01  0.40000000000E+01  0.51100000000E-03 0.  1.
    9000002   -1    0    0    0    0 -0.00000000000E+00 -0.00000000000E+00  0.00000000000E+00  0.93800000000E+00  0.93800000000E+00 0.  1.
         11    1    1    2    0    0 -0.31594574333E+00  0.13563689191E-01  0.27112635131E+01  0.27296438934E+01  0.51100000000E-03 0.  1.
    9000002    1    1    2    0    0  0.55172073529E+00  0.12750432402E-01  0.21578375278E+00  0.11094886080E+01  0.93800000000E+00 0.  1.
         22    1    1    2    0    0 -0.23577499196E+00 -0.26314121593E-01  0.10729527015E+01  0.10988674986E+01  0.00000000000E+00 0.  1.
</event>
<event>
 5    1  0.2173147E+002  0.1599616E+01  0.7818608E-02  0.3353781E+00
         11   -1    0    0    0    0  0.00000000000E+00  0.00000000000E+00  0.39999999674E+01  0.40000000000E+01  0.51100000000E-03 0. -1.
    9000002   -1    0    0    0    0 -0.00000000000E+00 -0.00000000000E+00  0.00000000000E+00  0.93800000000E+00  0.93800000000E+00 0.  1.
         11    1    1    2    0    0 -0.23963236849E+00  0.20633366189E+00  0.13521964308E+01  0.13886802010E+01  0.51100000000E-03 0. -1.
    9000002    1    1    2    0    0  0.61666442018E+00 -0.51471315314E+00  0.47587657418E+00  0.13234451825E+01  0.93800000000E+00 0.  1.
         22    1    1    2    0    0 -0.37703205169E+00  0.30837949125E+00  0.21719269624E+01  0.22258746165E+01  0.00000000000E+00 0. -1.
</event>
<event>
 5    1  0.2173147E+002  0.1599665E+01  0.7818608E-02  0.3353727E+00
         11   -1    0    0    0    0  0.00000000000E+00  0.00000000000E+00  0.39999999674E+01  0.40000000000E+01  0.51100000000E-03 0. -1.
    9000002   -1    0    0    0    0 -0.00000000000E+00 -0.00000000000E+00  0.00000000000E+00  0.93800000000E+00  0.93800000000E+00 0.  1.
         11    1    1    2    0    0  0.28117726894E-02 -0.68344886864E-01  0.84537185695E+00  0.84813487563E+00  0.51100000000E-03 0. -1.
    9000002    1    1    2    0    0 -0.16725588346E-01  0.30294404864E+00  0.61439842480E-01  0.98776196331E+00  0.93800000000E+00 0.  1.
         22    1    1    2    0    0  0.13913815656E-01 -0.23459916178E+00  0.30931882679E+01  0.31021031611E+01  0.00000000000E+00 0. -1.
</event>
<event>
 5    1  0.2173147E+002  0.1593756E+01  0.7818608E-02  0.3360168E+00
         11   -1    0    0    0    0  0.00000000000E+00  0.00000000000E+00  0.39999999674E+01  0.40000000000E+01  0.51100000000E-03 0. -1.
    9000002   -1    0    0    0    0 -0.00000000000E+00 -0.00000000000E+00  0.00000000000E+00  0.93800000000E+00  0.93800000000E+00 0.  1.
         11    1    1    2    0    0  0.83013981748E-01  0.73874659568E-01  0.16733689922E+01  0.16770548088E+01  0.51100000000E-03 0. -1.
    9000002    1    1    2    0    0 -0.35930151978E-01 -0.31829228641E+00  0.73280652973E-01  0.99388883156E+00  0.93800000000E+00 0.  1.
         22    1    1    2    0    0 -0.47083829770E-01  0.24441762684E+00  0.22533503222E+01  0.22670563596E+01  0.00000000000E+00 0. -1.
</event>
<event>
 5    1  0.2173147E+002  0.1599668E+01  0.7818608E-02  0.3353723E+00
         11   -1    0    0    0    0  0.00000000000E+00  0.00000000000E+00  0.39999999674E+01  0.40000000000E+01  0.51100000000E-03 0.  1.
    9000002   -1    0    0    0    0 -0.00000000000E+00 -0.00000000000E+00  0.00000000000E+00  0.93800000000E+00  0.93800000000E+00 0.  1.
         11    1    1    2    0    0 -0.17761723268E-01  0.31610115586E-01  0.61206407962E+00  0.61313732304E+00  0.51100000000E-03 0.  1.
    9000002    1    1    2    0    0  0.10318358020E+00 -0.21586019062E+00  0.38001537835E-01  0.96877788476E+00  0.93800000000E+00 0.  1.
         22    1    1    2    0    0 -0.85421856937E-01  0.18425007503E+00  0.33499343499E+01  0.33560847922E+01  0.00000000000E+00 0.  1.
</event>
<event>
 5    1  0.2173147E+002  0.1599131E+01  0.7818608E-02  0.3354307E+00
         11   -1    0    0    0    0  0.00000000000E+00  0.00000000000E+00  0.39999999674E+01  0.40000000000E+01  0.51100000000E-03 0.  1.
    9000002   -1    0    0    0    0 -0.00000000000E+00 -0.00000000000E+00  0.00000000000E+00  0.93800000000E+00  0.93800000000E+00 0. -1.
         11    1    1    2    0    0  0.77771915041E-01  0.25212637394E+00  0.20185630304E+01  0.20357340563E+01  0.51100000000E-03 0.  1.
    9000002    1    1    2    0    0 -0.19907672892E+00 -0.46530393308E+00  0.17601736780E+00  0.10802617312E+01  0.93800000000E+00 0. -1.
         22    1    1    2    0    0  0.12130481388E+00  0.21317755915E+00  0.18054195692E+01  0.18220042125E+01  0.00000000000E+00 0.  1.
</event>
<event>
 5    1  0.2173147E+002  0.1599596E+01  0.7818608E-02  0.3353802E+00
         11   -1    0    0    0    0  0.00000000000E+00  0.00000000000E+00  0.39999999674E+01  0.40000000000E+01  0.51100000000E-03 0. -1.
    9000002   -1    0    0    0    0 -0.00000000000E+00 -0.00000000000E+00  0.00000000000E+00  0.93800000000E+00  0.93800000000E+00 0.  1.
         11    1    1    2    0    0  0.10259972244E+00 -0.21252699472E+00  0.15621281811E+01  0.15798541521E+01  0.51100000000E-03 0. -1.
    9000002    1    1    2    0    0 -0.24511614236E+00  0.49014376024E+00  0.20743170995E+00  0.11059813485E+01  0.93800000000E+00 0.  1.
         22    1    1    2    0    0  0.14251641992E+00 -0.27761676552E+00  0.22304400763E+01  0.22521644994E+01  0.00000000000E+00 0. -1.
</event>
<event>
 5    1  0.2173147E+002  0.1599615E+01  0.7818608E-02  0.3353782E+00
         11   -1    0    0    0    0  0.00000000000E+00  0.00000000000E+00  0.39999999674E+01  0.40000000000E+01  0.51100000000E-03 0.  1.
    9000002   -1    0    0    0    0 -0.00000000000E+00 -0.00000000000E+00  0.00000000000E+00  0.93800000000E+00  0.93800000000E+00 0. -1.
         11    1    1    2    0    0  0.17244719559E+00 -0.74820565687E-01  0.17473514709E+01  0.17574338042E+01  0.51100000000E-03 0.  1.
    9000002    1    1    2    0    0 -0.39579095892E+00  0.18171353896E+00  0.12860449675E+00  0.10421388631E+01  0.93800000000E+00 0. -1.
         22    1    1    2    0    0  0.22334376333E+00 -0.10689297327E+00  0.21240439998E+01  0.21384273327E+01  0.00000000000E+00 0.  1.
</event>
<event>
 5    1  0.2173147E+002  0.1599394E+01  0.7818608E-02  0.3354022E+00
         11   -1    0    0    0    0  0.00000000000E+00  0.00000000000E+00  0.39999999674E+01  0.40000000000E+01  0.51100000000E-03 0.  1.
    9000002   -1    0    0    0    0 -0.00000000000E+00 -0.00000000000E+00  0.00000000000E+00  0.93800000000E+00  0.93800000000E+00 0. -1.
         11    1    1    2    0    0 -0.24875887195E-01 -0.26747394910E+00  0.17032256510E+01  0.17242792705E+01  0.51100000000E-03 0.  1.
    9000002    1    1    2    0    0  0.94134746168E-01  0.57012030347E+00  0.23216302190E+00  0.11258961673E+01  0.93800000000E+00 0. -1.
         22    1    1    2    0    0 -0.69258858973E-01 -0.30264635437E+00  0.20646112944E+01  0.20878245622E+01  0.00000000000E+00 0. -1.
</event>
<event>
 5    1  0.2173147E+002  0.1599677E+01  0.7818608E-02  0.3353714E+00
         11   -1    0    0    0    0  0.00000000000E+00  0.00000000000E+00  0.39999999674E+01  0.40000000000E+01  0.51100000000E-03 0.  1.
    9000002   -1    0    0    0    0 -0.00000000000E+00 -0.00000000000E+00  0.00000000000E+00  0.93800000000E+00  0.93800000000E+00 0. -1.
         11    1    1    2    0    0  0.52109579655E+00 -0.42360970117E+00  0.22883559456E+01  0.23848604159E+01  0.51100000000E-03 0.  1.
    9000002    1    1    2    0    0 -0.74583753903E+00  0.60612046547E+00  0.72758671054E+00  0.15273775154E+01  0.93800000000E+00 0. -1.
         22    1    1    2    0    0  0.22474174248E+00 -0.18251076430E+00  0.98405731119E+00  0.10257620687E+01  0.00000000000E+00 0.  1.
</event>
<event>
 5    1  0.2173147E+002  0.1599644E+01  0.7818608E-02  0.3353749E+00
         11   -1    0    0    0    0  0.00000000000E+00  0.00000000000E+00  0.39999999674E+01  0.40000000000E+01  0.51100000000E-03 0. -1.
    9000002   -1    0    0    0    0 -0.00000000000E+00 -0.00000000000E+00  0.00000000000E+00  0.93800000000E+00  0.93800000000E+00 0. -1.
         11    1    1    2    0    0  0.79111741120E-01 -0.17543868513E+00  0.16686069785E+01  0.16796686904E+01  0.51100000000E-03 0. -1.
    9000002    1    1    2    0    0 -0.17820280330E+00  0.42070382662E+00  0.14195200847E+00  0.10529683383E+01  0.93800000000E+00 0. -1.
         22    1    1    2    0    0  0.99091062183E-01 -0.24526514149E+00  0.21894409804E+01  0.22053629712E+01  0.00000000000E+00 0. -1.
</event>
<event>
 5    1  0.2173147E+002  0.1599677E+01  0.7818608E-02  0.3353714E+00
         11   -1    0    0    0    0  0.00000000000E+00  0.00000000000E+00  0.39999999674E+01  0.40000000000E+01  0.51100000000E-03 0.  1.
    9000002   -1    0    0    0    0 -0.00000000000E+00 -0.00000000000E+00  0.00000000000E+00  0.93800000000E+00  0.93800000000E+00 0.  1.
         11    1    1    2    0    0 -0.42764937372E-01 -0.75886948521E-03  0.58382836172E+00  0.58539322923E+00  0.51100000000E-03 0. -1.
    9000002    1    1    2    0    0  0.28982911837E+00  0.50871099556E-02  0.56003598752E-01  0.98336524223E+00  0.93800000000E+00 0.  1.
         22    1    1    2    0    0 -0.24706418100E+00 -0.43282404704E-02  0.33601680069E+01  0.33692415285E+01  0.00000000000E+00 0.  1.
</event>
<event>
 5    1  0.2173147E+002  0.1599677E+01  0.7818608E-02  0.3353714E+00
         11   -1    0    0    0    0  0.00000000000E+00  0.00000000000E+00  0.39999999674E+01  0.40000000000E+01  0.51100000000E-03 0.  1.
    9000002   -1    0    0    0    0 -0.00000000000E+00 -0.00000000000E+00  0.00000000000E+00  0.93800000000E+00  0.93800000000E+00 0.  1.
         11    1    1    2    0    0  0.33491582392E+00 -0.11244420860E+00  0.24131892169E+01  0.24389126198E+01  0.51100000000E-03 0.  1.
    9000002    1    1    2    0    0 -0.52578505182E+00  0.17594386819E+00  0.21250585171E+00  0.11101391365E+01  0.93800000000E+00 0.  1.
         22    1    1    2    0    0  0.19086922790E+00 -0.63499659591E-01  0.13743048988E+01  0.13889482437E+01  0.00000000000E+00 0.  1.
</event>
<event>
 5    1  0.2173147E+002  0.1571472E+01  0.7818608E-02  0.3384921E+00
         11   -1    0    0    0    0  0.00000000000E+00  0.00000000000E+00  0.39999999674E+01  0.40000000000E+01  0.51100000000E-03 0.  1.
    9000002   -1    0    0    0    0 -0.00000000000E+00 -0.00000000000E+00  0.00000000000E+00  0.93800000000E+00  0.93800000000E+00 0. -1.
         11    1    1    2    0    0  0.38268436990E-01  0.91507977494E-01  0.16400997872E+01  0.16430963929E+01  0.51100000000E-03 0.  1.
    9000002    1    1    2    0    0  0.36613616033E-01  0.24157790635E+00  0.61460754384E-01  0.97124758226E+00  0.93800000000E+00 0. -1.
         22    1    1    2    0    0 -0.74882053023E-01 -0.33308588385E+00  0.22984394258E+01  0.23236560249E+01  0.00000000000E+00 0.  1.
</event>
<event>
 5    1  0.2173147E+002  0.1599669E+01  0.7818608E-02  0.3353723E+00
         11   -1    0    0    0    0  0.00000000000E+00  0.00000000000E+00  0.39999999674E+01  0.40000000000E+01  0.51100000000E-03 0.  1.
    9000002   -1    0    0    0    0 -0.00000000000E+00 -0.00000000000E+00  0.00000000000E+00  0.93800000000E+00  0.93800000000E+00 0.  1.
         11    1    1    2    0    0 -0.79961931070E-01 -0.19757446311E+00  0.12943919527E+01  0.13118232987E+01  0.51100000000E-03 0.  1.
    9000002    1    1    2    0    0  0.23551860077E+00  0.56240381857E+00  0.25993571478E+00  0.11485545883E+01  0.93800000000E+00 0.  1.
         22    1    1    2    0    0 -0.15555666970E+00 -0.36482935547E+00  0.24456722999E+01  0.24776221130E+01  0.00000000000E+00 0.  1.
</event>
<event>
 5    1  0.2173147E+002  0.1599478E+01  0.7818608E-02  0.3353931E+00
         11   -1    0    0    0    0  0.00000000000E+00  0.00000000000E+00  0.39999999674E+01  0.40000000000E+01  0.51100000000E-03 0.  1.
    9000002   -1    0    0    0    0 -0.00000000000E+00 -0.00000000000E+00  0.00000000000E+00  0.93800000000E+00  0.93800000000E+00 0.  1.
         11    1    1    2    0    0  0.47572482419E-01  0.10364464736E+00  0.15053253257E+01  0.15096390135E+01  0.51100000000E-03 0.  1.
    9000002    1    1    2    0    0 -0.16728433017E+00 -0.26657241722E+00  0.66324313281E-01  0.99160870069E+00  0.93800000000E+00 0.  1.
         22    1    1    2    0    0  0.11971184775E+00  0.16292776987E+00  0.24283503284E+01  0.24367522858E+01  0.00000000000E+00 0.  1.
</event>
<event>
 5    1  0.2173147E+002  0.1599676E+01  0.7818608E-02  0.3353715E+00
         11   -1    0    0    0    0  0.00000000000E+00  0.00000000000E+00  0.39999999674E+01  0.40000000000E+01  0.51100000000E-03 0. -1.
    9000002   -1    0    0    0    0 -0.00000000000E+00 -0.00000000000E+00  0.00000000000E+00  0.93800000000E+00  0.93800000000E+00 0.  1.
         11    1    1    2    0    0 -0.17631750953E+00 -0.20012025213E+00  0.19593397297E+01  0.19774095218E+01  0.51100000000E-03 0. -1.
    9000002    1    1    2    0    0  0.34420622413E+00  0.38717176524E+00  0.18429277657E+00  0.10872845663E+01  0.93800000000E+00 0.  1.
         22    1    1    2    0    0 -0.16788871460E+00 -0.18705151311E+00  0.18563674611E+01  0.18733059119E+01  0.00000000000E+00 0. -1.
</event>
<event>
 5    1  0.2173147E+002  0.1599668E+01  0.7818608E-02  0.3353724E+00
         11   -1    0    0    0    0  0.00000000000E+00  0.00000000000E+00  0.39999999674E+01  0.40000000000E+01  0.51100000000E-03 0. -1.
    9000002   -1    0    0    0    0 -0.00000000000E+00 -0.00000000000E+00  0.00000000000E+00  0.93800000000E+00  0.93800000000E+00 0.  1.
         11    1    1    2    0    0  0.25816877298E-01  0.32091347925E-01  0.64796673488E+00  0.64927460785E+00  0.51100000000E-03 0. -1.
    9000002    1    1    2    0    0 -0.16698076428E+00 -0.18259341113E+00  0.40668847120E-01  0.97093814662E+00  0.93800000000E+00 0.  1.
         22    1    1    2    0    0  0.14116388698E+00  0.15050206321E+00  0.33113643854E+01  0.33177872455E+01  0.00000000000E+00 0. -1.
</event>
<event>
 5    1  0.2173147E+002  0.1599567E+01  0.7818608E-02  0.3353833E+00
         11   -1    0    0    0    0  0.00000000000E+00  0.00000000000E+00  0.39999999674E+01  0.40000000000E+01  0.51100000000E-03 0.  1.
    9000002   -1    0    0    0    0 -0.00000000000E+00 -0.00000000000E+00  0.00000000000E+00  0.93800000000E+00  0.93800000000E+00 0. -1.
         11    1    1    2    0    0  0.14750946450E-01 -0.20778071295E-01  0.33714336770E+00  0.33810535366E+00  0.51100000000E-03 0.  1.
    9000002    1    1    2    0    0 -0.19822737387E+00  0.16518143150E+00  0.44339700900E-01  0.97385266141E+00  0.93800000000E+00 0. -1.
         22    1    1    2    0    0  0.18347642742E+00 -0.14440336020E+00  0.36185168988E+01  0.36260419849E+01  0.00000000000E+00 0.  1.
</event>
<event>
 5    1  0.2173147E+002  0.1599674E+01  0.7818608E-02  0.3353718E+00
         11   -1    0    0    0    0  0.00000000000E+00  0.00000000000E+00  0.39999999674E+01  0.40000000000E+01  0.51100000000E-03 0. -1.
    9000002   -1    0    0    0    0 -0.00000000000E+00 -0.00000000000E+00  0.00000000000E+00  0.93800000000E+00  0.93800000000E+00 0.  1.
         11    1    1    2    0    0  0.96411898637E-03 -0.14265376127E-01  0.19520970203E+00  0.19573328631E+00  0.51100000000E-03 0. -1.
    9000002    1    1    2    0    0 -0.33711724115E-01  0.29758060224E+00  0.59833567285E-01  0.98646578803E+00  0.93800000000E+00 0.  1.
         22    1    1    2    0    0  0.32747605129E-01 -0.28331522611E+00  0.37449566980E+01  0.37558009257E+01  0.00000000000E+00 0. -1.
</event>
<event>
 5    1  0.2173147E+002  0.1598091E+01  0.7818608E-02  0.3355438E+00
         11   -1    0    0    0    0  0.00000000000E+00  0.00000000000E+00  0.39999999674E+01  0.40000000000E+01  0.51100000000E-03 0.  1.
    9000002   -1    0    0    0    0 -0.00000000000E+00 -0.00000000000E+00  0.00000000000E+00  0.93800000000E+00  0.93800000000E+00 0.  1.
         11    1    1    2    0    0  0.39400197552E-01 -0.23210811418E-01  0.97572164358E+00  0.97679276420E+00  0.51100000000E-03 0.  1.
    9000002    1    1    2    0    0 -0.24661203832E+00 -0.49224780483E-01  0.43228916566E-01  0.97208709265E+00  0.93800000000E+00 0.  1.
         22    1    1    2    0    0  0.20721184077E+00  0.72435591901E-01  0.29810494072E+01  0.29891201432E+01  0.00000000000E+00 0.  1.
</event>
<event>
 5    1  0.2173147E+002  0.1546842E+01  0.7818608E-02  0.3413160E+00
         11   -1    0    0    0    0  0.00000000000E+00  0.00000000000E+00  0.39999999674E+01  0.40000000000E+01  0.51100000000E-03 0.  1.
    9000002   -1    0    0    0    0 -0.00000000000E+00 -0.00000000000E+00  0.00000000000E+00  0.93800000000E+00  0.93800000000E+00 0.  1.
         11    1    1    2    0    0 -0.19650996208E+00 -0.36820218328E+00  0.17047412725E+01  0.17550874851E+01  0.51100000000E-03 0.  1.
    9000002    1    1    2    0    0  0.38775518290E+00  0.20941278921E+00  0.17851922910E+00  0.10516277446E+01  0.93800000000E+00 0.  1.
         22    1    1    2    0    0 -0.19124522082E+00  0.15878939407E+00  0.21167394657E+01  0.21312847703E+01  0.00000000000E+00 0.  1.
</event>
<event>
 5    1  0.2173147E+002  0.1538508E+01  0.7818608E-02  0.3422934E+00
         11   -1    0    0    0    0  0.00000000000E+00  0.00000000000E+00  0.39999999674E+01  0.40000000000E+01  0.51100000000E-03 0.  1.
    9000002   -1    0    0    0    0 -0.00000000000E+00 -0.00000000000E+00  0.00000000000E+00  0.93800000000E+00  0.93800000000E+00 0.  1.
         11    1    1    2    0    0  0.10351762353E+00 -0.84520270307E-01  0.20556004475E+00  0.24518313073E+00  0.51100000000E-03 0.  1.
    9000002    1    1    2    0    0  0.36065883963E-01 -0.68016398477E-01  0.49797567149E-01  0.94247057044E+00  0.93800000000E+00 0.  1.
         22    1    1    2    0    0 -0.13958350749E+00  0.15253666878E+00  0.37446423555E+01  0.37503462988E+01  0.00000000000E+00 0.  1.
</event>
<event>
 5    1  0.2173147E+002  0.1544118E+01  0.7818608E-02  0.3416343E+00
         11   -1    0    0    0    0  0.00000000000E+00  0.00000000000E+00  0.39999999674E+01  0.40000000000E+01  0.51100000000E-03 0.  1.
    9000002   -1    0    0    0    0 -0.00000000000E+00 -0.00000000000E+00  0.00000000000E+00  0.93800000000E+00  0.93800000000E+00 0. -1.
         11    1    1    2    0    0  0.18209225727E+00 -0.24740558139E+00  0.19972936032E+01  0.20207793325E+01  0.51100000000E-03 0.  1.
    9000002    1    1    2    0    0 -0.42219282405E-01  0.27279213234E-01  0.43099116417E-01  0.94033406676E+00  0.93800000000E+00 0. -1.
         22    1    1    2    0    0 -0.13987297486E+00  0.22012636815E+00  0.19596072477E+01  0.19768866008E+01  0.00000000000E+00 0.  1.
</event>
<event>
 5    1  0.2173147E+002  0.1599677E+01  0.7818608E-02  0.3353714E+00
         11   -1    0    0    0    0  0.00000000000E+00  0.00000000000E+00  0.39999999674E+01  0.40000000000E+01  0.51100000000E-03 0.  1.
    9000002   -1    0    0    0    0 -0.00000000000E+00 -0.00000000000E+00  0.00000000000E+00  0.93800000000E+00  0.93800000000E+00 0.  1.
         11    1    1    2    0    0 -0.31373729966E-01 -0.22891345930E+00  0.20188483646E+01  0.20320272299E+01  0.51100000000E-03 0.  1.
    9000002    1    1    2    0    0  0.59898361340E-01  0.43816461608E+00  0.13268179352E+00  0.10454781216E+01  0.93800000000E+00 0.  1.
         22    1    1    2    0    0 -0.28524631374E-01 -0.20925115678E+00  0.18484698092E+01  0.18604946484E+01  0.00000000000E+00 0.  1.
</event>
<event>
 5    1  0.2173147E+002  0.1584048E+01  0.7818608E-02  0.3370862E+00
         11   -1    0    0    0    0  0.00000000000E+00  0.00000000000E+00  0.39999999674E+01  0.40000000000E+01  0.51100000000E-03 0. -1.
    9000002   -1    0    0    0    0 -0.00000000000E+00 -0.00000000000E+00  0.00000000000E+00  0.93800000000E+00  0.93800000000E+00 0. -1.
         11    1    1    2    0    0 -0.39459365200E-01  0.11298128061E+00  0.20981068988E+01  0.21015172212E+01  0.51100000000E-03 0. -1.
    9000002    1    1    2    0    0 -0.17494370805E+00 -0.78052191034E-01  0.36053509283E-01  0.95804034416E+00  0.93800000000E+00 0. -1.
         22    1    1    2    0    0  0.21440307325E+00 -0.34929089575E-01  0.18658395593E+01  0.18784424346E+01  0.00000000000E+00 0. -1.
</event>
<event>
 5    1  0.2173147E+002  0.1599673E+01  0.7818608E-02  0.3353719E+00
         11   -1    0    0    0    0  0.00000000000E+00  0.00000000000E+00  0.39999999674E+01  0.40000000000E+01  0.51100000000E-03 0. -1.
    9000002   -1    0    0    0    0 -0.00000000000E+00 -0.00000000000E+00  0.00000000000E+00  0.93800000000E+00  0.93800000000E+00 0. -1.
         11    1    1    2    0    0  0.97093472888E-01 -0.15069153058E+00  0.15642556487E+01  0.15744939109E+01  0.51100000000E-03 0. -1.
    9000002    1    1    2    0    0 -0.23831202818E+00  0.36695098001E+00  0.12979596861E+00  0.10431378806E+01  0.93800000000E+00 0. -1.
         22    1    1    2    0    0  0.14121855529E+00 -0.21625944944E+00  0.23059483500E+01  0.23203682085E+01  0.00000000000E+00 0. -1.
</event>
<event>
 5    1  0.2173147E+002  0.1596720E+01  0.7818608E-02  0.3356931E+00
         11   -1    0    0    0    0  0.00000000000E+00  0.00000000000E+00  0.39999999674E+01  0.40000000000E+01  0.51100000000E-03 0.  1.
    9000002   -1    0    0    0    0 -0.00000000000E+00 -0.00000000000E+00  0.00000000000E+00  0.93800000000E+00  0.93800000000E+00 0.  1.
         11    1    1    2    0    0 -0.16059481192E-01  0.15580904334E-01  0.66006437332E+00  0.66044372173E+00  0.51100000000E-03 0.  1.
    9000002    1    1    2    0    0  0.97822733229E-01  0.19927408391E+00  0.34907097090E-01  0.96454235422E+00  0.93800000000E+00 0.  1.
         22    1    1    2    0    0 -0.81763252037E-01 -0.21485498824E+00  0.33050284969E+01  0.33130139241E+01  0.00000000000E+00 0.  1.
</event>
<event>
 5    1  0.2173147E+002  0.1599677E+01  0.7818608E-02  0.3353714E+00
         11   -1    0    0    0    0  0.00000000000E+00  0.00000000000E+00  0.39999999674E+01  0.40000000000E+01  0.51100000000E-03 0.  1.
    9000002   -1    0    0    0    0 -0.00000000000E+00 -0.00000000000E+00  0.00000000000E+00  0.93800000000E+00  0.93800000000E+00 0.  1.
         11    1    1    2    0    0  0.12899329924E+00 -0.69820207410E-01  0.15937446838E+01  0.16004800876E+01  0.51100000000E-03 0.  1.
    9000002    1    1    2    0    0 -0.31772960422E+00  0.17275871059E+00  0.87816437530E-01  0.10091349762E+01  0.93800000000E+00 0.  1.
         22    1    1    2    0    0  0.18873630499E+00 -0.10293850318E+00  0.23184388460E+01  0.23283849362E+01  0.00000000000E+00 0.  1.
</event>
<event>
 5    1  0.2173147E+002  0.1599676E+01  0.7818608E-02  0.3353715E+00
         11   -1    0    0    0    0  0.00000000000E+00  0.00000000000E+00  0.39999999674E+01  0.40000000000E+01  0.51100000000E-03 0.  1.
    9000002   -1    0    0    0    0 -0.00000000000E+00 -0.00000000000E+00  0.00000000000E+00  0.93800000000E+00  0.93800000000E+00 0. -1.
         11    1    1    2    0    0  0.99088580516E-02  0.46315875455E-01  0.72056705207E+00  0.72212220810E+00  0.51100000000E-03 0.  1.
    9000002    1    1    2    0    0 -0.57794197257E-01 -0.25337907459E+00  0.44902056204E-01  0.97437226938E+00  0.93800000000E+00 0. -1.
         22    1    1    2    0    0  0.47885339205E-01  0.20706319914E+00  0.32345308591E+01  0.32415055225E+01  0.00000000000E+00 0.  1.
</event>
<event>
 5    1  0.2173147E+002  0.1599675E+01  0.7818608E-02  0.3353716E+00
         11   -1    0    0    0    0  0.00000000000E+00  0.00000000000E+00  0.39999999674E+01  0.40000000000E+01  0.51100000000E-03 0.  1.
    9000002   -1    0    0    0    0 -0.00000000000E+00 -0.00000000000E+00  0.00000000000E+00  0.93800000000E+00  0.93800000000E+00 0. -1.
         11    1    1    2    0    0  0.47530224285E-01  0.34521058617E+00  0.19944100072E+01  0.20246236710E+01  0.51100000000E-03 0.  1.
    9000002    1    1    2    0    0 -0.85860834290E-01 -0.63972002399E+00  0.29366628112E+00  0.11758816593E+01  0.93800000000E+00 0. -1.
         22    1    1    2    0    0  0.38330610005E-01  0.29450943782E+00  0.17119236790E+01  0.17374946698E+01  0.00000000000E+00 0.  1.
</event>
<event>
 5    1  0.2173147E+002  0.1599666E+01  0.7818608E-02  0.3353726E+00
         11   -1    0    0    0    0  0.00000000000E+00  0.00000000000E+00  0.39999999674E+01  0.40000000000E+01  0.51100000000E-03 0. -1.
    9000002   -1    0    0    0    0 -0.00000000000E+00 -0.00000000000E+00  0.00000000000E+00  0.93800000000E+00  0.93800000000E+00 0. -1.
         11    1    1    2    0    0 -0.16279850464E-01 -0.34522486527E-01  0.51537615417E+00  0.51678784527E+00  0.51100000000E-03 0. -1.
    9000002    1    1    2    0    0  0.14441121911E+00  0.26143182232E+00  0.59508194729E-01  0.98619796348E+00  0.93800000000E+00 0. -1.
         22    1    1    2    0    0 -0.12813136864E+00 -0.22690933580E+00  0.34251156185E+01  0.34350141913E+01  0.00000000000E+00 0. -1.
</event>
<event>
 5    1  0.2173147E+002  0.1578806E+01  0.7818608E-02  0.3376693E+00
         11   -1    0    0    0    0  0.00000000000E+00  0.00000000000E+00  0.39999999674E+01  0.40000000000E+01  0.51100000000E-03 0.  1.
    9000002   -1    0    0    0    0 -0.00000000000E+00 -0.00000000000E+00  0.00000000000E+00  0.93800000000E+00  0.93800000000E+00 0. -1.
         11    1    1    2    0    0 -0.92534071537E-01 -0.82178554766E-01  0.12146120199E+01  0.12209006877E+01  0.51100000000E-03 0.  1.
    9000002    1    1    2    0    0  0.11206095769E+00 -0.21906363970E+00  0.56304140391E-01  0.97137052287E+00  0.93800000000E+00 0. -1.
         22    1    1    2    0    0 -0.19526886149E-01  0.30124219447E+00  0.27290838071E+01  0.27457287894E+01  0.00000000000E+00 0.  1.
</event>
<event>
 5    1  0.2173147E+002  0.1599674E+01  0.7818608E-02  0.3353717E+00
         11   -1    0    0    0    0  0.00000000000E+00  0.00000000000E+00  0.39999999674E+01  0.40000000000E+01  0.51100000000E-03 0.  1.
    9000002   -1    0    0    0    0 -0.00000000000E+00 -0.00000000000E+00  0.00000000000E+00  0.93800000000E+00  0.93800000000E+00 0. -1.
         11    1    1    2    0    0  0.35574067234E-01  0.33451251031E-01  0.52914868626E+00  0.53139730310E+00  0.51100000000E-03 0.  1.
    9000002    1    1    2    0    0 -0.26285109092E+00 -0.25728755159E+00  0.90897670869E-01  0.10116293624E+01  0.93800000000E+00 0. -1.
         22    1    1    2    0    0  0.22727702369E+00  0.22383630056E+00  0.33799536102E+01  0.33949733345E+01  0.00000000000E+00 0.  1.
</event>
<event>
 5    1  0.2173147E+002  0.1599578E+01  0.7818608E-02  0.3353822E+00
         11   -1    0    0    0    0  0.00000000000E+00  0.00000000000E+00  0.39999999674E+01  0.40000000000E+01  0.51100000000E-03 0. -1.
    9000002   -1    0    0    0    0 -0.00000000000E+00 -0.00000000000E+00  0.00000000000E+00  0.93800000000E+00  0.93800000000E+00 0. -1.
         11    1    1    2    0    0 -0.33531312701E-01 -0.57812006441E-01  0.53743034227E+00  0.54157013483E+00  0.51100000000E-03 0. -1.
    9000002    1    1    2    0    0  0.24435965031E+00  0.46874717794E+00  0.19233610091E+00  0.10937425343E+01  0.93800000000E+00 0. -1.
         22    1    1    2    0    0 -0.21082833761E+00 -0.41093517150E+00  0.32702335242E+01  0.33026873309E+01  0.00000000000E+00 0. -1.
</event>
<event>
 5    1  0.2173147E+002  0.1599621E+01  0.7818608E-02  0.3353775E+00
         11   -1    0    0    0    0  0.00000000000E+00  0.00000000000E+00  0.39999999674E+01  0.40000000000E+01  0.51100000000E-03 0.  1.
    9000002   -1    0    0    0    0 -0.00000000000E+00 -0.00000000000E+00  0.00000000000E+00  0.93800000000E+00  0.93800000000E+00 0. -1.
         11    1    1    2    0    0  0.12750124078E-01  0.83944694961E-01  0.76024056249E+00  0.76496748392E+00  0.51100000000E-03 0.  1.
    9000002    1    1    2    0    0 -0.98427138699E-01 -0.44040750351E+00  0.13838815694E+00  0.10500675944E+01  0.93800000000E+00 0. -1.
         22    1    1    2    0    0  0.85677014621E-01  0.35646280855E+00  0.31013712479E+01  0.31229649217E+01  0.00000000000E+00 0.  1.
</event>
<event>
 5    1  0.2173147E+002  0.1599669E+01  0.7818608E-02  0.3353722E+00
         11   -1    0    0    0    0  0.00000000000E+00  0.00000000000E+00  0.39999999674E+01  0.40000000000E+01  0.51100000000E-03 0.  1.
    9000002   -1    0    0    0    0 -0.00000000000E+00 -0.00000000000E+00  0.00000000000E+00  0.93800000000E+00  0.93800000000E+00 0. -1.
         11    1    1    2    0    0 -0.77527596548E-01 -0.35193149888E-01  0.80315319481E+00  0.80765363955E+00  0.51100000000E-03 0.  1.
    9000002    1    1    2    0    0  0.37253046062E+00  0.18304783625E+00  0.11644653482E+00  0.10323222607E+01  0.93800000000E+00 0. -1.
         22    1    1    2    0    0 -0.29500286407E+00 -0.14785468636E+00  0.30804002377E+01  0.30980240998E+01  0.00000000000E+00 0.  1.
</event>
<event>
 5    1  0.2173147E+002  0.1599640E+01  0.7818608E-02  0.3353754E+00
         11   -1    0    0    0    0  0.00000000000E+00  0.00000000000E+00  0.39999999674E+01  0.40000000000E+01  0.51100000000E-03 0. -1.
    9000002   -1    0    0    0    0 -0.00000000000E+00 -0.00000000000E+00  0.00000000000E+00  0.93800000000E+00  0.93800000000E+00 0.  1.
         11    1    1    2    0    0  0.13768910685E-01  0.62699006393E-01  0.83153328421E+00  0.83400756122E+00  0.51100000000E-03 0. -1.
    9000002    1    1    2    0    0 -0.37864590558E-01 -0.30438789114E+00  0.62834794133E-01  0.98887710402E+00  0.93800000000E+00 0.  1.
         22    1    1    2    0    0  0.24095679873E-01  0.24168888475E+00  0.31056318890E+01  0.31151153348E+01  0.00000000000E+00 0. -1.
</event>
<event>
 5    1  0.2173147E+002  0.1598885E+01  0.7818608E-02  0.3354575E+00
         11   -1    0    0    0    0  0.00000000000E+00  0.00000000000E+00  0.39999999674E+01  0.40000000000E+01  0.51100000000E-03 0.  1.
    9000002   -1    0    0    0    0 -0.00000000000E+00 -0.00000000000E+00  0.00000000000E+00  0.93800000000E+00  0.93800000000E+00 0. -1.
         11    1    1    2    0    0 -0.36886036413E-01 -0.48914163896E-01  0.63036386890E+00  0.63333406939E+00  0.51100000000E-03 0.  1.
    9000002    1    1    2    0    0  0.28581032131E+00  0.16028278057E+00  0.72457170033E-01  0.99622896515E+00  0.93800000000E+00 0. -1.
         22    1    1    2    0    0 -0.24892428489E+00 -0.11136861667E+00  0.32971789284E+01  0.33084369655E+01  0.00000000000E+00 0.  1.
</event>
<event>
 5    1  0.2173147E+002  0.1596801E+01  0.7818608E-02  0.3356842E+00
         11   -1    0    0    0    0  0.00000000000E+00  0.00000000000E+00  0.39999999674E+01  0.40000000000E+01  0.51100000000E-03 0.  1.
    9000002   -1    0    0    0    0 -0.00000000000E+00 -0.00000000000E+00  0.00000000000E+00  0.93800000000E+00  0.93800000000E+00 0.  1.
         11    1    1    2    0    0 -0.10283884525E+00  0.46184173172E-01  0.94944225351E+00  0.95611174023E+00  0.51100000000E-03 0.  1.
    9000002    1    1    2    0    0  0.50697791935E+00  0.18515429618E-01  0.17901377858E+00  0.10813229697E+01  0.93800000000E+00 0.  1.
         22    1    1    2    0    0 -0.40413907411E+00 -0.64699602790E-01  0.28715439353E+01  0.29005652901E+01  0.00000000000E+00 0.  1.
</event>
<event>
 5    1  0.2173147E+002  0.1599677E+01  0.7818608E-02  0.3353714E+00
         11   -1    0    0    0    0  0.00000000000E+00  0.00000000000E+00  0.39999999674E+01  0.40000000000E+01  0.51100000000E-03 0.  1.
    9000002   -1    0    0    0    0 -0.00000000000E+00 -0.00000000000E+00  0.00000000000E+00  0.93800000000E+00  0.93800000000E+00 0. -1.
         11    1    1    2    0    0  0.13328418472E-01  0.11988631921E+00  0.12773235028E+01  0.12830066127E+01  0.51100000000E-03 0.  1.
    9000002    1    1    2    0    0 -0.40709262344E-01 -0.36552544900E+00  0.90880632432E-01  0.10116172138E+01  0.93800000000E+00 0. -1.
         22    1    1    2    0    0  0.27380843872E-01  0.24563912979E+00  0.26317958322E+01  0.26433761735E+01  0.00000000000E+00 0.  1.
</event>
<event>
 5    1  0.2173147E+002  0.1596598E+01  0.7818608E-02  0.3357064E+00
         11   -1    0    0    0    0  0.00000000000E+00  0.00000000000E+00  0.39999999674E+01  0.40000000000E+01  0.51100000000E-03 0. -1.
    9000002   -1    0    0    0    0 -0.00000000000E+00 -0.00000000000E+00  0.00000000000E+00  0.93800000000E+00  0.93800000000E+00 0. -1.
         11    1    1    2    0    0  0.51620537369E-02 -0.10760012034E+00  0.14321089051E+01  0.14361548001E+01  0.51100000000E-03 0. -1.
    9000002    1    1    2    0    0  0.15207896297E+00  0.23613375409E+00  0.54926638054E-01  0.98068756307E+00  0.93800000000E+00 0. -1.
         22    1    1    2    0    0 -0.15724101671E+00 -0.12853363375E+00  0.25129644243E+01  0.25211576369E+01  0.00000000000E+00 0. -1.
</event>
<event>
 5    1  0.2173147E+002  0.1587159E+01  0.7818608E-02  0.3367420E+00
         11   -1    0    0    0    0  0.00000000000E+00  0.00000000000E+00  0.39999999674E+01  0.40000000000E+01  0.51100000000E-03 0.  1.
    9000002   -1    0    0    0    0 -0.00000000000E+00 -0.00000000000E+00  0.00000000000E+00  0.93800000000E+00  0.93800000000E+00 0. -1.
         11    1    1    2    0    0  0.18225642487E+00 -0.61106565510E-02  0.74704969206E+00  0.76898520666E+00  0.51100000000E-03 0.  1.
    9000002    1    1    2    0    0 -0.48831992392E+00 -0.30359178447E+00  0.24170248116E+00  0.11264494703E+01  0.93800000000E+00 0. -1.
         22    1    1    2    0    0  0.30606349905E+00  0.30970244102E+00  0.30112477941E+01  0.30425653231E+01  0.00000000000E+00 0.  1.
</event>
<event>
 5    1  0.2173147E+002  0.1599667E+01  0.7818608E-02  0.3353725E+00
         11   -1    0    0    0    0  0.00000000000E+00  0.00000000000E+00  0.39999999674E+01  0.40000000000E+01  0.51100000000E-03 0.  1.
    9000002   -1    0    0    0    0 -0.00000000000E+00 -0.00000000000E+00  0.00000000000E+00  0.93800000000E+00  0.93800000000E+00 0. -1.
         11    1    1    2    0    0 -0.12881960816E-01 -0.29250271400E-01  0.51682687674E+00  0.51781445030E+00  0.51100000000E-03 0.  1.
    9000002    1    1    2    0    0  0.79733704631E-01  0.22976966634E+00  0.39281579141E-01  0.96981369638E+00  0.93800000000E+00 0. -1.
         22    1    1    2    0    0 -0.66851743815E-01 -0.20051939494E+00  0.34438915115E+01  0.34503718533E+01  0.00000000000E+00 0.  1.
</event>
<event>
 5    1  0.2173147E+002  0.1599673E+01  0.7818608E-02  0.3353719E+00
         11   -1    0    0    0    0  0.00000000000E+00  0.00000000000E+00  0.39999999674E+01  0.40000000000E+01  0.51100000000E-03 0.  1.
    9000002   -1    0    0    0    0 -0.00000000000E+00 -0.00000000000E+00  0.00000000000E+00  0.93800000000E+00  0.93800000000E+00 0.  1.
         11    1    1    2    0    0  0.10825708347E+00  0.13581176196E-02  0.11320538367E+01  0.11372192361E+01  0.51100000000E-03 0.  1.
    9000002    1    1    2    0    0 -0.36670674176E+00 -0.13632762808E-02  0.90341706729E-01  0.10111781826E+01  0.93800000000E+00 0.  1.
         22    1    1    2    0    0  0.25844965829E+00  0.51586611428E-05  0.27776044239E+01  0.27896025813E+01  0.00000000000E+00 0.  1.
</event>
<event>
 5    1  0.2173147E+002  0.1597105E+01  0.7818608E-02  0.3356512E+00
         11   -1    0    0    0    0  0.00000000000E+00  0.00000000000E+00  0.39999999674E+01  0.40000000000E+01  0.51100000000E-03 0. -1.
    9000002   -1    0    0    0    0 -0.00000000000E+00 -0.00000000000E+00  0.00000000000E+00  0.93800000000E+00  0.93800000000E+00 0. -1.
         11    1    1    2    0    0  0.17272468005E+00 -0.94522127958E-01  0.14361818477E+01  0.14496160900E+01  0.51100000000E-03 0. -1.
    9000002    1    1    2    0    0 -0.37194090329E+00  0.12810209713E+00  0.10642749720E+00  0.10227027892E+01  0.93800000000E+00 0. -1.
         22    1    1    2    0    0  0.19921622324E+00 -0.33579969176E-01  0.24573906225E+01  0.24656811208E+01  0.00000000000E+00 0. -1.
</event>
<event>
 5    1  0.2173147E+002  0.1599674E+01  0.7818608E-02  0.3353717E+00
         11   -1    0    0    0    0  0.00000000000E+00  0.00000000000E+00  0.39999999674E+01  0.40000000000E+01  0.51100000000E-03 0. -1.
    9000002   -1    0    0    0    0 -0.00000000000E+00 -0.00000000000E+00  0.00000000000E+00  0.93800000000E+00  0.93800000000E+00 0.  1.
         11    1    1    2    0    0  0.14802198495E+00  0.19303273850E+00  0.18748902771E+01  0.18906046542E+01  0.51100000000E-03 0. -1.
    9000002    1    1    2    0    0 -0.30609365108E+00 -0.39567834502E+00  0.17132314491E+00  0.10767777375E+01  0.93800000000E+00 0.  1.
         22    1    1    2    0    0  0.15807166613E+00  0.20264560652E+00  0.19537865453E+01  0.19706176083E+01  0.00000000000E+00 0. -1.
</event>
<event>
 5    1  0.2173147E+002  0.1599675E+01  0.7818608E-02  0.3353716E+00
         11   -1    0    0    0    0  0.00000000000E+00  0.00000000000E+00  0.39999999674E+01  0.40000000000E+01  0.51100000000E-03 0.  1.
    9000002   -1    0    0    0    0 -0.00000000000E+00 -0.00000000000E+00  0.00000000000E+00  0.93800000000E+00  0.93800000000E+00 0.  1.
         11    1    1    2    0    0  0.11747866443E+00  0.17921664868E-01  0.12993962813E+01  0.13048192901E+01  0.51100000000E-03 0.  1.
    9000002    1    1    2    0    0 -0.35003167380E+00 -0.56872222524E-01  0.84366097893E-01  0.10063390387E+01  0.93800000000E+00 0.  1.
         22    1    1    2    0    0  0.23255300937E+00  0.38950557656E-01  0.26162375881E+01  0.26268416712E+01  0.00000000000E+00 0.  1.
</event>
<event>
 5    1  0.2173147E+002  0.1598306E+01  0.7818608E-02  0.3355204E+00
         11   -1    0    0    0    0  0.00000000000E+00  0.00000000000E+00  0.39999999674E+01  0.40000000000E+01  0.51100000000E-03 0.  1.
    9000002   -1    0    0    0    0 -0.00000000000E+00 -0.00000000000E+00  0.00000000000E+00  0.93800000000E+00  0.93800000000E+00 0.  1.
         11    1    1    2    0    0 -0.38108884511E-01 -0.36827118031E-01  0.12592170010E+00  0.13662012801E+00  0.51100000000E-03 0.  1.
    9000002    1    1    2    0    0  0.88409380655E+00  0.48310132903E+00  0.82279697757E+00  0.16036981072E+01  0.93800000000E+00 0.  1.
         22    1    1    2    0    0 -0.84598492204E+00 -0.44627421100E+00  0.30512812897E+01  0.31976817647E+01  0.00000000000E+00 0.  1.
</event>
<event>
 5    1  0.2173147E+002  0.1599676E+01  0.7818608E-02  0.3353715E+00
         11   -1    0    0    0    0  0.00000000000E+00  0.00000000000E+00  0.39999999674E+01  0.40000000000E+01  0.51100000000E-03 0.  1.
    9000002   -1    0    0    0    0 -0.00000000000E+00 -0.00000000000E+00  0.00000000000E+00  0.93800000000E+00  0.93800000000E+00 0.  1.
         11    1    1    2    0    0  0.12323686057E-01 -0.14897814408E-01  0.34545297828E+00  0.34599398757E+00  0.51100000000E-03 0.  1.
    9000002    1    1    2    0    0 -0.14561744504E+00  0.17068823448E+00  0.33378105989E-01  0.96503731101E+00  0.93800000000E+00 0.  1.
         22    1    1    2    0    0  0.13329375899E+00 -0.15579042007E+00  0.36211688831E+01  0.36269687014E+01  0.00000000000E+00 0.  1.
</event>
<event>
 5    1  0.2173147E+002  0.1599677E+01  0.7818608E-02  0.3353714E+00
         11   -1    0    0    0    0  0.00000000000E+00  0.00000000000E+00  0.39999999674E+01  0.40000000000E+01  0.51100000000E-03 0. -1.
    9000002   -1    0    0    0    0 -0.00000000000E+00 -0.00000000000E+00  0.00000000000E+00  0.93800000000E+00  0.93800000000E+00 0. -1.
         11    1    1    2    0    0 -0.59542100561E-01 -0.12727471927E+00  0.15146608529E+01  0.15211646447E+01  0.51100000000E-03 0. -1.
    9000002    1    1    2    0    0  0.15253474826E+00  0.32956228565E+00  0.88556911257E-01  0.10097348543E+01  0.93800000000E+00 0. -1.
         22    1    1    2    0    0 -0.92992647695E-01 -0.20228756638E+00  0.23967822032E+01  0.24071005009E+01  0.00000000000E+00 0.  1.
</event>
<event>
 5    1  0.2173147E+002  0.1568892E+01  0.7818608E-02  0.3387835E+00
         11   -1    0    0    0    0  0.00000000000E+00  0.00000000000E+00  0.39999999674E+01  0.40000000000E+01  0.51100000000E-03 0.  1.
    9000002   -1    0    0    0    0 -0.00000000000E+00 -0.00000000000E+00  0.00000000000E+00  0.93800000000E+00  0.93800000000E+00 0.  1.
         11    1    1    2    0    0 -0.17548727369E+00  0.76986700305E-01  0.18202075331E+01  0.18302673192E+01  0.51100000000E-03 0.  1.
    9000002    1    1    2    0    0  0.33730696883E-02  0.90226050664E-01  0.28155694864E-01  0.94275599228E+00  0.93800000000E+00 0.  1.
         22    1    1    2    0    0  0.17211420400E+00 -0.16721275097E+00  0.21516367394E+01  0.21649766885E+01  0.00000000000E+00 0.  1.
</event>
<event>
 5    1  0.2173147E+002  0.1599642E+01  0.7818608E-02  0.3353752E+00
         11   -1    0    0    0    0  0.00000000000E+00  0.00000000000E+00  0.39999999674E+01  0.40000000000E+01  0.51100000000E-03 0. -1.
    9000002   -1    0    0    0    0 -0.00000000000E+00 -0.00000000000E+00  0.00000000000E+00  0.93800000000E+00  0.93800000000E+00 0.  1.
         11    1    1    2    0    0  0.91361816955E-01 -0.11880946154E+00  0.10464353546E+01  0.10571139401E+01  0.51100000000E-03 0. -1.
    9000002    1    1    2    0    0 -0.35364937155E+00  0.42788269207E+00  0.21308176024E+00  0.11105851218E+01  0.93800000000E+00 0.  1.
         22    1    1    2    0    0  0.26228755459E+00 -0.30907323053E+00  0.27404828525E+01  0.27703009382E+01  0.00000000000E+00 0. -1.
</event>
<event>
 5    1  0.2173147E+002  0.1599675E+01  0.7818608E-02  0.3353716E+00
         11   -1    0    0    0    0  0.00000000000E+00  0.00000000000E+00  0.39999999674E+01  0.40000000000E+01  0.51100000000E-03 0. -1.
    9000002   -1    0    0    0    0 -0.00000000000E+00 -0.00000000000E+00  0.00000000000E+00  0.93800000000E+00  0.93800000000E+00 0. -1.
         11    1    1    2    0    0 -0.15309491625E-01 -0.46107530744E-01  0.54573158822E+00  0.54789005505E+00  0.51100000000E-03 0. -1.
    9000002    1    1    2    0    0  0.10527273624E+00  0.33789217237E+00  0.84021963649E-01  0.10060602166E+01  0.93800000000E+00 0. -1.
         22    1    1    2    0    0 -0.89963244611E-01 -0.29178464163E+00  0.33702464155E+01  0.33840497283E+01  0.00000000000E+00 0. -1.
</event>
<event>
 5    1  0.2173147E+002  0.1599661E+01  0.7818608E-02  0.3353731E+00
         11   -1    0    0    0    0  0.00000000000E+00  0.00000000000E+00  0.39999999674E+01  0.40000000000E+01  0.51100000000E-03 0. -1.
    9000002   -1    0    0    0    0 -0.00000000000E+00 -0.00000000000E+00  0.00000000000E+00  0.93800000000E+00  0.93800000000E+00 0. -1.
         11    1    1    2    0    0 -0.63861283313E-01  0.42596867404E+00  0.24004097394E+01  0.24387486039E+01  0.51100000000E-03 0. -1.
    9000002    1    1    2    0    0  0.99848394431E-01 -0.64885346293E+00  0.30461496459E+00  0.11847425015E+01  0.93800000000E+00 0. -1.
         22    1    1    2    0    0 -0.35987111118E-01  0.22288478889E+00  0.12949752634E+01  0.13145088946E+01  0.00000000000E+00 0. -1.
</event>
<event>
 5    1  0.2173147E+002  0.1590404E+01  0.7818608E-02  0.3363844E+00
         11   -1    0    0    0    0  0.00000000000E+00  0.00000000000E+00  0.39999999674E+01  0.40000000000E+01  0.51100000000E-03 0.  1.
    9000002   -1    0    0    0    0 -0.00000000000E+00 -0.00000000000E+00  0.00000000000E+00  0.93800000000E+00  0.93800000000E+00 0.  1.
         11    1    1    2    0    0 -0.15689264767E+00 -0.76865041016E-01  0.76316665598E+00  0.78290940941E+00  0.51100000000E-03 0.  1.
    9000002    1    1    2    0    0  0.36143852953E+00  0.20443142212E+00  0.12438157283E+00  0.10333173727E+01  0.93800000000E+00 0.  1.
         22    1    1    2    0    0 -0.20454588186E+00 -0.12756638110E+00  0.31124517385E+01  0.31217732179E+01  0.00000000000E+00 0.  1.
</event>
<event>
 5    1  0.2173147E+002  0.1597210E+01  0.7818608E-02  0.3356397E+00
         11   -1    0    0    0    0  0.00000000000E+00  0.00000000000E+00  0.39999999674E+01  0.40000000000E+01  0.51100000000E-03 0. -1.
    9000002   -1    0    0    0    0 -0.00000000000E+00 -0.00000000000E+00  0.00000000000E+00  0.93800000000E+00  0.93800000000E+00 0. -1.
         11    1    1    2    0    0 -0.23074893530E-02 -0.16449105825E-01  0.51592287195E+00  0.51619043822E+00  0.51100000000E-03 0. -1.
    9000002    1    1    2    0    0 -0.20058780851E+00 -0.92410848696E-01  0.34198438431E-01  0.96425555071E+00  0.93800000000E+00 0. -1.
         22    1    1    2    0    0  0.20289529786E+00  0.10885995452E+00  0.34498786570E+01  0.34575540111E+01  0.00000000000E+00 0. -1.
</event>
<event>
 5    1  0.2173147E+002  0.1584888E+01  0.7818608E-02  0.3369930E+00
         11   -1    0    0    0    0  0.00000000000E+00  0.00000000000E+00  0.39999999674E+01  0.40000000000E+01  0.51100000000E-03 0.  1.
    9000002   -1    0    0    0    0 -0.00000000000E+00 -0.00000000000E+00  0.00000000000E+00  0.93800000000E+00  0.93800000000E+00 0.  1.
         11    1    1    2    0    0  0.10110481572E+00 -0.88046237470E-01  0.47909302728E+00  0.49749845588E+00  0.51100000000E-03 0.  1.
    9000002    1    1    2    0    0 -0.32795474308E+00  0.10071545282E+00  0.90812141356E-01  0.10028902038E+01  0.93800000000E+00 0.  1.
         22    1    1    2    0    0  0.22684992737E+00 -0.12669215352E-01  0.34300947987E+01  0.34376113403E+01  0.00000000000E+00 0.  1.
</event>
<event>
 5    1  0.2173147E+002  0.1599627E+01  0.7818608E-02  0.3353768E+00
         11   -1    0    0    0    0  0.00000000000E+00  0.00000000000E+00  0.39999999674E+01  0.40000000000E+01  0.51100000000E-03 0.  1.
    9000002   -1    0    0    0    0 -0.00000000000E+00 -0.00000000000E+00  0.00000000000E+00  0.93800000000E+00  0.93800000000E+00 0. -1.
         11    1    1    2    0    0 -0.52321806020E-01 -0.14065615310E-01  0.38526003029E+00  0.38905136548E+00  0.51100000000E-03 0.  1.
    9000002    1    1    2    0    0  0.54638136096E+00  0.17502864006E+00  0.22846099435E+00  0.11230343015E+01  0.93800000000E+00 0. -1.
         22    1    1    2    0    0 -0.49405955494E+00 -0.16096302475E+00  0.33862789427E+01  0.34259143330E+01  0.00000000000E+00 0.  1.
</event>
<event>
 5    1  0.2173147E+002  0.1599651E+01  0.7818608E-02  0.3353742E+00
         11   -1    0    0    0    0  0.00000000000E+00  0.00000000000E+00  0.39999999674E+01  0.40000000000E+01  0.51100000000E-03 0.  1.
    9000002   -1    0    0    0    0 -0.00000000000E+00 -0.00000000000E+00  0.00000000000E+00  0.93800000000E+00  0.93800000000E+00 0. -1.
         11    1    1    2    0    0 -0.15905739369E+00 -0.92940255722E-01  0.74398220655E+00  0.76645086627E+00  0.51100000000E-03 0.  1.
    9000002    1    1    2    0    0  0.75466564309E+00  0.41624511971E+00  0.55968872126E+00  0.13913575016E+01  0.93800000000E+00 0. -1.
         22    1    1    2    0    0 -0.59560824941E+00 -0.32330486399E+00  0.26963290396E+01  0.27801916321E+01  0.00000000000E+00 0.  1.
</event>
<event>
 5    1  0.2173147E+002  0.1594286E+01  0.7818608E-02  0.3359589E+00
         11   -1    0    0    0    0  0.00000000000E+00  0.00000000000E+00  0.39999999674E+01  0.40000000000E+01  0.51100000000E-03 0. -1.
    9000002   -1    0    0    0    0 -0.00000000000E+00 -0.00000000000E+00  0.00000000000E+00  0.93800000000E+00  0.93800000000E+00 0.  1.
         11    1    1    2    0    0 -0.29282635697E-01  0.32955204955E-01  0.70802321726E+00  0.70939456975E+00  0.51100000000E-03 0. -1.
    9000002    1    1    2    0    0  0.42089066306E-01  0.17428338787E+00  0.25279667131E-01  0.95531630906E+00  0.93800000000E+00 0.  1.
         22    1    1    2    0    0 -0.12806430609E-01 -0.20723859283E+00  0.32666970830E+01  0.32732891212E+01  0.00000000000E+00 0. -1.
</event>
<event>
 5    1  0.2173147E+002  0.1599563E+01  0.7818608E-02  0.3353837E+00
         11   -1    0    0    0    0  0.00000000000E+00  0.00000000000E+00  0.39999999674E+01  0.40000000000E+01  0.51100000000E-03 0. -1.
    9000002   -1    0    0    0    0 -0.00000000000E+00 -0.00000000000E+00  0.00000000000E+00  0.93800000000E+00  0.93800000000E+00 0.  1.
         11    1    1    2    0    0  0.86804593380E-01 -0.29105965116E-01  0.11010402268E+01  0.11048402766E+01  0.51100000000E-03 0. -1.
    9000002    1    1    2    0    0 -0.30716794947E+00  0.14472141132E+00  0.77310844321E-01  0.10005585454E+01  0.93800000000E+00 0.  1.
         22    1    1    2    0    0  0.22036335609E+00 -0.11561544620E+00  0.28216488963E+01  0.28326011781E+01  0.00000000000E+00 0. -1.
</event>
<event>
 5    1  0.2173147E+002  0.1513017E+01  0.7818608E-02  0.3453543E+00
         11   -1    0    0    0    0  0.00000000000E+00  0.00000000000E+00  0.39999999674E+01  0.40000000000E+01  0.51100000000E-03 0.  1.
    9000002   -1    0    0    0    0 -0.00000000000E+00 -0.00000000000E+00  0.00000000000E+00  0.93800000000E+00  0.93800000000E+00 0. -1.
         11    1    1    2    0    0  0.25894859965E+00  0.54536374851E-01  0.61672129205E+00  0.67109910343E+00  0.51100000000E-03 0.  1.
    9000002    1    1    2    0    0 -0.32224948637E-01  0.49144996403E-01  0.68037095443E-01  0.94229863862E+00  0.93800000000E+00 0. -1.
         22    1    1    2    0    0 -0.22672365101E+00 -0.10368137125E+00  0.33152415799E+01  0.33246022579E+01  0.00000000000E+00 0.  1.
</event>
<event>
 5    1  0.2173147E+002  0.1573929E+01  0.7818608E-02  0.3382155E+00
         11   -1    0    0    0    0  0.00000000000E+00  0.00000000000E+00  0.39999999674E+01  0.40000000000E+01  0.51100000000E-03 0. -1.
    9000002   -1    0    0    0    0 -0.00000000000E+00 -0.00000000000E+00  0.00000000000E+00  0.93800000000E+00  0.93800000000E+00 0. -1.
         11    1    1    2    0    0  0.23751830059E+00  0.49498216955E-01  0.27784943502E+01  0.27890672512E+01  0.51100000000E-03 0. -1.
    9000002    1    1    2    0    0 -0.15129994314E+00 -0.23678716756E+00  0.72819520103E-01  0.98188925955E+00  0.93800000000E+00 0. -1.
         22    1    1    2    0    0 -0.86218357452E-01  0.18728895061E+00  0.11486860970E+01  0.11670434892E+01  0.00000000000E+00 0. -1.
</event>
<event>
 5    1  0.2173147E+002  0.1595158E+01  0.7818608E-02  0.3358635E+00
         11   -1    0    0    0    0  0.00000000000E+00  0.00000000000E+00  0.39999999674E+01  0.40000000000E+01  0.51100000000E-03 0. -1.
    9000002   -1    0    0    0    0 -0.00000000000E+00 -0.00000000000E+00  0.00000000000E+00  0.93800000000E+00  0.93800000000E+00 0. -1.
         11    1    1    2    0    0 -0.21407867928E-01  0.11638581047E-01  0.54958065714E+00  0.55012081692E+00  0.51100000000E-03 0. -1.
    9000002    1    1    2    0    0  0.11793288873E+00  0.31631806670E+00  0.79932667509E-01  0.10000992535E+01  0.93800000000E+00 0. -1.
         22    1    1    2    0    0 -0.96525020798E-01 -0.32795664775E+00  0.33704866427E+01  0.33877799296E+01  0.00000000000E+00 0. -1.
</event>
<event>
 5    1  0.2173147E+002  0.1583039E+01  0.7818608E-02  0.3371981E+00
         11   -1    0    0    0    0  0.00000000000E+00  0.00000000000E+00  0.39999999674E+01  0.40000000000E+01  0.51100000000E-03 0.  1.
    9000002   -1    0    0    0    0 -0.00000000000E+00 -0.00000000000E+00  0.00000000000E+00  0.93800000000E+00  0.93800000000E+00 0.  1.
         11    1    1    2    0    0  0.11663436726E+00  0.37190485537E-01  0.10339822039E+01  0.10412041908E+01  0.51100000000E-03 0.  1.
    9000002    1    1    2    0    0  0.75213789574E-01 -0.13147030329E+00  0.27536070997E-01  0.95054920441E+00  0.93800000000E+00 0.  1.
         22    1    1    2    0    0 -0.19184815683E+00  0.94279817755E-01  0.29384816925E+01  0.29462466048E+01  0.00000000000E+00 0.  1.
</event>
<event>
 5    1  0.2173147E+002  0.1563046E+01  0.7818608E-02  0.3394475E+00
         11   -1    0    0    0    0  0.00000000000E+00  0.00000000000E+00  0.39999999674E+01  0.40000000000E+01  0.51100000000E-03 0.  1.
    9000002   -1    0    0    0    0 -0.00000000000E+00 -0.00000000000E+00  0.00000000000E+00  0.93800000000E+00  0.93800000000E+00 0.  1.
         11    1    1    2    0    0 -0.40296625513E-01  0.19052948339E+00  0.13442752957E+01  0.13583083721E+01  0.51100000000E-03 0.  1.
    9000002    1    1    2    0    0 -0.27148789505E-01  0.64367715005E-01  0.30326586813E-01  0.94108658548E+00  0.93800000000E+00 0.  1.
         22    1    1    2    0    0  0.67445415018E-01 -0.25489719840E+00  0.26253980849E+01  0.26386050424E+01  0.00000000000E+00 0.  1.
</event>
<event>
 5    1  0.2173147E+002  0.1590484E+01  0.7818608E-02  0.3363757E+00
         11   -1    0    0    0    0  0.00000000000E+00  0.00000000000E+00  0.39999999674E+01  0.40000000000E+01  0.51100000000E-03 0.  1.
    9000002   -1    0    0    0    0 -0.00000000000E+00 -0.00000000000E+00  0.00000000000E+00  0.93800000000E+00  0.93800000000E+00 0.  1.
         11    1    1    2    0    0 -0.14471233276E+00  0.76846171605E-02  0.83736885697E+00  0.84981620151E+00  0.51100000000E-03 0.  1.
    9000002    1    1    2    0    0  0.47194336039E+00 -0.42644820080E+00  0.29414008893E+00  0.11708761657E+01  0.93800000000E+00 0.  1.
         22    1    1    2    0    0 -0.32723102764E+00  0.41876358364E+00  0.28684910215E+01  0.29173076328E+01  0.00000000000E+00 0.  1.
</event>
<event>
 5    1  0.2173147E+002  0.1599179E+01  0.7818608E-02  0.3354255E+00
         11   -1    0    0    0    0  0.00000000000E+00  0.00000000000E+00  0.39999999674E+01  0.40000000000E+01  0.51100000000E-03 0. -1.
    9000002   -1    0    0    0    0 -0.00000000000E+00 -0.00000000000E+00  0.00000000000E+00  0.93800000000E+00  0.93800000000E+00 0. -1.
         11    1    1    2    0    0  0.46072472003E+00 -0.16157337084E+00  0.23936459710E+01  0.24429315417E+01  0.51100000000E-03 0. -1.
    9000002    1    1    2    0    0 -0.66188801103E+00  0.24383267168E+00  0.35666614652E+00  0.12266233534E+01  0.93800000000E+00 0. -1.
         22    1    1    2    0    0  0.20116329100E+00 -0.82259300836E-01  0.12496878498E+01  0.12684451049E+01  0.00000000000E+00 0.  1.
</event>
<event>
 5    1  0.2173147E+002  0.1599673E+01  0.7818608E-02  0.3353719E+00
         11   -1    0    0    0    0  0.00000000000E+00  0.00000000000E+00  0.39999999674E+01  0.40000000000E+01  0.51100000000E-03 0.  1.
    9000002   -1    0    0    0    0 -0.00000000000E+00 -0.00000000000E+00  0.00000000000E+00  0.93800000000E+00  0.93800000000E+00 0.  1.
         11    1    1    2    0    0 -0.63612633608E-01 -0.31392346938E-01  0.91315202218E+00  0.91590333733E+00  0.51100000000E-03 0.  1.
    9000002    1    1    2    0    0  0.26794536523E+00  0.12933713462E+00  0.59044450268E-01  0.98582608012E+00  0.93800000000E+00 0.  1.
         22    1    1    2    0    0 -0.20433273162E+00 -0.97944787684E-01  0.30278034949E+01  0.30362705825E+01  0.00000000000E+00 0.  1.
</event>
<event>
 5    1  0.2173147E+002  0.1598289E+01  0.7818608E-02  0.3355222E+00
         11   -1    0    0    0    0  0.00000000000E+00  0.00000000000E+00  0.39999999674E+01  0.40000000000E+01  0.51100000000E-03 0. -1.
    9000002   -1    0    0    0    0 -0.00000000000E+00 -0.00000000000E+00  0.00000000000E+00  0.93800000000E+00  0.93800000000E+00 0.  1.
         11    1    1    2    0    0 -0.41978557277E-01  0.93051262362E-01  0.93336060959E+00  0.93892652820E+00  0.51100000000E-03 0. -1.
    9000002    1    1    2    0    0  0.46831683029E-01 -0.29766853784E+00  0.61668968360E-01  0.98714073293E+00  0.93800000000E+00 0.  1.
         22    1    1    2    0    0 -0.48531257520E-02  0.20461727548E+00  0.30049703894E+01  0.30119327389E+01  0.00000000000E+00 0. -1.
</event>
<event>
 5    1  0.2173147E+002  0.1525172E+01  0.7818608E-02  0.3438810E+00
         11   -1    0    0    0    0  0.00000000000E+00  0.00000000000E+00  0.39999999674E+01  0.40000000000E+01  0.51100000000E-03 0.  1.
    9000002   -1    0    0    0    0 -0.00000000000E+00 -0.00000000000E+00  0.00000000000E+00  0.93800000000E+00  0.93800000000E+00 0. -1.
         11    1    1    2    0    0  0.30448608594E+00  0.58383233125E-01  0.11844467321E+01  0.12243507262E+01  0.51100000000E-03 0.  1.
    9000002    1    1    2    0    0 -0.18991320917E-01 -0.46772127361E-01  0.57800744713E-01  0.94113401185E+00  0.93800000000E+00 0. -1.
         22    1    1    2    0    0 -0.28549476502E+00 -0.11611105764E-01  0.27577524906E+01  0.27725152620E+01  0.00000000000E+00 0. -1.
</event>
<event>
 5    1  0.2173147E+002  0.1583985E+01  0.7818608E-02  0.3370931E+00
         11   -1    0    0    0    0  0.00000000000E+00  0.00000000000E+00  0.39999999674E+01  0.40000000000E+01  0.51100000000E-03 0. -1.
    9000002   -1    0    0    0    0 -0.00000000000E+00 -0.00000000000E+00  0.00000000000E+00  0.93800000000E+00  0.93800000000E+00 0. -1.
         11    1    1    2    0    0 -0.11160781386E+00  0.48730460522E-01 -0.69778320199E-01  0.14035753271E+00  0.51100000000E-03 0. -1.
    9000002    1    1    2    0    0 -0.17453069934E+00  0.35826369286E-01  0.27838709381E+00  0.99452896778E+00  0.93800000000E+00 0. -1.
         22    1    1    2    0    0  0.28613851320E+00 -0.84556829808E-01  0.37913911937E+01  0.38031134995E+01  0.00000000000E+00 0. -1.
</event>
<event>
 5    1  0.2173147E+002  0.1599674E+01  0.7818608E-02  0.3353718E+00
         11   -1    0    0    0    0  0.00000000000E+00  0.00000000000E+00  0.39999999674E+01  0.40000000000E+01  0.51100000000E-03 0. -1.
    9000002   -1    0    0    0    0 -0.00000000000E+00 -0.00000000000E+00  0.00000000000E+00  0.93800000000E+00  0.93800000000E+00 0.  1.
         11    1    1    2    0    0  0.86596136492E-01 -0.38396338212E-01  0.12249920291E+01  0.12286492185E+01  0.51100000000E-03 0. -1.
    9000002    1    1    2    0    0 -0.27323322160E+00  0.12719992714E+00  0.60608334764E-01  0.98709350372E+00  0.93800000000E+00 0.  1.
         22    1    1    2    0    0  0.18663708511E+00 -0.88803588926E-01  0.27143996035E+01  0.27222572778E+01  0.00000000000E+00 0. -1.
</event>
<event>
 5    1  0.2173147E+002  0.1599664E+01  0.7818608E-02  0.3353728E+00
         11   -1    0    0    0    0  0.00000000000E+00  0.00000000000E+00  0.39999999674E+01  0.40000000000E+01  0.51100000000E-03 0.  1.
    9000002   -1    0    0    0    0 -0.00000000000E+00 -0.00000000000E+00  0.00000000000E+00  0.93800000000E+00  0.93800000000E+00 0.  1.
         11    1    1    2    0    0 -0.66908476821E-02 -0.20172229067E-01  0.32380285213E+00  0.32449997602E+00  0.51100000000E-03 0.  1.
    9000002    1    1    2    0    0  0.77406339787E-01  0.21858261088E+00  0.35681230652E-01  0.96689567660E+00  0.93800000000E+00 0.  1.
         22    1    1    2    0    0 -0.70715492105E-01 -0.19841038181E+00  0.36405158846E+01  0.36466043474E+01  0.00000000000E+00 0.  1.
</event>
<event>
 5    1  0.2173147E+002  0.1599642E+01  0.7818608E-02  0.3353752E+00
         11   -1    0    0    0    0  0.00000000000E+00  0.00000000000E+00  0.39999999674E+01  0.40000000000E+01  0.51100000000E-03 0.  1.
    9000002   -1    0    0    0    0 -0.00000000000E+00 -0.00000000000E+00  0.00000000000E+00  0.93800000000E+00  0.93800000000E+00 0.  1.
         11    1    1    2    0    0  0.56034605267E-02  0.88977177527E-01  0.84497802205E+00  0.84966843872E+00  0.51100000000E-03 0.  1.
    9000002    1    1    2    0    0 -0.81638935814E-02 -0.39009110423E+00  0.10258835707E+00  0.10210808439E+01  0.93800000000E+00 0.  1.
         22    1    1    2    0    0  0.25604330547E-02  0.30111392671E+00  0.30524335882E+01  0.30672507174E+01  0.00000000000E+00 0.  1.
</event>
<event>
 5    1  0.2173147E+002  0.1599675E+01  0.7818608E-02  0.3353716E+00
         11   -1    0    0    0    0  0.00000000000E+00  0.00000000000E+00  0.39999999674E+01  0.40000000000E+01  0.51100000000E-03 0.  1.
    9000002   -1    0    0    0    0 -0.00000000000E+00 -0.00000000000E+00  0.00000000000E+00  0.93800000000E+00  0.93800000000E+00 0.  1.
         11    1    1    2    0    0  0.11067834019E+00 -0.21139428305E-01  0.11886548754E+01  0.11939837705E+01  0.51100000000E-03 0.  1.
    9000002    1    1    2    0    0 -0.36834528860E+00  0.67431328793E-01  0.94288160323E-01  0.10143764059E+01  0.93800000000E+00 0.  1.
         22    1    1    2    0    0  0.25766694840E+00 -0.46291900488E-01  0.27170569317E+01  0.27296398235E+01  0.00000000000E+00 0. -1.
</event>
<event>
 5    1  0.2173147E+002  0.1599637E+01  0.7818608E-02  0.3353757E+00
         11   -1    0    0    0    0  0.00000000000E+00  0.00000000000E+00  0.39999999674E+01  0.40000000000E+01  0.51100000000E-03 0. -1.
    9000002   -1    0    0    0    0 -0.00000000000E+00 -0.00000000000E+00  0.00000000000E+00  0.93800000000E+00  0.93800000000E+00 0.  1.
         11    1    1    2    0    0  0.37713295674E-01 -0.20733986631E-01  0.72457268115E+00  0.72584986206E+00  0.51100000000E-03 0. -1.
    9000002    1    1    2    0    0 -0.21030168064E+00  0.14490718522E+00  0.43376731195E-01  0.97311378061E+00  0.93800000000E+00 0.  1.
         22    1    1    2    0    0  0.17258838497E+00 -0.12417319859E+00  0.32320505550E+01  0.32390363573E+01  0.00000000000E+00 0. -1.
</event>
<event>
 5    1  0.2173147E+002  0.1542582E+01  0.7818608E-02  0.3418142E+00
         11   -1    0    0    0    0  0.00000000000E+00  0.00000000000E+00  0.39999999674E+01  0.40000000000E+01  0.51100000000E-03 0.  1.
    9000002   -1    0    0    0    0 -0.00000000000E+00 -0.00000000000E+00  0.00000000000E+00  0.93800000000E+00  0.93800000000E+00 0.  1.
         11    1    1    2    0    0 -0.23723891318E+00 -0.44218597334E-01  0.10311285704E+01  0.10589919623E+01  0.51100000000E-03 0.  1.
    9000002    1    1    2    0    0 -0.44946518522E-01 -0.30424358375E-02  0.43932101182E-01  0.94010822540E+00  0.93800000000E+00 0.  1.
         22    1    1    2    0    0  0.28218543170E+00  0.47261033172E-01  0.29249392957E+01  0.29388998123E+01  0.00000000000E+00 0.  1.
</event>
<event>
 5    1  0.2173147E+002  0.1599528E+01  0.7818608E-02  0.3353876E+00
         11   -1    0    0    0    0  0.00000000000E+00  0.00000000000E+00  0.39999999674E+01  0.40000000000E+01  0.51100000000E-03 0.  1.
    9000002   -1    0    0    0    0 -0.00000000000E+00 -0.00000000000E+00  0.00000000000E+00  0.93800000000E+00  0.93800000000E+00 0. -1.
         11    1    1    2    0    0  0.93235775524E-02 -0.18765440654E-02  0.16072195502E+00  0.16100390822E+00  0.51100000000E-03 0.  1.
    9000002    1    1    2    0    0 -0.34458853606E+00 -0.33863379491E-01  0.80472548322E-01  0.10030991071E+01  0.93800000000E+00 0. -1.
         22    1    1    2    0    0  0.33526495851E+00  0.35739923556E-01  0.37588054640E+01  0.37738969847E+01  0.00000000000E+00 0.  1.
</event>
<event>
 5    1  0.2173147E+002  0.1599517E+01  0.7818608E-02  0.3353888E+00
         11   -1    0    0    0    0  0.00000000000E+00  0.00000000000E+00  0.39999999674E+01  0.40000000000E+01  0.51100000000E-03 0.  1.
    9000002   -1    0    0    0    0 -0.00000000000E+00 -0.00000000000E+00  0.00000000000E+00  0.93800000000E+00  0.93800000000E+00 0.  1.
         11    1    1    2    0    0  0.32267127028E-01  0.94646754387E-01  0.96236058132E+00  0.96754189842E+00  0.51100000000E-03 0.  1.
    9000002    1    1    2    0    0 -0.94085862021E-01 -0.34634051236E+00  0.86579981252E-01  0.10080396783E+01  0.93800000000E+00 0.  1.
         22    1    1    2    0    0  0.61818734993E-01  0.25169375798E+00  0.29510594048E+01  0.29624184233E+01  0.00000000000E+00 0.  1.
</event>
<event>
 5    1  0.2173147E+002  0.1599656E+01  0.7818608E-02  0.3353737E+00
         11   -1    0    0    0    0  0.00000000000E+00  0.00000000000E+00  0.39999999674E+01  0.40000000000E+01  0.51100000000E-03 0. -1.
    9000002   -1    0    0    0    0 -0.00000000000E+00 -0.00000000000E+00  0.00000000000E+00  0.93800000000E+00  0.93800000000E+00 0. -1.
         11    1    1    2    0    0 -0.20525447141E+00 -0.10051902552E+00  0.12812780512E+01  0.13015018933E+01  0.51100000000E-03 0. -1.
    9000002    1    1    2    0    0  0.57951341908E+00  0.28483942022E+00  0.29395606423E+00  0.11761052104E+01  0.93800000000E+00 0. -1.
         22    1    1    2    0    0 -0.37425894766E+00 -0.18432039469E+00  0.24247658519E+01  0.24603928963E+01  0.00000000000E+00 0. -1.
</event>
<event>
 5    1  0.2173147E+002  0.1587358E+01  0.7818608E-02  0.3367200E+00
         11   -1    0    0    0    0  0.00000000000E+00  0.00000000000E+00  0.39999999674E+01  0.40000000000E+01  0.51100000000E-03 0.  1.
    9000002   -1    0    0    0    0 -0.00000000000E+00 -0.00000000000E+00  0.00000000000E+00  0.93800000000E+00  0.93800000000E+00 0. -1.
         11    1    1    2    0    0  0.80922152972E-01  0.14173814424E-01  0.40792719485E+00  0.41611795115E+00  0.51100000000E-03 0.  1.
    9000002    1    1    2    0    0 -0.69398211820E-01  0.19749617261E+00  0.38347196439E-01  0.96183956951E+00  0.93800000000E+00 0. -1.
         22    1    1    2    0    0 -0.11523941152E-01 -0.21166998703E+00  0.35537255761E+01  0.35600424793E+01  0.00000000000E+00 0.  1.
</event>
<event>
 5    1  0.2173147E+002  0.1599536E+01  0.7818608E-02  0.3353867E+00
         11   -1    0    0    0    0  0.00000000000E+00  0.00000000000E+00  0.39999999674E+01  0.40000000000E+01  0.51100000000E-03 0.  1.
    9000002   -1    0    0    0    0 -0.00000000000E+00 -0.00000000000E+00  0.00000000000E+00  0.93800000000E+00  0.93800000000E+00 0.  1.
         11    1    1    2    0    0  0.26610551905E+00 -0.40451752669E+00  0.22012194545E+01  0.22538442548E+01  0.51100000000E-03 0.  1.
    9000002    1    1    2    0    0 -0.43243674525E+00  0.67086613265E+00  0.46916413919E+00  0.13179612650E+01  0.93800000000E+00 0.  1.
         22    1    1    2    0    0  0.16633122620E+00 -0.26634860596E+00  0.13296163737E+01  0.13661944802E+01  0.00000000000E+00 0.  1.
</event>
<event>
 5    1  0.2173147E+002  0.1599593E+01  0.7818608E-02  0.3353805E+00
         11   -1    0    0    0    0  0.00000000000E+00  0.00000000000E+00  0.39999999674E+01  0.40000000000E+01  0.51100000000E-03 0. -1.
    9000002   -1    0    0    0    0 -0.00000000000E+00 -0.00000000000E+00  0.00000000000E+00  0.93800000000E+00  0.93800000000E+00 0.  1.
         11    1    1    2    0    0  0.38960940790E-01 -0.33586731232E-01  0.67162379881E+00  0.67359098247E+00  0.51100000000E-03 0. -1.
    9000002    1    1    2    0    0 -0.26652411427E+00  0.16704125907E+00  0.66160403490E-01  0.99154378860E+00  0.93800000000E+00 0.  1.
         22    1    1    2    0    0  0.22756317348E+00 -0.13345452784E+00  0.32622157651E+01  0.32728652289E+01  0.00000000000E+00 0. -1.
</event>
<event>
 5    1  0.2173147E+002  0.1593536E+01  0.7818608E-02  0.3360409E+00
         11   -1    0    0    0    0  0.00000000000E+00  0.00000000000E+00  0.39999999674E+01  0.40000000000E+01  0.51100000000E-03 0.  1.
    9000002   -1    0    0    0    0 -0.00000000000E+00 -0.00000000000E+00  0.00000000000E+00  0.93800000000E+00  0.93800000000E+00 0. -1.
         11    1    1    2    0    0  0.48761538454E+00  0.21626636408E+00  0.46801139647E+00  0.70963006688E+00  0.51100000000E-03 0.  1.
    9000002    1    1    2    0    0 -0.50729375603E+00  0.57618218727E+00  0.98803021884E+00  0.15637712688E+01  0.93800000000E+00 0. -1.
         22    1    1    2    0    0  0.19678371486E-01 -0.79244855135E+00  0.25439583520E+01  0.26645986643E+01  0.00000000000E+00 0. -1.
</event>
<event>
 5    1  0.2173147E+002  0.1594366E+01  0.7818608E-02  0.3359501E+00
         11   -1    0    0    0    0  0.00000000000E+00  0.00000000000E+00  0.39999999674E+01  0.40000000000E+01  0.51100000000E-03 0.  1.
    9000002   -1    0    0    0    0 -0.00000000000E+00 -0.00000000000E+00  0.00000000000E+00  0.93800000000E+00  0.93800000000E+00 0.  1.
         11    1    1    2    0    0  0.22238495112E-01 -0.75872999154E-03  0.58996856614E-01  0.63055662294E-01  0.51100000000E-03 0.  1.
    9000002    1    1    2    0    0 -0.52478320807E-01  0.20746826115E+00  0.34356196469E-01  0.96271563910E+00  0.93800000000E+00 0.  1.
         22    1    1    2    0    0  0.30239825695E-01 -0.20670953116E+00  0.39066469143E+01  0.39122286986E+01  0.00000000000E+00 0.  1.
</event>
<event>
 5    1  0.2173147E+002  0.1599669E+01  0.7818608E-02  0.3353723E+00
         11   -1    0    0    0    0  0.00000000000E+00  0.00000000000E+00  0.39999999674E+01  0.40000000000E+01  0.51100000000E-03 0.  1.
    9000002   -1    0    0    0    0 -0.00000000000E+00 -0.00000000000E+00  0.00000000000E+00  0.93800000000E+00  0.93800000000E+00 0.  1.
         11    1    1    2    0    0 -0.17968510309E-01  0.23537771187E-01  0.46851029861E+00  0.46944547613E+00  0.51100000000E-03 0.  1.
    9000002    1    1    2    0    0  0.13802326511E+00 -0.21127204989E+00  0.42320172093E-01  0.97227634844E+00  0.93800000000E+00 0.  1.
         22    1    1    2    0    0 -0.12005475480E+00  0.18773427871E+00  0.34891694967E+01  0.34962781754E+01  0.00000000000E+00 0.  1.
</event>
<event>
 5    1  0.2173147E+002  0.1576400E+01  0.7818608E-02  0.3379383E+00
         11   -1    0    0    0    0  0.00000000000E+00  0.00000000000E+00  0.39999999674E+01  0.40000000000E+01  0.51100000000E-03 0. -1.
    9000002   -1    0    0    0    0 -0.00000000000E+00 -0.00000000000E+00  0.00000000000E+00  0.93800000000E+00  0.93800000000E+00 0.  1.
         11    1    1    2    0    0 -0.16380148294E+00  0.21097682545E-01  0.11755301115E+01  0.11870751207E+01  0.51100000000E-03 0. -1.
    9000002    1    1    2    0    0  0.98510654323E-01  0.26760484445E+00  0.72480819569E-01  0.98306366579E+00  0.93800000000E+00 0.  1.
         22    1    1    2    0    0  0.65290828617E-01 -0.28870252699E+00  0.27519890363E+01  0.27678612135E+01  0.00000000000E+00 0. -1.
</event>
<event>
 5    1  0.2173147E+002  0.1599634E+01  0.7818608E-02  0.3353761E+00
         11   -1    0    0    0    0  0.00000000000E+00  0.00000000000E+00  0.39999999674E+01  0.40000000000E+01  0.51100000000E-03 0. -1.
    9000002   -1    0    0    0    0 -0.00000000000E+00 -0.00000000000E+00  0.00000000000E+00  0.93800000000E+00  0.93800000000E+00 0. -1.
         11    1    1    2    0    0 -0.12013559117E+00  0.72600093386E-01  0.13740515626E+01  0.13812028423E+01  0.51100000000E-03 0. -1.
    9000002    1    1    2    0    0  0.31971222385E+00 -0.20613793161E+00  0.97406019533E-01  0.10168779108E+01  0.93800000000E+00 0. -1.
         22    1    1    2    0    0 -0.19957663267E+00  0.13353783823E+00  0.25285423853E+01  0.25399192469E+01  0.00000000000E+00 0. -1.
</event>
<event>
 5    1  0.2173147E+002  0.1588217E+01  0.7818608E-02  0.3366253E+00
         11   -1    0    0    0    0  0.00000000000E+00  0.00000000000E+00  0.39999999674E+01  0.40000000000E+01  0.51100000000E-03 0. -1.
    9000002   -1    0    0    0    0 -0.00000000000E+00 -0.00000000000E+00  0.00000000000E+00  0.93800000000E+00  0.93800000000E+00 0.  1.
         11    1    1    2    0    0 -0.73601391232E-01  0.44030623701E-01  0.91562266417E+00  0.91963089600E+00  0.51100000000E-03 0. -1.
    9000002    1    1    2    0    0 -0.14670026359E+00 -0.12426793123E+00  0.33074419272E-01  0.95807171093E+00  0.93800000000E+00 0.  1.
         22    1    1    2    0    0  0.22030165482E+00  0.80237307534E-01  0.30513028839E+01  0.30602973931E+01  0.00000000000E+00 0. -1.
</event>
<event>
 5    1  0.2243521E+002  0.1577708E+01  0.7818608E-02  0.3377920E+00
         11   -1    0    0    0    0  0.00000000000E+00  0.00000000000E+00  0.39999999674E+01  0.40000000000E+01  0.51100000000E-03 0. -1.
    9000002   -1    0    0    0    0 -0.00000000000E+00 -0.00000000000E+00  0.00000000000E+00  0.93800000000E+00  0.93800000000E+00 0.  1.
         11    1    1    2    0    0 -0.13996749671E+00 -0.38480467088E-01  0.22739906751E+01  0.22786192087E+01  0.51100000000E-03 0. -1.
    9000002    1    1    2    0    0 -0.28056722192E-01 -0.77442575184E-01  0.20638103417E-01  0.94183568812E+00  0.93800000000E+00 0.  1.
         22    1    1    2    0    0  0.16802421890E+00  0.11592304227E+00  0.17053711888E+01  0.17175451032E+01  0.00000000000E+00 0.  1.
</event>
<event>
 5    1  0.2486213E+002  0.1567580E+01  0.7818608E-02  0.3389320E+00
         11   -1    0    0    0    0  0.00000000000E+00  0.00000000000E+00  0.39999999674E+01  0.40000000000E+01  0.51100000000E-03 0. -1.
    9000002   -1    0    0    0    0 -0.00000000000E+00 -0.00000000000E+00  0.00000000000E+00  0.93800000000E+00  0.93800000000E+00 0.  1.
         11    1    1    2    0    0  0.15919177847E+00  0.13908091383E+00  0.16132168603E+01  0.16270078126E+01  0.51100000000E-03 0. -1.
    9000002    1    1    2    0    0  0.44290589874E-01 -0.56877984863E-01  0.27131553894E-01  0.94115720405E+00  0.93800000000E+00 0.  1.
         22    1    1    2    0    0 -0.20348236834E+00 -0.82202928971E-01  0.23596515532E+01  0.23698349833E+01  0.00000000000E+00 0.  1.
</event>
<event>
 5    1  0.2173147E+002  0.1597485E+01  0.7818608E-02  0.3356097E+00
         11   -1    0    0    0    0  0.00000000000E+00  0.00000000000E+00  0.39999999674E+01  0.40000000000E+01  0.51100000000E-03 0.  1.
    9000002   -1    0    0    0    0 -0.00000000000E+00 -0.00000000000E+00  0.00000000000E+00  0.93800000000E+00  0.93800000000E+00 0. -1.
         11    1    1    2    0    0 -0.18712023142E+00  0.45526357740E-02  0.12131264896E+01  0.12274815064E+01  0.51100000000E-03 0.  1.
    9000002    1    1    2    0    0  0.52774668809E+00  0.13981256036E+00  0.20777891093E+00  0.11050249747E+01  0.93800000000E+00 0. -1.
         22    1    1    2    0    0 -0.34062645667E+00 -0.14436519614E+00  0.25790945668E+01  0.26054935190E+01  0.00000000000E+00 0.  1.
</event>
<event>
 5    1  0.2173147E+002  0.1587189E+01  0.7818608E-02  0.3367387E+00
         11   -1    0    0    0    0  0.00000000000E+00  0.00000000000E+00  0.39999999674E+01  0.40000000000E+01  0.51100000000E-03 0.  1.
    9000002   -1    0    0    0    0 -0.00000000000E+00 -0.00000000000E+00  0.00000000000E+00  0.93800000000E+00  0.93800000000E+00 0.  1.
         11    1    1    2    0    0  0.77096717771E-01  0.55839951098E-02  0.13760750331E+01  0.13782444786E+01  0.51100000000E-03 0.  1.
    9000002    1    1    2    0    0  0.14684303214E+00 -0.24086007727E-01  0.23891526876E-01  0.95003042947E+00  0.93800000000E+00 0.  1.
         22    1    1    2    0    0 -0.22393974991E+00  0.18502012617E-01  0.26000334074E+01  0.26097250919E+01  0.00000000000E+00 0.  1.
</event>
<event>
 5    1  0.2173147E+002  0.1575796E+01  0.7818608E-02  0.3380060E+00
         11   -1    0    0    0    0  0.00000000000E+00  0.00000000000E+00  0.39999999674E+01  0.40000000000E+01  0.51100000000E-03 0. -1.
    9000002   -1    0    0    0    0 -0.00000000000E+00 -0.00000000000E+00  0.00000000000E+00  0.93800000000E+00  0.93800000000E+00 0.  1.
         11    1    1    2    0    0 -0.13225586345E+00  0.10346948301E+00  0.16644735203E+01  0.16729225649E+01  0.51100000000E-03 0. -1.
    9000002    1    1    2    0    0  0.24920513742E-01  0.80513856012E-01  0.22277379915E-01  0.94204235291E+00  0.93800000000E+00 0.  1.
         22    1    1    2    0    0  0.10733534971E+00 -0.18398333903E+00  0.23132490672E+01  0.23230350822E+01  0.00000000000E+00 0. -1.
</event>
<event>
 5    1  0.2173147E+002  0.1599677E+01  0.7818608E-02  0.3353714E+00
         11   -1    0    0    0    0  0.00000000000E+00  0.00000000000E+00  0.39999999674E+01  0.40000000000E+01  0.51100000000E-03 0.  1.
    9000002   -1    0    0    0    0 -0.00000000000E+00 -0.00000000000E+00  0.00000000000E+00  0.93800000000E+00  0.93800000000E+00 0.  1.
         11    1    1    2    0    0  0.94108019735E-01  0.54715395216E-01  0.13292894167E+01  0.13337393705E+01  0.51100000000E-03 0.  1.
    9000002    1    1    2    0    0 -0.27769247785E+00 -0.16247111244E+00  0.69198161076E-01  0.99405349963E+00  0.93800000000E+00 0.  1.
         22    1    1    2    0    0  0.18358445811E+00  0.10775571722E+00  0.26015123896E+01  0.26102071299E+01  0.00000000000E+00 0.  1.
</event>
<event>
 5    1  0.2173147E+002  0.1510610E+01  0.7818608E-02  0.3456491E+00
         11   -1    0    0    0    0  0.00000000000E+00  0.00000000000E+00  0.39999999674E+01  0.40000000000E+01  0.51100000000E-03 0.  1.
    9000002   -1    0    0    0    0 -0.00000000000E+00 -0.00000000000E+00  0.00000000000E+00  0.93800000000E+00  0.93800000000E+00 0.  1.
         11    1    1    2    0    0  0.80814864806E-01  0.37083838829E+00  0.24232277098E+01  0.24527708713E+01  0.51100000000E-03 0.  1.
    9000002    1    1    2    0    0  0.46944449944E-01 -0.63576869166E-01  0.71967335114E-01  0.94407049366E+00  0.93800000000E+00 0.  1.
         22    1    1    2    0    0 -0.12775931475E+00 -0.30726151912E+00  0.15048049224E+01  0.15411586350E+01  0.00000000000E+00 0.  1.
</event>
<event>
 5    1  0.2173147E+002  0.1599677E+01  0.7818608E-02  0.3353714E+00
         11   -1    0    0    0    0  0.00000000000E+00  0.00000000000E+00  0.39999999674E+01  0.40000000000E+01  0.51100000000E-03 0. -1.
    9000002   -1    0    0    0    0 -0.00000000000E+00 -0.00000000000E+00  0.00000000000E+00  0.93800000000E+00  0.93800000000E+00 0.  1.
         11    1    1    2    0    0  0.29777134303E+00 -0.70833749611E-01  0.20690869395E+01  0.20916037429E+01  0.51100000000E-03 0. -1.
    9000002    1    1    2    0    0 -0.54465523997E+00  0.13056205939E+00  0.21709048780E+00  0.11138528007E+01  0.93800000000E+00 0.  1.
         22    1    1    2    0    0  0.24688389694E+00 -0.59728309779E-01  0.17138225400E+01  0.17325434564E+01  0.00000000000E+00 0. -1.
</event>
<event>
 5    1  0.2173147E+002  0.1599655E+01  0.7818608E-02  0.3353738E+00
         11   -1    0    0    0    0  0.00000000000E+00  0.00000000000E+00  0.39999999674E+01  0.40000000000E+01  0.51100000000E-03 0. -1.
    9000002   -1    0    0    0    0 -0.00000000000E+00 -0.00000000000E+00  0.00000000000E+00  0.93800000000E+00  0.93800000000E+00 0. -1.
         11    1    1    2    0    0  0.38410980749E-01 -0.13403050888E-02  0.57855877344E+00  0.57983421364E+00  0.51100000000E-03 0. -1.
    9000002    1    1    2    0    0 -0.28494454088E+00 -0.49173009745E-02  0.54124400684E-01  0.98183044462E+00  0.93800000000E+00 0. -1.
         22    1    1    2    0    0  0.24653356013E+00  0.62576060632E-02  0.33673167932E+01  0.33763353417E+01  0.00000000000E+00 0. -1.
</event>
<event>
 5    1  0.2173147E+002  0.1599677E+01  0.7818608E-02  0.3353714E+00
         11   -1    0    0    0    0  0.00000000000E+00  0.00000000000E+00  0.39999999674E+01  0.40000000000E+01  0.51100000000E-03 0. -1.
    9000002   -1    0    0    0    0 -0.00000000000E+00 -0.00000000000E+00  0.00000000000E+00  0.93800000000E+00  0.93800000000E+00 0.  1.
         11    1    1    2    0    0  0.11756915380E+00 -0.21177381197E-01  0.86180258271E+00  0.87004306795E+00  0.51100000000E-03 0.  1.
    9000002    1    1    2    0    0 -0.51956988444E+00  0.94048246330E-01  0.19178486052E+00  0.10933541833E+01  0.93800000000E+00 0.  1.
         22    1    1    2    0    0  0.40200073064E+00 -0.72870865133E-01  0.29464125241E+01  0.29746027487E+01  0.00000000000E+00 0. -1.
</event>
<event>
 5    1  0.2173147E+002  0.1599677E+01  0.7818608E-02  0.3353715E+00
         11   -1    0    0    0    0  0.00000000000E+00  0.00000000000E+00  0.39999999674E+01  0.40000000000E+01  0.51100000000E-03 0.  1.
    9000002   -1    0    0    0    0 -0.00000000000E+00 -0.00000000000E+00  0.00000000000E+00  0.93800000000E+00  0.93800000000E+00 0.  1.
         11    1    1    2    0    0 -0.19829402807E-01  0.57049208424E-01  0.68403521998E+00  0.68669662930E+00  0.51100000000E-03 0.  1.
    9000002    1    1    2    0    0  0.11484936106E+00 -0.32431346985E+00  0.79316819782E-01  0.10022498493E+01  0.93800000000E+00 0.  1.
         22    1    1    2    0    0 -0.95019958252E-01  0.26726426142E+00  0.32366479276E+01  0.32490535214E+01  0.00000000000E+00 0.  1.
</event>
<event>
 5    1  0.2173147E+002  0.1599677E+01  0.7818608E-02  0.3353714E+00
         11   -1    0    0    0    0  0.00000000000E+00  0.00000000000E+00  0.39999999674E+01  0.40000000000E+01  0.51100000000E-03 0. -1.
    9000002   -1    0    0    0    0 -0.00000000000E+00 -0.00000000000E+00  0.00000000000E+00  0.93800000000E+00  0.93800000000E+00 0.  1.
         11    1    1    2    0    0  0.18408362758E+00 -0.41321015770E+00  0.15356591888E+01  0.16008993790E+01  0.51100000000E-03 0. -1.
    9000002    1    1    2    0    0 -0.39241903892E+00  0.87855621076E+00  0.72974493277E+00  0.15291256928E+01  0.93800000000E+00 0.  1.
         22    1    1    2    0    0  0.20833541134E+00 -0.46534605306E+00  0.17345958458E+01  0.18079749282E+01  0.00000000000E+00 0. -1.
</event>
<event>
 5    1  0.2173147E+002  0.1599658E+01  0.7818608E-02  0.3353734E+00
         11   -1    0    0    0    0  0.00000000000E+00  0.00000000000E+00  0.39999999674E+01  0.40000000000E+01  0.51100000000E-03 0.  1.
    9000002   -1    0    0    0    0 -0.00000000000E+00 -0.00000000000E+00  0.00000000000E+00  0.93800000000E+00  0.93800000000E+00 0.  1.
         11    1    1    2    0    0  0.25141113060E-01 -0.61230964896E-01  0.83494470044E+00  0.83756445754E+00  0.51100000000E-03 0.  1.
    9000002    1    1    2    0    0 -0.13708375444E+00  0.28135935681E+00  0.65442495486E-01  0.99100038527E+00  0.93800000000E+00 0.  1.
         22    1    1    2    0    0  0.11194264138E+00 -0.22012839191E+00  0.30996127714E+01  0.31094351572E+01  0.00000000000E+00 0.  1.
</event>
<event>
 5    1  0.2173147E+002  0.1599671E+01  0.7818608E-02  0.3353721E+00
         11   -1    0    0    0    0  0.00000000000E+00  0.00000000000E+00  0.39999999674E+01  0.40000000000E+01  0.51100000000E-03 0. -1.
    9000002   -1    0    0    0    0 -0.00000000000E+00 -0.00000000000E+00  0.00000000000E+00  0.93800000000E+00  0.93800000000E+00 0. -1.
         11    1    1    2    0    0 -0.15363661366E+00  0.36553023620E-02  0.14614016224E+01  0.14694599461E+01  0.51100000000E-03 0. -1.
    9000002    1    1    2    0    0  0.40181662007E+00 -0.73727046729E-02  0.10897376672E+00  0.10262700594E+01  0.93800000000E+00 0. -1.
         22    1    1    2    0    0 -0.24818000642E+00  0.37174023109E-02  0.24296245783E+01  0.24422699945E+01  0.00000000000E+00 0. -1.
</event>
<event>
 5    1  0.2173147E+002  0.1522461E+01  0.7818608E-02  0.3442075E+00
         11   -1    0    0    0    0  0.00000000000E+00  0.00000000000E+00  0.39999999674E+01  0.40000000000E+01  0.51100000000E-03 0. -1.
    9000002   -1    0    0    0    0 -0.00000000000E+00 -0.00000000000E+00  0.00000000000E+00  0.93800000000E+00  0.93800000000E+00 0.  1.
         11    1    1    2    0    0 -0.35632845111E-01 -0.35076194814E-01 -0.40023339335E-02  0.50162923472E-01  0.51100000000E-03 0. -1.
    9000002    1    1    2    0    0 -0.10632796719E+00 -0.12229255091E+00  0.76874646639E-01  0.95499466800E+00  0.93800000000E+00 0.  1.
         22    1    1    2    0    0  0.14196081230E+00  0.15736874572E+00  0.39271276547E+01  0.39328424085E+01  0.00000000000E+00 0. -1.
</event>
<event>
 5    1  0.2173147E+002  0.1515458E+01  0.7818608E-02  0.3450564E+00
         11   -1    0    0    0    0  0.00000000000E+00  0.00000000000E+00  0.39999999674E+01  0.40000000000E+01  0.51100000000E-03 0.  1.
    9000002   -1    0    0    0    0 -0.00000000000E+00 -0.00000000000E+00  0.00000000000E+00  0.93800000000E+00  0.93800000000E+00 0.  1.
         11    1    1    2    0    0  0.39540530902E+00 -0.10284265607E+00  0.18862296754E+01  0.19299701085E+01  0.51100000000E-03 0.  1.
    9000002    1    1    2    0    0 -0.96373796458E-01  0.18303658400E+00  0.94514033480E-01  0.96517729058E+00  0.93800000000E+00 0.  1.
         22    1    1    2    0    0 -0.29903151256E+00 -0.80193927931E-01  0.20192562585E+01  0.20428526009E+01  0.00000000000E+00 0.  1.
</event>
<event>
 5    1  0.2173147E+002  0.1575162E+01  0.7818608E-02  0.3380771E+00
         11   -1    0    0    0    0  0.00000000000E+00  0.00000000000E+00  0.39999999674E+01  0.40000000000E+01  0.51100000000E-03 0. -1.
    9000002   -1    0    0    0    0 -0.00000000000E+00 -0.00000000000E+00  0.00000000000E+00  0.93800000000E+00  0.93800000000E+00 0. -1.
         11    1    1    2    0    0  0.97393836610E-01 -0.17306143297E-01  0.40943258013E+00  0.42121296371E+00  0.51100000000E-03 0. -1.
    9000002    1    1    2    0    0  0.95311059645E-01 -0.24120301600E+00  0.63769912933E-01  0.97528134136E+00  0.93800000000E+00 0. -1.
         22    1    1    2    0    0 -0.19270489625E+00  0.25850915929E+00  0.35267974743E+01  0.35415056949E+01  0.00000000000E+00 0. -1.
</event>
<event>
 5    1  0.2173147E+002  0.1599619E+01  0.7818608E-02  0.3353777E+00
         11   -1    0    0    0    0  0.00000000000E+00  0.00000000000E+00  0.39999999674E+01  0.40000000000E+01  0.51100000000E-03 0. -1.
    9000002   -1    0    0    0    0 -0.00000000000E+00 -0.00000000000E+00  0.00000000000E+00  0.93800000000E+00  0.93800000000E+00 0.  1.
         11    1    1    2    0    0 -0.17513797583E-01 -0.40357088002E-01  0.53411976884E+00  0.53592874176E+00  0.51100000000E-03 0. -1.
    9000002    1    1    2    0    0  0.96176738230E-01  0.26594470934E+00  0.53315546920E-01  0.98115396393E+00  0.93800000000E+00 0.  1.
         22    1    1    2    0    0 -0.78662940647E-01 -0.22558762134E+00  0.34125646516E+01  0.34209172943E+01  0.00000000000E+00 0. -1.
</event>
<event>
 5    1  0.2173147E+002  0.1599270E+01  0.7818608E-02  0.3354156E+00
         11   -1    0    0    0    0  0.00000000000E+00  0.00000000000E+00  0.39999999674E+01  0.40000000000E+01  0.51100000000E-03 0. -1.
    9000002   -1    0    0    0    0 -0.00000000000E+00 -0.00000000000E+00  0.00000000000E+00  0.93800000000E+00  0.93800000000E+00 0.  1.
         11    1    1    2    0    0 -0.76336387264E-02 -0.47466877155E-03  0.11714622892E+00  0.11739675388E+00  0.51100000000E-03 0. -1.
    9000002    1    1    2    0    0  0.14707735083E+00 -0.23844288342E+00  0.52581993806E-01  0.98035484487E+00  0.93800000000E+00 0.  1.
         22    1    1    2    0    0 -0.13944371210E+00  0.23891755219E+00  0.38302717446E+01  0.38402484013E+01  0.00000000000E+00 0. -1.
</event>
<event>
 5    1  0.2173147E+002  0.1599674E+01  0.7818608E-02  0.3353718E+00
         11   -1    0    0    0    0  0.00000000000E+00  0.00000000000E+00  0.39999999674E+01  0.40000000000E+01  0.51100000000E-03 0. -1.
    9000002   -1    0    0    0    0 -0.00000000000E+00 -0.00000000000E+00  0.00000000000E+00  0.93800000000E+00  0.93800000000E+00 0.  1.
         11    1    1    2    0    0 -0.69510502915E-01  0.86811550386E-01  0.12670306941E+01  0.12719021174E+01  0.51100000000E-03 0. -1.
    9000002    1    1    2    0    0  0.21273847271E+00 -0.26287541081E+00  0.76584982637E-01  0.10000351989E+01  0.93800000000E+00 0.  1.
         22    1    1    2    0    0 -0.14322796979E+00  0.17606386043E+00  0.26563842906E+01  0.26660626837E+01  0.00000000000E+00 0. -1.
</event>
<event>
 5    1  0.2173147E+002  0.1593666E+01  0.7818608E-02  0.3360267E+00
         11   -1    0    0    0    0  0.00000000000E+00  0.00000000000E+00  0.39999999674E+01  0.40000000000E+01  0.51100000000E-03 0. -1.
    9000002   -1    0    0    0    0 -0.00000000000E+00 -0.00000000000E+00  0.00000000000E+00  0.93800000000E+00  0.93800000000E+00 0. -1.
         11    1    1    2    0    0 -0.32629034614E-01 -0.33943904424E-01  0.69877081198E+00  0.70035544643E+00  0.51100000000E-03 0. -1.
    9000002    1    1    2    0    0 -0.16271214048E+00 -0.11529606513E-01  0.22045433302E-01  0.95233301613E+00  0.93800000000E+00 0. -1.
         22    1    1    2    0    0  0.19534117509E+00  0.45473510936E-01  0.32791837221E+01  0.32853115374E+01  0.00000000000E+00 0. -1.
</event>
<event>
 5    1  0.2173147E+002  0.1599476E+01  0.7818608E-02  0.3353932E+00
         11   -1    0    0    0    0  0.00000000000E+00  0.00000000000E+00  0.39999999674E+01  0.40000000000E+01  0.51100000000E-03 0. -1.
    9000002   -1    0    0    0    0 -0.00000000000E+00 -0.00000000000E+00  0.00000000000E+00  0.93800000000E+00  0.93800000000E+00 0. -1.
         11    1    1    2    0    0 -0.81728881195E-01  0.12366175650E+00  0.11440676980E+01  0.11536303562E+01  0.51100000000E-03 0. -1.
    9000002    1    1    2    0    0  0.22529857725E+00 -0.43368445749E+00  0.16337465231E+00  0.10702228434E+01  0.93800000000E+00 0. -1.
         22    1    1    2    0    0 -0.14356969606E+00  0.31002270100E+00  0.26925576171E+01  0.27141468004E+01  0.00000000000E+00 0. -1.
</event>
<event>
 5    1  0.2173147E+002  0.1591265E+01  0.7818608E-02  0.3362899E+00
         11   -1    0    0    0    0  0.00000000000E+00  0.00000000000E+00  0.39999999674E+01  0.40000000000E+01  0.51100000000E-03 0.  1.
    9000002   -1    0    0    0    0 -0.00000000000E+00 -0.00000000000E+00  0.00000000000E+00  0.93800000000E+00  0.93800000000E+00 0. -1.
         11    1    1    2    0    0 -0.27038789222E-01 -0.16310633210E+00  0.16175162810E+01  0.16259440188E+01  0.51100000000E-03 0.  1.
    9000002    1    1    2    0    0 -0.50582334926E-01  0.60513283502E+00  0.26615209177E+00  0.11486623771E+01  0.93800000000E+00 0. -1.
         22    1    1    2    0    0  0.77621124148E-01 -0.44202650292E+00  0.21163315946E+01  0.21633936041E+01  0.00000000000E+00 0.  1.
</event>
<event>
 5    1  0.2173147E+002  0.1597884E+01  0.7818608E-02  0.3355663E+00
         11   -1    0    0    0    0  0.00000000000E+00  0.00000000000E+00  0.39999999674E+01  0.40000000000E+01  0.51100000000E-03 0.  1.
    9000002   -1    0    0    0    0 -0.00000000000E+00 -0.00000000000E+00  0.00000000000E+00  0.93800000000E+00  0.93800000000E+00 0. -1.
         11    1    1    2    0    0 -0.17663224402E-01  0.10970128046E-01  0.68917180508E+00  0.68948558450E+00  0.51100000000E-03 0.  1.
    9000002    1    1    2    0    0  0.12513878959E+00  0.15795855572E+00  0.28232789570E-01  0.95981858306E+00  0.93800000000E+00 0. -1.
         22    1    1    2    0    0 -0.10747556519E+00 -0.16892868376E+00  0.32825953727E+01  0.32886958324E+01  0.00000000000E+00 0.  1.
</event>
<event>
 5    1  0.2173147E+002  0.1599670E+01  0.7818608E-02  0.3353722E+00
         11   -1    0    0    0    0  0.00000000000E+00  0.00000000000E+00  0.39999999674E+01  0.40000000000E+01  0.51100000000E-03 0.  1.
    9000002   -1    0    0    0    0 -0.00000000000E+00 -0.00000000000E+00  0.00000000000E+00  0.93800000000E+00  0.93800000000E+00 0. -1.
         11    1    1    2    0    0 -0.28873749411E-01  0.70797279347E-01  0.83811716695E+00  0.84159764426E+00  0.51100000000E-03 0.  1.
    9000002    1    1    2    0    0  0.13463350470E+00 -0.31881473709E+00  0.80277577474E-01  0.10030241805E+01  0.93800000000E+00 0. -1.
         22    1    1    2    0    0 -0.10575975529E+00  0.24801745774E+00  0.30816052229E+01  0.30933781753E+01  0.00000000000E+00 0.  1.
</event>
<event>
 5    1  0.2173147E+002  0.1588352E+01  0.7818608E-02  0.3366103E+00
         11   -1    0    0    0    0  0.00000000000E+00  0.00000000000E+00  0.39999999674E+01  0.40000000000E+01  0.51100000000E-03 0. -1.
    9000002   -1    0    0    0    0 -0.00000000000E+00 -0.00000000000E+00  0.00000000000E+00  0.93800000000E+00  0.93800000000E+00 0.  1.
         11    1    1    2    0    0 -0.59801147941E-01 -0.14901496154E-01  0.40812619444E+00  0.41275353856E+00  0.51100000000E-03 0. -1.
    9000002    1    1    2    0    0 -0.39466985510E-01 -0.28979712134E+00  0.65907697356E-01  0.98474760170E+00  0.93800000000E+00 0.  1.
         22    1    1    2    0    0  0.99268133451E-01  0.30469861749E+00  0.35259660756E+01  0.35404988597E+01  0.00000000000E+00 0. -1.
</event>
<event>
 5    1  0.2173147E+002  0.1598786E+01  0.7818608E-02  0.3354682E+00
         11   -1    0    0    0    0  0.00000000000E+00  0.00000000000E+00  0.39999999674E+01  0.40000000000E+01  0.51100000000E-03 0.  1.
    9000002   -1    0    0    0    0 -0.00000000000E+00 -0.00000000000E+00  0.00000000000E+00  0.93800000000E+00  0.93800000000E+00 0. -1.
         11    1    1    2    0    0 -0.12707938274E+00  0.46979025692E-01  0.13858250683E+01  0.13924322531E+01  0.51100000000E-03 0.  1.
    9000002    1    1    2    0    0  0.33864219174E+00 -0.38006018267E-01  0.78497322647E-01  0.10010638447E+01  0.93800000000E+00 0. -1.
         22    1    1    2    0    0 -0.21156280900E+00 -0.89730074251E-02  0.25356775764E+01  0.25445039022E+01  0.00000000000E+00 0.  1.
</event>
<event>
 5    1  0.2173147E+002  0.1587304E+01  0.7818608E-02  0.3367260E+00
         11   -1    0    0    0    0  0.00000000000E+00  0.00000000000E+00  0.39999999674E+01  0.40000000000E+01  0.51100000000E-03 0.  1.
    9000002   -1    0    0    0    0 -0.00000000000E+00 -0.00000000000E+00  0.00000000000E+00  0.93800000000E+00  0.93800000000E+00 0.  1.
         11    1    1    2    0    0 -0.30266437755E-01  0.15738748916E-01  0.62259273899E-01  0.70994674302E-01  0.51100000000E-03 0.  1.
    9000002    1    1    2    0    0  0.10619335895E+00  0.21345972533E+00  0.47195788540E-01  0.96897550345E+00  0.93800000000E+00 0.  1.
         22    1    1    2    0    0 -0.75926921199E-01 -0.22919847424E+00  0.38905449049E+01  0.38980298223E+01  0.00000000000E+00 0.  1.
</event>
<event>
 5    1  0.2173147E+002  0.1599467E+01  0.7818608E-02  0.3353942E+00
         11   -1    0    0    0    0  0.00000000000E+00  0.00000000000E+00  0.39999999674E+01  0.40000000000E+01  0.51100000000E-03 0.  1.
    9000002   -1    0    0    0    0 -0.00000000000E+00 -0.00000000000E+00  0.00000000000E+00  0.93800000000E+00  0.93800000000E+00 0.  1.
         11    1    1    2    0    0  0.49988286281E-01  0.21667987339E-01  0.60878374464E+00  0.61121701489E+00  0.51100000000E-03 0.  1.
    9000002    1    1    2    0    0 -0.27014336087E+00 -0.78938841837E-01  0.52915923481E-01  0.98074098065E+00  0.93800000000E+00 0.  1.
         22    1    1    2    0    0  0.22015507459E+00  0.57270854499E-01  0.33383002992E+01  0.33460420045E+01  0.00000000000E+00 0.  1.
</event>
<event>
 5    1  0.2173147E+002  0.1599597E+01  0.7818608E-02  0.3353801E+00
         11   -1    0    0    0    0  0.00000000000E+00  0.00000000000E+00  0.39999999674E+01  0.40000000000E+01  0.51100000000E-03 0. -1.
    9000002   -1    0    0    0    0 -0.00000000000E+00 -0.00000000000E+00  0.00000000000E+00  0.93800000000E+00  0.93800000000E+00 0.  1.
         11    1    1    2    0    0 -0.60763930212E-01  0.31604394816E-01  0.89414634228E+00  0.89676587553E+00  0.51100000000E-03 0. -1.
    9000002    1    1    2    0    0  0.27471768165E+00 -0.17778747477E+00  0.71687032523E-01  0.99602270126E+00  0.93800000000E+00 0.  1.
         22    1    1    2    0    0 -0.21395375144E+00  0.14618307996E+00  0.30341665926E+01  0.30452114232E+01  0.00000000000E+00 0. -1.
</event>
<event>
 5    1  0.2173147E+002  0.1599651E+01  0.7818608E-02  0.3353742E+00
         11   -1    0    0    0    0  0.00000000000E+00  0.00000000000E+00  0.39999999674E+01  0.40000000000E+01  0.51100000000E-03 0.  1.
    9000002   -1    0    0    0    0 -0.00000000000E+00 -0.00000000000E+00  0.00000000000E+00  0.93800000000E+00  0.93800000000E+00 0. -1.
         11    1    1    2    0    0 -0.33078641297E-01 -0.26519966286E-02  0.25276292490E+00  0.25493251444E+00  0.51100000000E-03 0.  1.
    9000002    1    1    2    0    0  0.47260622644E+00  0.62981901651E-02  0.15227338276E+00  0.10613328863E+01  0.93800000000E+00 0. -1.
         22    1    1    2    0    0 -0.43952758514E+00 -0.36461935364E-02  0.35949636597E+01  0.36217345992E+01  0.00000000000E+00 0.  1.
</event>
<event>
 5    1  0.2173147E+002  0.1599597E+01  0.7818608E-02  0.3353801E+00
         11   -1    0    0    0    0  0.00000000000E+00  0.00000000000E+00  0.39999999674E+01  0.40000000000E+01  0.51100000000E-03 0.  1.
    9000002   -1    0    0    0    0 -0.00000000000E+00 -0.00000000000E+00  0.00000000000E+00  0.93800000000E+00  0.93800000000E+00 0.  1.
         11    1    1    2    0    0 -0.44869972242E-01 -0.15162596083E+00  0.15447916688E+01  0.15528635830E+01  0.51100000000E-03 0.  1.
    9000002    1    1    2    0    0  0.13273737834E+00  0.36465347443E+00  0.10148976861E+00  0.10201644677E+01  0.93800000000E+00 0.  1.
         22    1    1    2    0    0 -0.87867406103E-01 -0.21302751360E+00  0.23537185300E+01  0.23649719493E+01  0.00000000000E+00 0.  1.
</event>
<event>
 5    1  0.2173147E+002  0.1599646E+01  0.7818608E-02  0.3353747E+00
         11   -1    0    0    0    0  0.00000000000E+00  0.00000000000E+00  0.39999999674E+01  0.40000000000E+01  0.51100000000E-03 0. -1.
    9000002   -1    0    0    0    0 -0.00000000000E+00 -0.00000000000E+00  0.00000000000E+00  0.93800000000E+00  0.93800000000E+00 0. -1.
         11    1    1    2    0    0 -0.12163488865E+00 -0.70115898126E-02  0.14448793453E+01  0.14500071697E+01  0.51100000000E-03 0. -1.
    9000002    1    1    2    0    0  0.33993791623E+00  0.33480795698E-01  0.78187190040E-01  0.10013171262E+01  0.93800000000E+00 0. -1.
         22    1    1    2    0    0 -0.21830302758E+00 -0.26469205886E-01  0.24769334320E+01  0.24866757041E+01  0.00000000000E+00 0. -1.
</event>
<event>
 5    1  0.2173147E+002  0.1595323E+01  0.7818608E-02  0.3358456E+00
         11   -1    0    0    0    0  0.00000000000E+00  0.00000000000E+00  0.39999999674E+01  0.40000000000E+01  0.51100000000E-03 0.  1.
    9000002   -1    0    0    0    0 -0.00000000000E+00 -0.00000000000E+00  0.00000000000E+00  0.93800000000E+00  0.93800000000E+00 0. -1.
         11    1    1    2    0    0  0.30017866308E+00  0.54451879999E-01  0.18467415352E+01  0.18717710320E+01  0.51100000000E-03 0.  1.
    9000002    1    1    2    0    0 -0.49501303373E+00 -0.73437943956E-02  0.17155621062E+00  0.10744148958E+01  0.93800000000E+00 0. -1.
         22    1    1    2    0    0  0.19483437064E+00 -0.47108085604E-01  0.19817022215E+01  0.19918140723E+01  0.00000000000E+00 0.  1.
</event>
<event>
 5    1  0.2173147E+002  0.1598462E+01  0.7818608E-02  0.3355034E+00
         11   -1    0    0    0    0  0.00000000000E+00  0.00000000000E+00  0.39999999674E+01  0.40000000000E+01  0.51100000000E-03 0. -1.
    9000002   -1    0    0    0    0 -0.00000000000E+00 -0.00000000000E+00  0.00000000000E+00  0.93800000000E+00  0.93800000000E+00 0. -1.
         11    1    1    2    0    0 -0.14235424664E-01  0.86403939812E-01  0.10014182404E+01  0.10052397931E+01  0.51100000000E-03 0. -1.
    9000002    1    1    2    0    0  0.15538307513E+00 -0.23632011470E+00  0.54223669430E-01  0.98121114087E+00  0.93800000000E+00 0. -1.
         22    1    1    2    0    0 -0.14114765047E+00  0.14991617489E+00  0.29443580575E+01  0.29515490661E+01  0.00000000000E+00 0. -1.
</event>
<event>
 5    1  0.2173147E+002  0.1599636E+01  0.7818608E-02  0.3353759E+00
         11   -1    0    0    0    0  0.00000000000E+00  0.00000000000E+00  0.39999999674E+01  0.40000000000E+01  0.51100000000E-03 0.  1.
    9000002   -1    0    0    0    0 -0.00000000000E+00 -0.00000000000E+00  0.00000000000E+00  0.93800000000E+00  0.93800000000E+00 0.  1.
         11    1    1    2    0    0 -0.20535648867E+00 -0.31560917179E+00  0.23402030109E+01  0.23703018437E+01  0.51100000000E-03 0.  1.
    9000002    1    1    2    0    0  0.32255239253E+00  0.49655846561E+00  0.24425343535E+00  0.11358318962E+01  0.93800000000E+00 0.  1.
         22    1    1    2    0    0 -0.11719590386E+00 -0.18094929382E+00  0.14155435211E+01  0.14318662601E+01  0.00000000000E+00 0.  1.
</event>
<event>
 5    1  0.2173147E+002  0.1569795E+01  0.7818608E-02  0.3386814E+00
         11   -1    0    0    0    0  0.00000000000E+00  0.00000000000E+00  0.39999999674E+01  0.40000000000E+01  0.51100000000E-03 0.  1.
    9000002   -1    0    0    0    0 -0.00000000000E+00 -0.00000000000E+00  0.00000000000E+00  0.93800000000E+00  0.93800000000E+00 0. -1.
         11    1    1    2    0    0 -0.25843834534E-01  0.18961686758E+00  0.20088788675E+01  0.20179734948E+01  0.51100000000E-03 0.  1.
    9000002    1    1    2    0    0  0.94890725645E-01  0.33993347908E-01  0.28841671479E-01  0.94384089736E+00  0.93800000000E+00 0. -1.
         22    1    1    2    0    0 -0.69046891111E-01 -0.22361021548E+00  0.19622794284E+01  0.19761856078E+01  0.00000000000E+00 0.  1.
</event>
<event>
 5    1  0.2173147E+002  0.1588132E+01  0.7818608E-02  0.3366346E+00
         11   -1    0    0    0    0  0.00000000000E+00  0.00000000000E+00  0.39999999674E+01  0.40000000000E+01  0.51100000000E-03 0.  1.
    9000002   -1    0    0    0    0 -0.00000000000E+00 -0.00000000000E+00  0.00000000000E+00  0.93800000000E+00  0.93800000000E+00 0.  1.
         11    1    1    2    0    0  0.18450544785E+00 -0.80954286816E-01  0.22330938724E+01  0.22421651057E+01  0.51100000000E-03 0.  1.
    9000002    1    1    2    0    0 -0.37054950552E+00 -0.76706406794E-01  0.10585253829E+00  0.10169756972E+01  0.93800000000E+00 0.  1.
         22    1    1    2    0    0  0.18604405767E+00  0.15766069361E+00  0.16610535566E+01  0.16788591971E+01  0.00000000000E+00 0.  1.
</event>
<event>
 5    1  0.2173147E+002  0.1592476E+01  0.7818608E-02  0.3361570E+00
         11   -1    0    0    0    0  0.00000000000E+00  0.00000000000E+00  0.39999999674E+01  0.40000000000E+01  0.51100000000E-03 0.  1.
    9000002   -1    0    0    0    0 -0.00000000000E+00 -0.00000000000E+00  0.00000000000E+00  0.93800000000E+00  0.93800000000E+00 0.  1.
         11    1    1    2    0    0 -0.34213342648E-01  0.62536286878E-02  0.34935987857E+00  0.35108723498E+00  0.51100000000E-03 0.  1.
    9000002    1    1    2    0    0 -0.25575727387E+00  0.59217708146E-01  0.51381182267E-01  0.97539866003E+00  0.93800000000E+00 0.  1.
         22    1    1    2    0    0  0.28997061652E+00 -0.65471336834E-01  0.35992589065E+01  0.36115141050E+01  0.00000000000E+00 0.  1.
</event>
<event>
 5    1  0.2173147E+002  0.1599674E+01  0.7818608E-02  0.3353717E+00
         11   -1    0    0    0    0  0.00000000000E+00  0.00000000000E+00  0.39999999674E+01  0.40000000000E+01  0.51100000000E-03 0.  1.
    9000002   -1    0    0    0    0 -0.00000000000E+00 -0.00000000000E+00  0.00000000000E+00  0.93800000000E+00  0.93800000000E+00 0. -1.
         11    1    1    2    0    0  0.55951824237E-01  0.24433622600E-01  0.85949748843E+00  0.86166339268E+00  0.51100000000E-03 0.  1.
    9000002    1    1    2    0    0 -0.25035549640E+00 -0.11546115762E+00  0.50599165167E-01  0.97898591870E+00  0.93800000000E+00 0. -1.
         22    1    1    2    0    0  0.19440367217E+00  0.91027535020E-01  0.30899033138E+01  0.30973506886E+01  0.00000000000E+00 0.  1.
</event>
<event>
 5    1  0.2173147E+002  0.1346143E+01  0.7818608E-02  0.3697292E+00
         11   -1    0    0    0    0  0.00000000000E+00  0.00000000000E+00  0.39999999674E+01  0.40000000000E+01  0.51100000000E-03 0. -1.
    9000002   -1    0    0    0    0 -0.00000000000E+00 -0.00000000000E+00  0.00000000000E+00  0.93800000000E+00  0.93800000000E+00 0. -1.
         11    1    1    2    0    0 -0.95739474168E-01 -0.38803642171E+00  0.30217929006E+01  0.30481093988E+01  0.51100000000E-03 0. -1.
    9000002    1    1    2    0    0 -0.25390264070E+00  0.65880912917E+00  0.73644847891E+00  0.13858919084E+01  0.93800000000E+00 0. -1.
         22    1    1    2    0    0  0.34964211487E+00 -0.27077270746E+00  0.24175858781E+00  0.50399869283E+00  0.00000000000E+00 0. -1.
</event>
<event>
 5    1  0.2173147E+002  0.1599486E+01  0.7818608E-02  0.3353922E+00
         11   -1    0    0    0    0  0.00000000000E+00  0.00000000000E+00  0.39999999674E+01  0.40000000000E+01  0.51100000000E-03 0.  1.
    9000002   -1    0    0    0    0 -0.00000000000E+00 -0.00000000000E+00  0.00000000000E+00  0.93800000000E+00  0.93800000000E+00 0.  1.
         11    1    1    2    0    0 -0.38082195423E-02  0.12628925000E-01  0.32989690496E+00  0.33016090215E+00  0.51100000000E-03 0.  1.
    9000002    1    1    2    0    0  0.12439556797E+00 -0.22861612210E+00  0.45181616630E-01  0.97448702767E+00  0.93800000000E+00 0.  1.
         22    1    1    2    0    0 -0.12058734842E+00  0.21598719710E+00  0.36249214458E+01  0.36333520702E+01  0.00000000000E+00 0.  1.
</event>
<event>
 5    1  0.2173147E+002  0.1599660E+01  0.7818608E-02  0.3353733E+00
         11   -1    0    0    0    0  0.00000000000E+00  0.00000000000E+00  0.39999999674E+01  0.40000000000E+01  0.51100000000E-03 0. -1.
    9000002   -1    0    0    0    0 -0.00000000000E+00 -0.00000000000E+00  0.00000000000E+00  0.93800000000E+00  0.93800000000E+00 0. -1.
         11    1    1    2    0    0  0.22410438483E-02  0.89929926347E-03  0.37408406007E-01  0.37489744966E-01  0.51100000000E-03 0. -1.
    9000002    1    1    2    0    0 -0.21760814018E+00 -0.10067409876E-01  0.31464393253E-01  0.96347738087E+00  0.93800000000E+00 0. -1.
         22    1    1    2    0    0  0.21536709633E+00  0.91681106125E-02  0.39311271681E+01  0.39370328742E+01  0.00000000000E+00 0. -1.
</event>
<event>
 5    1  0.2173147E+002  0.1479468E+01  0.7818608E-02  0.3495559E+00
         11   -1    0    0    0    0  0.00000000000E+00  0.00000000000E+00  0.39999999674E+01  0.40000000000E+01  0.51100000000E-03 0. -1.
    9000002   -1    0    0    0    0 -0.00000000000E+00 -0.00000000000E+00  0.00000000000E+00  0.93800000000E+00  0.93800000000E+00 0.  1.
         11    1    1    2    0    0  0.19276518703E+00  0.25709309803E+00  0.86825495596E+00  0.92580894792E+00  0.51100000000E-03 0. -1.
    9000002    1    1    2    0    0 -0.22684551579E+00  0.28523426541E+00  0.19428696435E+00  0.10248945793E+01  0.93800000000E+00 0.  1.
         22    1    1    2    0    0  0.34080328759E-01 -0.54232736344E+00  0.29374580471E+01  0.29872964728E+01  0.00000000000E+00 0. -1.
</event>
<event>
 5    1  0.2173147E+002  0.1599677E+01  0.7818608E-02  0.3353715E+00
         11   -1    0    0    0    0  0.00000000000E+00  0.00000000000E+00  0.39999999674E+01  0.40000000000E+01  0.51100000000E-03 0.  1.
    9000002   -1    0    0    0    0 -0.00000000000E+00 -0.00000000000E+00  0.00000000000E+00  0.93800000000E+00  0.93800000000E+00 0.  1.
         11    1    1    2    0    0  0.71927849876E-01 -0.47625785276E+00  0.25453611714E+01  0.25905325537E+01  0.51100000000E-03 0.  1.
    9000002    1    1    2    0    0 -0.10422632236E+00  0.68381945081E+00  0.34119850995E+00  0.12143856845E+01  0.93800000000E+00 0.  1.
         22    1    1    2    0    0  0.32298472480E-01 -0.20756159806E+00  0.11134402860E+01  0.11330817618E+01  0.00000000000E+00 0. -1.
</event>
<event>
 5    1  0.2173147E+002  0.1599677E+01  0.7818608E-02  0.3353714E+00
         11   -1    0    0    0    0  0.00000000000E+00  0.00000000000E+00  0.39999999674E+01  0.40000000000E+01  0.51100000000E-03 0.  1.
    9000002   -1    0    0    0    0 -0.00000000000E+00 -0.00000000000E+00  0.00000000000E+00  0.93800000000E+00  0.93800000000E+00 0.  1.
         11    1    1    2    0    0  0.39455126131E-01  0.99056243577E-01  0.13293528720E+01  0.13336221975E+01  0.51100000000E-03 0.  1.
    9000002    1    1    2    0    0 -0.11817483671E+00 -0.29220268386E+00  0.66372650142E-01  0.99176460371E+00  0.93800000000E+00 0.  1.
         22    1    1    2    0    0  0.78719710581E-01  0.19314644029E+00  0.26042744453E+01  0.26126131988E+01  0.00000000000E+00 0.  1.
</event>
<event>
 5    1  0.2173147E+002  0.1599676E+01  0.7818608E-02  0.3353715E+00
         11   -1    0    0    0    0  0.00000000000E+00  0.00000000000E+00  0.39999999674E+01  0.40000000000E+01  0.51100000000E-03 0. -1.
    9000002   -1    0    0    0    0 -0.00000000000E+00 -0.00000000000E+00  0.00000000000E+00  0.93800000000E+00  0.93800000000E+00 0.  1.
         11    1    1    2    0    0  0.27713176682E-01  0.28590306310E-01  0.49046902821E+00  0.49208287364E+00  0.51100000000E-03 0. -1.
    9000002    1    1    2    0    0 -0.22183111896E+00 -0.22282778759E+00  0.66043466781E-01  0.99149735641E+00  0.93800000000E+00 0.  1.
         22    1    1    2    0    0  0.19411794228E+00  0.19423748128E+00  0.34434874724E+01  0.34544197700E+01  0.00000000000E+00 0. -1.
</event>
<event>
 5    1  0.2173147E+002  0.1599529E+01  0.7818608E-02  0.3353875E+00
         11   -1    0    0    0    0  0.00000000000E+00  0.00000000000E+00  0.39999999674E+01  0.40000000000E+01  0.51100000000E-03 0.  1.
    9000002   -1    0    0    0    0 -0.00000000000E+00 -0.00000000000E+00  0.00000000000E+00  0.93800000000E+00  0.93800000000E+00 0. -1.
         11    1    1    2    0    0  0.12977768989E+00  0.74788717791E+00  0.23955826736E+01  0.25129651981E+01  0.51100000000E-03 0.  1.
    9000002    1    1    2    0    0 -0.18610230771E+00 -0.99687864760E+00  0.83447598063E+00  0.16138758531E+01  0.93800000000E+00 0. -1.
         22    1    1    2    0    0  0.56324617817E-01  0.24899146970E+00  0.76994131314E+00  0.81115894881E+00  0.00000000000E+00 0.  1.
</event>
<event>
 5    1  0.2173147E+002  0.1599130E+01  0.7818608E-02  0.3354308E+00
         11   -1    0    0    0    0  0.00000000000E+00  0.00000000000E+00  0.39999999674E+01  0.40000000000E+01  0.51100000000E-03 0.  1.
    9000002   -1    0    0    0    0 -0.00000000000E+00 -0.00000000000E+00  0.00000000000E+00  0.93800000000E+00  0.93800000000E+00 0.  1.
         11    1    1    2    0    0  0.33273129526E-01 -0.48353538906E+00  0.26506142202E+01  0.26945629662E+01  0.51100000000E-03 0.  1.
    9000002    1    1    2    0    0 -0.68186867533E-01  0.69339915816E+00  0.34724801150E+00  0.12189655544E+01  0.93800000000E+00 0.  1.
         22    1    1    2    0    0  0.34913738006E-01 -0.20986376910E+00  0.10021377357E+01  0.10244714793E+01  0.00000000000E+00 0. -1.
</event>
<event>
 5    1  0.2173147E+002  0.1548385E+01  0.7818608E-02  0.3411363E+00
         11   -1    0    0    0    0  0.00000000000E+00  0.00000000000E+00  0.39999999674E+01  0.40000000000E+01  0.51100000000E-03 0. -1.
    9000002   -1    0    0    0    0 -0.00000000000E+00 -0.00000000000E+00  0.00000000000E+00  0.93800000000E+00  0.93800000000E+00 0.  1.
         11    1    1    2    0    0  0.21046857872E+00  0.78071560967E-01  0.77082976761E+00  0.80285178148E+00  0.51100000000E-03 0. -1.
    9000002    1    1    2    0    0 -0.74506856598E-01  0.81409643544E-01  0.46529457872E-01  0.94561503382E+00  0.93800000000E+00 0.  1.
         22    1    1    2    0    0 -0.13596172212E+00 -0.15948120451E+00  0.31826407419E+01  0.31895331847E+01  0.00000000000E+00 0. -1.
</event>
<event>
 5    1  0.2173147E+002  0.1599123E+01  0.7818608E-02  0.3354316E+00
         11   -1    0    0    0    0  0.00000000000E+00  0.00000000000E+00  0.39999999674E+01  0.40000000000E+01  0.51100000000E-03 0.  1.
    9000002   -1    0    0    0    0 -0.00000000000E+00 -0.00000000000E+00  0.00000000000E+00  0.93800000000E+00  0.93800000000E+00 0.  1.
         11    1    1    2    0    0 -0.10707487408E+00 -0.18206171966E+00  0.18430284844E+01  0.18550918452E+01  0.51100000000E-03 0.  1.
    9000002    1    1    2    0    0  0.27447723306E+00  0.34976447838E+00  0.13462670962E+00  0.10467288535E+01  0.93800000000E+00 0.  1.
         22    1    1    2    0    0 -0.16740235899E+00 -0.16770275872E+00  0.20223447733E+01  0.20361793013E+01  0.00000000000E+00 0.  1.
</event>
<event>
 5    1  0.2173147E+002  0.1599672E+01  0.7818608E-02  0.3353720E+00
         11   -1    0    0    0    0  0.00000000000E+00  0.00000000000E+00  0.39999999674E+01  0.40000000000E+01  0.51100000000E-03 0. -1.
    9000002   -1    0    0    0    0 -0.00000000000E+00 -0.00000000000E+00  0.00000000000E+00  0.93800000000E+00  0.93800000000E+00 0.  1.
         11    1    1    2    0    0 -0.10059793818E+00  0.81733878211E-01  0.15629368883E+01  0.15683023784E+01  0.51100000000E-03 0. -1.
    9000002    1    1    2    0    0  0.25746118225E+00 -0.21002891541E+00  0.73886719859E-01  0.99784851207E+00  0.93800000000E+00 0.  1.
         22    1    1    2    0    0 -0.15686324407E+00  0.12829503720E+00  0.23631763592E+01  0.23718491096E+01  0.00000000000E+00 0. -1.
</event>
<event>
 5    1  0.2580415E+002  0.1579566E+01  0.7818608E-02  0.3375844E+00
         11   -1    0    0    0    0  0.00000000000E+00  0.00000000000E+00  0.39999999674E+01  0.40000000000E+01  0.51100000000E-03 0.  1.
    9000002   -1    0    0    0    0 -0.00000000000E+00 -0.00000000000E+00  0.00000000000E+00  0.93800000000E+00  0.93800000000E+00 0.  1.
         11    1    1    2    0    0 -0.14396094136E+00  0.17599676333E-01  0.14032454066E+01  0.14107205370E+01  0.51100000000E-03 0.  1.
    9000002    1    1    2    0    0 -0.53096506501E-01 -0.81466962227E-01  0.21053657976E-01  0.94326208524E+00  0.93800000000E+00 0.  1.
         22    1    1    2    0    0  0.19705744787E+00  0.63867285894E-01  0.25757009028E+01  0.25840173778E+01  0.00000000000E+00 0.  1.
</event>
<event>
 5    1  0.2173147E+002  0.1599671E+01  0.7818608E-02  0.3353720E+00
         11   -1    0    0    0    0  0.00000000000E+00  0.00000000000E+00  0.39999999674E+01  0.40000000000E+01  0.51100000000E-03 0. -1.
    9000002   -1    0    0    0    0 -0.00000000000E+00 -0.00000000000E+00  0.00000000000E+00  0.93800000000E+00  0.93800000000E+00 0.  1.
         11    1    1    2    0    0 -0.57970899250E-01 -0.57079080709E-01  0.62718025751E+00  0.63243496357E+00  0.51100000000E-03 0. -1.
    9000002    1    1    2    0    0  0.36155374853E+00  0.35760322006E+00  0.17728842556E+00  0.10816082294E+01  0.93800000000E+00 0.  1.
         22    1    1    2    0    0 -0.30358284928E+00 -0.30052413935E+00  0.31955312843E+01  0.32239568070E+01  0.00000000000E+00 0. -1.
</event>
