<event>
 5    1  0.3368139E+002  0.1599674E+01  0.7818608E-02  0.3353717E+00
         11   -1    0    0    0    0  0.00000000000E+00  0.00000000000E+00  0.39999999674E+01  0.40000000000E+01  0.51100000000E-03 0. -1.
    9000002   -1    0    0    0    0 -0.00000000000E+00 -0.00000000000E+00  0.00000000000E+00  0.93800000000E+00  0.93800000000E+00 0. -1.
         11    1    1    2    0    0 -0.33038921839E-01  0.10090106062E-01  0.47694619584E+00  0.47819589651E+00  0.51100000000E-03 0. -1.
    9000002    1    1    2    0    0  0.28171422848E+00 -0.89316140633E-01  0.58243957327E-01  0.98517848031E+00  0.93800000000E+00 0. -1.
         22    1    1    2    0    0 -0.24867530664E+00  0.79226034571E-01  0.34648098142E+01  0.34746256232E+01  0.00000000000E+00 0. -1.
</event>
<event>
 5    1  0.3368139E+002  0.1599677E+01  0.7818608E-02  0.3353714E+00
         11   -1    0    0    0    0  0.00000000000E+00  0.00000000000E+00  0.39999999674E+01  0.40000000000E+01  0.51100000000E-03 0.  1.
    9000002   -1    0    0    0    0 -0.00000000000E+00 -0.00000000000E+00  0.00000000000E+00  0.93800000000E+00  0.93800000000E+00 0.  1.
         11    1    1    2    0    0  0.70596962964E-01 -0.35593505225E-01  0.11185729267E+01  0.11213636709E+01  0.51100000000E-03 0.  1.
    9000002    1    1    2    0    0 -0.24864439940E+00  0.12681348567E+00  0.51874795638E-01  0.98002076097E+00  0.93800000000E+00 0.  1.
         22    1    1    2    0    0  0.17804743644E+00 -0.91219980448E-01  0.28295522450E+01  0.28366155682E+01  0.00000000000E+00 0.  1.
</event>
<event>
 5    1  0.3368139E+002  0.1591809E+01  0.7818608E-02  0.3362302E+00
         11   -1    0    0    0    0  0.00000000000E+00  0.00000000000E+00  0.39999999674E+01  0.40000000000E+01  0.51100000000E-03 0. -1.
    9000002   -1    0    0    0    0 -0.00000000000E+00 -0.00000000000E+00  0.00000000000E+00  0.93800000000E+00  0.93800000000E+00 0. -1.
         11    1    1    2    0    0 -0.76951347202E-02 -0.10968353648E-01  0.15768448915E-01  0.20698429464E-01  0.51100000000E-03 0. -1.
    9000002    1    1    2    0    0 -0.13965736589E+00 -0.17618687183E+00  0.39490551343E-01  0.96537531422E+00  0.93800000000E+00 0. -1.
         22    1    1    2    0    0  0.14735250061E+00  0.18715522547E+00  0.39447409671E+01  0.39519262563E+01  0.00000000000E+00 0. -1.
</event>
<event>
 5    1  0.3368139E+002  0.1598888E+01  0.7818608E-02  0.3354571E+00
         11   -1    0    0    0    0  0.00000000000E+00  0.00000000000E+00  0.39999999674E+01  0.40000000000E+01  0.51100000000E-03 0.  1.
    9000002   -1    0    0    0    0 -0.00000000000E+00 -0.00000000000E+00  0.00000000000E+00  0.93800000000E+00  0.93800000000E+00 0. -1.
         11    1    1    2    0    0  0.79288447065E-01 -0.35641063579E+00  0.26022983816E+01  0.26277884860E+01  0.51100000000E-03 0.  1.
    9000002    1    1    2    0    0 -0.90971911009E-01  0.55644859598E+00  0.22092368299E+00  0.11164955003E+01  0.93800000000E+00 0. -1.
         22    1    1    2    0    0  0.11683463943E-01 -0.20003796019E+00  0.11767779027E+01  0.11937160136E+01  0.00000000000E+00 0.  1.
</event>
<event>
 5    1  0.3368139E+002  0.1599676E+01  0.7818608E-02  0.3353715E+00
         11   -1    0    0    0    0  0.00000000000E+00  0.00000000000E+00  0.39999999674E+01  0.40000000000E+01  0.51100000000E-03 0.  1.
    9000002   -1    0    0    0    0 -0.00000000000E+00 -0.00000000000E+00  0.00000000000E+00  0.93800000000E+00  0.93800000000E+00 0. -1.
         11    1    1    2    0    0 -0.20061700034E+00 -0.66432434272E-01  0.16295608058E+01  0.16432069651E+01  0.51100000000E-03 0.  1.
    9000002    1    1    2    0    0  0.47351397348E+00  0.15556447676E+00  0.17000981960E+00  0.10757151706E+01  0.93800000000E+00 0. -1.
         22    1    1    2    0    0 -0.27289697314E+00 -0.89132042489E-01  0.22004293419E+01  0.22190778643E+01  0.00000000000E+00 0.  1.
</event>
<event>
 5    1  0.3368139E+002  0.1599537E+01  0.7818608E-02  0.3353866E+00
         11   -1    0    0    0    0  0.00000000000E+00  0.00000000000E+00  0.39999999674E+01  0.40000000000E+01  0.51100000000E-03 0. -1.
    9000002   -1    0    0    0    0 -0.00000000000E+00 -0.00000000000E+00  0.00000000000E+00  0.93800000000E+00  0.93800000000E+00 0. -1.
         11    1    1    2    0    0 -0.15539286815E+00  0.23581473594E+00  0.19994268589E+01  0.20192730272E+01  0.51100000000E-03 0. -1.
    9000002    1    1    2    0    0  0.30637067755E+00 -0.42434552791E+00  0.18841019347E+00  0.10905386376E+01  0.93800000000E+00 0. -1.
         22    1    1    2    0    0 -0.15097780940E+00  0.18853079196E+00  0.18121629150E+01  0.18281883352E+01  0.00000000000E+00 0. -1.
</event>
<event>
 5    1  0.3578200E+002  0.1599661E+01  0.7818608E-02  0.3353731E+00
         11   -1    0    0    0    0  0.00000000000E+00  0.00000000000E+00  0.39999999674E+01  0.40000000000E+01  0.51100000000E-03 0.  1.
    9000002   -1    0    0    0    0 -0.00000000000E+00 -0.00000000000E+00  0.00000000000E+00  0.93800000000E+00  0.93800000000E+00 0. -1.
         11    1    1    2    0    0  0.25494610849E+00  0.35836158895E+00  0.25446965947E+01  0.25824216477E+01  0.51100000000E-03 0.  1.
    9000002    1    1    2    0    0 -0.37602772223E+00 -0.52620920957E+00  0.29495566683E+00  0.11769179349E+01  0.93800000000E+00 0. -1.
         22    1    1    2    0    0  0.12108161375E+00  0.16784762061E+00  0.11603477059E+01  0.11786604174E+01  0.00000000000E+00 0.  1.
</event>
<event>
 5    1  0.3368139E+002  0.1599676E+01  0.7818608E-02  0.3353715E+00
         11   -1    0    0    0    0  0.00000000000E+00  0.00000000000E+00  0.39999999674E+01  0.40000000000E+01  0.51100000000E-03 0. -1.
    9000002   -1    0    0    0    0 -0.00000000000E+00 -0.00000000000E+00  0.00000000000E+00  0.93800000000E+00  0.93800000000E+00 0.  1.
         11    1    1    2    0    0 -0.94626357075E-01  0.31856037676E-02  0.95136739370E+00  0.95606719138E+00  0.51100000000E-03 0. -1.
    9000002    1    1    2    0    0  0.39123182391E+00 -0.11222650674E-01  0.10321669767E+00  0.10216095020E+01  0.93800000000E+00 0.  1.
         22    1    1    2    0    0 -0.29660546684E+00  0.80370469060E-02  0.29454158760E+01  0.29603233066E+01  0.00000000000E+00 0. -1.
</event>
<event>
 5    1  0.3368139E+002  0.1599593E+01  0.7818608E-02  0.3353805E+00
         11   -1    0    0    0    0  0.00000000000E+00  0.00000000000E+00  0.39999999674E+01  0.40000000000E+01  0.51100000000E-03 0. -1.
    9000002   -1    0    0    0    0 -0.00000000000E+00 -0.00000000000E+00  0.00000000000E+00  0.93800000000E+00  0.93800000000E+00 0. -1.
         11    1    1    2    0    0  0.33041272776E-01  0.39253206110E-01  0.90846134461E+00  0.90990923485E+00  0.51100000000E-03 0. -1.
    9000002    1    1    2    0    0 -0.17591086070E+00 -0.19527445423E+00  0.45997547907E-01  0.97521101194E+00  0.93800000000E+00 0. -1.
         22    1    1    2    0    0  0.14286958793E+00  0.15602124812E+00  0.30455410748E+01  0.30528797532E+01  0.00000000000E+00 0. -1.
</event>
<event>
 5    1  0.3368139E+002  0.1599673E+01  0.7818608E-02  0.3353719E+00
         11   -1    0    0    0    0  0.00000000000E+00  0.00000000000E+00  0.39999999674E+01  0.40000000000E+01  0.51100000000E-03 0.  1.
    9000002   -1    0    0    0    0 -0.00000000000E+00 -0.00000000000E+00  0.00000000000E+00  0.93800000000E+00  0.93800000000E+00 0. -1.
         11    1    1    2    0    0 -0.88260093674E-01 -0.15001469690E+00  0.14071778156E+01  0.14179012375E+01  0.51100000000E-03 0.  1.
    9000002    1    1    2    0    0  0.24748924581E+00  0.40851344661E+00  0.15560531522E+00  0.10640447251E+01  0.93800000000E+00 0. -1.
         22    1    1    2    0    0 -0.15922915214E+00 -0.25849874970E+00  0.24372168365E+01  0.24560540374E+01  0.00000000000E+00 0.  1.
</event>
<event>
 5    1  0.3368139E+002  0.1592642E+01  0.7818608E-02  0.3361388E+00
         11   -1    0    0    0    0  0.00000000000E+00  0.00000000000E+00  0.39999999674E+01  0.40000000000E+01  0.51100000000E-03 0. -1.
    9000002   -1    0    0    0    0 -0.00000000000E+00 -0.00000000000E+00  0.00000000000E+00  0.93800000000E+00  0.93800000000E+00 0. -1.
         11    1    1    2    0    0  0.15343093004E+00 -0.11142932526E-02  0.24422715679E+01  0.24470866279E+01  0.51100000000E-03 0. -1.
    9000002    1    1    2    0    0 -0.38008288565E+00 -0.76422675466E-01  0.10705180163E+00  0.10205917467E+01  0.93800000000E+00 0. -1.
         22    1    1    2    0    0  0.22665195561E+00  0.77536968719E-01  0.14506765978E+01  0.14703216253E+01  0.00000000000E+00 0.  1.
</event>
<event>
 5    1  0.3368139E+002  0.1599671E+01  0.7818608E-02  0.3353720E+00
         11   -1    0    0    0    0  0.00000000000E+00  0.00000000000E+00  0.39999999674E+01  0.40000000000E+01  0.51100000000E-03 0.  1.
    9000002   -1    0    0    0    0 -0.00000000000E+00 -0.00000000000E+00  0.00000000000E+00  0.93800000000E+00  0.93800000000E+00 0. -1.
         11    1    1    2    0    0 -0.24727456310E-01 -0.36506825021E-01  0.65456639644E+00  0.65605001627E+00  0.51100000000E-03 0.  1.
    9000002    1    1    2    0    0  0.16184062927E+00  0.21784739451E+00  0.49013191558E-01  0.97769942698E+00  0.93800000000E+00 0. -1.
         22    1    1    2    0    0 -0.13711317296E+00 -0.18134056949E+00  0.32964203794E+01  0.33042505568E+01  0.00000000000E+00 0.  1.
</event>
<event>
 5    1  0.3368139E+002  0.1586853E+01  0.7818608E-02  0.3367758E+00
         11   -1    0    0    0    0  0.00000000000E+00  0.00000000000E+00  0.39999999674E+01  0.40000000000E+01  0.51100000000E-03 0.  1.
    9000002   -1    0    0    0    0 -0.00000000000E+00 -0.00000000000E+00  0.00000000000E+00  0.93800000000E+00  0.93800000000E+00 0.  1.
         11    1    1    2    0    0 -0.90208638416E-01 -0.16586734191E+00  0.15930997243E+01  0.16042495336E+01  0.51100000000E-03 0.  1.
    9000002    1    1    2    0    0  0.39027956571E+00  0.12559487973E+00  0.12435468100E+00  0.10312130235E+01  0.93800000000E+00 0.  1.
         22    1    1    2    0    0 -0.30007092730E+00  0.40272462181E-01  0.22825455621E+01  0.23025374428E+01  0.00000000000E+00 0.  1.
</event>
<event>
 5    1  0.3368139E+002  0.1599288E+01  0.7818608E-02  0.3354136E+00
         11   -1    0    0    0    0  0.00000000000E+00  0.00000000000E+00  0.39999999674E+01  0.40000000000E+01  0.51100000000E-03 0. -1.
    9000002   -1    0    0    0    0 -0.00000000000E+00 -0.00000000000E+00  0.00000000000E+00  0.93800000000E+00  0.93800000000E+00 0. -1.
         11    1    1    2    0    0  0.11264435994E+00  0.45541859147E-01  0.10956647555E+01  0.11023812092E+01  0.51100000000E-03 0. -1.
    9000002    1    1    2    0    0 -0.42174144340E+00 -0.89232218960E-01  0.12619940994E+00  0.10399992909E+01  0.93800000000E+00 0. -1.
         22    1    1    2    0    0  0.30909708347E+00  0.43690359814E-01  0.27781358019E+01  0.27956194999E+01  0.00000000000E+00 0. -1.
</event>
<event>
 5    1  0.3368139E+002  0.1598900E+01  0.7818608E-02  0.3354558E+00
         11   -1    0    0    0    0  0.00000000000E+00  0.00000000000E+00  0.39999999674E+01  0.40000000000E+01  0.51100000000E-03 0.  1.
    9000002   -1    0    0    0    0 -0.00000000000E+00 -0.00000000000E+00  0.00000000000E+00  0.93800000000E+00  0.93800000000E+00 0.  1.
         11    1    1    2    0    0  0.64101617343E-02  0.21794729539E-01  0.56687747881E+00  0.56733273968E+00  0.51100000000E-03 0.  1.
    9000002    1    1    2    0    0  0.11509530388E+00 -0.19010795302E+00  0.33329723020E-01  0.96454281046E+00  0.93800000000E+00 0.  1.
         22    1    1    2    0    0 -0.12150546562E+00  0.16831322348E+00  0.33997927655E+01  0.34061244499E+01  0.00000000000E+00 0.  1.
</event>
<event>
 5    1  0.3368139E+002  0.1598520E+01  0.7818608E-02  0.3354972E+00
         11   -1    0    0    0    0  0.00000000000E+00  0.00000000000E+00  0.39999999674E+01  0.40000000000E+01  0.51100000000E-03 0. -1.
    9000002   -1    0    0    0    0 -0.00000000000E+00 -0.00000000000E+00  0.00000000000E+00  0.93800000000E+00  0.93800000000E+00 0. -1.
         11    1    1    2    0    0 -0.56485785432E-01  0.15237394829E-01  0.99199748304E+00  0.99372133400E+00  0.51100000000E-03 0. -1.
    9000002    1    1    2    0    0  0.26824604613E+00  0.73866759325E-01  0.52438606945E-01  0.97979898290E+00  0.93800000000E+00 0. -1.
         22    1    1    2    0    0 -0.21176026069E+00 -0.89104154154E-01  0.29555638774E+01  0.29644796831E+01  0.00000000000E+00 0. -1.
</event>
<event>
 5    1  0.3368139E+002  0.1599674E+01  0.7818608E-02  0.3353717E+00
         11   -1    0    0    0    0  0.00000000000E+00  0.00000000000E+00  0.39999999674E+01  0.40000000000E+01  0.51100000000E-03 0.  1.
    9000002   -1    0    0    0    0 -0.00000000000E+00 -0.00000000000E+00  0.00000000000E+00  0.93800000000E+00  0.93800000000E+00 0.  1.
         11    1    1    2    0    0  0.17718241553E-01  0.17156245811E-01  0.21370257133E+00  0.21512164690E+00  0.51100000000E-03 0.  1.
    9000002    1    1    2    0    0 -0.33036287440E+00 -0.29923715515E+00  0.13486022833E+00  0.10472410348E+01  0.93800000000E+00 0.  1.
         22    1    1    2    0    0  0.31264463285E+00  0.28208090934E+00  0.36514371677E+01  0.36756373183E+01  0.00000000000E+00 0.  1.
</event>
<event>
 5    1  0.3368139E+002  0.1596022E+01  0.7818608E-02  0.3357692E+00
         11   -1    0    0    0    0  0.00000000000E+00  0.00000000000E+00  0.39999999674E+01  0.40000000000E+01  0.51100000000E-03 0. -1.
    9000002   -1    0    0    0    0 -0.00000000000E+00 -0.00000000000E+00  0.00000000000E+00  0.93800000000E+00  0.93800000000E+00 0.  1.
         11    1    1    2    0    0  0.34018552885E+00  0.27482903544E+00  0.20428017181E+01  0.20890898289E+01  0.51100000000E-03 0. -1.
    9000002    1    1    2    0    0 -0.49046331468E+00 -0.44744877205E+00  0.31600258531E+00  0.11918331681E+01  0.93800000000E+00 0.  1.
         22    1    1    2    0    0  0.15027778584E+00  0.17261973661E+00  0.16411956639E+01  0.16570770030E+01  0.00000000000E+00 0. -1.
</event>
<event>
 5    1  0.3368139E+002  0.1598371E+01  0.7818608E-02  0.3355133E+00
         11   -1    0    0    0    0  0.00000000000E+00  0.00000000000E+00  0.39999999674E+01  0.40000000000E+01  0.51100000000E-03 0.  1.
    9000002   -1    0    0    0    0 -0.00000000000E+00 -0.00000000000E+00  0.00000000000E+00  0.93800000000E+00  0.93800000000E+00 0.  1.
         11    1    1    2    0    0 -0.98750431734E-03 -0.28760160169E-02  0.75674203475E-02  0.81715117709E-02  0.51100000000E-03 0.  1.
    9000002    1    1    2    0    0 -0.24300464575E+00 -0.34816913555E+00  0.12310238411E+00  0.10369528445E+01  0.93800000000E+00 0.  1.
         22    1    1    2    0    0  0.24399215007E+00  0.35104515156E+00  0.38693301629E+01  0.38928756437E+01  0.00000000000E+00 0.  1.
</event>
<event>
 5    1  0.3368139E+002  0.1599313E+01  0.7818608E-02  0.3354109E+00
         11   -1    0    0    0    0  0.00000000000E+00  0.00000000000E+00  0.39999999674E+01  0.40000000000E+01  0.51100000000E-03 0.  1.
    9000002   -1    0    0    0    0 -0.00000000000E+00 -0.00000000000E+00  0.00000000000E+00  0.93800000000E+00  0.93800000000E+00 0. -1.
         11    1    1    2    0    0 -0.14086369082E-01 -0.24081386720E-01  0.36211287719E+00  0.36318636529E+00  0.51100000000E-03 0.  1.
    9000002    1    1    2    0    0  0.13032201674E-01  0.23133026079E+00  0.35889562319E-01  0.96685861868E+00  0.93800000000E+00 0. -1.
         22    1    1    2    0    0  0.10541674088E-02 -0.20724887407E+00  0.36019975278E+01  0.36079550160E+01  0.00000000000E+00 0.  1.
</event>
<event>
 5    1  0.3368139E+002  0.1596317E+01  0.7818608E-02  0.3357371E+00
         11   -1    0    0    0    0  0.00000000000E+00  0.00000000000E+00  0.39999999674E+01  0.40000000000E+01  0.51100000000E-03 0. -1.
    9000002   -1    0    0    0    0 -0.00000000000E+00 -0.00000000000E+00  0.00000000000E+00  0.93800000000E+00  0.93800000000E+00 0. -1.
         11    1    1    2    0    0 -0.90717957161E-01  0.52913335229E-01  0.88255805670E+00  0.88878487463E+00  0.51100000000E-03 0. -1.
    9000002    1    1    2    0    0  0.14532772968E+00 -0.24818620138E+00  0.57737123640E-01  0.98279912241E+00  0.93800000000E+00 0. -1.
         22    1    1    2    0    0 -0.54609772518E-01  0.19527286615E+00  0.30597047870E+01  0.30664160030E+01  0.00000000000E+00 0. -1.
</event>
<event>
 5    1  0.3368139E+002  0.1598413E+01  0.7818608E-02  0.3355087E+00
         11   -1    0    0    0    0  0.00000000000E+00  0.00000000000E+00  0.39999999674E+01  0.40000000000E+01  0.51100000000E-03 0.  1.
    9000002   -1    0    0    0    0 -0.00000000000E+00 -0.00000000000E+00  0.00000000000E+00  0.93800000000E+00  0.93800000000E+00 0. -1.
         11    1    1    2    0    0  0.11492505402E-01  0.59491688290E-03  0.72876778623E-01  0.73781553183E-01  0.51100000000E-03 0.  1.
    9000002    1    1    2    0    0 -0.47262954537E-01 -0.27506558430E+00  0.52846803304E-01  0.98006716462E+00  0.93800000000E+00 0. -1.
         22    1    1    2    0    0  0.35770449135E-01  0.27447066742E+00  0.38742763854E+01  0.38841512822E+01  0.00000000000E+00 0.  1.
</event>
<event>
 5    1  0.3368139E+002  0.1599676E+01  0.7818608E-02  0.3353715E+00
         11   -1    0    0    0    0  0.00000000000E+00  0.00000000000E+00  0.39999999674E+01  0.40000000000E+01  0.51100000000E-03 0.  1.
    9000002   -1    0    0    0    0 -0.00000000000E+00 -0.00000000000E+00  0.00000000000E+00  0.93800000000E+00  0.93800000000E+00 0. -1.
         11    1    1    2    0    0 -0.83971254269E-02  0.13704566033E-01  0.22909405530E+00  0.22965773260E+00  0.51100000000E-03 0. -1.
    9000002    1    1    2    0    0  0.15040383979E+00 -0.23413321988E+00  0.51561474304E-01  0.97976643406E+00  0.93800000000E+00 0. -1.
         22    1    1    2    0    0 -0.14200671437E+00  0.22042865384E+00  0.37193444378E+01  0.37285758333E+01  0.00000000000E+00 0.  1.
</event>
<event>
 5    1  0.3368139E+002  0.1577004E+01  0.7818608E-02  0.3378707E+00
         11   -1    0    0    0    0  0.00000000000E+00  0.00000000000E+00  0.39999999674E+01  0.40000000000E+01  0.51100000000E-03 0. -1.
    9000002   -1    0    0    0    0 -0.00000000000E+00 -0.00000000000E+00  0.00000000000E+00  0.93800000000E+00  0.93800000000E+00 0.  1.
         11    1    1    2    0    0 -0.26480365182E-02 -0.19679438988E-01  0.43417689286E-02  0.20332350940E-01  0.51100000000E-03 0. -1.
    9000002    1    1    2    0    0  0.16101687638E+00 -0.12080818048E+00  0.44023367790E-01  0.96036613219E+00  0.93800000000E+00 0.  1.
         22    1    1    2    0    0 -0.15836883986E+00  0.14048761947E+00  0.39516348306E+01  0.39573015169E+01  0.00000000000E+00 0. -1.
</event>
<event>
 5    1  0.3471177E+002  0.1545713E+01  0.7818608E-02  0.3414478E+00
         11   -1    0    0    0    0  0.00000000000E+00  0.00000000000E+00  0.39999999674E+01  0.40000000000E+01  0.51100000000E-03 0. -1.
    9000002   -1    0    0    0    0 -0.00000000000E+00 -0.00000000000E+00  0.00000000000E+00  0.93800000000E+00  0.93800000000E+00 0.  1.
         11    1    1    2    0    0 -0.64173467229E-01 -0.29563415125E+00  0.14110887559E+01  0.14431526334E+01  0.51100000000E-03 0. -1.
    9000002    1    1    2    0    0  0.26900013589E-01  0.92008176622E-01  0.46509463127E-01  0.94403190913E+00  0.93800000000E+00 0.  1.
         22    1    1    2    0    0  0.37273453640E-01  0.20362597463E+00  0.25424017484E+01  0.25508154574E+01  0.00000000000E+00 0. -1.
</event>
<event>
 5    1  0.3368139E+002  0.1598701E+01  0.7818608E-02  0.3354775E+00
         11   -1    0    0    0    0  0.00000000000E+00  0.00000000000E+00  0.39999999674E+01  0.40000000000E+01  0.51100000000E-03 0. -1.
    9000002   -1    0    0    0    0 -0.00000000000E+00 -0.00000000000E+00  0.00000000000E+00  0.93800000000E+00  0.93800000000E+00 0.  1.
         11    1    1    2    0    0 -0.73123447666E-01  0.29067333364E-01  0.40370950115E+00  0.41130714911E+00  0.51100000000E-03 0. -1.
    9000002    1    1    2    0    0  0.46892892032E+00 -0.25464328286E+00  0.19697689355E+00  0.10969874340E+01  0.93800000000E+00 0.  1.
         22    1    1    2    0    0 -0.39580547266E+00  0.22557594950E+00  0.33993135727E+01  0.34297054169E+01  0.00000000000E+00 0. -1.
</event>
<event>
 5    1  0.4644562E+002  0.1588507E+01  0.7818608E-02  0.3365933E+00
         11   -1    0    0    0    0  0.00000000000E+00  0.00000000000E+00  0.39999999674E+01  0.40000000000E+01  0.51100000000E-03 0.  1.
    9000002   -1    0    0    0    0 -0.00000000000E+00 -0.00000000000E+00  0.00000000000E+00  0.93800000000E+00  0.93800000000E+00 0.  1.
         11    1    1    2    0    0 -0.10399284059E-01  0.82784567849E-01  0.10073933902E+01  0.10108427837E+01  0.51100000000E-03 0.  1.
    9000002    1    1    2    0    0  0.99701156470E-01  0.10590173121E+00  0.22246275314E-01  0.94947058619E+00  0.93800000000E+00 0.  1.
         22    1    1    2    0    0 -0.89301872411E-01 -0.18868629906E+00  0.29703603019E+01  0.29776866301E+01  0.00000000000E+00 0.  1.
</event>
<event>
 5    1  0.3368139E+002  0.1599677E+01  0.7818608E-02  0.3353714E+00
         11   -1    0    0    0    0  0.00000000000E+00  0.00000000000E+00  0.39999999674E+01  0.40000000000E+01  0.51100000000E-03 0.  1.
    9000002   -1    0    0    0    0 -0.00000000000E+00 -0.00000000000E+00  0.00000000000E+00  0.93800000000E+00  0.93800000000E+00 0. -1.
         11    1    1    2    0    0 -0.42550003436E-01 -0.11618220330E+00  0.14071344593E+01  0.14125637879E+01  0.51100000000E-03 0.  1.
    9000002    1    1    2    0    0  0.11858601059E+00  0.32506946440E+00  0.80247269151E-01  0.10030037003E+01  0.93800000000E+00 0. -1.
         22    1    1    2    0    0 -0.76036007153E-01 -0.20888726110E+00  0.25126182389E+01  0.25224325118E+01  0.00000000000E+00 0.  1.
</event>
<event>
 5    1  0.3368139E+002  0.1599571E+01  0.7818608E-02  0.3353829E+00
         11   -1    0    0    0    0  0.00000000000E+00  0.00000000000E+00  0.39999999674E+01  0.40000000000E+01  0.51100000000E-03 0. -1.
    9000002   -1    0    0    0    0 -0.00000000000E+00 -0.00000000000E+00  0.00000000000E+00  0.93800000000E+00  0.93800000000E+00 0. -1.
         11    1    1    2    0    0  0.87437608742E-02  0.11722837408E-02  0.20616386060E+00  0.20635315879E+00  0.51100000000E-03 0. -1.
    9000002    1    1    2    0    0 -0.25607690656E+00  0.34895833721E-01  0.44480404132E-01  0.97396899727E+00  0.93800000000E+00 0. -1.
         22    1    1    2    0    0  0.24733314568E+00 -0.36068117462E-01  0.37493557026E+01  0.37576778439E+01  0.00000000000E+00 0. -1.
</event>
<event>
 5    1  0.3368139E+002  0.1595140E+01  0.7818608E-02  0.3358656E+00
         11   -1    0    0    0    0  0.00000000000E+00  0.00000000000E+00  0.39999999674E+01  0.40000000000E+01  0.51100000000E-03 0. -1.
    9000002   -1    0    0    0    0 -0.00000000000E+00 -0.00000000000E+00  0.00000000000E+00  0.93800000000E+00  0.93800000000E+00 0.  1.
         11    1    1    2    0    0 -0.15747404411E+00  0.24297117292E+00  0.93371083652E+00  0.97757314448E+00  0.51100000000E-03 0. -1.
    9000002    1    1    2    0    0  0.33682452538E+00 -0.78079756334E+00  0.54881707764E+00  0.13799057144E+01  0.93800000000E+00 0.  1.
         22    1    1    2    0    0 -0.17935048128E+00  0.53782639042E+00  0.25174720532E+01  0.25805211412E+01  0.00000000000E+00 0. -1.
</event>
<event>
 5    1  0.3368139E+002  0.1593110E+01  0.7818608E-02  0.3360876E+00
         11   -1    0    0    0    0  0.00000000000E+00  0.00000000000E+00  0.39999999674E+01  0.40000000000E+01  0.51100000000E-03 0. -1.
    9000002   -1    0    0    0    0 -0.00000000000E+00 -0.00000000000E+00  0.00000000000E+00  0.93800000000E+00  0.93800000000E+00 0.  1.
         11    1    1    2    0    0  0.51034530096E-02  0.89086853991E-01  0.10569184197E+01  0.10606787071E+01  0.51100000000E-03 0. -1.
    9000002    1    1    2    0    0 -0.25041251295E+00 -0.10805128353E+00  0.54588944633E-01  0.97836877474E+00  0.93800000000E+00 0.  1.
         22    1    1    2    0    0  0.24530905994E+00  0.18964429537E-01  0.28884926031E+01  0.28989525181E+01  0.00000000000E+00 0. -1.
</event>
<event>
 5    1  0.3368139E+002  0.1599668E+01  0.7818608E-02  0.3353723E+00
         11   -1    0    0    0    0  0.00000000000E+00  0.00000000000E+00  0.39999999674E+01  0.40000000000E+01  0.51100000000E-03 0. -1.
    9000002   -1    0    0    0    0 -0.00000000000E+00 -0.00000000000E+00  0.00000000000E+00  0.93800000000E+00  0.93800000000E+00 0.  1.
         11    1    1    2    0    0 -0.12436938362E+00  0.18061718478E+00  0.19798193089E+01  0.19919274756E+01  0.51100000000E-03 0. -1.
    9000002    1    1    2    0    0  0.23759242551E+00 -0.35036359056E+00  0.12125939433E+00  0.10362203660E+01  0.93800000000E+00 0.  1.
         22    1    1    2    0    0 -0.11322304189E+00  0.16974640578E+00  0.18989212641E+01  0.19098521584E+01  0.00000000000E+00 0. -1.
</event>
<event>
 5    1  0.3368139E+002  0.1599007E+01  0.7818608E-02  0.3354442E+00
         11   -1    0    0    0    0  0.00000000000E+00  0.00000000000E+00  0.39999999674E+01  0.40000000000E+01  0.51100000000E-03 0. -1.
    9000002   -1    0    0    0    0 -0.00000000000E+00 -0.00000000000E+00  0.00000000000E+00  0.93800000000E+00  0.93800000000E+00 0.  1.
         11    1    1    2    0    0 -0.15001974188E-01 -0.43735636362E-02  0.42176382359E+00  0.42205351711E+00  0.51100000000E-03 0. -1.
    9000002    1    1    2    0    0  0.29748545258E+00 -0.46613032570E-01  0.61018285860E-01  0.98703475142E+00  0.93800000000E+00 0.  1.
         22    1    1    2    0    0 -0.28248347839E+00  0.50986596207E-01  0.35172178579E+01  0.35289117315E+01  0.00000000000E+00 0. -1.
</event>
<event>
 5    1  0.3368139E+002  0.1597915E+01  0.7818608E-02  0.3355629E+00
         11   -1    0    0    0    0  0.00000000000E+00  0.00000000000E+00  0.39999999674E+01  0.40000000000E+01  0.51100000000E-03 0. -1.
    9000002   -1    0    0    0    0 -0.00000000000E+00 -0.00000000000E+00  0.00000000000E+00  0.93800000000E+00  0.93800000000E+00 0.  1.
         11    1    1    2    0    0  0.65386219554E-01 -0.35082753833E-01  0.45408344508E+00  0.46010671973E+00  0.51100000000E-03 0. -1.
    9000002    1    1    2    0    0 -0.36694447567E+00  0.10012147502E+00  0.98793570589E-01  0.10169939663E+01  0.93800000000E+00 0.  1.
         22    1    1    2    0    0  0.30155825611E+00 -0.65038721189E-01  0.34471229517E+01  0.34608993139E+01  0.00000000000E+00 0. -1.
</event>
<event>
 5    1  0.3368139E+002  0.1599651E+01  0.7818608E-02  0.3353742E+00
         11   -1    0    0    0    0  0.00000000000E+00  0.00000000000E+00  0.39999999674E+01  0.40000000000E+01  0.51100000000E-03 0. -1.
    9000002   -1    0    0    0    0 -0.00000000000E+00 -0.00000000000E+00  0.00000000000E+00  0.93800000000E+00  0.93800000000E+00 0. -1.
         11    1    1    2    0    0 -0.13403128780E-02  0.28385293134E-01  0.16991705019E+00  0.17227764327E+00  0.51100000000E-03 0. -1.
    9000002    1    1    2    0    0  0.83864894606E-01 -0.62640683309E+00  0.28068573866E+00  0.11653528757E+01  0.93800000000E+00 0. -1.
         22    1    1    2    0    0 -0.82524581728E-01  0.59802153996E+00  0.35493971785E+01  0.36003694810E+01  0.00000000000E+00 0. -1.
</event>
<event>
 5    1  0.3368139E+002  0.1597495E+01  0.7818608E-02  0.3356087E+00
         11   -1    0    0    0    0  0.00000000000E+00  0.00000000000E+00  0.39999999674E+01  0.40000000000E+01  0.51100000000E-03 0.  1.
    9000002   -1    0    0    0    0 -0.00000000000E+00 -0.00000000000E+00  0.00000000000E+00  0.93800000000E+00  0.93800000000E+00 0. -1.
         11    1    1    2    0    0  0.56752925334E-01 -0.38888642242E-02  0.27397085173E+00  0.27981477180E+00  0.51100000000E-03 0.  1.
    9000002    1    1    2    0    0 -0.39867586450E+00 -0.12469616953E-01  0.10911533563E+00  0.10251088200E+01  0.93800000000E+00 0. -1.
         22    1    1    2    0    0  0.34192293916E+00  0.16358481178E-01  0.36169137800E+01  0.36330764082E+01  0.00000000000E+00 0.  1.
</event>
<event>
 5    1  0.3368139E+002  0.1473384E+01  0.7818608E-02  0.3503401E+00
         11   -1    0    0    0    0  0.00000000000E+00  0.00000000000E+00  0.39999999674E+01  0.40000000000E+01  0.51100000000E-03 0.  1.
    9000002   -1    0    0    0    0 -0.00000000000E+00 -0.00000000000E+00  0.00000000000E+00  0.93800000000E+00  0.93800000000E+00 0.  1.
         11    1    1    2    0    0  0.24371791247E+00 -0.16897770559E+00  0.55915740764E+00  0.63293692694E+00  0.51100000000E-03 0.  1.
    9000002    1    1    2    0    0 -0.17573547773E-01 -0.13486637707E+00  0.11161429561E+00  0.95435817188E+00  0.93800000000E+00 0.  1.
         22    1    1    2    0    0 -0.22614436470E+00  0.30384408266E+00  0.33292282641E+01  0.33507049012E+01  0.00000000000E+00 0.  1.
</event>
<event>
 5    1  0.3368139E+002  0.1599592E+01  0.7818608E-02  0.3353806E+00
         11   -1    0    0    0    0  0.00000000000E+00  0.00000000000E+00  0.39999999674E+01  0.40000000000E+01  0.51100000000E-03 0. -1.
    9000002   -1    0    0    0    0 -0.00000000000E+00 -0.00000000000E+00  0.00000000000E+00  0.93800000000E+00  0.93800000000E+00 0. -1.
         11    1    1    2    0    0 -0.92230109879E-02 -0.44977112506E-02  0.30116403247E+00  0.30133922564E+00  0.51100000000E-03 0. -1.
    9000002    1    1    2    0    0  0.19572781790E+00  0.81404464432E-01  0.29834816165E-01  0.96211755092E+00  0.93800000000E+00 0. -1.
         22    1    1    2    0    0 -0.18650480692E+00 -0.76906753181E-01  0.36690011187E+01  0.36745432234E+01  0.00000000000E+00 0. -1.
</event>
<event>
 5    1  0.3368139E+002  0.1578000E+01  0.7818608E-02  0.3377593E+00
         11   -1    0    0    0    0  0.00000000000E+00  0.00000000000E+00  0.39999999674E+01  0.40000000000E+01  0.51100000000E-03 0.  1.
    9000002   -1    0    0    0    0 -0.00000000000E+00 -0.00000000000E+00  0.00000000000E+00  0.93800000000E+00  0.93800000000E+00 0. -1.
         11    1    1    2    0    0 -0.10601449097E+00 -0.29132971391E-01  0.19601755539E+01  0.19632565460E+01  0.51100000000E-03 0.  1.
    9000002    1    1    2    0    0 -0.11902418863E-01 -0.21853259344E+00  0.48286077888E-01  0.96440329079E+00  0.93800000000E+00 0. -1.
         22    1    1    2    0    0  0.11791690983E+00  0.24766556483E+00  0.19915383356E+01  0.20103401632E+01  0.00000000000E+00 0.  1.
</event>
<event>
 5    1  0.3368139E+002  0.1581279E+01  0.7818608E-02  0.3373937E+00
         11   -1    0    0    0    0  0.00000000000E+00  0.00000000000E+00  0.39999999674E+01  0.40000000000E+01  0.51100000000E-03 0. -1.
    9000002   -1    0    0    0    0 -0.00000000000E+00 -0.00000000000E+00  0.00000000000E+00  0.93800000000E+00  0.93800000000E+00 0.  1.
         11    1    1    2    0    0 -0.32056907096E-01  0.33680514255E+00  0.14753821520E+01  0.15136770148E+01  0.51100000000E-03 0. -1.
    9000002    1    1    2    0    0 -0.15977269215E+00 -0.53025639520E+00  0.22963654154E+00  0.11132277840E+01  0.93800000000E+00 0.  1.
         22    1    1    2    0    0  0.19182959924E+00  0.19345125266E+00  0.22949812738E+01  0.23110952013E+01  0.00000000000E+00 0. -1.
</event>
<event>
 5    1  0.3368139E+002  0.1599318E+01  0.7818608E-02  0.3354104E+00
         11   -1    0    0    0    0  0.00000000000E+00  0.00000000000E+00  0.39999999674E+01  0.40000000000E+01  0.51100000000E-03 0.  1.
    9000002   -1    0    0    0    0 -0.00000000000E+00 -0.00000000000E+00  0.00000000000E+00  0.93800000000E+00  0.93800000000E+00 0. -1.
         11    1    1    2    0    0 -0.11076646612E-01 -0.32829871080E-02  0.36357381279E+00  0.36375767836E+00  0.51100000000E-03 0.  1.
    9000002    1    1    2    0    0  0.20988792409E+00  0.14777405220E+00  0.44067812172E-01  0.97348656039E+00  0.93800000000E+00 0. -1.
         22    1    1    2    0    0 -0.19881127748E+00 -0.14449106509E+00  0.35923583424E+01  0.36007557612E+01  0.00000000000E+00 0.  1.
</event>
<event>
 5    1  0.3368139E+002  0.1502239E+01  0.7818608E-02  0.3466821E+00
         11   -1    0    0    0    0  0.00000000000E+00  0.00000000000E+00  0.39999999674E+01  0.40000000000E+01  0.51100000000E-03 0.  1.
    9000002   -1    0    0    0    0 -0.00000000000E+00 -0.00000000000E+00  0.00000000000E+00  0.93800000000E+00  0.93800000000E+00 0.  1.
         11    1    1    2    0    0  0.21538233063E+00  0.25923931509E+00  0.19505737841E+01  0.19794779411E+01  0.51100000000E-03 0.  1.
    9000002    1    1    2    0    0  0.27652349087E-01  0.77247227988E-01  0.79042627675E-01  0.94489339273E+00  0.93800000000E+00 0.  1.
         22    1    1    2    0    0 -0.24303467971E+00 -0.33648654308E+00  0.19703835556E+01  0.20136286662E+01  0.00000000000E+00 0. -1.
</event>
<event>
 5    1  0.3368139E+002  0.1599676E+01  0.7818608E-02  0.3353715E+00
         11   -1    0    0    0    0  0.00000000000E+00  0.00000000000E+00  0.39999999674E+01  0.40000000000E+01  0.51100000000E-03 0. -1.
    9000002   -1    0    0    0    0 -0.00000000000E+00 -0.00000000000E+00  0.00000000000E+00  0.93800000000E+00  0.93800000000E+00 0. -1.
         11    1    1    2    0    0  0.17869889989E+00 -0.43680921384E-01  0.17654439236E+01  0.17750024869E+01  0.51100000000E-03 0. -1.
    9000002    1    1    2    0    0 -0.39604700488E+00  0.96530803549E-01  0.11219791134E+00  0.10288847348E+01  0.93800000000E+00 0. -1.
         22    1    1    2    0    0  0.21734810499E+00 -0.52849882165E-01  0.21223581324E+01  0.21341127784E+01  0.00000000000E+00 0.  1.
</event>
<event>
 5    1  0.3368139E+002  0.1593861E+01  0.7818608E-02  0.3360054E+00
         11   -1    0    0    0    0  0.00000000000E+00  0.00000000000E+00  0.39999999674E+01  0.40000000000E+01  0.51100000000E-03 0. -1.
    9000002   -1    0    0    0    0 -0.00000000000E+00 -0.00000000000E+00  0.00000000000E+00  0.93800000000E+00  0.93800000000E+00 0. -1.
         11    1    1    2    0    0 -0.22736899700E-01 -0.47229791617E-01  0.19750253188E+00  0.20434072292E+00  0.51100000000E-03 0. -1.
    9000002    1    1    2    0    0 -0.23560322403E+00  0.49493963364E+00  0.21296509303E+00  0.11071008314E+01  0.93800000000E+00 0. -1.
         22    1    1    2    0    0  0.25834012373E+00 -0.44770984202E+00  0.35895323424E+01  0.36265584456E+01  0.00000000000E+00 0. -1.
</event>
<event>
 5    1  0.3368139E+002  0.1599676E+01  0.7818608E-02  0.3353715E+00
         11   -1    0    0    0    0  0.00000000000E+00  0.00000000000E+00  0.39999999674E+01  0.40000000000E+01  0.51100000000E-03 0. -1.
    9000002   -1    0    0    0    0 -0.00000000000E+00 -0.00000000000E+00  0.00000000000E+00  0.93800000000E+00  0.93800000000E+00 0. -1.
         11    1    1    2    0    0  0.23700928713E+00  0.64193654480E-01  0.15196887029E+01  0.15393986625E+01  0.51100000000E-03 0. -1.
    9000002    1    1    2    0    0 -0.58512656711E+00 -0.15545260761E+00  0.25603307352E+00  0.11453975500E+01  0.93800000000E+00 0. -1.
         22    1    1    2    0    0  0.34811727998E+00  0.91258953128E-01  0.22242781910E+01  0.22532037875E+01  0.00000000000E+00 0. -1.
</event>
<event>
 5    1  0.3368139E+002  0.1599589E+01  0.7818608E-02  0.3353809E+00
         11   -1    0    0    0    0  0.00000000000E+00  0.00000000000E+00  0.39999999674E+01  0.40000000000E+01  0.51100000000E-03 0.  1.
    9000002   -1    0    0    0    0 -0.00000000000E+00 -0.00000000000E+00  0.00000000000E+00  0.93800000000E+00  0.93800000000E+00 0.  1.
         11    1    1    2    0    0  0.17663750643E-01 -0.83296938853E-01  0.76555463804E+00  0.77027563447E+00  0.51100000000E-03 0.  1.
    9000002    1    1    2    0    0 -0.45564236974E-01  0.43337578227E+00  0.12878044164E+00  0.10422663146E+01  0.93800000000E+00 0.  1.
         22    1    1    2    0    0  0.27900486331E-01 -0.35007884342E+00  0.31056648877E+01  0.31254580510E+01  0.00000000000E+00 0.  1.
</event>
<event>
 5    1  0.3368139E+002  0.1579305E+01  0.7818608E-02  0.3376136E+00
         11   -1    0    0    0    0  0.00000000000E+00  0.00000000000E+00  0.39999999674E+01  0.40000000000E+01  0.51100000000E-03 0. -1.
    9000002   -1    0    0    0    0 -0.00000000000E+00 -0.00000000000E+00  0.00000000000E+00  0.93800000000E+00  0.93800000000E+00 0.  1.
         11    1    1    2    0    0  0.40860821580E-01 -0.19277317679E+00  0.78397069721E+00  0.80835723516E+00  0.51100000000E-03 0. -1.
    9000002    1    1    2    0    0 -0.23186040030E+00  0.26875333363E+00  0.10116245739E+00  0.10080007155E+01  0.93800000000E+00 0.  1.
         22    1    1    2    0    0  0.19099957872E+00 -0.75980156835E-01  0.31148668128E+01  0.31216420494E+01  0.00000000000E+00 0. -1.
</event>
<event>
 5    1  0.3368139E+002  0.1599667E+01  0.7818608E-02  0.3353725E+00
         11   -1    0    0    0    0  0.00000000000E+00  0.00000000000E+00  0.39999999674E+01  0.40000000000E+01  0.51100000000E-03 0. -1.
    9000002   -1    0    0    0    0 -0.00000000000E+00 -0.00000000000E+00  0.00000000000E+00  0.93800000000E+00  0.93800000000E+00 0.  1.
         11    1    1    2    0    0  0.16568320905E-01 -0.13920736783E-01  0.24603654605E+00  0.24698692128E+00  0.51100000000E-03 0. -1.
    9000002    1    1    2    0    0 -0.26413031534E+00  0.25019592530E+00  0.88897317280E-01  0.10100047314E+01  0.93800000000E+00 0.  1.
         22    1    1    2    0    0  0.24756199444E+00 -0.23627518852E+00  0.36650661040E+01  0.36810083473E+01  0.00000000000E+00 0. -1.
</event>
<event>
 5    1  0.3368139E+002  0.1599467E+01  0.7818608E-02  0.3353942E+00
         11   -1    0    0    0    0  0.00000000000E+00  0.00000000000E+00  0.39999999674E+01  0.40000000000E+01  0.51100000000E-03 0.  1.
    9000002   -1    0    0    0    0 -0.00000000000E+00 -0.00000000000E+00  0.00000000000E+00  0.93800000000E+00  0.93800000000E+00 0.  1.
         11    1    1    2    0    0  0.24190953535E-01 -0.22272472184E+00  0.18560058170E+01  0.18694783651E+01  0.51100000000E-03 0.  1.
    9000002    1    1    2    0    0 -0.70406234401E-01  0.43378242762E+00  0.13114598089E+00  0.10441108661E+01  0.93800000000E+00 0.  1.
         22    1    1    2    0    0  0.46215280867E-01 -0.21105770578E+00  0.20128481695E+01  0.20244107688E+01  0.00000000000E+00 0. -1.
</event>
<event>
 5    1  0.3368139E+002  0.1599677E+01  0.7818608E-02  0.3353714E+00
         11   -1    0    0    0    0  0.00000000000E+00  0.00000000000E+00  0.39999999674E+01  0.40000000000E+01  0.51100000000E-03 0. -1.
    9000002   -1    0    0    0    0 -0.00000000000E+00 -0.00000000000E+00  0.00000000000E+00  0.93800000000E+00  0.93800000000E+00 0.  1.
         11    1    1    2    0    0 -0.16511403125E+00 -0.58791327021E-01  0.10032183639E+01  0.10184136734E+01  0.51100000000E-03 0.  1.
    9000002    1    1    2    0    0  0.60893600731E+00  0.21701597884E+00  0.29464006671E+00  0.11766714771E+01  0.93800000000E+00 0.  1.
         22    1    1    2    0    0 -0.44382197606E+00 -0.15822465181E+00  0.27021415368E+01  0.27429148495E+01  0.00000000000E+00 0. -1.
</event>
<event>
 5    1  0.3368139E+002  0.1565320E+01  0.7818608E-02  0.3391886E+00
         11   -1    0    0    0    0  0.00000000000E+00  0.00000000000E+00  0.39999999674E+01  0.40000000000E+01  0.51100000000E-03 0. -1.
    9000002   -1    0    0    0    0 -0.00000000000E+00 -0.00000000000E+00  0.00000000000E+00  0.93800000000E+00  0.93800000000E+00 0. -1.
         11    1    1    2    0    0  0.31095390113E-01 -0.11587440894E+00  0.30957730250E+01  0.30980969458E+01  0.51100000000E-03 0. -1.
    9000002    1    1    2    0    0 -0.26656919604E+00  0.98194462900E-01  0.80928511019E-01  0.98340973796E+00  0.93800000000E+00 0. -1.
         22    1    1    2    0    0  0.23547380592E+00  0.17679946037E-01  0.82329843131E+00  0.85649331624E+00  0.00000000000E+00 0.  1.
</event>
<event>
 5    1  0.3368139E+002  0.1599662E+01  0.7818608E-02  0.3353731E+00
         11   -1    0    0    0    0  0.00000000000E+00  0.00000000000E+00  0.39999999674E+01  0.40000000000E+01  0.51100000000E-03 0.  1.
    9000002   -1    0    0    0    0 -0.00000000000E+00 -0.00000000000E+00  0.00000000000E+00  0.93800000000E+00  0.93800000000E+00 0.  1.
         11    1    1    2    0    0 -0.66928539453E-02  0.21840522013E-02  0.72448108026E-01  0.72791166054E-01  0.51100000000E-03 0. -1.
    9000002    1    1    2    0    0  0.35280271975E+00 -0.55288080547E-01  0.85588106973E-01  0.10073211280E+01  0.93800000000E+00 0.  1.
         22    1    1    2    0    0 -0.34610986580E+00  0.53104028346E-01  0.38419637524E+01  0.38578877059E+01  0.00000000000E+00 0.  1.
</event>
<event>
 5    1  0.3368139E+002  0.1599528E+01  0.7818608E-02  0.3353876E+00
         11   -1    0    0    0    0  0.00000000000E+00  0.00000000000E+00  0.39999999674E+01  0.40000000000E+01  0.51100000000E-03 0.  1.
    9000002   -1    0    0    0    0 -0.00000000000E+00 -0.00000000000E+00  0.00000000000E+00  0.93800000000E+00  0.93800000000E+00 0.  1.
         11    1    1    2    0    0  0.96292696114E-02 -0.13407056734E+00  0.15416114484E+01  0.15474604224E+01  0.51100000000E-03 0.  1.
    9000002    1    1    2    0    0 -0.57480134068E-01  0.35571135354E+00  0.87276912867E-01  0.10086108230E+01  0.93800000000E+00 0.  1.
         22    1    1    2    0    0  0.47850864457E-01 -0.22164078619E+00  0.23711116061E+01  0.23819287546E+01  0.00000000000E+00 0.  1.
</event>
<event>
 5    1  0.3368139E+002  0.1596190E+01  0.7818608E-02  0.3357509E+00
         11   -1    0    0    0    0  0.00000000000E+00  0.00000000000E+00  0.39999999674E+01  0.40000000000E+01  0.51100000000E-03 0.  1.
    9000002   -1    0    0    0    0 -0.00000000000E+00 -0.00000000000E+00  0.00000000000E+00  0.93800000000E+00  0.93800000000E+00 0.  1.
         11    1    1    2    0    0  0.64513014983E-01 -0.41839859029E-01  0.55225397800E+00  0.55758158169E+00  0.51100000000E-03 0.  1.
    9000002    1    1    2    0    0 -0.28508396138E+00 -0.75059787741E-02  0.56896205930E-01  0.98204398221E+00  0.93800000000E+00 0.  1.
         22    1    1    2    0    0  0.22057094640E+00  0.49345837803E-01  0.33908497834E+01  0.33983744361E+01  0.00000000000E+00 0.  1.
</event>
<event>
 5    1  0.3368139E+002  0.1599672E+01  0.7818608E-02  0.3353719E+00
         11   -1    0    0    0    0  0.00000000000E+00  0.00000000000E+00  0.39999999674E+01  0.40000000000E+01  0.51100000000E-03 0.  1.
    9000002   -1    0    0    0    0 -0.00000000000E+00 -0.00000000000E+00  0.00000000000E+00  0.93800000000E+00  0.93800000000E+00 0.  1.
         11    1    1    2    0    0  0.20344791536E+00 -0.10502574322E+00  0.19146506874E+01  0.19282917251E+01  0.51100000000E-03 0.  1.
    9000002    1    1    2    0    0 -0.40491736851E+00  0.21044759033E+00  0.14157494501E+00  0.10526793095E+01  0.93800000000E+00 0.  1.
         22    1    1    2    0    0  0.20146945315E+00 -0.10542184711E+00  0.19437743349E+01  0.19570289654E+01  0.00000000000E+00 0.  1.
</event>
<event>
 5    1  0.3368139E+002  0.1599598E+01  0.7818608E-02  0.3353799E+00
         11   -1    0    0    0    0  0.00000000000E+00  0.00000000000E+00  0.39999999674E+01  0.40000000000E+01  0.51100000000E-03 0. -1.
    9000002   -1    0    0    0    0 -0.00000000000E+00 -0.00000000000E+00  0.00000000000E+00  0.93800000000E+00  0.93800000000E+00 0. -1.
         11    1    1    2    0    0 -0.96181798176E-01  0.35249963725E+00  0.18000018299E+01  0.18367127650E+01  0.51100000000E-03 0. -1.
    9000002    1    1    2    0    0  0.17490886943E+00 -0.69941459421E+00  0.37371091006E+00  0.12406763202E+01  0.93800000000E+00 0. -1.
         22    1    1    2    0    0 -0.78727071258E-01  0.34691495695E+00  0.18262872274E+01  0.18606109148E+01  0.00000000000E+00 0. -1.
</event>
<event>
 5    1  0.3368139E+002  0.1599334E+01  0.7818608E-02  0.3354086E+00
         11   -1    0    0    0    0  0.00000000000E+00  0.00000000000E+00  0.39999999674E+01  0.40000000000E+01  0.51100000000E-03 0. -1.
    9000002   -1    0    0    0    0 -0.00000000000E+00 -0.00000000000E+00  0.00000000000E+00  0.93800000000E+00  0.93800000000E+00 0.  1.
         11    1    1    2    0    0 -0.94824043596E-01 -0.12396407520E-01  0.90015649371E+00  0.90522220722E+00  0.51100000000E-03 0. -1.
    9000002    1    1    2    0    0  0.33938993970E+00  0.90299528375E-01  0.82987488523E-01  0.10050226163E+01  0.93800000000E+00 0.  1.
         22    1    1    2    0    0 -0.24456589610E+00 -0.77903120856E-01  0.30168559851E+01  0.30277551765E+01  0.00000000000E+00 0.  1.
</event>
<event>
 5    1  0.3368139E+002  0.1599674E+01  0.7818608E-02  0.3353717E+00
         11   -1    0    0    0    0  0.00000000000E+00  0.00000000000E+00  0.39999999674E+01  0.40000000000E+01  0.51100000000E-03 0.  1.
    9000002   -1    0    0    0    0 -0.00000000000E+00 -0.00000000000E+00  0.00000000000E+00  0.93800000000E+00  0.93800000000E+00 0. -1.
         11    1    1    2    0    0  0.12449283020E+00 -0.32705896843E-01  0.11325522632E+01  0.11398434237E+01  0.51100000000E-03 0.  1.
    9000002    1    1    2    0    0 -0.42516423194E+00  0.11806840148E+00  0.13207443951E+00  0.10449844157E+01  0.93800000000E+00 0. -1.
         22    1    1    2    0    0  0.30067140173E+00 -0.85362504633E-01  0.27353732646E+01  0.27531721606E+01  0.00000000000E+00 0.  1.
</event>
<event>
 5    1  0.3368139E+002  0.1594867E+01  0.7818608E-02  0.3358954E+00
         11   -1    0    0    0    0  0.00000000000E+00  0.00000000000E+00  0.39999999674E+01  0.40000000000E+01  0.51100000000E-03 0.  1.
    9000002   -1    0    0    0    0 -0.00000000000E+00 -0.00000000000E+00  0.00000000000E+00  0.93800000000E+00  0.93800000000E+00 0. -1.
         11    1    1    2    0    0 -0.16314642626E+00  0.13189509796E+00  0.11950353762E+01  0.12133107124E+01  0.51100000000E-03 0.  1.
    9000002    1    1    2    0    0  0.36155708084E+00 -0.23843749549E+00  0.13120032166E+00  0.10414573858E+01  0.93800000000E+00 0. -1.
         22    1    1    2    0    0 -0.19841065458E+00  0.10654239753E+00  0.26737642695E+01  0.26832319018E+01  0.00000000000E+00 0.  1.
</event>
<event>
 5    1  0.3368139E+002  0.1599674E+01  0.7818608E-02  0.3353717E+00
         11   -1    0    0    0    0  0.00000000000E+00  0.00000000000E+00  0.39999999674E+01  0.40000000000E+01  0.51100000000E-03 0. -1.
    9000002   -1    0    0    0    0 -0.00000000000E+00 -0.00000000000E+00  0.00000000000E+00  0.93800000000E+00  0.93800000000E+00 0.  1.
         11    1    1    2    0    0  0.21876547012E+00  0.20147214545E-01  0.19958425696E+01  0.20078974239E+01  0.51100000000E-03 0. -1.
    9000002    1    1    2    0    0 -0.42369457697E+00 -0.35590133115E-01  0.12235386960E+00  0.10371105156E+01  0.93800000000E+00 0.  1.
         22    1    1    2    0    0  0.20492910686E+00  0.15442918570E-01  0.18818035282E+01  0.18929920606E+01  0.00000000000E+00 0. -1.
</event>
<event>
 5    1  0.3368139E+002  0.1587775E+01  0.7818608E-02  0.3366740E+00
         11   -1    0    0    0    0  0.00000000000E+00  0.00000000000E+00  0.39999999674E+01  0.40000000000E+01  0.51100000000E-03 0. -1.
    9000002   -1    0    0    0    0 -0.00000000000E+00 -0.00000000000E+00  0.00000000000E+00  0.93800000000E+00  0.93800000000E+00 0.  1.
         11    1    1    2    0    0 -0.45151722683E-01 -0.77006469012E-01  0.11392994382E+01  0.11427913831E+01  0.51100000000E-03 0. -1.
    9000002    1    1    2    0    0  0.25255350382E+00 -0.13385688650E+00  0.63740051352E-01  0.98265341423E+00  0.93800000000E+00 0.  1.
         22    1    1    2    0    0 -0.20740178114E+00  0.21086335551E+00  0.27969604778E+01  0.28125552027E+01  0.00000000000E+00 0. -1.
</event>
<event>
 5    1  0.3368139E+002  0.1599589E+01  0.7818608E-02  0.3353810E+00
         11   -1    0    0    0    0  0.00000000000E+00  0.00000000000E+00  0.39999999674E+01  0.40000000000E+01  0.51100000000E-03 0.  1.
    9000002   -1    0    0    0    0 -0.00000000000E+00 -0.00000000000E+00  0.00000000000E+00  0.93800000000E+00  0.93800000000E+00 0.  1.
         11    1    1    2    0    0 -0.16907429626E-01 -0.23845954348E-01  0.39435282094E+00  0.39543507586E+00  0.51100000000E-03 0.  1.
    9000002    1    1    2    0    0  0.10834278274E+00  0.21075878675E+00  0.37335735567E-01  0.96819181050E+00  0.93800000000E+00 0.  1.
         22    1    1    2    0    0 -0.91435353116E-01 -0.18691283240E+00  0.35683114108E+01  0.35743731136E+01  0.00000000000E+00 0.  1.
</event>
<event>
 5    1  0.3368139E+002  0.1599672E+01  0.7818608E-02  0.3353720E+00
         11   -1    0    0    0    0  0.00000000000E+00  0.00000000000E+00  0.39999999674E+01  0.40000000000E+01  0.51100000000E-03 0. -1.
    9000002   -1    0    0    0    0 -0.00000000000E+00 -0.00000000000E+00  0.00000000000E+00  0.93800000000E+00  0.93800000000E+00 0. -1.
         11    1    1    2    0    0  0.10345304550E-03  0.50850510907E-01  0.66930438070E+00  0.67123349165E+00  0.51100000000E-03 0. -1.
    9000002    1    1    2    0    0 -0.29592482235E-02 -0.28777697385E+00  0.55195890490E-01  0.98270795772E+00  0.93800000000E+00 0. -1.
         22    1    1    2    0    0  0.28557951780E-02  0.23692646295E+00  0.32754996962E+01  0.32840585506E+01  0.00000000000E+00 0. -1.
</event>
<event>
 5    1  0.3368139E+002  0.1589781E+01  0.7818608E-02  0.3364530E+00
         11   -1    0    0    0    0  0.00000000000E+00  0.00000000000E+00  0.39999999674E+01  0.40000000000E+01  0.51100000000E-03 0.  1.
    9000002   -1    0    0    0    0 -0.00000000000E+00 -0.00000000000E+00  0.00000000000E+00  0.93800000000E+00  0.93800000000E+00 0. -1.
         11    1    1    2    0    0 -0.18046446564E-02  0.31462635736E+00  0.21383503648E+01  0.21613735321E+01  0.51100000000E-03 0.  1.
    9000002    1    1    2    0    0  0.19949871528E+00 -0.48150932343E+00  0.19578470199E+00  0.10907917379E+01  0.93800000000E+00 0. -1.
         22    1    1    2    0    0 -0.19769407063E+00  0.16688296607E+00  0.16658649005E+01  0.16858347300E+01  0.00000000000E+00 0.  1.
</event>
<event>
 5    1  0.3368139E+002  0.1599667E+01  0.7818608E-02  0.3353725E+00
         11   -1    0    0    0    0  0.00000000000E+00  0.00000000000E+00  0.39999999674E+01  0.40000000000E+01  0.51100000000E-03 0.  1.
    9000002   -1    0    0    0    0 -0.00000000000E+00 -0.00000000000E+00  0.00000000000E+00  0.93800000000E+00  0.93800000000E+00 0.  1.
         11    1    1    2    0    0  0.43084450486E-01  0.81729790418E-01  0.97667291188E+00  0.98103326470E+00  0.51100000000E-03 0.  1.
    9000002    1    1    2    0    0 -0.16203913125E+00 -0.33538199006E+00  0.93272729955E-01  0.10135489931E+01  0.93800000000E+00 0.  1.
         22    1    1    2    0    0  0.11895468077E+00  0.25365219964E+00  0.29300543255E+01  0.29434177422E+01  0.00000000000E+00 0.  1.
</event>
<event>
 5    1  0.3368139E+002  0.1541416E+01  0.7818608E-02  0.3419511E+00
         11   -1    0    0    0    0  0.00000000000E+00  0.00000000000E+00  0.39999999674E+01  0.40000000000E+01  0.51100000000E-03 0.  1.
    9000002   -1    0    0    0    0 -0.00000000000E+00 -0.00000000000E+00  0.00000000000E+00  0.93800000000E+00  0.93800000000E+00 0. -1.
         11    1    1    2    0    0 -0.23978712841E+00  0.11691996795E-01  0.19686812597E+01  0.19832651697E+01  0.51100000000E-03 0.  1.
    9000002    1    1    2    0    0 -0.44678779517E-01  0.22606000623E+00  0.80764751488E-01  0.96926067951E+00  0.93800000000E+00 0. -1.
         22    1    1    2    0    0  0.28446590793E+00 -0.23775200303E+00  0.19505539562E+01  0.19854741508E+01  0.00000000000E+00 0.  1.
</event>
<event>
 5    1  0.3368139E+002  0.1599669E+01  0.7818608E-02  0.3353723E+00
         11   -1    0    0    0    0  0.00000000000E+00  0.00000000000E+00  0.39999999674E+01  0.40000000000E+01  0.51100000000E-03 0. -1.
    9000002   -1    0    0    0    0 -0.00000000000E+00 -0.00000000000E+00  0.00000000000E+00  0.93800000000E+00  0.93800000000E+00 0. -1.
         11    1    1    2    0    0 -0.63782007765E-02  0.33904520506E-01  0.47567133853E+00  0.47692104312E+00  0.51100000000E-03 0. -1.
    9000002    1    1    2    0    0  0.61053312369E-01 -0.26549417848E+00  0.49394938792E-01  0.97800742622E+00  0.93800000000E+00 0. -1.
         22    1    1    2    0    0 -0.54675111592E-01  0.23158965798E+00  0.34749336900E+01  0.34830715307E+01  0.00000000000E+00 0. -1.
</event>
<event>
 5    1  0.3368139E+002  0.1596910E+01  0.7818608E-02  0.3356724E+00
         11   -1    0    0    0    0  0.00000000000E+00  0.00000000000E+00  0.39999999674E+01  0.40000000000E+01  0.51100000000E-03 0. -1.
    9000002   -1    0    0    0    0 -0.00000000000E+00 -0.00000000000E+00  0.00000000000E+00  0.93800000000E+00  0.93800000000E+00 0. -1.
         11    1    1    2    0    0 -0.73329568369E-01  0.83997866383E-01  0.74517203506E+00  0.75346830730E+00  0.51100000000E-03 0. -1.
    9000002    1    1    2    0    0  0.30335842115E+00 -0.19179089731E+00  0.88697828971E-01  0.10082268519E+01  0.93800000000E+00 0. -1.
         22    1    1    2    0    0 -0.23002885278E+00  0.10779303093E+00  0.31661301033E+01  0.31763048408E+01  0.00000000000E+00 0. -1.
</event>
<event>
 5    1  0.3368139E+002  0.1599639E+01  0.7818608E-02  0.3353756E+00
         11   -1    0    0    0    0  0.00000000000E+00  0.00000000000E+00  0.39999999674E+01  0.40000000000E+01  0.51100000000E-03 0.  1.
    9000002   -1    0    0    0    0 -0.00000000000E+00 -0.00000000000E+00  0.00000000000E+00  0.93800000000E+00  0.93800000000E+00 0. -1.
         11    1    1    2    0    0 -0.10109832218E+00 -0.49566091035E-01  0.11100553905E+01  0.11157512712E+01  0.51100000000E-03 0.  1.
    9000002    1    1    2    0    0  0.33637270242E+00  0.18847930733E+00  0.10013162441E+00  0.10190885077E+01  0.93800000000E+00 0. -1.
         22    1    1    2    0    0 -0.23527438024E+00 -0.13891321629E+00  0.27898129525E+01  0.28031602212E+01  0.00000000000E+00 0.  1.
</event>
<event>
 5    1  0.3368139E+002  0.1557675E+01  0.7818608E-02  0.3400623E+00
         11   -1    0    0    0    0  0.00000000000E+00  0.00000000000E+00  0.39999999674E+01  0.40000000000E+01  0.51100000000E-03 0. -1.
    9000002   -1    0    0    0    0 -0.00000000000E+00 -0.00000000000E+00  0.00000000000E+00  0.93800000000E+00  0.93800000000E+00 0.  1.
         11    1    1    2    0    0  0.32440260761E+00  0.37952234729E-01  0.16125991835E+01  0.16453430681E+01  0.51100000000E-03 0. -1.
    9000002    1    1    2    0    0 -0.21802946201E+00 -0.25244579751E+00  0.10875520720E+00  0.10014676341E+01  0.93800000000E+00 0.  1.
         22    1    1    2    0    0 -0.10637314560E+00  0.21449356278E+00  0.22786455766E+01  0.22911892978E+01  0.00000000000E+00 0. -1.
</event>
<event>
 5    1  0.3368139E+002  0.1599649E+01  0.7818608E-02  0.3353744E+00
         11   -1    0    0    0    0  0.00000000000E+00  0.00000000000E+00  0.39999999674E+01  0.40000000000E+01  0.51100000000E-03 0.  1.
    9000002   -1    0    0    0    0 -0.00000000000E+00 -0.00000000000E+00  0.00000000000E+00  0.93800000000E+00  0.93800000000E+00 0. -1.
         11    1    1    2    0    0 -0.35840481896E-01 -0.96339344123E-02  0.36272468234E+00  0.36461871747E+00  0.51100000000E-03 0.  1.
    9000002    1    1    2    0    0  0.42135026312E+00  0.94304894388E-01  0.12631211174E+00  0.10403019787E+01  0.93800000000E+00 0. -1.
         22    1    1    2    0    0 -0.38550978122E+00 -0.84670959975E-01  0.35109631733E+01  0.35330793038E+01  0.00000000000E+00 0.  1.
</event>
<event>
 5    1  0.3368139E+002  0.1596296E+01  0.7818608E-02  0.3357394E+00
         11   -1    0    0    0    0  0.00000000000E+00  0.00000000000E+00  0.39999999674E+01  0.40000000000E+01  0.51100000000E-03 0.  1.
    9000002   -1    0    0    0    0 -0.00000000000E+00 -0.00000000000E+00  0.00000000000E+00  0.93800000000E+00  0.93800000000E+00 0. -1.
         11    1    1    2    0    0  0.10141691632E-02 -0.96403254132E-02  0.22679707759E-01  0.24669711757E-01  0.51100000000E-03 0.  1.
    9000002    1    1    2    0    0 -0.70394805646E-01 -0.18439128512E+00  0.28321245040E-01  0.95895863707E+00  0.93800000000E+00 0. -1.
         22    1    1    2    0    0  0.69380636483E-01  0.19403161053E+00  0.39489990146E+01  0.39543716512E+01  0.00000000000E+00 0.  1.
</event>
<event>
 5    1  0.3368139E+002  0.1596913E+01  0.7818608E-02  0.3356721E+00
         11   -1    0    0    0    0  0.00000000000E+00  0.00000000000E+00  0.39999999674E+01  0.40000000000E+01  0.51100000000E-03 0.  1.
    9000002   -1    0    0    0    0 -0.00000000000E+00 -0.00000000000E+00  0.00000000000E+00  0.93800000000E+00  0.93800000000E+00 0. -1.
         11    1    1    2    0    0  0.75588455521E-03 -0.17599654505E-01  0.18163263456E+00  0.18248560014E+00  0.51100000000E-03 0.  1.
    9000002    1    1    2    0    0 -0.25862495893E+00 -0.14025549480E+00  0.59873758481E-01  0.98487935310E+00  0.93800000000E+00 0. -1.
         22    1    1    2    0    0  0.25786907438E+00  0.15785514930E+00  0.37584935743E+01  0.37706350468E+01  0.00000000000E+00 0.  1.
</event>
<event>
 5    1  0.3368139E+002  0.1565551E+01  0.7818608E-02  0.3391623E+00
         11   -1    0    0    0    0  0.00000000000E+00  0.00000000000E+00  0.39999999674E+01  0.40000000000E+01  0.51100000000E-03 0.  1.
    9000002   -1    0    0    0    0 -0.00000000000E+00 -0.00000000000E+00  0.00000000000E+00  0.93800000000E+00  0.93800000000E+00 0.  1.
         11    1    1    2    0    0 -0.17686716237E+00  0.24204406434E-02  0.70516638665E+00  0.72701289234E+00  0.51100000000E-03 0.  1.
    9000002    1    1    2    0    0  0.45503311767E-01 -0.16817085652E+00  0.45866704405E-01  0.95514383364E+00  0.93800000000E+00 0.  1.
         22    1    1    2    0    0  0.13136385060E+00  0.16575041588E+00  0.32489668763E+01  0.32558432740E+01  0.00000000000E+00 0.  1.
</event>
<event>
 5    1  0.3368139E+002  0.1547194E+01  0.7818608E-02  0.3412750E+00
         11   -1    0    0    0    0  0.00000000000E+00  0.00000000000E+00  0.39999999674E+01  0.40000000000E+01  0.51100000000E-03 0.  1.
    9000002   -1    0    0    0    0 -0.00000000000E+00 -0.00000000000E+00  0.00000000000E+00  0.93800000000E+00  0.93800000000E+00 0. -1.
         11    1    1    2    0    0  0.14347657807E+00  0.95342201995E-01  0.86798639207E+00  0.88491598578E+00  0.51100000000E-03 0.  1.
    9000002    1    1    2    0    0  0.22665229545E+00  0.12157908725E+00  0.85347555686E-01  0.97636107192E+00  0.93800000000E+00 0. -1.
         22    1    1    2    0    0 -0.37012887352E+00 -0.21692128925E+00  0.30466660196E+01  0.30767229423E+01  0.00000000000E+00 0.  1.
</event>
<event>
 5    1  0.3368139E+002  0.1599672E+01  0.7818608E-02  0.3353719E+00
         11   -1    0    0    0    0  0.00000000000E+00  0.00000000000E+00  0.39999999674E+01  0.40000000000E+01  0.51100000000E-03 0.  1.
    9000002   -1    0    0    0    0 -0.00000000000E+00 -0.00000000000E+00  0.00000000000E+00  0.93800000000E+00  0.93800000000E+00 0.  1.
         11    1    1    2    0    0 -0.43420624669E-01  0.34384016750E-01  0.69681027519E+00  0.69900817734E+00  0.51100000000E-03 0.  1.
    9000002    1    1    2    0    0  0.24560878435E+00 -0.20540605420E+00  0.68526450107E-01  0.99350651554E+00  0.93800000000E+00 0.  1.
         22    1    1    2    0    0 -0.20218815968E+00  0.17102203745E+00  0.32346632421E+01  0.32454853071E+01  0.00000000000E+00 0.  1.
</event>
<event>
 5    1  0.3368139E+002  0.1599675E+01  0.7818608E-02  0.3353716E+00
         11   -1    0    0    0    0  0.00000000000E+00  0.00000000000E+00  0.39999999674E+01  0.40000000000E+01  0.51100000000E-03 0.  1.
    9000002   -1    0    0    0    0 -0.00000000000E+00 -0.00000000000E+00  0.00000000000E+00  0.93800000000E+00  0.93800000000E+00 0.  1.
         11    1    1    2    0    0  0.18977357276E+00  0.40167205589E+00  0.18666782285E+01  0.19188127369E+01  0.51100000000E-03 0.  1.
    9000002    1    1    2    0    0 -0.35417974876E+00 -0.74796484962E+00  0.50940918971E+00  0.13506429703E+01  0.93800000000E+00 0.  1.
         22    1    1    2    0    0  0.16440617600E+00  0.34629279373E+00  0.16239125492E+01  0.16685442928E+01  0.00000000000E+00 0.  1.
</event>
<event>
 5    1  0.3368139E+002  0.1599675E+01  0.7818608E-02  0.3353716E+00
         11   -1    0    0    0    0  0.00000000000E+00  0.00000000000E+00  0.39999999674E+01  0.40000000000E+01  0.51100000000E-03 0. -1.
    9000002   -1    0    0    0    0 -0.00000000000E+00 -0.00000000000E+00  0.00000000000E+00  0.93800000000E+00  0.93800000000E+00 0.  1.
         11    1    1    2    0    0  0.10006453178E+00 -0.13132652006E+00  0.14767075823E+01  0.14859088499E+01  0.51100000000E-03 0. -1.
    9000002    1    1    2    0    0 -0.26076197203E+00  0.34079829053E+00  0.12469281047E+00  0.10390055716E+01  0.93800000000E+00 0.  1.
         22    1    1    2    0    0  0.16069744025E+00 -0.20947177048E+00  0.23985995745E+01  0.24130855785E+01  0.00000000000E+00 0. -1.
</event>
<event>
 5    1  0.3368139E+002  0.1587213E+01  0.7818608E-02  0.3367360E+00
         11   -1    0    0    0    0  0.00000000000E+00  0.00000000000E+00  0.39999999674E+01  0.40000000000E+01  0.51100000000E-03 0. -1.
    9000002   -1    0    0    0    0 -0.00000000000E+00 -0.00000000000E+00  0.00000000000E+00  0.93800000000E+00  0.93800000000E+00 0. -1.
         11    1    1    2    0    0 -0.10212507739E+00  0.58036310743E-01  0.30073726741E+00  0.32286360886E+00  0.51100000000E-03 0. -1.
    9000002    1    1    2    0    0  0.60987653739E+00 -0.56447019103E-01  0.27511348830E+00  0.11535454427E+01  0.93800000000E+00 0. -1.
         22    1    1    2    0    0 -0.50775146000E+00 -0.15892916400E-02  0.34241492117E+01  0.34615909485E+01  0.00000000000E+00 0. -1.
</event>
<event>
 5    1  0.3368139E+002  0.1598457E+01  0.7818608E-02  0.3355040E+00
         11   -1    0    0    0    0  0.00000000000E+00  0.00000000000E+00  0.39999999674E+01  0.40000000000E+01  0.51100000000E-03 0. -1.
    9000002   -1    0    0    0    0 -0.00000000000E+00 -0.00000000000E+00  0.00000000000E+00  0.93800000000E+00  0.93800000000E+00 0. -1.
         11    1    1    2    0    0  0.22748389730E+00  0.61182973645E-01  0.91026678445E+00  0.94025430591E+00  0.51100000000E-03 0. -1.
    9000002    1    1    2    0    0 -0.77813096188E+00 -0.13849841384E+00  0.46021875043E+00  0.13100820214E+01  0.93800000000E+00 0. -1.
         22    1    1    2    0    0  0.55064706458E+00  0.77315440192E-01  0.26295144325E+01  0.26876636727E+01  0.00000000000E+00 0. -1.
</event>
<event>
 5    1  0.3368139E+002  0.1598126E+01  0.7818608E-02  0.3355400E+00
         11   -1    0    0    0    0  0.00000000000E+00  0.00000000000E+00  0.39999999674E+01  0.40000000000E+01  0.51100000000E-03 0.  1.
    9000002   -1    0    0    0    0 -0.00000000000E+00 -0.00000000000E+00  0.00000000000E+00  0.93800000000E+00  0.93800000000E+00 0.  1.
         11    1    1    2    0    0  0.49916028639E-01  0.92720101602E-01  0.40894828264E+00  0.42228851056E+00  0.51100000000E-03 0.  1.
    9000002    1    1    2    0    0 -0.43963433920E+00 -0.55437127038E+00  0.36025987020E+00  0.12289170158E+01  0.93800000000E+00 0.  1.
         22    1    1    2    0    0  0.38971831057E+00  0.46165116878E+00  0.32307918145E+01  0.32867944736E+01  0.00000000000E+00 0.  1.
</event>
<event>
 5    1  0.3368139E+002  0.1599640E+01  0.7818608E-02  0.3353755E+00
         11   -1    0    0    0    0  0.00000000000E+00  0.00000000000E+00  0.39999999674E+01  0.40000000000E+01  0.51100000000E-03 0. -1.
    9000002   -1    0    0    0    0 -0.00000000000E+00 -0.00000000000E+00  0.00000000000E+00  0.93800000000E+00  0.93800000000E+00 0.  1.
         11    1    1    2    0    0  0.80363223739E-02 -0.51442538559E-03  0.19870425414E+00  0.19886801866E+00  0.51100000000E-03 0. -1.
    9000002    1    1    2    0    0 -0.22117653462E+00  0.29014267340E-01  0.33019757037E-01  0.96472544878E+00  0.93800000000E+00 0.  1.
         22    1    1    2    0    0  0.21314021225E+00 -0.28499841954E-01  0.37682759562E+01  0.37744065326E+01  0.00000000000E+00 0. -1.
</event>
<event>
 5    1  0.3368139E+002  0.1579340E+01  0.7818608E-02  0.3376097E+00
         11   -1    0    0    0    0  0.00000000000E+00  0.00000000000E+00  0.39999999674E+01  0.40000000000E+01  0.51100000000E-03 0.  1.
    9000002   -1    0    0    0    0 -0.00000000000E+00 -0.00000000000E+00  0.00000000000E+00  0.93800000000E+00  0.93800000000E+00 0.  1.
         11    1    1    2    0    0 -0.18794931219E-01  0.11504443140E+00  0.53631160218E+00  0.54883409733E+00  0.51100000000E-03 0.  1.
    9000002    1    1    2    0    0  0.27028775366E+00  0.12249369447E-01  0.64564876861E-01  0.97837525528E+00  0.93800000000E+00 0.  1.
         22    1    1    2    0    0 -0.25149282244E+00 -0.12729380084E+00  0.33991234883E+01  0.34107906474E+01  0.00000000000E+00 0.  1.
</event>
<event>
 5    1  0.3368139E+002  0.1599674E+01  0.7818608E-02  0.3353718E+00
         11   -1    0    0    0    0  0.00000000000E+00  0.00000000000E+00  0.39999999674E+01  0.40000000000E+01  0.51100000000E-03 0.  1.
    9000002   -1    0    0    0    0 -0.00000000000E+00 -0.00000000000E+00  0.00000000000E+00  0.93800000000E+00  0.93800000000E+00 0.  1.
         11    1    1    2    0    0  0.14136749349E+00 -0.38521147598E-01  0.12576143022E+01  0.12661211005E+01  0.51100000000E-03 0.  1.
    9000002    1    1    2    0    0 -0.43268459778E+00  0.11222648408E+00  0.13565147350E+00  0.10478817047E+01  0.93800000000E+00 0.  1.
         22    1    1    2    0    0  0.29131710429E+00 -0.73705336482E-01  0.26067341917E+01  0.26239971948E+01  0.00000000000E+00 0.  1.
</event>
<event>
 5    1  0.3368139E+002  0.1541338E+01  0.7818608E-02  0.3419602E+00
         11   -1    0    0    0    0  0.00000000000E+00  0.00000000000E+00  0.39999999674E+01  0.40000000000E+01  0.51100000000E-03 0. -1.
    9000002   -1    0    0    0    0 -0.00000000000E+00 -0.00000000000E+00  0.00000000000E+00  0.93800000000E+00  0.93800000000E+00 0.  1.
         11    1    1    2    0    0 -0.11724503392E+00 -0.84793298727E-02  0.15370015801E+00  0.19350012069E+00  0.51100000000E-03 0. -1.
    9000002    1    1    2    0    0 -0.38856436934E-01  0.15006127468E+00  0.60292658353E-01  0.95263183523E+00  0.93800000000E+00 0.  1.
         22    1    1    2    0    0  0.15610147085E+00 -0.14158194481E+00  0.37860071510E+01  0.37918680441E+01  0.00000000000E+00 0. -1.
</event>
<event>
 5    1  0.3368139E+002  0.1589578E+01  0.7818608E-02  0.3364753E+00
         11   -1    0    0    0    0  0.00000000000E+00  0.00000000000E+00  0.39999999674E+01  0.40000000000E+01  0.51100000000E-03 0.  1.
    9000002   -1    0    0    0    0 -0.00000000000E+00 -0.00000000000E+00  0.00000000000E+00  0.93800000000E+00  0.93800000000E+00 0.  1.
         11    1    1    2    0    0  0.11655075431E-01  0.77690112012E-02  0.12832321675E-01  0.19003365989E-01  0.51100000000E-03 0.  1.
    9000002    1    1    2    0    0  0.25378943981E+00  0.21873586820E+00  0.83249608611E-01  0.99951436064E+00  0.93800000000E+00 0.  1.
         22    1    1    2    0    0 -0.26544451524E+00 -0.22650487940E+00  0.39039180371E+01  0.39194822734E+01  0.00000000000E+00 0.  1.
</event>
<event>
 5    1  0.3368139E+002  0.1572245E+01  0.7818608E-02  0.3384050E+00
         11   -1    0    0    0    0  0.00000000000E+00  0.00000000000E+00  0.39999999674E+01  0.40000000000E+01  0.51100000000E-03 0.  1.
    9000002   -1    0    0    0    0 -0.00000000000E+00 -0.00000000000E+00  0.00000000000E+00  0.93800000000E+00  0.93800000000E+00 0.  1.
         11    1    1    2    0    0  0.14053353903E+00 -0.23683024268E-01  0.97774417360E+00  0.98807615666E+00  0.51100000000E-03 0.  1.
    9000002    1    1    2    0    0  0.11815760833E+00 -0.14037366023E-01  0.29712970541E-01  0.94598368309E+00  0.93800000000E+00 0.  1.
         22    1    1    2    0    0 -0.25869114737E+00  0.37720390291E-01  0.29925428232E+01  0.30039401602E+01  0.00000000000E+00 0.  1.
</event>
<event>
 5    1  0.3368139E+002  0.1544146E+01  0.7818608E-02  0.3416310E+00
         11   -1    0    0    0    0  0.00000000000E+00  0.00000000000E+00  0.39999999674E+01  0.40000000000E+01  0.51100000000E-03 0.  1.
    9000002   -1    0    0    0    0 -0.00000000000E+00 -0.00000000000E+00  0.00000000000E+00  0.93800000000E+00  0.93800000000E+00 0.  1.
         11    1    1    2    0    0  0.15307748596E+00  0.19313458797E+00  0.92591298428E+00  0.95814863218E+00  0.51100000000E-03 0.  1.
    9000002    1    1    2    0    0  0.14342773968E+00 -0.16908662938E+00  0.75780682439E-01  0.96682393256E+00  0.93800000000E+00 0.  1.
         22    1    1    2    0    0 -0.29650522563E+00 -0.24047958588E-01  0.29983063006E+01  0.30130274353E+01  0.00000000000E+00 0.  1.
</event>
<event>
 5    1  0.3368139E+002  0.1599663E+01  0.7818608E-02  0.3353729E+00
         11   -1    0    0    0    0  0.00000000000E+00  0.00000000000E+00  0.39999999674E+01  0.40000000000E+01  0.51100000000E-03 0. -1.
    9000002   -1    0    0    0    0 -0.00000000000E+00 -0.00000000000E+00  0.00000000000E+00  0.93800000000E+00  0.93800000000E+00 0. -1.
         11    1    1    2    0    0 -0.14263061405E-02  0.93846220219E-02  0.77680703169E-01  0.78260195793E-01  0.51100000000E-03 0. -1.
    9000002    1    1    2    0    0  0.39361159123E-01 -0.42061543157E+00  0.12074975957E+00  0.10358045890E+01  0.93800000000E+00 0. -1.
         22    1    1    2    0    0 -0.37934852983E-01  0.41123080954E+00  0.38015695046E+01  0.38239352152E+01  0.00000000000E+00 0. -1.
</event>
<event>
 5    1  0.3368139E+002  0.1599654E+01  0.7818608E-02  0.3353739E+00
         11   -1    0    0    0    0  0.00000000000E+00  0.00000000000E+00  0.39999999674E+01  0.40000000000E+01  0.51100000000E-03 0.  1.
    9000002   -1    0    0    0    0 -0.00000000000E+00 -0.00000000000E+00  0.00000000000E+00  0.93800000000E+00  0.93800000000E+00 0. -1.
         11    1    1    2    0    0  0.22082450580E-01 -0.12907329228E+00  0.15529752036E+01  0.15584863790E+01  0.51100000000E-03 0.  1.
    9000002    1    1    2    0    0 -0.62858462701E-01  0.33823365691E+00  0.79323630009E-01  0.10022422019E+01  0.93800000000E+00 0. -1.
         22    1    1    2    0    0  0.40776012121E-01 -0.20916036463E+00  0.23677011337E+01  0.23772714191E+01  0.00000000000E+00 0.  1.
</event>
<event>
 5    1  0.3368139E+002  0.1599674E+01  0.7818608E-02  0.3353717E+00
         11   -1    0    0    0    0  0.00000000000E+00  0.00000000000E+00  0.39999999674E+01  0.40000000000E+01  0.51100000000E-03 0.  1.
    9000002   -1    0    0    0    0 -0.00000000000E+00 -0.00000000000E+00  0.00000000000E+00  0.93800000000E+00  0.93800000000E+00 0.  1.
         11    1    1    2    0    0  0.13190057707E+00 -0.18709906356E-01  0.15798821801E+01  0.15854891317E+01  0.51100000000E-03 0.  1.
    9000002    1    1    2    0    0 -0.33266841302E+00  0.46130475629E-01  0.75518136750E-01  0.99917129802E+00  0.93800000000E+00 0.  1.
         22    1    1    2    0    0  0.20076783595E+00 -0.27420569273E-01  0.23445996505E+01  0.23533395702E+01  0.00000000000E+00 0.  1.
</event>
<event>
 5    1  0.3368139E+002  0.1599654E+01  0.7818608E-02  0.3353739E+00
         11   -1    0    0    0    0  0.00000000000E+00  0.00000000000E+00  0.39999999674E+01  0.40000000000E+01  0.51100000000E-03 0.  1.
    9000002   -1    0    0    0    0 -0.00000000000E+00 -0.00000000000E+00  0.00000000000E+00  0.93800000000E+00  0.93800000000E+00 0. -1.
         11    1    1    2    0    0  0.15550427801E-01  0.32715420143E+00  0.15256984765E+01  0.15604575578E+01  0.51100000000E-03 0.  1.
    9000002    1    1    2    0    0 -0.49692238179E-01 -0.76391696183E+00  0.42689855574E+00  0.12837931375E+01  0.93800000000E+00 0. -1.
         22    1    1    2    0    0  0.34141810378E-01  0.43676276040E+00  0.20474029351E+01  0.20937493047E+01  0.00000000000E+00 0.  1.
</event>
<event>
 5    1  0.3368139E+002  0.1599642E+01  0.7818608E-02  0.3353752E+00
         11   -1    0    0    0    0  0.00000000000E+00  0.00000000000E+00  0.39999999674E+01  0.40000000000E+01  0.51100000000E-03 0.  1.
    9000002   -1    0    0    0    0 -0.00000000000E+00 -0.00000000000E+00  0.00000000000E+00  0.93800000000E+00  0.93800000000E+00 0. -1.
         11    1    1    2    0    0  0.85666806944E-01  0.12742357396E+00  0.95678954279E+00  0.96903150585E+00  0.51100000000E-03 0.  1.
    9000002    1    1    2    0    0 -0.32435220377E+00 -0.51980478757E+00  0.26267488119E+00  0.11507577775E+01  0.93800000000E+00 0. -1.
         22    1    1    2    0    0  0.23868539682E+00  0.39238121361E+00  0.27805355434E+01  0.28182107167E+01  0.00000000000E+00 0.  1.
</event>
<event>
 5    1  0.3368139E+002  0.1570730E+01  0.7818608E-02  0.3385758E+00
         11   -1    0    0    0    0  0.00000000000E+00  0.00000000000E+00  0.39999999674E+01  0.40000000000E+01  0.51100000000E-03 0. -1.
    9000002   -1    0    0    0    0 -0.00000000000E+00 -0.00000000000E+00  0.00000000000E+00  0.93800000000E+00  0.93800000000E+00 0. -1.
         11    1    1    2    0    0 -0.17503852234E+00  0.21636342914E+00  0.83167998882E+00  0.87700825692E+00  0.51100000000E-03 0. -1.
    9000002    1    1    2    0    0  0.22437643581E+00 -0.44980235523E+00  0.19966450155E+00  0.10827635277E+01  0.93800000000E+00 0. -1.
         22    1    1    2    0    0 -0.49337913473E-01  0.23343892608E+00  0.29686554770E+01  0.29782282154E+01  0.00000000000E+00 0. -1.
</event>
<event>
 5    1  0.3368139E+002  0.1599662E+01  0.7818608E-02  0.3353730E+00
         11   -1    0    0    0    0  0.00000000000E+00  0.00000000000E+00  0.39999999674E+01  0.40000000000E+01  0.51100000000E-03 0. -1.
    9000002   -1    0    0    0    0 -0.00000000000E+00 -0.00000000000E+00  0.00000000000E+00  0.93800000000E+00  0.93800000000E+00 0.  1.
         11    1    1    2    0    0  0.10984159733E-01  0.19908732255E+00  0.12112289453E+01  0.12275309498E+01  0.51100000000E-03 0. -1.
    9000002    1    1    2    0    0 -0.47248942597E-01 -0.61269337877E+00  0.26431652057E+00  0.11520993282E+01  0.93800000000E+00 0.  1.
         22    1    1    2    0    0  0.36264782863E-01  0.41360605622E+00  0.25244545015E+01  0.25583697220E+01  0.00000000000E+00 0. -1.
</event>
<event>
 5    1  0.3368139E+002  0.1599677E+01  0.7818608E-02  0.3353714E+00
         11   -1    0    0    0    0  0.00000000000E+00  0.00000000000E+00  0.39999999674E+01  0.40000000000E+01  0.51100000000E-03 0.  1.
    9000002   -1    0    0    0    0 -0.00000000000E+00 -0.00000000000E+00  0.00000000000E+00  0.93800000000E+00  0.93800000000E+00 0.  1.
         11    1    1    2    0    0  0.87772240800E-01 -0.95693232995E-01  0.13589774278E+01  0.13651670489E+01  0.51100000000E-03 0.  1.
    9000002    1    1    2    0    0 -0.25277670634E+00  0.27534918248E+00  0.93934667839E-01  0.10140911978E+01  0.93800000000E+00 0.  1.
         22    1    1    2    0    0  0.16500446554E+00 -0.17965594948E+00  0.25470878718E+01  0.25587417533E+01  0.00000000000E+00 0.  1.
</event>
<event>
 5    1  0.3368139E+002  0.1599677E+01  0.7818608E-02  0.3353714E+00
         11   -1    0    0    0    0  0.00000000000E+00  0.00000000000E+00  0.39999999674E+01  0.40000000000E+01  0.51100000000E-03 0.  1.
    9000002   -1    0    0    0    0 -0.00000000000E+00 -0.00000000000E+00  0.00000000000E+00  0.93800000000E+00  0.93800000000E+00 0.  1.
         11    1    1    2    0    0 -0.20574131336E-01 -0.88900827660E-01  0.94416199079E+00  0.94856142553E+00  0.51100000000E-03 0. -1.
    9000002    1    1    2    0    0  0.86356802338E-01  0.36791667343E+00  0.96071129816E-01  0.10158217550E+01  0.93800000000E+00 0.  1.
         22    1    1    2    0    0 -0.65782671002E-01 -0.27901584577E+00  0.29597668468E+01  0.29736168195E+01  0.00000000000E+00 0.  1.
</event>
<event>
 5    1  0.3368139E+002  0.1599642E+01  0.7818608E-02  0.3353752E+00
         11   -1    0    0    0    0  0.00000000000E+00  0.00000000000E+00  0.39999999674E+01  0.40000000000E+01  0.51100000000E-03 0. -1.
    9000002   -1    0    0    0    0 -0.00000000000E+00 -0.00000000000E+00  0.00000000000E+00  0.93800000000E+00  0.93800000000E+00 0. -1.
         11    1    1    2    0    0  0.12944286259E-01  0.46529229090E-01  0.60443694479E+00  0.60636359146E+00  0.51100000000E-03 0. -1.
    9000002    1    1    2    0    0 -0.89180716989E-01 -0.27049506228E+00  0.54069680552E-01  0.98177813652E+00  0.93800000000E+00 0. -1.
         22    1    1    2    0    0  0.76236430730E-01  0.22396583319E+00  0.33414933420E+01  0.33498582720E+01  0.00000000000E+00 0. -1.
</event>
<event>
 5    1  0.3368139E+002  0.1599675E+01  0.7818608E-02  0.3353716E+00
         11   -1    0    0    0    0  0.00000000000E+00  0.00000000000E+00  0.39999999674E+01  0.40000000000E+01  0.51100000000E-03 0. -1.
    9000002   -1    0    0    0    0 -0.00000000000E+00 -0.00000000000E+00  0.00000000000E+00  0.93800000000E+00  0.93800000000E+00 0. -1.
         11    1    1    2    0    0 -0.25476533232E+00  0.12949485673E+00  0.19374920850E+01  0.19584560584E+01  0.51100000000E-03 0. -1.
    9000002    1    1    2    0    0  0.49781626096E+00 -0.25594641987E+00  0.21682472594E+00  0.11136366379E+01  0.93800000000E+00 0. -1.
         22    1    1    2    0    0 -0.24305092864E+00  0.12645156314E+00  0.18456831565E+01  0.18659073036E+01  0.00000000000E+00 0. -1.
</event>
<event>
 5    1  0.3368139E+002  0.1531876E+01  0.7818608E-02  0.3430793E+00
         11   -1    0    0    0    0  0.00000000000E+00  0.00000000000E+00  0.39999999674E+01  0.40000000000E+01  0.51100000000E-03 0. -1.
    9000002   -1    0    0    0    0 -0.00000000000E+00 -0.00000000000E+00  0.00000000000E+00  0.93800000000E+00  0.93800000000E+00 0. -1.
         11    1    1    2    0    0 -0.51817425801E+00  0.66562014057E-02  0.19280162235E+01  0.19964457634E+01  0.51100000000E-03 0. -1.
    9000002    1    1    2    0    0  0.44732576285E+00 -0.25526173291E+00  0.24684059084E+00  0.10981954142E+01  0.93800000000E+00 0. -1.
         22    1    1    2    0    0  0.70848495165E-01  0.24860553150E+00  0.18251431530E+01  0.18433588225E+01  0.00000000000E+00 0. -1.
</event>
<event>
 5    1  0.3368139E+002  0.1599669E+01  0.7818608E-02  0.3353723E+00
         11   -1    0    0    0    0  0.00000000000E+00  0.00000000000E+00  0.39999999674E+01  0.40000000000E+01  0.51100000000E-03 0.  1.
    9000002   -1    0    0    0    0 -0.00000000000E+00 -0.00000000000E+00  0.00000000000E+00  0.93800000000E+00  0.93800000000E+00 0.  1.
         11    1    1    2    0    0 -0.25674446309E+00 -0.29086045127E+00  0.23961962639E+01  0.24274007328E+01  0.51100000000E-03 0.  1.
    9000002    1    1    2    0    0  0.40582331331E+00  0.45259583168E+00  0.25827200729E+00  0.11472070337E+01  0.93800000000E+00 0.  1.
         22    1    1    2    0    0 -0.14907885022E+00 -0.16173538040E+00  0.13455316962E+01  0.13633922335E+01  0.00000000000E+00 0.  1.
</event>
<event>
 5    1  0.3368139E+002  0.1599656E+01  0.7818608E-02  0.3353737E+00
         11   -1    0    0    0    0  0.00000000000E+00  0.00000000000E+00  0.39999999674E+01  0.40000000000E+01  0.51100000000E-03 0. -1.
    9000002   -1    0    0    0    0 -0.00000000000E+00 -0.00000000000E+00  0.00000000000E+00  0.93800000000E+00  0.93800000000E+00 0. -1.
         11    1    1    2    0    0 -0.44281584549E-02 -0.10629758546E-01  0.14476784352E+00  0.14522599627E+00  0.51100000000E-03 0. -1.
    9000002    1    1    2    0    0  0.85763740455E-01  0.24780482089E+00  0.45738393936E-01  0.97503776804E+00  0.93800000000E+00 0. -1.
         22    1    1    2    0    0 -0.81335582000E-01 -0.23717506234E+00  0.38094937299E+01  0.38177362357E+01  0.00000000000E+00 0. -1.
</event>
<event>
 5    1  0.3368139E+002  0.1598206E+01  0.7818608E-02  0.3355313E+00
         11   -1    0    0    0    0  0.00000000000E+00  0.00000000000E+00  0.39999999674E+01  0.40000000000E+01  0.51100000000E-03 0. -1.
    9000002   -1    0    0    0    0 -0.00000000000E+00 -0.00000000000E+00  0.00000000000E+00  0.93800000000E+00  0.93800000000E+00 0. -1.
         11    1    1    2    0    0  0.77112903838E-01 -0.17637657463E+00  0.21500705752E+01  0.21586706177E+01  0.51100000000E-03 0. -1.
    9000002    1    1    2    0    0 -0.12409622548E+00  0.40010354110E+00  0.11990356306E+00  0.10342647539E+01  0.93800000000E+00 0. -1.
         22    1    1    2    0    0  0.46983321639E-01 -0.22372696647E+00  0.17300258291E+01  0.17450646284E+01  0.00000000000E+00 0. -1.
</event>
<event>
 5    1  0.3368139E+002  0.1599670E+01  0.7818608E-02  0.3353722E+00
         11   -1    0    0    0    0  0.00000000000E+00  0.00000000000E+00  0.39999999674E+01  0.40000000000E+01  0.51100000000E-03 0.  1.
    9000002   -1    0    0    0    0 -0.00000000000E+00 -0.00000000000E+00  0.00000000000E+00  0.93800000000E+00  0.93800000000E+00 0. -1.
         11    1    1    2    0    0  0.16177264685E-01 -0.55623258803E-02  0.31884591345E+00  0.31930490288E+00  0.51100000000E-03 0.  1.
    9000002    1    1    2    0    0 -0.21463752099E+00  0.85216485635E-01  0.35383077539E-01  0.96665768347E+00  0.93800000000E+00 0. -1.
         22    1    1    2    0    0  0.19846025630E+00 -0.79654159755E-01  0.36457709764E+01  0.36520374136E+01  0.00000000000E+00 0.  1.
</event>
<event>
 5    1  0.3368139E+002  0.1599436E+01  0.7818608E-02  0.3353975E+00
         11   -1    0    0    0    0  0.00000000000E+00  0.00000000000E+00  0.39999999674E+01  0.40000000000E+01  0.51100000000E-03 0.  1.
    9000002   -1    0    0    0    0 -0.00000000000E+00 -0.00000000000E+00  0.00000000000E+00  0.93800000000E+00  0.93800000000E+00 0. -1.
         11    1    1    2    0    0 -0.11875041537E+00 -0.11531270383E+00  0.12411664369E+01  0.12521553682E+01  0.51100000000E-03 0.  1.
    9000002    1    1    2    0    0  0.31691147222E+00  0.34065691546E+00  0.14757872690E+00  0.10574041308E+01  0.93800000000E+00 0. -1.
         22    1    1    2    0    0 -0.19816105685E+00 -0.22534421163E+00  0.26112548036E+01  0.26284405010E+01  0.00000000000E+00 0.  1.
</event>
<event>
 5    1  0.3368139E+002  0.1568928E+01  0.7818608E-02  0.3387794E+00
         11   -1    0    0    0    0  0.00000000000E+00  0.00000000000E+00  0.39999999674E+01  0.40000000000E+01  0.51100000000E-03 0.  1.
    9000002   -1    0    0    0    0 -0.00000000000E+00 -0.00000000000E+00  0.00000000000E+00  0.93800000000E+00  0.93800000000E+00 0. -1.
         11    1    1    2    0    0 -0.16319351934E+00  0.44208026079E-01  0.30702601422E+01  0.30749120437E+01  0.51100000000E-03 0.  1.
    9000002    1    1    2    0    0  0.15716525495E+00  0.16315143749E+00  0.57676342059E-01  0.96669016202E+00  0.93800000000E+00 0. -1.
         22    1    1    2    0    0  0.60282643894E-02 -0.20735946357E+00  0.87206348305E+00  0.89639779427E+00  0.00000000000E+00 0. -1.
</event>
<event>
 5    1  0.3368139E+002  0.1596428E+01  0.7818608E-02  0.3357250E+00
         11   -1    0    0    0    0  0.00000000000E+00  0.00000000000E+00  0.39999999674E+01  0.40000000000E+01  0.51100000000E-03 0.  1.
    9000002   -1    0    0    0    0 -0.00000000000E+00 -0.00000000000E+00  0.00000000000E+00  0.93800000000E+00  0.93800000000E+00 0. -1.
         11    1    1    2    0    0 -0.15953339759E+00 -0.74841834257E-01  0.14436750226E+01  0.14543899193E+01  0.51100000000E-03 0.  1.
    9000002    1    1    2    0    0  0.56244066912E+00  0.27947095166E+00  0.28025270248E+00  0.11631118159E+01  0.93800000000E+00 0. -1.
         22    1    1    2    0    0 -0.40290727153E+00 -0.20462911740E+00  0.22760722422E+01  0.23204982648E+01  0.00000000000E+00 0.  1.
</event>
<event>
 5    1  0.3368139E+002  0.1599673E+01  0.7818608E-02  0.3353718E+00
         11   -1    0    0    0    0  0.00000000000E+00  0.00000000000E+00  0.39999999674E+01  0.40000000000E+01  0.51100000000E-03 0. -1.
    9000002   -1    0    0    0    0 -0.00000000000E+00 -0.00000000000E+00  0.00000000000E+00  0.93800000000E+00  0.93800000000E+00 0.  1.
         11    1    1    2    0    0  0.66055617347E-01  0.64289259624E-01  0.11603659627E+01  0.11640214268E+01  0.51100000000E-03 0. -1.
    9000002    1    1    2    0    0 -0.22709767771E+00 -0.22402812949E+00  0.68013760923E-01  0.99309205500E+00  0.93800000000E+00 0.  1.
         22    1    1    2    0    0  0.16104206036E+00  0.15973886987E+00  0.27716202437E+01  0.27808865182E+01  0.00000000000E+00 0. -1.
</event>
<event>
 5    1  0.3368139E+002  0.1598495E+01  0.7818608E-02  0.3354998E+00
         11   -1    0    0    0    0  0.00000000000E+00  0.00000000000E+00  0.39999999674E+01  0.40000000000E+01  0.51100000000E-03 0. -1.
    9000002   -1    0    0    0    0 -0.00000000000E+00 -0.00000000000E+00  0.00000000000E+00  0.93800000000E+00  0.93800000000E+00 0. -1.
         11    1    1    2    0    0 -0.15555882167E-01 -0.28424284881E+00  0.20437326560E+01  0.20634629662E+01  0.51100000000E-03 0. -1.
    9000002    1    1    2    0    0 -0.47073494776E-01  0.53841655514E+00  0.20250450703E+00  0.11013448035E+01  0.93800000000E+00 0. -1.
         22    1    1    2    0    0  0.62629376943E-01 -0.25417370633E+00  0.17537628043E+01  0.17731922303E+01  0.00000000000E+00 0. -1.
</event>
<event>
 5    1  0.3368139E+002  0.1542880E+01  0.7818608E-02  0.3417793E+00
         11   -1    0    0    0    0  0.00000000000E+00  0.00000000000E+00  0.39999999674E+01  0.40000000000E+01  0.51100000000E-03 0. -1.
    9000002   -1    0    0    0    0 -0.00000000000E+00 -0.00000000000E+00  0.00000000000E+00  0.93800000000E+00  0.93800000000E+00 0.  1.
         11    1    1    2    0    0 -0.83691170247E-01 -0.21208380214E+00  0.79299585744E+00  0.82512207711E+00  0.51100000000E-03 0. -1.
    9000002    1    1    2    0    0  0.10574510595E+00 -0.51164220311E-01  0.51918113780E-01  0.94675197143E+00  0.93800000000E+00 0.  1.
         22    1    1    2    0    0 -0.22053935704E-01  0.26324802245E+00  0.31550859961E+01  0.31661259515E+01  0.00000000000E+00 0. -1.
</event>
<event>
 5    1  0.3368139E+002  0.1599676E+01  0.7818608E-02  0.3353715E+00
         11   -1    0    0    0    0  0.00000000000E+00  0.00000000000E+00  0.39999999674E+01  0.40000000000E+01  0.51100000000E-03 0. -1.
    9000002   -1    0    0    0    0 -0.00000000000E+00 -0.00000000000E+00  0.00000000000E+00  0.93800000000E+00  0.93800000000E+00 0.  1.
         11    1    1    2    0    0 -0.82378663612E-01 -0.10306712689E+00  0.14250194205E+01  0.14311148406E+01  0.51100000000E-03 0. -1.
    9000002    1    1    2    0    0  0.22789661475E+00  0.28035466450E+00  0.87637359551E-01  0.10089895499E+01  0.93800000000E+00 0.  1.
         22    1    1    2    0    0 -0.14551795113E+00 -0.17728753761E+00  0.24873431873E+01  0.24978956096E+01  0.00000000000E+00 0. -1.
</event>
<event>
 5    1  0.3368139E+002  0.1593544E+01  0.7818608E-02  0.3360401E+00
         11   -1    0    0    0    0  0.00000000000E+00  0.00000000000E+00  0.39999999674E+01  0.40000000000E+01  0.51100000000E-03 0. -1.
    9000002   -1    0    0    0    0 -0.00000000000E+00 -0.00000000000E+00  0.00000000000E+00  0.93800000000E+00  0.93800000000E+00 0. -1.
         11    1    1    2    0    0  0.56338222321E-01 -0.10401005057E+00  0.86876628349E+00  0.87678230044E+00  0.51100000000E-03 0. -1.
    9000002    1    1    2    0    0 -0.34700039715E+00  0.12752830153E+00  0.96862988550E-01  0.10128668135E+01  0.93800000000E+00 0. -1.
         22    1    1    2    0    0  0.29066217483E+00 -0.23518250964E-01  0.30343706953E+01  0.30483508861E+01  0.00000000000E+00 0. -1.
</event>
<event>
 5    1  0.3368139E+002  0.1599361E+01  0.7818608E-02  0.3354057E+00
         11   -1    0    0    0    0  0.00000000000E+00  0.00000000000E+00  0.39999999674E+01  0.40000000000E+01  0.51100000000E-03 0.  1.
    9000002   -1    0    0    0    0 -0.00000000000E+00 -0.00000000000E+00  0.00000000000E+00  0.93800000000E+00  0.93800000000E+00 0.  1.
         11    1    1    2    0    0 -0.23612483574E-01  0.79169540363E-01  0.12406728849E+01  0.12434206183E+01  0.51100000000E-03 0.  1.
    9000002    1    1    2    0    0  0.96691295559E-01 -0.30998140817E+00  0.70758803586E-01  0.99513239739E+00  0.93800000000E+00 0.  1.
         22    1    1    2    0    0 -0.73078811985E-01  0.23081186781E+00  0.26885682789E+01  0.26994469843E+01  0.00000000000E+00 0. -1.
</event>
<event>
 5    1  0.3838715E+002  0.1574597E+01  0.7818608E-02  0.3381405E+00
         11   -1    0    0    0    0  0.00000000000E+00  0.00000000000E+00  0.39999999674E+01  0.40000000000E+01  0.51100000000E-03 0. -1.
    9000002   -1    0    0    0    0 -0.00000000000E+00 -0.00000000000E+00  0.00000000000E+00  0.93800000000E+00  0.93800000000E+00 0. -1.
         11    1    1    2    0    0  0.75555581981E-01  0.98136461879E-01  0.25335352929E+01  0.25365608119E+01  0.51100000000E-03 0. -1.
    9000002    1    1    2    0    0  0.86848101157E-01  0.47681581577E-01  0.25005381834E-01  0.94354936014E+00  0.93800000000E+00 0. -1.
         22    1    1    2    0    0 -0.16240368314E+00 -0.14581804346E+00  0.14414592926E+01  0.14578898279E+01  0.00000000000E+00 0.  1.
</event>
<event>
 5    1  0.3368139E+002  0.1599620E+01  0.7818608E-02  0.3353776E+00
         11   -1    0    0    0    0  0.00000000000E+00  0.00000000000E+00  0.39999999674E+01  0.40000000000E+01  0.51100000000E-03 0.  1.
    9000002   -1    0    0    0    0 -0.00000000000E+00 -0.00000000000E+00  0.00000000000E+00  0.93800000000E+00  0.93800000000E+00 0. -1.
         11    1    1    2    0    0  0.19651040300E-01  0.46561480498E-01  0.29544248672E+00  0.29973431390E+00  0.51100000000E-03 0.  1.
    9000002    1    1    2    0    0 -0.18822298738E+00 -0.57629566374E+00  0.25683830870E+00  0.11460167982E+01  0.93800000000E+00 0. -1.
         22    1    1    2    0    0  0.16857194708E+00  0.52973418324E+00  0.34477191719E+01  0.34922488879E+01  0.00000000000E+00 0.  1.
</event>
<event>
 5    1  0.3368139E+002  0.1599583E+01  0.7818608E-02  0.3353816E+00
         11   -1    0    0    0    0  0.00000000000E+00  0.00000000000E+00  0.39999999674E+01  0.40000000000E+01  0.51100000000E-03 0.  1.
    9000002   -1    0    0    0    0 -0.00000000000E+00 -0.00000000000E+00  0.00000000000E+00  0.93800000000E+00  0.93800000000E+00 0. -1.
         11    1    1    2    0    0 -0.82526936421E-02 -0.16901650575E-01  0.32767368193E+00  0.32821346057E+00  0.51100000000E-03 0.  1.
    9000002    1    1    2    0    0  0.17597746271E+00  0.19055338284E+00  0.44797549822E-01  0.97423276457E+00  0.93800000000E+00 0. -1.
         22    1    1    2    0    0 -0.16772476907E+00 -0.17365173227E+00  0.36275287356E+01  0.36355537749E+01  0.00000000000E+00 0.  1.
</event>
<event>
 5    1  0.3368139E+002  0.1599676E+01  0.7818608E-02  0.3353715E+00
         11   -1    0    0    0    0  0.00000000000E+00  0.00000000000E+00  0.39999999674E+01  0.40000000000E+01  0.51100000000E-03 0.  1.
    9000002   -1    0    0    0    0 -0.00000000000E+00 -0.00000000000E+00  0.00000000000E+00  0.93800000000E+00  0.93800000000E+00 0.  1.
         11    1    1    2    0    0  0.12253887454E+00  0.37375582301E+00  0.20946428440E+01  0.21312527059E+01  0.51100000000E-03 0.  1.
    9000002    1    1    2    0    0 -0.21288409195E+00 -0.65211940234E+00  0.33506722943E+00  0.12094186206E+01  0.93800000000E+00 0.  1.
         22    1    1    2    0    0  0.90345217404E-01  0.27836357933E+00  0.15702898939E+01  0.15973286736E+01  0.00000000000E+00 0.  1.
</event>
<event>
 5    1  0.3368139E+002  0.1599602E+01  0.7818608E-02  0.3353796E+00
         11   -1    0    0    0    0  0.00000000000E+00  0.00000000000E+00  0.39999999674E+01  0.40000000000E+01  0.51100000000E-03 0. -1.
    9000002   -1    0    0    0    0 -0.00000000000E+00 -0.00000000000E+00  0.00000000000E+00  0.93800000000E+00  0.93800000000E+00 0. -1.
         11    1    1    2    0    0 -0.56604788297E-01 -0.21107965225E-01  0.55069344693E+00  0.55399745655E+00  0.51100000000E-03 0. -1.
    9000002    1    1    2    0    0  0.36071228931E+00  0.11752140245E+00  0.96892631993E-01  0.10164432192E+01  0.93800000000E+00 0. -1.
         22    1    1    2    0    0 -0.30410750101E+00 -0.96413437228E-01  0.33524138884E+01  0.33675593243E+01  0.00000000000E+00 0. -1.
</event>
<event>
 5    1  0.3368139E+002  0.1599648E+01  0.7818608E-02  0.3353745E+00
         11   -1    0    0    0    0  0.00000000000E+00  0.00000000000E+00  0.39999999674E+01  0.40000000000E+01  0.51100000000E-03 0. -1.
    9000002   -1    0    0    0    0 -0.00000000000E+00 -0.00000000000E+00  0.00000000000E+00  0.93800000000E+00  0.93800000000E+00 0.  1.
         11    1    1    2    0    0  0.37043108283E-01  0.30728027949E-01  0.61800124844E+00  0.61987273514E+00  0.51100000000E-03 0. -1.
    9000002    1    1    2    0    0 -0.26368760736E+00 -0.18513449365E+00  0.69422085659E-01  0.99421796453E+00  0.93800000000E+00 0.  1.
         22    1    1    2    0    0  0.22664449908E+00  0.15440646570E+00  0.33125766333E+01  0.33239093003E+01  0.00000000000E+00 0. -1.
</event>
<event>
 5    1  0.3368139E+002  0.1599601E+01  0.7818608E-02  0.3353796E+00
         11   -1    0    0    0    0  0.00000000000E+00  0.00000000000E+00  0.39999999674E+01  0.40000000000E+01  0.51100000000E-03 0.  1.
    9000002   -1    0    0    0    0 -0.00000000000E+00 -0.00000000000E+00  0.00000000000E+00  0.93800000000E+00  0.93800000000E+00 0. -1.
         11    1    1    2    0    0  0.63666007825E-02  0.69250642242E-02  0.12449740655E+00  0.12485333587E+00  0.51100000000E-03 0.  1.
    9000002    1    1    2    0    0 -0.11967337616E+00 -0.29990377535E+00  0.69770568269E-01  0.99447268622E+00  0.93800000000E+00 0. -1.
         22    1    1    2    0    0  0.11330677538E+00  0.29297871113E+00  0.38057319925E+01  0.38186739779E+01  0.00000000000E+00 0.  1.
</event>
<event>
 5    1  0.3368139E+002  0.1591734E+01  0.7818608E-02  0.3362384E+00
         11   -1    0    0    0    0  0.00000000000E+00  0.00000000000E+00  0.39999999674E+01  0.40000000000E+01  0.51100000000E-03 0. -1.
    9000002   -1    0    0    0    0 -0.00000000000E+00 -0.00000000000E+00  0.00000000000E+00  0.93800000000E+00  0.93800000000E+00 0.  1.
         11    1    1    2    0    0 -0.79042547319E-02 -0.31676697930E-01  0.13493338981E+00  0.13882784750E+00  0.51100000000E-03 0. -1.
    9000002    1    1    2    0    0 -0.74698580968E-01 -0.17412552107E+00  0.29706061758E-01  0.95740588320E+00  0.93800000000E+00 0.  1.
         22    1    1    2    0    0  0.82602835700E-01  0.20580221900E+00  0.38353605158E+01  0.38417662693E+01  0.00000000000E+00 0. -1.
</event>
<event>
 5    1  0.3368139E+002  0.1537407E+01  0.7818608E-02  0.3424233E+00
         11   -1    0    0    0    0  0.00000000000E+00  0.00000000000E+00  0.39999999674E+01  0.40000000000E+01  0.51100000000E-03 0. -1.
    9000002   -1    0    0    0    0 -0.00000000000E+00 -0.00000000000E+00  0.00000000000E+00  0.93800000000E+00  0.93800000000E+00 0.  1.
         11    1    1    2    0    0 -0.11800327493E+00  0.31837428180E+00  0.30093032755E+01  0.30283978308E+01  0.51100000000E-03 0. -1.
    9000002    1    1    2    0    0  0.12761152692E+00 -0.83344101933E-01  0.62823454624E-01  0.95237688316E+00  0.93800000000E+00 0.  1.
         22    1    1    2    0    0 -0.96082519934E-02 -0.23503017987E+00  0.92787323723E+00  0.95722528609E+00  0.00000000000E+00 0. -1.
</event>
<event>
 5    1  0.3368139E+002  0.1557114E+01  0.7818608E-02  0.3401267E+00
         11   -1    0    0    0    0  0.00000000000E+00  0.00000000000E+00  0.39999999674E+01  0.40000000000E+01  0.51100000000E-03 0.  1.
    9000002   -1    0    0    0    0 -0.00000000000E+00 -0.00000000000E+00  0.00000000000E+00  0.93800000000E+00  0.93800000000E+00 0.  1.
         11    1    1    2    0    0 -0.15166476928E+00  0.28865041088E+00  0.21189102298E+01  0.21438521602E+01  0.51100000000E-03 0.  1.
    9000002    1    1    2    0    0 -0.10190533531E+00 -0.28237324196E+00  0.94218537113E-01  0.98936367321E+00  0.93800000000E+00 0.  1.
         22    1    1    2    0    0  0.25357010459E+00 -0.62771689130E-02  0.17868712005E+01  0.18047841665E+01  0.00000000000E+00 0.  1.
</event>
<event>
 5    1  0.3368139E+002  0.1599473E+01  0.7818608E-02  0.3353936E+00
         11   -1    0    0    0    0  0.00000000000E+00  0.00000000000E+00  0.39999999674E+01  0.40000000000E+01  0.51100000000E-03 0. -1.
    9000002   -1    0    0    0    0 -0.00000000000E+00 -0.00000000000E+00  0.00000000000E+00  0.93800000000E+00  0.93800000000E+00 0. -1.
         11    1    1    2    0    0 -0.46426997009E-02 -0.43570180340E-01  0.88837704320E+00  0.88945710817E+00  0.51100000000E-03 0. -1.
    9000002    1    1    2    0    0  0.43657076989E-01  0.25375418565E+00  0.44222839896E-01  0.97370261717E+00  0.93800000000E+00 0. -1.
         22    1    1    2    0    0 -0.39014377288E-01 -0.21018400531E+00  0.30674000843E+01  0.30748402747E+01  0.00000000000E+00 0.  1.
</event>
<event>
 5    1  0.3368139E+002  0.1599431E+01  0.7818608E-02  0.3353982E+00
         11   -1    0    0    0    0  0.00000000000E+00  0.00000000000E+00  0.39999999674E+01  0.40000000000E+01  0.51100000000E-03 0. -1.
    9000002   -1    0    0    0    0 -0.00000000000E+00 -0.00000000000E+00  0.00000000000E+00  0.93800000000E+00  0.93800000000E+00 0. -1.
         11    1    1    2    0    0 -0.12703109509E+00 -0.17713657774E-02  0.14233240404E+01  0.14289827228E+01  0.51100000000E-03 0. -1.
    9000002    1    1    2    0    0  0.39406741832E+00  0.23326168572E-01  0.10524681915E+00  0.10231100299E+01  0.93800000000E+00 0. -1.
         22    1    1    2    0    0 -0.26703632323E+00 -0.21554802795E-01  0.24714291078E+01  0.24859072473E+01  0.00000000000E+00 0. -1.
</event>
<event>
 5    1  0.3368139E+002  0.1599423E+01  0.7818608E-02  0.3353990E+00
         11   -1    0    0    0    0  0.00000000000E+00  0.00000000000E+00  0.39999999674E+01  0.40000000000E+01  0.51100000000E-03 0. -1.
    9000002   -1    0    0    0    0 -0.00000000000E+00 -0.00000000000E+00  0.00000000000E+00  0.93800000000E+00  0.93800000000E+00 0. -1.
         11    1    1    2    0    0  0.11950269426E+00  0.38437336373E-01  0.12516051848E+01  0.12578847811E+01  0.51100000000E-03 0. -1.
    9000002    1    1    2    0    0 -0.37460305426E+00 -0.64088155277E-01  0.97390347886E-01  0.10167416682E+01  0.93800000000E+00 0. -1.
         22    1    1    2    0    0  0.25510035999E+00  0.25650818904E-01  0.26510044347E+01  0.26633735507E+01  0.00000000000E+00 0. -1.
</event>
<event>
 5    1  0.3368139E+002  0.1599330E+01  0.7818608E-02  0.3354091E+00
         11   -1    0    0    0    0  0.00000000000E+00  0.00000000000E+00  0.39999999674E+01  0.40000000000E+01  0.51100000000E-03 0. -1.
    9000002   -1    0    0    0    0 -0.00000000000E+00 -0.00000000000E+00  0.00000000000E+00  0.93800000000E+00  0.93800000000E+00 0.  1.
         11    1    1    2    0    0  0.33186321577E-01  0.36602518593E-01  0.49240761215E+00  0.49488038346E+00  0.51100000000E-03 0. -1.
    9000002    1    1    2    0    0 -0.16194922921E+00 -0.23534475859E+00  0.54645076167E-01  0.98206150143E+00  0.93800000000E+00 0.  1.
         22    1    1    2    0    0  0.12876290764E+00  0.19874224000E+00  0.34529472790E+01  0.34610581151E+01  0.00000000000E+00 0. -1.
</event>
<event>
 5    1  0.3368139E+002  0.1599596E+01  0.7818608E-02  0.3353802E+00
         11   -1    0    0    0    0  0.00000000000E+00  0.00000000000E+00  0.39999999674E+01  0.40000000000E+01  0.51100000000E-03 0.  1.
    9000002   -1    0    0    0    0 -0.00000000000E+00 -0.00000000000E+00  0.00000000000E+00  0.93800000000E+00  0.93800000000E+00 0. -1.
         11    1    1    2    0    0 -0.98726750139E-01 -0.34147576274E+00  0.24677044969E+01  0.24931743647E+01  0.51100000000E-03 0.  1.
    9000002    1    1    2    0    0  0.16569885615E+00  0.53101473642E+00  0.21405873659E+00  0.11113495867E+01  0.93800000000E+00 0. -1.
         22    1    1    2    0    0 -0.66972106010E-01 -0.18953897368E+00  0.13182367339E+01  0.13334760485E+01  0.00000000000E+00 0. -1.
</event>
<event>
 5    1  0.3368139E+002  0.1573979E+01  0.7818608E-02  0.3382099E+00
         11   -1    0    0    0    0  0.00000000000E+00  0.00000000000E+00  0.39999999674E+01  0.40000000000E+01  0.51100000000E-03 0.  1.
    9000002   -1    0    0    0    0 -0.00000000000E+00 -0.00000000000E+00  0.00000000000E+00  0.93800000000E+00  0.93800000000E+00 0. -1.
         11    1    1    2    0    0 -0.40708057327E-01 -0.13113439234E+00  0.93435146777E+00  0.94438673288E+00  0.51100000000E-03 0.  1.
    9000002    1    1    2    0    0 -0.53856635033E-01 -0.10041471212E+00  0.27612502954E-01  0.94529894841E+00  0.93800000000E+00 0. -1.
         22    1    1    2    0    0  0.94564692359E-01  0.23154910446E+00  0.30380359966E+01  0.30483143187E+01  0.00000000000E+00 0.  1.
</event>
<event>
 5    1  0.3368139E+002  0.1599626E+01  0.7818608E-02  0.3353769E+00
         11   -1    0    0    0    0  0.00000000000E+00  0.00000000000E+00  0.39999999674E+01  0.40000000000E+01  0.51100000000E-03 0. -1.
    9000002   -1    0    0    0    0 -0.00000000000E+00 -0.00000000000E+00  0.00000000000E+00  0.93800000000E+00  0.93800000000E+00 0. -1.
         11    1    1    2    0    0  0.20341149350E+00  0.11561798055E+00  0.18933208367E+01  0.19077231993E+01  0.51100000000E-03 0. -1.
    9000002    1    1    2    0    0 -0.40670596215E+00 -0.21948892520E+00  0.14537244732E+00  0.10557283156E+01  0.93800000000E+00 0. -1.
         22    1    1    2    0    0  0.20329446865E+00  0.10387094465E+00  0.19613066833E+01  0.19745484851E+01  0.00000000000E+00 0.  1.
</event>
<event>
 5    1  0.3368139E+002  0.1544627E+01  0.7818608E-02  0.3415748E+00
         11   -1    0    0    0    0  0.00000000000E+00  0.00000000000E+00  0.39999999674E+01  0.40000000000E+01  0.51100000000E-03 0.  1.
    9000002   -1    0    0    0    0 -0.00000000000E+00 -0.00000000000E+00  0.00000000000E+00  0.93800000000E+00  0.93800000000E+00 0.  1.
         11    1    1    2    0    0  0.14030264544E+00  0.20948095272E+00  0.86454293368E+00  0.90055640977E+00  0.51100000000E-03 0.  1.
    9000002    1    1    2    0    0 -0.16501224720E+00  0.63248897871E-02  0.59986748615E-01  0.95431203281E+00  0.93800000000E+00 0.  1.
         22    1    1    2    0    0  0.24709601758E-01 -0.21580584251E+00  0.30754702851E+01  0.30831315574E+01  0.00000000000E+00 0.  1.
</event>
<event>
 5    1  0.3368139E+002  0.1599473E+01  0.7818608E-02  0.3353935E+00
         11   -1    0    0    0    0  0.00000000000E+00  0.00000000000E+00  0.39999999674E+01  0.40000000000E+01  0.51100000000E-03 0. -1.
    9000002   -1    0    0    0    0 -0.00000000000E+00 -0.00000000000E+00  0.00000000000E+00  0.93800000000E+00  0.93800000000E+00 0. -1.
         11    1    1    2    0    0 -0.40877866656E-01  0.50531284696E-01  0.37874490435E+00  0.38428163424E+00  0.51100000000E-03 0. -1.
    9000002    1    1    2    0    0  0.38240963213E+00 -0.40442171409E+00  0.21443878445E+00  0.11115853732E+01  0.93800000000E+00 0. -1.
         22    1    1    2    0    0 -0.34153176548E+00  0.35389042940E+00  0.34068162786E+01  0.34421329926E+01  0.00000000000E+00 0. -1.
</event>
<event>
 5    1  0.3368139E+002  0.1574316E+01  0.7818608E-02  0.3381721E+00
         11   -1    0    0    0    0  0.00000000000E+00  0.00000000000E+00  0.39999999674E+01  0.40000000000E+01  0.51100000000E-03 0.  1.
    9000002   -1    0    0    0    0 -0.00000000000E+00 -0.00000000000E+00  0.00000000000E+00  0.93800000000E+00  0.93800000000E+00 0.  1.
         11    1    1    2    0    0 -0.91779730957E-01  0.76704853143E-02  0.16964946365E+00  0.19303770875E+00  0.51100000000E-03 0.  1.
    9000002    1    1    2    0    0  0.24495178792E+00 -0.23641424663E+00  0.98215604082E-01  0.10026880768E+01  0.93800000000E+00 0.  1.
         22    1    1    2    0    0 -0.15317205696E+00  0.22874376132E+00  0.37321348996E+01  0.37422742145E+01  0.00000000000E+00 0.  1.
</event>
<event>
 5    1  0.3368139E+002  0.1599676E+01  0.7818608E-02  0.3353715E+00
         11   -1    0    0    0    0  0.00000000000E+00  0.00000000000E+00  0.39999999674E+01  0.40000000000E+01  0.51100000000E-03 0. -1.
    9000002   -1    0    0    0    0 -0.00000000000E+00 -0.00000000000E+00  0.00000000000E+00  0.93800000000E+00  0.93800000000E+00 0. -1.
         11    1    1    2    0    0 -0.77213307851E-01  0.25269715917E-02  0.92983063181E+00  0.93303458964E+00  0.51100000000E-03 0. -1.
    9000002    1    1    2    0    0  0.32279573925E+00 -0.11542925030E-01  0.69756075189E-01  0.99450502182E+00  0.93800000000E+00 0. -1.
         22    1    1    2    0    0 -0.24558243139E+00  0.90159534388E-02  0.30004132604E+01  0.30104603885E+01  0.00000000000E+00 0. -1.
</event>
<event>
 5    1  0.3368139E+002  0.1599648E+01  0.7818608E-02  0.3353746E+00
         11   -1    0    0    0    0  0.00000000000E+00  0.00000000000E+00  0.39999999674E+01  0.40000000000E+01  0.51100000000E-03 0. -1.
    9000002   -1    0    0    0    0 -0.00000000000E+00 -0.00000000000E+00  0.00000000000E+00  0.93800000000E+00  0.93800000000E+00 0.  1.
         11    1    1    2    0    0 -0.10045160145E+00  0.15409856944E-01  0.11929281864E+01  0.11972493086E+01  0.51100000000E-03 0. -1.
    9000002    1    1    2    0    0  0.33908398902E+00 -0.33061070932E-01  0.77771543734E-01  0.10009812181E+01  0.93800000000E+00 0.  1.
         22    1    1    2    0    0 -0.23863238757E+00  0.17651213988E-01  0.27293002372E+01  0.27397694733E+01  0.00000000000E+00 0. -1.
</event>
<event>
 5    1  0.3368139E+002  0.1599674E+01  0.7818608E-02  0.3353718E+00
         11   -1    0    0    0    0  0.00000000000E+00  0.00000000000E+00  0.39999999674E+01  0.40000000000E+01  0.51100000000E-03 0.  1.
    9000002   -1    0    0    0    0 -0.00000000000E+00 -0.00000000000E+00  0.00000000000E+00  0.93800000000E+00  0.93800000000E+00 0. -1.
         11    1    1    2    0    0  0.47977523739E-01 -0.19696285062E-01  0.48749418688E+00  0.49024547911E+00  0.51100000000E-03 0.  1.
    9000002    1    1    2    0    0 -0.37408793803E+00  0.16447954575E+00  0.11277121565E+00  0.10293476835E+01  0.93800000000E+00 0. -1.
         22    1    1    2    0    0  0.32611041429E+00 -0.14478326069E+00  0.33997345648E+01  0.34184068374E+01  0.00000000000E+00 0.  1.
</event>
<event>
 5    1  0.3368139E+002  0.1599024E+01  0.7818608E-02  0.3354423E+00
         11   -1    0    0    0    0  0.00000000000E+00  0.00000000000E+00  0.39999999674E+01  0.40000000000E+01  0.51100000000E-03 0. -1.
    9000002   -1    0    0    0    0 -0.00000000000E+00 -0.00000000000E+00  0.00000000000E+00  0.93800000000E+00  0.93800000000E+00 0. -1.
         11    1    1    2    0    0  0.74307534636E-01  0.56565506651E-01  0.88620140244E+00  0.89110855290E+00  0.51100000000E-03 0. -1.
    9000002    1    1    2    0    0 -0.21958448243E+00 -0.22094877426E+00  0.65318843914E-01  0.99052827175E+00  0.93800000000E+00 0. -1.
         22    1    1    2    0    0  0.14527694779E+00  0.16438326761E+00  0.30484797210E+01  0.30563631753E+01  0.00000000000E+00 0.  1.
</event>
<event>
 5    1  0.3368139E+002  0.1577651E+01  0.7818608E-02  0.3377983E+00
         11   -1    0    0    0    0  0.00000000000E+00  0.00000000000E+00  0.39999999674E+01  0.40000000000E+01  0.51100000000E-03 0.  1.
    9000002   -1    0    0    0    0 -0.00000000000E+00 -0.00000000000E+00  0.00000000000E+00  0.93800000000E+00  0.93800000000E+00 0. -1.
         11    1    1    2    0    0 -0.22576047927E+00  0.82845491675E-01  0.21951372693E+01  0.22082706042E+01  0.51100000000E-03 0.  1.
    9000002    1    1    2    0    0  0.13887919960E+00 -0.32147728831E+00  0.10018467730E+00  0.10062385644E+01  0.93800000000E+00 0. -1.
         22    1    1    2    0    0  0.86881279671E-01  0.23863179664E+00  0.17046780208E+01  0.17234908313E+01  0.00000000000E+00 0.  1.
</event>
<event>
 5    1  0.3368139E+002  0.1598187E+01  0.7818608E-02  0.3355334E+00
         11   -1    0    0    0    0  0.00000000000E+00  0.00000000000E+00  0.39999999674E+01  0.40000000000E+01  0.51100000000E-03 0. -1.
    9000002   -1    0    0    0    0 -0.00000000000E+00 -0.00000000000E+00  0.00000000000E+00  0.93800000000E+00  0.93800000000E+00 0.  1.
         11    1    1    2    0    0 -0.18761641467E-01 -0.24379388659E-01  0.87226261001E+00  0.87280506170E+00  0.51100000000E-03 0. -1.
    9000002    1    1    2    0    0  0.84635593287E-01  0.28461563043E+00  0.59967545044E-01  0.98570246383E+00  0.93800000000E+00 0.  1.
         22    1    1    2    0    0 -0.65873951820E-01 -0.26023624177E+00  0.30677698123E+01  0.30794924745E+01  0.00000000000E+00 0. -1.
</event>
<event>
 5    1  0.3368139E+002  0.1598273E+01  0.7818608E-02  0.3355240E+00
         11   -1    0    0    0    0  0.00000000000E+00  0.00000000000E+00  0.39999999674E+01  0.40000000000E+01  0.51100000000E-03 0. -1.
    9000002   -1    0    0    0    0 -0.00000000000E+00 -0.00000000000E+00  0.00000000000E+00  0.93800000000E+00  0.93800000000E+00 0. -1.
         11    1    1    2    0    0  0.26725928094E-01 -0.36504297533E+00  0.22002778267E+01  0.22305141615E+01  0.51100000000E-03 0. -1.
    9000002    1    1    2    0    0  0.28526638881E-01  0.63071298101E+00  0.28149853392E+00  0.11652030116E+01  0.93800000000E+00 0. -1.
         22    1    1    2    0    0 -0.55252566975E-01 -0.26567000568E+00  0.15182236067E+01  0.15422828269E+01  0.00000000000E+00 0. -1.
</event>
<event>
 5    1  0.3368139E+002  0.1598319E+01  0.7818608E-02  0.3355190E+00
         11   -1    0    0    0    0  0.00000000000E+00  0.00000000000E+00  0.39999999674E+01  0.40000000000E+01  0.51100000000E-03 0. -1.
    9000002   -1    0    0    0    0 -0.00000000000E+00 -0.00000000000E+00  0.00000000000E+00  0.93800000000E+00  0.93800000000E+00 0.  1.
         11    1    1    2    0    0  0.66499350550E-01 -0.12437097544E+00  0.95237996657E+00  0.96276589314E+00  0.51100000000E-03 0. -1.
    9000002    1    1    2    0    0 -0.23011088239E+00  0.35527844768E+00  0.12238012544E+00  0.10363371501E+01  0.93800000000E+00 0.  1.
         22    1    1    2    0    0  0.16361153184E+00 -0.23090747224E+00  0.29252398754E+01  0.29388969568E+01  0.00000000000E+00 0. -1.
</event>
<event>
 5    1  0.3368139E+002  0.1595226E+01  0.7818608E-02  0.3358561E+00
         11   -1    0    0    0    0  0.00000000000E+00  0.00000000000E+00  0.39999999674E+01  0.40000000000E+01  0.51100000000E-03 0. -1.
    9000002   -1    0    0    0    0 -0.00000000000E+00 -0.00000000000E+00  0.00000000000E+00  0.93800000000E+00  0.93800000000E+00 0. -1.
         11    1    1    2    0    0  0.33242455018E+00  0.20695995062E+00  0.24362173064E+01  0.24674872904E+01  0.51100000000E-03 0. -1.
    9000002    1    1    2    0    0 -0.47892471116E+00 -0.42802502162E+00  0.29525709699E+00  0.11745616422E+01  0.93800000000E+00 0. -1.
         22    1    1    2    0    0  0.14650016098E+00  0.22106507101E+00  0.12685255639E+01  0.12959510674E+01  0.00000000000E+00 0.  1.
</event>
<event>
 5    1  0.3368139E+002  0.1599676E+01  0.7818608E-02  0.3353715E+00
         11   -1    0    0    0    0  0.00000000000E+00  0.00000000000E+00  0.39999999674E+01  0.40000000000E+01  0.51100000000E-03 0.  1.
    9000002   -1    0    0    0    0 -0.00000000000E+00 -0.00000000000E+00  0.00000000000E+00  0.93800000000E+00  0.93800000000E+00 0.  1.
         11    1    1    2    0    0  0.50412991121E-01 -0.64700921159E-01  0.10339552859E+01  0.10372036797E+01  0.51100000000E-03 0.  1.
    9000002    1    1    2    0    0 -0.19510393700E+00  0.24423330895E+00  0.65266117052E-01  0.99086786277E+00  0.93800000000E+00 0.  1.
         22    1    1    2    0    0  0.14469094587E+00 -0.17953238779E+00  0.29007785644E+01  0.29099284575E+01  0.00000000000E+00 0.  1.
</event>
<event>
 5    1  0.3368139E+002  0.1482048E+01  0.7818608E-02  0.3492256E+00
         11   -1    0    0    0    0  0.00000000000E+00  0.00000000000E+00  0.39999999674E+01  0.40000000000E+01  0.51100000000E-03 0.  1.
    9000002   -1    0    0    0    0 -0.00000000000E+00 -0.00000000000E+00  0.00000000000E+00  0.93800000000E+00  0.93800000000E+00 0.  1.
         11    1    1    2    0    0  0.16883569998E-01 -0.36975234771E+00  0.97254634609E+00  0.10406000721E+01  0.51100000000E-03 0.  1.
    9000002    1    1    2    0    0  0.72572024675E-01  0.46160777920E-01  0.96034041425E-01  0.94681785645E+00  0.93800000000E+00 0.  1.
         22    1    1    2    0    0 -0.89455594673E-01  0.32359156979E+00  0.29314195798E+01  0.29505820715E+01  0.00000000000E+00 0.  1.
</event>
<event>
 5    1  0.3368139E+002  0.1599028E+01  0.7818608E-02  0.3354419E+00
         11   -1    0    0    0    0  0.00000000000E+00  0.00000000000E+00  0.39999999674E+01  0.40000000000E+01  0.51100000000E-03 0. -1.
    9000002   -1    0    0    0    0 -0.00000000000E+00 -0.00000000000E+00  0.00000000000E+00  0.93800000000E+00  0.93800000000E+00 0.  1.
         11    1    1    2    0    0 -0.23831580396E-02 -0.51815712763E-01  0.93713705790E+00  0.93857161364E+00  0.51100000000E-03 0. -1.
    9000002    1    1    2    0    0 -0.89625596558E-01  0.26461732012E+00  0.52477848861E-01  0.98012907226E+00  0.93800000000E+00 0.  1.
         22    1    1    2    0    0  0.92008754598E-01 -0.21280160736E+00  0.30103850606E+01  0.30192993141E+01  0.00000000000E+00 0. -1.
</event>
<event>
 5    1  0.3368139E+002  0.1456243E+01  0.7818608E-02  0.3525876E+00
         11   -1    0    0    0    0  0.00000000000E+00  0.00000000000E+00  0.39999999674E+01  0.40000000000E+01  0.51100000000E-03 0. -1.
    9000002   -1    0    0    0    0 -0.00000000000E+00 -0.00000000000E+00  0.00000000000E+00  0.93800000000E+00  0.93800000000E+00 0.  1.
         11    1    1    2    0    0  0.52844265956E+00 -0.92741536924E-01  0.16841690056E+01  0.17675627677E+01  0.51100000000E-03 0. -1.
    9000002    1    1    2    0    0 -0.23029919655E+00 -0.13503143824E+00  0.16742796782E+00  0.98951873840E+00  0.93800000000E+00 0.  1.
         22    1    1    2    0    0 -0.29814346301E+00  0.22777297517E+00  0.21484029939E+01  0.21809184939E+01  0.00000000000E+00 0.  1.
</event>
<event>
 5    1  0.3368139E+002  0.1569191E+01  0.7818608E-02  0.3387497E+00
         11   -1    0    0    0    0  0.00000000000E+00  0.00000000000E+00  0.39999999674E+01  0.40000000000E+01  0.51100000000E-03 0.  1.
    9000002   -1    0    0    0    0 -0.00000000000E+00 -0.00000000000E+00  0.00000000000E+00  0.93800000000E+00  0.93800000000E+00 0.  1.
         11    1    1    2    0    0  0.25779905977E+00 -0.12458768489E+00  0.86297500876E+00  0.90923515842E+00  0.51100000000E-03 0.  1.
    9000002    1    1    2    0    0 -0.38065115922E+00  0.31925007730E+00  0.19678684197E+00  0.10795299802E+01  0.93800000000E+00 0.  1.
         22    1    1    2    0    0  0.12285209945E+00 -0.19466239241E+00  0.29402381166E+01  0.29492348614E+01  0.00000000000E+00 0.  1.
</event>
<event>
 5    1  0.3368139E+002  0.1599676E+01  0.7818608E-02  0.3353716E+00
         11   -1    0    0    0    0  0.00000000000E+00  0.00000000000E+00  0.39999999674E+01  0.40000000000E+01  0.51100000000E-03 0. -1.
    9000002   -1    0    0    0    0 -0.00000000000E+00 -0.00000000000E+00  0.00000000000E+00  0.93800000000E+00  0.93800000000E+00 0. -1.
         11    1    1    2    0    0  0.18658725882E+00  0.16020262713E+00  0.20201477668E+01  0.20350619027E+01  0.51100000000E-03 0. -1.
    9000002    1    1    2    0    0 -0.35316329485E+00 -0.30654687333E+00  0.14893198210E+00  0.10586406537E+01  0.93800000000E+00 0. -1.
         22    1    1    2    0    0  0.16657603603E+00  0.14634424620E+00  0.18309202184E+01  0.18442974436E+01  0.00000000000E+00 0.  1.
</event>
<event>
 5    1  0.3368139E+002  0.1561915E+01  0.7818608E-02  0.3395766E+00
         11   -1    0    0    0    0  0.00000000000E+00  0.00000000000E+00  0.39999999674E+01  0.40000000000E+01  0.51100000000E-03 0. -1.
    9000002   -1    0    0    0    0 -0.00000000000E+00 -0.00000000000E+00  0.00000000000E+00  0.93800000000E+00  0.93800000000E+00 0. -1.
         11    1    1    2    0    0  0.54779519631E-01  0.27342728614E+00  0.22058611796E+01  0.22234178828E+01  0.51100000000E-03 0. -1.
    9000002    1    1    2    0    0  0.56844183529E-01 -0.10381000968E+00  0.37430732419E-01  0.94617801657E+00  0.93800000000E+00 0. -1.
         22    1    1    2    0    0 -0.11162370316E+00 -0.16961727646E+00  0.17567080553E+01  0.17684041007E+01  0.00000000000E+00 0. -1.
</event>
<event>
 5    1  0.3368139E+002  0.1599078E+01  0.7818608E-02  0.3354365E+00
         11   -1    0    0    0    0  0.00000000000E+00  0.00000000000E+00  0.39999999674E+01  0.40000000000E+01  0.51100000000E-03 0.  1.
    9000002   -1    0    0    0    0 -0.00000000000E+00 -0.00000000000E+00  0.00000000000E+00  0.93800000000E+00  0.93800000000E+00 0. -1.
         11    1    1    2    0    0  0.25171407531E-02  0.84461042158E-02  0.31932502297E+00  0.31944702861E+00  0.51100000000E-03 0.  1.
    9000002    1    1    2    0    0 -0.21561029051E+00 -0.29585427912E-01  0.31842450555E-01  0.96344228503E+00  0.93800000000E+00 0. -1.
         22    1    1    2    0    0  0.21309314976E+00  0.21139323696E-01  0.36488324938E+01  0.36551106864E+01  0.00000000000E+00 0.  1.
</event>
<event>
 5    1  0.3368139E+002  0.1599672E+01  0.7818608E-02  0.3353719E+00
         11   -1    0    0    0    0  0.00000000000E+00  0.00000000000E+00  0.39999999674E+01  0.40000000000E+01  0.51100000000E-03 0. -1.
    9000002   -1    0    0    0    0 -0.00000000000E+00 -0.00000000000E+00  0.00000000000E+00  0.93800000000E+00  0.93800000000E+00 0.  1.
         11    1    1    2    0    0 -0.23448524276E-01  0.23935420366E-01  0.44072726417E+00  0.44199945718E+00  0.51100000000E-03 0. -1.
    9000002    1    1    2    0    0  0.20891026800E+00 -0.19946142092E+00  0.55603336097E-01  0.98303819330E+00  0.93800000000E+00 0.  1.
         22    1    1    2    0    0 -0.18546174372E+00  0.17552600055E+00  0.35036693671E+01  0.35129623495E+01  0.00000000000E+00 0. -1.
</event>
<event>
 5    1  0.3368139E+002  0.1599676E+01  0.7818608E-02  0.3353715E+00
         11   -1    0    0    0    0  0.00000000000E+00  0.00000000000E+00  0.39999999674E+01  0.40000000000E+01  0.51100000000E-03 0.  1.
    9000002   -1    0    0    0    0 -0.00000000000E+00 -0.00000000000E+00  0.00000000000E+00  0.93800000000E+00  0.93800000000E+00 0. -1.
         11    1    1    2    0    0  0.15421854638E-01 -0.10296443541E+00  0.94382846967E+00  0.94955355291E+00  0.51100000000E-03 0.  1.
    9000002    1    1    2    0    0 -0.64196521881E-01  0.42578876074E+00  0.12558249731E+00  0.10397269958E+01  0.93800000000E+00 0. -1.
         22    1    1    2    0    0  0.48774667242E-01 -0.32282432533E+00  0.29305890004E+01  0.29487194513E+01  0.00000000000E+00 0.  1.
</event>
<event>
 5    1  0.3368139E+002  0.1599671E+01  0.7818608E-02  0.3353720E+00
         11   -1    0    0    0    0  0.00000000000E+00  0.00000000000E+00  0.39999999674E+01  0.40000000000E+01  0.51100000000E-03 0. -1.
    9000002   -1    0    0    0    0 -0.00000000000E+00 -0.00000000000E+00  0.00000000000E+00  0.93800000000E+00  0.93800000000E+00 0. -1.
         11    1    1    2    0    0 -0.21016878855E-01  0.37969132887E-02  0.39498757898E+00  0.39556488017E+00  0.51100000000E-03 0. -1.
    9000002    1    1    2    0    0  0.22406633795E+00 -0.27359146860E-01  0.33793134793E-01  0.96537051057E+00  0.93800000000E+00 0. -1.
         22    1    1    2    0    0 -0.20304945910E+00  0.23562233571E-01  0.35712192536E+01  0.35770646093E+01  0.00000000000E+00 0. -1.
</event>
<event>
 5    1  0.3368139E+002  0.1599669E+01  0.7818608E-02  0.3353723E+00
         11   -1    0    0    0    0  0.00000000000E+00  0.00000000000E+00  0.39999999674E+01  0.40000000000E+01  0.51100000000E-03 0.  1.
    9000002   -1    0    0    0    0 -0.00000000000E+00 -0.00000000000E+00  0.00000000000E+00  0.93800000000E+00  0.93800000000E+00 0. -1.
         11    1    1    2    0    0  0.12103901599E+00  0.18966550656E-02  0.12909185610E+01  0.12965820579E+01  0.51100000000E-03 0.  1.
    9000002    1    1    2    0    0 -0.35744712010E+00 -0.40257917317E-02  0.85758836458E-01  0.10074637605E+01  0.93800000000E+00 0. -1.
         22    1    1    2    0    0  0.23640810412E+00  0.21291366661E-02  0.26233225699E+01  0.26339541816E+01  0.00000000000E+00 0.  1.
</event>
<event>
 5    1  0.3368139E+002  0.1598200E+01  0.7818608E-02  0.3355319E+00
         11   -1    0    0    0    0  0.00000000000E+00  0.00000000000E+00  0.39999999674E+01  0.40000000000E+01  0.51100000000E-03 0.  1.
    9000002   -1    0    0    0    0 -0.00000000000E+00 -0.00000000000E+00  0.00000000000E+00  0.93800000000E+00  0.93800000000E+00 0.  1.
         11    1    1    2    0    0 -0.37435013442E+00  0.12559814668E+00  0.25504455431E+01  0.25808304181E+01  0.51100000000E-03 0.  1.
    9000002    1    1    2    0    0  0.60611611206E+00 -0.16228806531E+00  0.27787930117E+00  0.11622284902E+01  0.93800000000E+00 0.  1.
         22    1    1    2    0    0 -0.23176597764E+00  0.36689918632E-01  0.11716751231E+01  0.11949410917E+01  0.00000000000E+00 0. -1.
</event>
<event>
 5    1  0.3368139E+002  0.1599637E+01  0.7818608E-02  0.3353757E+00
         11   -1    0    0    0    0  0.00000000000E+00  0.00000000000E+00  0.39999999674E+01  0.40000000000E+01  0.51100000000E-03 0.  1.
    9000002   -1    0    0    0    0 -0.00000000000E+00 -0.00000000000E+00  0.00000000000E+00  0.93800000000E+00  0.93800000000E+00 0. -1.
         11    1    1    2    0    0 -0.28656954705E+00  0.84244244075E-01  0.22301198572E+01  0.22500342301E+01  0.51100000000E-03 0.  1.
    9000002    1    1    2    0    0  0.50041909958E+00 -0.15141088407E+00  0.18789554864E+00  0.10901803833E+01  0.93800000000E+00 0. -1.
         22    1    1    2    0    0 -0.21384955253E+00  0.67166639994E-01  0.15819845615E+01  0.15977853866E+01  0.00000000000E+00 0. -1.
</event>
<event>
 5    1  0.3368139E+002  0.1596095E+01  0.7818608E-02  0.3357612E+00
         11   -1    0    0    0    0  0.00000000000E+00  0.00000000000E+00  0.39999999674E+01  0.40000000000E+01  0.51100000000E-03 0. -1.
    9000002   -1    0    0    0    0 -0.00000000000E+00 -0.00000000000E+00  0.00000000000E+00  0.93800000000E+00  0.93800000000E+00 0.  1.
         11    1    1    2    0    0  0.23956159908E-02  0.35475721159E-01  0.14151660385E+01  0.14156127448E+01  0.51100000000E-03 0. -1.
    9000002    1    1    2    0    0  0.85221542522E-01 -0.26844891973E+00  0.55615554590E-01  0.98095087733E+00  0.93800000000E+00 0.  1.
         22    1    1    2    0    0 -0.87617158513E-01  0.23297319858E+00  0.25292183743E+01  0.25414363778E+01  0.00000000000E+00 0.  1.
</event>
<event>
 5    1  0.3368139E+002  0.1599454E+01  0.7818608E-02  0.3353957E+00
         11   -1    0    0    0    0  0.00000000000E+00  0.00000000000E+00  0.39999999674E+01  0.40000000000E+01  0.51100000000E-03 0.  1.
    9000002   -1    0    0    0    0 -0.00000000000E+00 -0.00000000000E+00  0.00000000000E+00  0.93800000000E+00  0.93800000000E+00 0.  1.
         11    1    1    2    0    0  0.18758039858E+00  0.53300072308E-01  0.16022189263E+01  0.16140424568E+01  0.51100000000E-03 0.  1.
    9000002    1    1    2    0    0 -0.41097030082E+00 -0.12308835028E+00  0.12481629924E+00  0.10389756680E+01  0.93800000000E+00 0.  1.
         22    1    1    2    0    0  0.22338990224E+00  0.69788277974E-01  0.22729647418E+01  0.22849818752E+01  0.00000000000E+00 0.  1.
</event>
<event>
 5    1  0.3368139E+002  0.1599538E+01  0.7818608E-02  0.3353865E+00
         11   -1    0    0    0    0  0.00000000000E+00  0.00000000000E+00  0.39999999674E+01  0.40000000000E+01  0.51100000000E-03 0. -1.
    9000002   -1    0    0    0    0 -0.00000000000E+00 -0.00000000000E+00  0.00000000000E+00  0.93800000000E+00  0.93800000000E+00 0.  1.
         11    1    1    2    0    0  0.13905305777E-01 -0.29386852720E-01  0.16513790066E+00  0.16830844304E+00  0.51100000000E-03 0. -1.
    9000002    1    1    2    0    0 -0.18029519438E+00  0.67623534118E+00  0.35019005083E+00  0.12215881734E+01  0.93800000000E+00 0.  1.
         22    1    1    2    0    0  0.16638988860E+00 -0.64684848846E+00  0.34846720159E+01  0.35481033835E+01  0.00000000000E+00 0. -1.
</event>
<event>
 5    1  0.3368139E+002  0.1598127E+01  0.7818608E-02  0.3355399E+00
         11   -1    0    0    0    0  0.00000000000E+00  0.00000000000E+00  0.39999999674E+01  0.40000000000E+01  0.51100000000E-03 0.  1.
    9000002   -1    0    0    0    0 -0.00000000000E+00 -0.00000000000E+00  0.00000000000E+00  0.93800000000E+00  0.93800000000E+00 0. -1.
         11    1    1    2    0    0 -0.10223672994E-03 -0.50308306781E-02  0.52841922958E+00  0.52844343408E+00  0.51100000000E-03 0.  1.
    9000002    1    1    2    0    0 -0.69407753745E-01 -0.19366356106E+00  0.29193175997E-01  0.96073890974E+00  0.93800000000E+00 0. -1.
         22    1    1    2    0    0  0.69509990475E-01  0.19869439173E+00  0.34423875618E+01  0.34488176562E+01  0.00000000000E+00 0.  1.
</event>
<event>
 5    1  0.3368139E+002  0.1599677E+01  0.7818608E-02  0.3353714E+00
         11   -1    0    0    0    0  0.00000000000E+00  0.00000000000E+00  0.39999999674E+01  0.40000000000E+01  0.51100000000E-03 0.  1.
    9000002   -1    0    0    0    0 -0.00000000000E+00 -0.00000000000E+00  0.00000000000E+00  0.93800000000E+00  0.93800000000E+00 0.  1.
         11    1    1    2    0    0 -0.48701257383E-01 -0.37899314589E-01  0.85578569991E+00  0.85800792292E+00  0.51100000000E-03 0. -1.
    9000002    1    1    2    0    0  0.22344698284E+00  0.17643948889E+00  0.54001152785E-01  0.98174312928E+00  0.93800000000E+00 0.  1.
         22    1    1    2    0    0 -0.17474572546E+00 -0.13854017430E+00  0.30902131147E+01  0.30982489478E+01  0.00000000000E+00 0.  1.
</event>
<event>
 5    1  0.3368139E+002  0.1599668E+01  0.7818608E-02  0.3353724E+00
         11   -1    0    0    0    0  0.00000000000E+00  0.00000000000E+00  0.39999999674E+01  0.40000000000E+01  0.51100000000E-03 0. -1.
    9000002   -1    0    0    0    0 -0.00000000000E+00 -0.00000000000E+00  0.00000000000E+00  0.93800000000E+00  0.93800000000E+00 0.  1.
         11    1    1    2    0    0 -0.18867863433E+00  0.71242013966E-01  0.17049948708E+01  0.17168817147E+01  0.51100000000E-03 0. -1.
    9000002    1    1    2    0    0  0.41937434804E+00 -0.16062306385E+00  0.13696341151E+00  0.10489411750E+01  0.93800000000E+00 0.  1.
         22    1    1    2    0    0 -0.23069571371E+00  0.89381049888E-01  0.21580416851E+01  0.21721771104E+01  0.00000000000E+00 0. -1.
</event>
<event>
 5    1  0.3368139E+002  0.1599663E+01  0.7818608E-02  0.3353729E+00
         11   -1    0    0    0    0  0.00000000000E+00  0.00000000000E+00  0.39999999674E+01  0.40000000000E+01  0.51100000000E-03 0.  1.
    9000002   -1    0    0    0    0 -0.00000000000E+00 -0.00000000000E+00  0.00000000000E+00  0.93800000000E+00  0.93800000000E+00 0.  1.
         11    1    1    2    0    0  0.84108057392E-01  0.31642178427E+00  0.15896866884E+01  0.16230529687E+01  0.51100000000E-03 0.  1.
    9000002    1    1    2    0    0 -0.18666810410E+00 -0.70948427952E+00  0.38829795721E+00  0.12525303300E+01  0.93800000000E+00 0.  1.
         22    1    1    2    0    0  0.10256004671E+00  0.39306249525E+00  0.20220153218E+01  0.20624167013E+01  0.00000000000E+00 0.  1.
</event>
<event>
 5    1  0.3368139E+002  0.1551172E+01  0.7818608E-02  0.3408127E+00
         11   -1    0    0    0    0  0.00000000000E+00  0.00000000000E+00  0.39999999674E+01  0.40000000000E+01  0.51100000000E-03 0. -1.
    9000002   -1    0    0    0    0 -0.00000000000E+00 -0.00000000000E+00  0.00000000000E+00  0.93800000000E+00  0.93800000000E+00 0.  1.
         11    1    1    2    0    0 -0.24351986509E+00  0.77639497276E-01  0.11103909001E+01  0.11394288167E+01  0.51100000000E-03 0. -1.
    9000002    1    1    2    0    0  0.31176345957E-01 -0.11865363846E+00  0.46375948055E-01  0.94712479591E+00  0.93800000000E+00 0.  1.
         22    1    1    2    0    0  0.21234351913E+00  0.41014141184E-01  0.28432331192E+01  0.28514463874E+01  0.00000000000E+00 0. -1.
</event>
<event>
 5    1  0.3368139E+002  0.1599414E+01  0.7818608E-02  0.3353999E+00
         11   -1    0    0    0    0  0.00000000000E+00  0.00000000000E+00  0.39999999674E+01  0.40000000000E+01  0.51100000000E-03 0. -1.
    9000002   -1    0    0    0    0 -0.00000000000E+00 -0.00000000000E+00  0.00000000000E+00  0.93800000000E+00  0.93800000000E+00 0. -1.
         11    1    1    2    0    0  0.79723791329E-01  0.36051929857E-01  0.86757694634E+00  0.87197800632E+00  0.51100000000E-03 0. -1.
    9000002    1    1    2    0    0 -0.31299255058E+00 -0.21910296395E+00  0.98455277844E-01  0.10175990798E+01  0.93800000000E+00 0. -1.
         22    1    1    2    0    0  0.23326875925E+00  0.18305103409E+00  0.30339677432E+01  0.30484229139E+01  0.00000000000E+00 0. -1.
</event>
<event>
 5    1  0.3368139E+002  0.1589050E+01  0.7818608E-02  0.3365335E+00
         11   -1    0    0    0    0  0.00000000000E+00  0.00000000000E+00  0.39999999674E+01  0.40000000000E+01  0.51100000000E-03 0.  1.
    9000002   -1    0    0    0    0 -0.00000000000E+00 -0.00000000000E+00  0.00000000000E+00  0.93800000000E+00  0.93800000000E+00 0. -1.
         11    1    1    2    0    0 -0.10821794320E+00  0.42857950685E-01  0.12779241083E+01  0.12832140175E+01  0.51100000000E-03 0.  1.
    9000002    1    1    2    0    0  0.26750813699E-01 -0.31623936168E+00  0.75749261485E-01  0.99312883884E+00  0.93800000000E+00 0. -1.
         22    1    1    2    0    0  0.81467129506E-01  0.27338141100E+00  0.26463265976E+01  0.26616571436E+01  0.00000000000E+00 0.  1.
</event>
<event>
 5    1  0.3368139E+002  0.1596987E+01  0.7818608E-02  0.3356640E+00
         11   -1    0    0    0    0  0.00000000000E+00  0.00000000000E+00  0.39999999674E+01  0.40000000000E+01  0.51100000000E-03 0.  1.
    9000002   -1    0    0    0    0 -0.00000000000E+00 -0.00000000000E+00  0.00000000000E+00  0.93800000000E+00  0.93800000000E+00 0. -1.
         11    1    1    2    0    0 -0.10186526163E-01  0.24462343594E-01  0.49191211416E+00  0.49262557866E+00  0.51100000000E-03 0.  1.
    9000002    1    1    2    0    0  0.37886325428E+00 -0.55234223828E-01  0.10087978436E+00  0.10181399294E+01  0.93800000000E+00 0. -1.
         22    1    1    2    0    0 -0.36867672811E+00  0.30771880234E-01  0.34072080688E+01  0.34272344920E+01  0.00000000000E+00 0.  1.
</event>
<event>
 5    1  0.3368139E+002  0.1599677E+01  0.7818608E-02  0.3353714E+00
         11   -1    0    0    0    0  0.00000000000E+00  0.00000000000E+00  0.39999999674E+01  0.40000000000E+01  0.51100000000E-03 0. -1.
    9000002   -1    0    0    0    0 -0.00000000000E+00 -0.00000000000E+00  0.00000000000E+00  0.93800000000E+00  0.93800000000E+00 0.  1.
         11    1    1    2    0    0 -0.10718803414E+00  0.14978463343E+00  0.18551788766E+01  0.18642997710E+01  0.51100000000E-03 0. -1.
    9000002    1    1    2    0    0  0.22462907105E+00 -0.31402727408E+00  0.10037604128E+00  0.10193089316E+01  0.93800000000E+00 0.  1.
         22    1    1    2    0    0 -0.11744103691E+00  0.16424264065E+00  0.20444450495E+01  0.20543912973E+01  0.00000000000E+00 0. -1.
</event>
<event>
 5    1  0.3368139E+002  0.1578151E+01  0.7818608E-02  0.3377424E+00
         11   -1    0    0    0    0  0.00000000000E+00  0.00000000000E+00  0.39999999674E+01  0.40000000000E+01  0.51100000000E-03 0. -1.
    9000002   -1    0    0    0    0 -0.00000000000E+00 -0.00000000000E+00  0.00000000000E+00  0.93800000000E+00  0.93800000000E+00 0.  1.
         11    1    1    2    0    0 -0.11383334089E+00  0.20573083024E-01  0.21450015602E+01  0.21481185339E+01  0.51100000000E-03 0. -1.
    9000002    1    1    2    0    0 -0.11517582101E+00 -0.48280825301E-01  0.26249716033E-01  0.94664119677E+00  0.93800000000E+00 0.  1.
         22    1    1    2    0    0  0.22900916190E+00  0.27707742278E-01  0.18287486911E+01  0.18432402693E+01  0.00000000000E+00 0.  1.
</event>
<event>
 5    1  0.3368139E+002  0.1586454E+01  0.7818608E-02  0.3368199E+00
         11   -1    0    0    0    0  0.00000000000E+00  0.00000000000E+00  0.39999999674E+01  0.40000000000E+01  0.51100000000E-03 0. -1.
    9000002   -1    0    0    0    0 -0.00000000000E+00 -0.00000000000E+00  0.00000000000E+00  0.93800000000E+00  0.93800000000E+00 0. -1.
         11    1    1    2    0    0 -0.17518693923E-01 -0.60444255032E-01  0.34073784961E+00  0.34650101859E+00  0.51100000000E-03 0. -1.
    9000002    1    1    2    0    0 -0.17362120433E+00 -0.11829302914E+00  0.39250159079E-01  0.96204061158E+00  0.93800000000E+00 0. -1.
         22    1    1    2    0    0  0.19113989825E+00  0.17873728418E+00  0.36200119587E+01  0.36294583698E+01  0.00000000000E+00 0. -1.
</event>
<event>
 5    1  0.3368139E+002  0.1599453E+01  0.7818608E-02  0.3353958E+00
         11   -1    0    0    0    0  0.00000000000E+00  0.00000000000E+00  0.39999999674E+01  0.40000000000E+01  0.51100000000E-03 0. -1.
    9000002   -1    0    0    0    0 -0.00000000000E+00 -0.00000000000E+00  0.00000000000E+00  0.93800000000E+00  0.93800000000E+00 0. -1.
         11    1    1    2    0    0 -0.11672324581E-01  0.77885091248E-02  0.44543029223E+00  0.44565155715E+00  0.51100000000E-03 0. -1.
    9000002    1    1    2    0    0  0.20529919019E+00 -0.65301280277E-01  0.30924468731E-01  0.96291865568E+00  0.93800000000E+00 0. -1.
         22    1    1    2    0    0 -0.19362686561E+00  0.57512771152E-01  0.35236452064E+01  0.35294297872E+01  0.00000000000E+00 0. -1.
</event>
<event>
 5    1  0.3368139E+002  0.1598116E+01  0.7818608E-02  0.3355411E+00
         11   -1    0    0    0    0  0.00000000000E+00  0.00000000000E+00  0.39999999674E+01  0.40000000000E+01  0.51100000000E-03 0.  1.
    9000002   -1    0    0    0    0 -0.00000000000E+00 -0.00000000000E+00  0.00000000000E+00  0.93800000000E+00  0.93800000000E+00 0.  1.
         11    1    1    2    0    0 -0.63039422321E-03  0.46691758351E-02  0.18606136586E+00  0.18612171176E+00  0.51100000000E-03 0.  1.
    9000002    1    1    2    0    0 -0.13471189108E+00  0.30134528338E+00  0.74144278460E-01  0.99714474749E+00  0.93800000000E+00 0.  1.
         22    1    1    2    0    0  0.13534228530E+00 -0.30601445922E+00  0.37397943230E+01  0.37547335408E+01  0.00000000000E+00 0.  1.
</event>
<event>
 5    1  0.3368139E+002  0.1599671E+01  0.7818608E-02  0.3353721E+00
         11   -1    0    0    0    0  0.00000000000E+00  0.00000000000E+00  0.39999999674E+01  0.40000000000E+01  0.51100000000E-03 0.  1.
    9000002   -1    0    0    0    0 -0.00000000000E+00 -0.00000000000E+00  0.00000000000E+00  0.93800000000E+00  0.93800000000E+00 0. -1.
         11    1    1    2    0    0  0.16486516199E+00  0.48694994786E-01  0.13276505850E+01  0.13387337529E+01  0.51100000000E-03 0.  1.
    9000002    1    1    2    0    0 -0.47535570338E+00 -0.13224827040E+00  0.16647997288E+00  0.10728523809E+01  0.93800000000E+00 0. -1.
         22    1    1    2    0    0  0.31049054140E+00  0.83553275615E-01  0.25058694094E+01  0.25264138662E+01  0.00000000000E+00 0.  1.
</event>
<event>
 5    1  0.3368139E+002  0.1599676E+01  0.7818608E-02  0.3353715E+00
         11   -1    0    0    0    0  0.00000000000E+00  0.00000000000E+00  0.39999999674E+01  0.40000000000E+01  0.51100000000E-03 0. -1.
    9000002   -1    0    0    0    0 -0.00000000000E+00 -0.00000000000E+00  0.00000000000E+00  0.93800000000E+00  0.93800000000E+00 0.  1.
         11    1    1    2    0    0 -0.68614896761E-01  0.30295155042E-01  0.10595267285E+01  0.10621783984E+01  0.51100000000E-03 0. -1.
    9000002    1    1    2    0    0  0.25934599969E+00 -0.11508100719E+00  0.53627271103E-01  0.98143969248E+00  0.93800000000E+00 0.  1.
         22    1    1    2    0    0 -0.19073110293E+00  0.84785852151E-01  0.28868459677E+01  0.28943819091E+01  0.00000000000E+00 0. -1.
</event>
<event>
 5    1  0.3368139E+002  0.1599656E+01  0.7818608E-02  0.3353737E+00
         11   -1    0    0    0    0  0.00000000000E+00  0.00000000000E+00  0.39999999674E+01  0.40000000000E+01  0.51100000000E-03 0.  1.
    9000002   -1    0    0    0    0 -0.00000000000E+00 -0.00000000000E+00  0.00000000000E+00  0.93800000000E+00  0.93800000000E+00 0. -1.
         11    1    1    2    0    0 -0.48859339624E-02  0.65171906245E-01  0.73116094183E+00  0.73407617703E+00  0.51100000000E-03 0.  1.
    9000002    1    1    2    0    0  0.49001569788E-01 -0.34675536593E+00  0.82250407027E-01  0.10046141384E+01  0.93800000000E+00 0. -1.
         22    1    1    2    0    0 -0.44115635826E-01  0.28158345968E+00  0.31865886185E+01  0.31993096846E+01  0.00000000000E+00 0.  1.
</event>
<event>
 5    1  0.3368139E+002  0.1599593E+01  0.7818608E-02  0.3353806E+00
         11   -1    0    0    0    0  0.00000000000E+00  0.00000000000E+00  0.39999999674E+01  0.40000000000E+01  0.51100000000E-03 0.  1.
    9000002   -1    0    0    0    0 -0.00000000000E+00 -0.00000000000E+00  0.00000000000E+00  0.93800000000E+00  0.93800000000E+00 0. -1.
         11    1    1    2    0    0 -0.54373328784E-01  0.14093202226E+00  0.17162226124E+01  0.17228576872E+01  0.51100000000E-03 0.  1.
    9000002    1    1    2    0    0  0.14909247373E+00 -0.32143737165E+00  0.84291514960E-01  0.10062303956E+01  0.93800000000E+00 0. -1.
         22    1    1    2    0    0 -0.94719144949E-01  0.18050534939E+00  0.21994858400E+01  0.22089119172E+01  0.00000000000E+00 0.  1.
</event>
<event>
 5    1  0.3368139E+002  0.1599426E+01  0.7818608E-02  0.3353987E+00
         11   -1    0    0    0    0  0.00000000000E+00  0.00000000000E+00  0.39999999674E+01  0.40000000000E+01  0.51100000000E-03 0. -1.
    9000002   -1    0    0    0    0 -0.00000000000E+00 -0.00000000000E+00  0.00000000000E+00  0.93800000000E+00  0.93800000000E+00 0.  1.
         11    1    1    2    0    0  0.55871251187E-01  0.18395725155E+00  0.17530864610E+01  0.17635969687E+01  0.51100000000E-03 0. -1.
    9000002    1    1    2    0    0 -0.85489210046E-01 -0.39118886224E+00  0.10836537607E+00  0.10256335533E+01  0.93800000000E+00 0.  1.
         22    1    1    2    0    0  0.29617958860E-01  0.20723161069E+00  0.21385481303E+01  0.21487694779E+01  0.00000000000E+00 0. -1.
</event>
<event>
 5    1  0.3368139E+002  0.1538496E+01  0.7818608E-02  0.3422948E+00
         11   -1    0    0    0    0  0.00000000000E+00  0.00000000000E+00  0.39999999674E+01  0.40000000000E+01  0.51100000000E-03 0. -1.
    9000002   -1    0    0    0    0 -0.00000000000E+00 -0.00000000000E+00  0.00000000000E+00  0.93800000000E+00  0.93800000000E+00 0.  1.
         11    1    1    2    0    0  0.21087658197E+00 -0.10603159874E+00  0.11614721779E+01  0.11852128560E+01  0.51100000000E-03 0. -1.
    9000002    1    1    2    0    0  0.14597117261E+00  0.32757617096E-01  0.61367106448E-01  0.95183536731E+00  0.93800000000E+00 0.  1.
         22    1    1    2    0    0 -0.35684775458E+00  0.73273981644E-01  0.27771606830E+01  0.28009517767E+01  0.00000000000E+00 0. -1.
</event>
<event>
 5    1  0.3368139E+002  0.1581440E+01  0.7818608E-02  0.3373757E+00
         11   -1    0    0    0    0  0.00000000000E+00  0.00000000000E+00  0.39999999674E+01  0.40000000000E+01  0.51100000000E-03 0. -1.
    9000002   -1    0    0    0    0 -0.00000000000E+00 -0.00000000000E+00  0.00000000000E+00  0.93800000000E+00  0.93800000000E+00 0. -1.
         11    1    1    2    0    0  0.48636254114E+00 -0.14983142560E+00  0.31555864003E+01  0.31963610197E+01  0.51100000000E-03 0. -1.
    9000002    1    1    2    0    0 -0.68238929695E+00  0.20443300754E+00  0.38497250304E+00  0.12391512560E+01  0.93800000000E+00 0. -1.
         22    1    1    2    0    0  0.19602675580E+00 -0.54601581943E-01  0.45944106404E+00  0.50248772429E+00  0.00000000000E+00 0. -1.
</event>
<event>
 5    1  0.3368139E+002  0.1599624E+01  0.7818608E-02  0.3353771E+00
         11   -1    0    0    0    0  0.00000000000E+00  0.00000000000E+00  0.39999999674E+01  0.40000000000E+01  0.51100000000E-03 0.  1.
    9000002   -1    0    0    0    0 -0.00000000000E+00 -0.00000000000E+00  0.00000000000E+00  0.93800000000E+00  0.93800000000E+00 0. -1.
         11    1    1    2    0    0 -0.23699079112E-01  0.30049683072E-01  0.46916257827E+00  0.47072116563E+00  0.51100000000E-03 0.  1.
    9000002    1    1    2    0    0  0.18740518976E+00 -0.29715234599E+00  0.82809187503E-01  0.10050480503E+01  0.93800000000E+00 0. -1.
         22    1    1    2    0    0 -0.16370611065E+00  0.26710266292E+00  0.34480282016E+01  0.34622307841E+01  0.00000000000E+00 0.  1.
</event>
<event>
 5    1  0.3368139E+002  0.1588874E+01  0.7818608E-02  0.3365528E+00
         11   -1    0    0    0    0  0.00000000000E+00  0.00000000000E+00  0.39999999674E+01  0.40000000000E+01  0.51100000000E-03 0.  1.
    9000002   -1    0    0    0    0 -0.00000000000E+00 -0.00000000000E+00  0.00000000000E+00  0.93800000000E+00  0.93800000000E+00 0.  1.
         11    1    1    2    0    0 -0.32932221570E-01 -0.22974166276E-02  0.16420956865E+00  0.16749582950E+00  0.51100000000E-03 0.  1.
    9000002    1    1    2    0    0 -0.40528753323E+00  0.19260965174E+00  0.14611278170E+00  0.10500235271E+01  0.93800000000E+00 0.  1.
         22    1    1    2    0    0  0.43821975480E+00 -0.19031223511E+00  0.36896776170E+01  0.37204806434E+01  0.00000000000E+00 0.  1.
</event>
<event>
 5    1  0.3368139E+002  0.1588475E+01  0.7818608E-02  0.3365968E+00
         11   -1    0    0    0    0  0.00000000000E+00  0.00000000000E+00  0.39999999674E+01  0.40000000000E+01  0.51100000000E-03 0.  1.
    9000002   -1    0    0    0    0 -0.00000000000E+00 -0.00000000000E+00  0.00000000000E+00  0.93800000000E+00  0.93800000000E+00 0. -1.
         11    1    1    2    0    0  0.29707422750E-01  0.13656844886E-02  0.70248825371E-01  0.76286005581E-01  0.51100000000E-03 0.  1.
    9000002    1    1    2    0    0  0.23877787204E+00  0.13884861523E+00  0.59503376356E-01  0.97963179916E+00  0.93800000000E+00 0. -1.
         22    1    1    2    0    0 -0.26848529479E+00 -0.14021429971E+00  0.38702477656E+01  0.38820821953E+01  0.00000000000E+00 0.  1.
</event>
<event>
 5    1  0.3368139E+002  0.1590268E+01  0.7818608E-02  0.3363994E+00
         11   -1    0    0    0    0  0.00000000000E+00  0.00000000000E+00  0.39999999674E+01  0.40000000000E+01  0.51100000000E-03 0.  1.
    9000002   -1    0    0    0    0 -0.00000000000E+00 -0.00000000000E+00  0.00000000000E+00  0.93800000000E+00  0.93800000000E+00 0.  1.
         11    1    1    2    0    0 -0.51705018926E-01  0.28851457445E+00  0.17809832642E+01  0.18049420260E+01  0.51100000000E-03 0.  1.
    9000002    1    1    2    0    0  0.25071042540E+00 -0.41225426980E+00  0.16730798613E+00  0.10680099544E+01  0.93800000000E+00 0.  1.
         22    1    1    2    0    0 -0.19900540648E+00  0.12373969535E+00  0.20517087170E+01  0.20650480197E+01  0.00000000000E+00 0.  1.
</event>
<event>
 5    1  0.3368139E+002  0.1599657E+01  0.7818608E-02  0.3353735E+00
         11   -1    0    0    0    0  0.00000000000E+00  0.00000000000E+00  0.39999999674E+01  0.40000000000E+01  0.51100000000E-03 0.  1.
    9000002   -1    0    0    0    0 -0.00000000000E+00 -0.00000000000E+00  0.00000000000E+00  0.93800000000E+00  0.93800000000E+00 0. -1.
         11    1    1    2    0    0  0.19164541556E+00  0.25549485963E+00  0.21784642478E+01  0.22017521042E+01  0.51100000000E-03 0.  1.
    9000002    1    1    2    0    0 -0.32487130951E+00 -0.44169797594E+00  0.20760320357E+00  0.11061562095E+01  0.93800000000E+00 0. -1.
         22    1    1    2    0    0  0.13322589395E+00  0.18620311631E+00  0.16139325160E+01  0.16300916863E+01  0.00000000000E+00 0. -1.
</event>
<event>
 5    1  0.3368139E+002  0.1586641E+01  0.7818608E-02  0.3367991E+00
         11   -1    0    0    0    0  0.00000000000E+00  0.00000000000E+00  0.39999999674E+01  0.40000000000E+01  0.51100000000E-03 0.  1.
    9000002   -1    0    0    0    0 -0.00000000000E+00 -0.00000000000E+00  0.00000000000E+00  0.93800000000E+00  0.93800000000E+00 0. -1.
         11    1    1    2    0    0  0.27278060473E+00 -0.21051261634E+00  0.11050303077E+01  0.11575046704E+01  0.51100000000E-03 0.  1.
    9000002    1    1    2    0    0 -0.70528801934E+00  0.29858772269E+00  0.44352130676E+00  0.12896282286E+01  0.93800000000E+00 0. -1.
         22    1    1    2    0    0  0.43250741460E+00 -0.88075106346E-01  0.24514483529E+01  0.24908671010E+01  0.00000000000E+00 0.  1.
</event>
<event>
 5    1  0.3368139E+002  0.1599676E+01  0.7818608E-02  0.3353715E+00
         11   -1    0    0    0    0  0.00000000000E+00  0.00000000000E+00  0.39999999674E+01  0.40000000000E+01  0.51100000000E-03 0.  1.
    9000002   -1    0    0    0    0 -0.00000000000E+00 -0.00000000000E+00  0.00000000000E+00  0.93800000000E+00  0.93800000000E+00 0. -1.
         11    1    1    2    0    0 -0.30329037398E-02 -0.16557897541E+00  0.14260647972E+01  0.14356485164E+01  0.51100000000E-03 0.  1.
    9000002    1    1    2    0    0  0.90257763191E-02  0.45067297751E+00  0.13801786101E+00  0.10498002321E+01  0.93800000000E+00 0. -1.
         22    1    1    2    0    0 -0.59928725793E-02 -0.28509400210E+00  0.24359173091E+01  0.24525512515E+01  0.00000000000E+00 0.  1.
</event>
<event>
 5    1  0.3368139E+002  0.1591177E+01  0.7818608E-02  0.3362995E+00
         11   -1    0    0    0    0  0.00000000000E+00  0.00000000000E+00  0.39999999674E+01  0.40000000000E+01  0.51100000000E-03 0.  1.
    9000002   -1    0    0    0    0 -0.00000000000E+00 -0.00000000000E+00  0.00000000000E+00  0.93800000000E+00  0.93800000000E+00 0. -1.
         11    1    1    2    0    0  0.80820241845E-01  0.13613396668E+00  0.22273942114E+01  0.22330135697E+01  0.51100000000E-03 0.  1.
    9000002    1    1    2    0    0 -0.32418892600E+00 -0.28898814031E+00  0.13510034435E+00  0.10424532162E+01  0.93800000000E+00 0. -1.
         22    1    1    2    0    0  0.24336868416E+00  0.15285417363E+00  0.16375054116E+01  0.16625332141E+01  0.00000000000E+00 0.  1.
</event>
<event>
 5    1  0.3368139E+002  0.1599676E+01  0.7818608E-02  0.3353715E+00
         11   -1    0    0    0    0  0.00000000000E+00  0.00000000000E+00  0.39999999674E+01  0.40000000000E+01  0.51100000000E-03 0.  1.
    9000002   -1    0    0    0    0 -0.00000000000E+00 -0.00000000000E+00  0.00000000000E+00  0.93800000000E+00  0.93800000000E+00 0.  1.
         11    1    1    2    0    0  0.18393175434E-01  0.33678517967E-02  0.23423066787E+00  0.23497642056E+00  0.51100000000E-03 0. -1.
    9000002    1    1    2    0    0 -0.30498010545E+00 -0.59619990755E-01  0.64487771945E-01  0.99023738606E+00  0.93800000000E+00 0.  1.
         22    1    1    2    0    0  0.28658693002E+00  0.56252138958E-01  0.37012815275E+01  0.37127861934E+01  0.00000000000E+00 0.  1.
</event>
<event>
 5    1  0.3368139E+002  0.1599639E+01  0.7818608E-02  0.3353755E+00
         11   -1    0    0    0    0  0.00000000000E+00  0.00000000000E+00  0.39999999674E+01  0.40000000000E+01  0.51100000000E-03 0.  1.
    9000002   -1    0    0    0    0 -0.00000000000E+00 -0.00000000000E+00  0.00000000000E+00  0.93800000000E+00  0.93800000000E+00 0. -1.
         11    1    1    2    0    0  0.26734618611E+00 -0.35037354110E-02  0.21263489194E+01  0.21430926829E+01  0.51100000000E-03 0.  1.
    9000002    1    1    2    0    0 -0.47412232694E+00 -0.29876663372E-02  0.15327649115E+00  0.10621386867E+01  0.93800000000E+00 0. -1.
         22    1    1    2    0    0  0.20677614083E+00  0.64914017482E-02  0.17203745568E+01  0.17327686304E+01  0.00000000000E+00 0.  1.
</event>
<event>
 5    1  0.3368139E+002  0.1598101E+01  0.7818608E-02  0.3355427E+00
         11   -1    0    0    0    0  0.00000000000E+00  0.00000000000E+00  0.39999999674E+01  0.40000000000E+01  0.51100000000E-03 0.  1.
    9000002   -1    0    0    0    0 -0.00000000000E+00 -0.00000000000E+00  0.00000000000E+00  0.93800000000E+00  0.93800000000E+00 0.  1.
         11    1    1    2    0    0 -0.16704671158E+00 -0.15185869094E+00  0.18222846089E+01  0.18362154347E+01  0.51100000000E-03 0.  1.
    9000002    1    1    2    0    0  0.26788722203E+00  0.37486899794E+00  0.14579063366E+00  0.10551726106E+01  0.93800000000E+00 0.  1.
         22    1    1    2    0    0 -0.10084051045E+00 -0.22301030700E+00  0.20319247248E+01  0.20466119547E+01  0.00000000000E+00 0.  1.
</event>
<event>
 5    1  0.3368139E+002  0.1599676E+01  0.7818608E-02  0.3353715E+00
         11   -1    0    0    0    0  0.00000000000E+00  0.00000000000E+00  0.39999999674E+01  0.40000000000E+01  0.51100000000E-03 0. -1.
    9000002   -1    0    0    0    0 -0.00000000000E+00 -0.00000000000E+00  0.00000000000E+00  0.93800000000E+00  0.93800000000E+00 0.  1.
         11    1    1    2    0    0  0.39749741318E+00  0.13371847728E+00  0.22659598817E+01  0.23044433756E+01  0.51100000000E-03 0. -1.
    9000002    1    1    2    0    0 -0.64500118647E+00 -0.21539658472E+00  0.32875012356E+00  0.12043018156E+01  0.93800000000E+00 0.  1.
         22    1    1    2    0    0  0.24750377328E+00  0.81678107450E-01  0.14052899621E+01  0.14292548088E+01  0.00000000000E+00 0.  1.
</event>
<event>
 5    1  0.3368139E+002  0.1599663E+01  0.7818608E-02  0.3353729E+00
         11   -1    0    0    0    0  0.00000000000E+00  0.00000000000E+00  0.39999999674E+01  0.40000000000E+01  0.51100000000E-03 0. -1.
    9000002   -1    0    0    0    0 -0.00000000000E+00 -0.00000000000E+00  0.00000000000E+00  0.93800000000E+00  0.93800000000E+00 0.  1.
         11    1    1    2    0    0  0.24736600129E-01  0.12519762988E-01  0.42516399099E+00  0.42606727662E+00  0.51100000000E-03 0. -1.
    9000002    1    1    2    0    0 -0.20479144723E+00 -0.11910294741E+00  0.37257746856E-01  0.96817208627E+00  0.93800000000E+00 0.  1.
         22    1    1    2    0    0  0.18005484710E+00  0.10658318442E+00  0.35375782295E+01  0.35437606371E+01  0.00000000000E+00 0. -1.
</event>
<event>
 5    1  0.3368139E+002  0.1585737E+01  0.7818608E-02  0.3368991E+00
         11   -1    0    0    0    0  0.00000000000E+00  0.00000000000E+00  0.39999999674E+01  0.40000000000E+01  0.51100000000E-03 0. -1.
    9000002   -1    0    0    0    0 -0.00000000000E+00 -0.00000000000E+00  0.00000000000E+00  0.93800000000E+00  0.93800000000E+00 0.  1.
         11    1    1    2    0    0 -0.77704394749E-02 -0.10673489435E+00  0.13048229266E+01  0.13092042806E+01  0.51100000000E-03 0. -1.
    9000002    1    1    2    0    0 -0.20978100708E+00 -0.74614070561E-02  0.39746900339E-01  0.96202263987E+00  0.93800000000E+00 0.  1.
         22    1    1    2    0    0  0.21755144655E+00  0.11419630141E+00  0.26554301404E+01  0.26667730796E+01  0.00000000000E+00 0. -1.
</event>
<event>
 5    1  0.3368139E+002  0.1599671E+01  0.7818608E-02  0.3353720E+00
         11   -1    0    0    0    0  0.00000000000E+00  0.00000000000E+00  0.39999999674E+01  0.40000000000E+01  0.51100000000E-03 0.  1.
    9000002   -1    0    0    0    0 -0.00000000000E+00 -0.00000000000E+00  0.00000000000E+00  0.93800000000E+00  0.93800000000E+00 0. -1.
         11    1    1    2    0    0  0.65967861490E-01 -0.58252828040E-01  0.10238446140E+01  0.10276201660E+01  0.51100000000E-03 0.  1.
    9000002    1    1    2    0    0 -0.26073910188E+00  0.21810046715E+00  0.77399075941E-01  0.10006934146E+01  0.93800000000E+00 0. -1.
         22    1    1    2    0    0  0.19477124038E+00 -0.15984763911E+00  0.28987562774E+01  0.29096864195E+01  0.00000000000E+00 0.  1.
</event>
<event>
 5    1  0.3368139E+002  0.1599551E+01  0.7818608E-02  0.3353851E+00
         11   -1    0    0    0    0  0.00000000000E+00  0.00000000000E+00  0.39999999674E+01  0.40000000000E+01  0.51100000000E-03 0. -1.
    9000002   -1    0    0    0    0 -0.00000000000E+00 -0.00000000000E+00  0.00000000000E+00  0.93800000000E+00  0.93800000000E+00 0.  1.
         11    1    1    2    0    0 -0.37416155219E-01 -0.12556794554E-01  0.72270766318E+00  0.72378468435E+00  0.51100000000E-03 0. -1.
    9000002    1    1    2    0    0  0.23389849209E+00  0.11793844034E+00  0.45722071085E-01  0.97496281370E+00  0.93800000000E+00 0.  1.
         22    1    1    2    0    0 -0.19648233687E+00 -0.10538164579E+00  0.32315702331E+01  0.32392525019E+01  0.00000000000E+00 0. -1.
</event>
<event>
 5    1  0.3368139E+002  0.1587028E+01  0.7818608E-02  0.3367564E+00
         11   -1    0    0    0    0  0.00000000000E+00  0.00000000000E+00  0.39999999674E+01  0.40000000000E+01  0.51100000000E-03 0.  1.
    9000002   -1    0    0    0    0 -0.00000000000E+00 -0.00000000000E+00  0.00000000000E+00  0.93800000000E+00  0.93800000000E+00 0.  1.
         11    1    1    2    0    0 -0.62894420139E-01 -0.18968149129E-04  0.34450839793E+00  0.35020280668E+00  0.51100000000E-03 0.  1.
    9000002    1    1    2    0    0 -0.14221073021E+00 -0.14994029803E+00  0.37845736518E-01  0.96123997240E+00  0.93800000000E+00 0.  1.
         22    1    1    2    0    0  0.20510515035E+00  0.14995926618E+00  0.36176458329E+01  0.36265572209E+01  0.00000000000E+00 0.  1.
</event>
<event>
 5    1  0.3368139E+002  0.1599484E+01  0.7818608E-02  0.3353923E+00
         11   -1    0    0    0    0  0.00000000000E+00  0.00000000000E+00  0.39999999674E+01  0.40000000000E+01  0.51100000000E-03 0. -1.
    9000002   -1    0    0    0    0 -0.00000000000E+00 -0.00000000000E+00  0.00000000000E+00  0.93800000000E+00  0.93800000000E+00 0.  1.
         11    1    1    2    0    0  0.13258911641E+00  0.15312328675E+00  0.14126196689E+01  0.14270673442E+01  0.51100000000E-03 0. -1.
    9000002    1    1    2    0    0 -0.34516087464E+00 -0.45168423180E+00  0.22419000281E+00  0.11194908807E+01  0.93800000000E+00 0.  1.
         22    1    1    2    0    0  0.21257175823E+00  0.29856094505E+00  0.23631902956E+01  0.23914417751E+01  0.00000000000E+00 0. -1.
</event>
<event>
 5    1  0.3368139E+002  0.1535202E+01  0.7818608E-02  0.3426842E+00
         11   -1    0    0    0    0  0.00000000000E+00  0.00000000000E+00  0.39999999674E+01  0.40000000000E+01  0.51100000000E-03 0.  1.
    9000002   -1    0    0    0    0 -0.00000000000E+00 -0.00000000000E+00  0.00000000000E+00  0.93800000000E+00  0.93800000000E+00 0. -1.
         11    1    1    2    0    0  0.41238796435E+00  0.83753378209E-01  0.23878683319E+01  0.24246636660E+01  0.51100000000E-03 0.  1.
    9000002    1    1    2    0    0 -0.20495756610E+00 -0.26621707820E+00  0.12897254962E+00  0.10046676342E+01  0.93800000000E+00 0. -1.
         22    1    1    2    0    0 -0.20743039826E+00  0.18246369999E+00  0.14831590858E+01  0.15086686998E+01  0.00000000000E+00 0.  1.
</event>
<event>
 5    1  0.3368139E+002  0.1599673E+01  0.7818608E-02  0.3353718E+00
         11   -1    0    0    0    0  0.00000000000E+00  0.00000000000E+00  0.39999999674E+01  0.40000000000E+01  0.51100000000E-03 0.  1.
    9000002   -1    0    0    0    0 -0.00000000000E+00 -0.00000000000E+00  0.00000000000E+00  0.93800000000E+00  0.93800000000E+00 0. -1.
         11    1    1    2    0    0  0.86377560691E-01  0.97275521908E-01  0.13914648591E+01  0.13975329425E+01  0.51100000000E-03 0.  1.
    9000002    1    1    2    0    0 -0.24368268459E+00 -0.27955692924E+00  0.92440252959E-01  0.10128783381E+01  0.93800000000E+00 0. -1.
         22    1    1    2    0    0  0.15730512390E+00  0.18228140733E+00  0.25160948553E+01  0.25275887193E+01  0.00000000000E+00 0.  1.
</event>
<event>
 5    1  0.3368139E+002  0.1599333E+01  0.7818608E-02  0.3354088E+00
         11   -1    0    0    0    0  0.00000000000E+00  0.00000000000E+00  0.39999999674E+01  0.40000000000E+01  0.51100000000E-03 0. -1.
    9000002   -1    0    0    0    0 -0.00000000000E+00 -0.00000000000E+00  0.00000000000E+00  0.93800000000E+00  0.93800000000E+00 0.  1.
         11    1    1    2    0    0 -0.25177989519E-02 -0.22400308387E-01  0.67828354235E+00  0.67865818942E+00  0.51100000000E-03 0. -1.
    9000002    1    1    2    0    0  0.34590886010E-01  0.22722672953E+00  0.35302276567E-01  0.96639472616E+00  0.93800000000E+00 0.  1.
         22    1    1    2    0    0 -0.32073087058E-01 -0.20482642115E+00  0.32864141484E+01  0.32929470844E+01  0.00000000000E+00 0. -1.
</event>
<event>
 5    1  0.3368139E+002  0.1527470E+01  0.7818608E-02  0.3436054E+00
         11   -1    0    0    0    0  0.00000000000E+00  0.00000000000E+00  0.39999999674E+01  0.40000000000E+01  0.51100000000E-03 0. -1.
    9000002   -1    0    0    0    0 -0.00000000000E+00 -0.00000000000E+00  0.00000000000E+00  0.93800000000E+00  0.93800000000E+00 0.  1.
         11    1    1    2    0    0  0.31341727322E+00 -0.12435669274E+00  0.30595076452E+01  0.30780322068E+01  0.51100000000E-03 0. -1.
    9000002    1    1    2    0    0 -0.71366669620E-01  0.56024265638E-01  0.60031176980E-01  0.94428791271E+00  0.93800000000E+00 0.  1.
         22    1    1    2    0    0 -0.24205060360E+00  0.68332427104E-01  0.88046114522E+00  0.91567988049E+00  0.00000000000E+00 0. -1.
</event>
<event>
 5    1  0.3368139E+002  0.1599594E+01  0.7818608E-02  0.3353804E+00
         11   -1    0    0    0    0  0.00000000000E+00  0.00000000000E+00  0.39999999674E+01  0.40000000000E+01  0.51100000000E-03 0. -1.
    9000002   -1    0    0    0    0 -0.00000000000E+00 -0.00000000000E+00  0.00000000000E+00  0.93800000000E+00  0.93800000000E+00 0.  1.
         11    1    1    2    0    0 -0.28693017111E-03 -0.10890070692E+00  0.94799654770E+00  0.95423118890E+00  0.51100000000E-03 0. -1.
    9000002    1    1    2    0    0 -0.18998244004E-01  0.41308760058E+00  0.11561874849E+00  0.10316074806E+01  0.93800000000E+00 0.  1.
         22    1    1    2    0    0  0.19285174175E-01 -0.30418689367E+00  0.29363846712E+01  0.29521613305E+01  0.00000000000E+00 0. -1.
</event>
<event>
 5    1  0.3368139E+002  0.1586650E+01  0.7818608E-02  0.3367981E+00
         11   -1    0    0    0    0  0.00000000000E+00  0.00000000000E+00  0.39999999674E+01  0.40000000000E+01  0.51100000000E-03 0.  1.
    9000002   -1    0    0    0    0 -0.00000000000E+00 -0.00000000000E+00  0.00000000000E+00  0.93800000000E+00  0.93800000000E+00 0.  1.
         11    1    1    2    0    0  0.29855131746E-01 -0.34750406281E-01  0.11575110731E+00  0.12448895370E+00  0.51100000000E-03 0.  1.
    9000002    1    1    2    0    0  0.19924521643E+00  0.14009636660E+00  0.49384339707E-01  0.97036511747E+00  0.93800000000E+00 0.  1.
         22    1    1    2    0    0 -0.22910034817E+00 -0.10534596031E+00  0.38348645203E+01  0.38431459288E+01  0.00000000000E+00 0.  1.
</event>
<event>
 5    1  0.3368139E+002  0.1599518E+01  0.7818608E-02  0.3353887E+00
         11   -1    0    0    0    0  0.00000000000E+00  0.00000000000E+00  0.39999999674E+01  0.40000000000E+01  0.51100000000E-03 0. -1.
    9000002   -1    0    0    0    0 -0.00000000000E+00 -0.00000000000E+00  0.00000000000E+00  0.93800000000E+00  0.93800000000E+00 0. -1.
         11    1    1    2    0    0  0.62718239438E-01  0.80300152165E-01  0.14177057077E+01  0.14213625247E+01  0.51100000000E-03 0. -1.
    9000002    1    1    2    0    0 -0.20797000787E+00 -0.24458152665E+00  0.69026206492E-01  0.99382104251E+00  0.93800000000E+00 0. -1.
         22    1    1    2    0    0  0.14525176843E+00  0.16428137448E+00  0.25132680532E+01  0.25228164328E+01  0.00000000000E+00 0. -1.
</event>
<event>
 5    1  0.3368139E+002  0.1599115E+01  0.7818608E-02  0.3354325E+00
         11   -1    0    0    0    0  0.00000000000E+00  0.00000000000E+00  0.39999999674E+01  0.40000000000E+01  0.51100000000E-03 0. -1.
    9000002   -1    0    0    0    0 -0.00000000000E+00 -0.00000000000E+00  0.00000000000E+00  0.93800000000E+00  0.93800000000E+00 0. -1.
         11    1    1    2    0    0 -0.12626813012E+00 -0.13204045947E-01  0.11552174216E+01  0.11621727668E+01  0.51100000000E-03 0. -1.
    9000002    1    1    2    0    0  0.34496094267E+00  0.75296971545E-01  0.84073108219E-01  0.10057733211E+01  0.93800000000E+00 0. -1.
         22    1    1    2    0    0 -0.21869281255E+00 -0.62092925598E-01  0.27607094375E+01  0.27700539121E+01  0.00000000000E+00 0.  1.
</event>
<event>
 5    1  0.3368139E+002  0.1598687E+01  0.7818608E-02  0.3354790E+00
         11   -1    0    0    0    0  0.00000000000E+00  0.00000000000E+00  0.39999999674E+01  0.40000000000E+01  0.51100000000E-03 0.  1.
    9000002   -1    0    0    0    0 -0.00000000000E+00 -0.00000000000E+00  0.00000000000E+00  0.93800000000E+00  0.93800000000E+00 0. -1.
         11    1    1    2    0    0  0.16059256252E-01  0.68638427930E-02  0.41751425035E+00  0.41787967456E+00  0.51100000000E-03 0.  1.
    9000002    1    1    2    0    0  0.65966318800E-02 -0.21818427463E+00  0.32327565123E-01  0.96360622908E+00  0.93800000000E+00 0. -1.
         22    1    1    2    0    0 -0.22655888132E-01  0.21132043184E+00  0.35501581519E+01  0.35565140964E+01  0.00000000000E+00 0.  1.
</event>
<event>
 5    1  0.3368139E+002  0.1599169E+01  0.7818608E-02  0.3354265E+00
         11   -1    0    0    0    0  0.00000000000E+00  0.00000000000E+00  0.39999999674E+01  0.40000000000E+01  0.51100000000E-03 0.  1.
    9000002   -1    0    0    0    0 -0.00000000000E+00 -0.00000000000E+00  0.00000000000E+00  0.93800000000E+00  0.93800000000E+00 0. -1.
         11    1    1    2    0    0  0.19810142040E-01  0.22576919623E-01  0.53023445784E+00  0.53108473940E+00  0.51100000000E-03 0.  1.
    9000002    1    1    2    0    0 -0.30697027518E-01 -0.24113317723E+00  0.39617577550E-01  0.96979434372E+00  0.93800000000E+00 0. -1.
         22    1    1    2    0    0  0.10886885477E-01  0.21855625761E+00  0.34301479320E+01  0.34371209169E+01  0.00000000000E+00 0.  1.
</event>
<event>
 5    1  0.3368139E+002  0.1528043E+01  0.7818608E-02  0.3435368E+00
         11   -1    0    0    0    0  0.00000000000E+00  0.00000000000E+00  0.39999999674E+01  0.40000000000E+01  0.51100000000E-03 0. -1.
    9000002   -1    0    0    0    0 -0.00000000000E+00 -0.00000000000E+00  0.00000000000E+00  0.93800000000E+00  0.93800000000E+00 0.  1.
         11    1    1    2    0    0  0.42844792389E-01 -0.24213411667E+00  0.54475203379E+00  0.59767854749E+00  0.51100000000E-03 0. -1.
    9000002    1    1    2    0    0  0.15013428925E+00  0.17064174033E+00  0.90601493818E-01  0.96938719768E+00  0.93800000000E+00 0.  1.
         22    1    1    2    0    0 -0.19297908164E+00  0.71492376340E-01  0.33646464398E+01  0.33709342548E+01  0.00000000000E+00 0. -1.
</event>
<event>
 5    1  0.3368139E+002  0.1599524E+01  0.7818608E-02  0.3353881E+00
         11   -1    0    0    0    0  0.00000000000E+00  0.00000000000E+00  0.39999999674E+01  0.40000000000E+01  0.51100000000E-03 0.  1.
    9000002   -1    0    0    0    0 -0.00000000000E+00 -0.00000000000E+00  0.00000000000E+00  0.93800000000E+00  0.93800000000E+00 0. -1.
         11    1    1    2    0    0  0.16696887675E+00  0.12960459058E+00  0.20071395464E+01  0.20182381860E+01  0.51100000000E-03 0.  1.
    9000002    1    1    2    0    0 -0.32861960705E+00 -0.27832666514E+00  0.12573988618E+00  0.10397649242E+01  0.93800000000E+00 0. -1.
         22    1    1    2    0    0  0.16165073030E+00  0.14872207456E+00  0.18671205348E+01  0.18799968897E+01  0.00000000000E+00 0.  1.
</event>
<event>
 5    1  0.3368139E+002  0.1599672E+01  0.7818608E-02  0.3353720E+00
         11   -1    0    0    0    0  0.00000000000E+00  0.00000000000E+00  0.39999999674E+01  0.40000000000E+01  0.51100000000E-03 0.  1.
    9000002   -1    0    0    0    0 -0.00000000000E+00 -0.00000000000E+00  0.00000000000E+00  0.93800000000E+00  0.93800000000E+00 0. -1.
         11    1    1    2    0    0 -0.56555422822E-01 -0.16871301059E+00  0.11533577266E+01  0.11670033857E+01  0.51100000000E-03 0.  1.
    9000002    1    1    2    0    0  0.19165632906E+00  0.54623619770E+00  0.23278121021E+00  0.11265599070E+01  0.93800000000E+00 0. -1.
         22    1    1    2    0    0 -0.13510090624E+00 -0.37752318711E+00  0.26138610306E+01  0.26444367073E+01  0.00000000000E+00 0.  1.
</event>
<event>
 5    1  0.3368139E+002  0.1587027E+01  0.7818608E-02  0.3367565E+00
         11   -1    0    0    0    0  0.00000000000E+00  0.00000000000E+00  0.39999999674E+01  0.40000000000E+01  0.51100000000E-03 0.  1.
    9000002   -1    0    0    0    0 -0.00000000000E+00 -0.00000000000E+00  0.00000000000E+00  0.93800000000E+00  0.93800000000E+00 0.  1.
         11    1    1    2    0    0  0.74829801060E-01 -0.13227468206E-01  0.41918156774E+00  0.42601398205E+00  0.51100000000E-03 0.  1.
    9000002    1    1    2    0    0  0.16536389850E-01 -0.18687315852E+00  0.32783153178E-01  0.95713832057E+00  0.93800000000E+00 0.  1.
         22    1    1    2    0    0 -0.91366190909E-01  0.20010062673E+00  0.35480352464E+01  0.35548476974E+01  0.00000000000E+00 0.  1.
</event>
<event>
 5    1  0.3368139E+002  0.1599157E+01  0.7818608E-02  0.3354279E+00
         11   -1    0    0    0    0  0.00000000000E+00  0.00000000000E+00  0.39999999674E+01  0.40000000000E+01  0.51100000000E-03 0. -1.
    9000002   -1    0    0    0    0 -0.00000000000E+00 -0.00000000000E+00  0.00000000000E+00  0.93800000000E+00  0.93800000000E+00 0.  1.
         11    1    1    2    0    0  0.18106033211E-01  0.10990386400E-01  0.24809115327E+00  0.24899417360E+00  0.51100000000E-03 0. -1.
    9000002    1    1    2    0    0 -0.79035326151E-01 -0.20460348700E+00  0.32280827850E-01  0.96384398194E+00  0.93800000000E+00 0.  1.
         22    1    1    2    0    0  0.60929292940E-01  0.19361310060E+00  0.37196279862E+01  0.37251618445E+01  0.00000000000E+00 0. -1.
</event>
<event>
 5    1  0.3368139E+002  0.1599675E+01  0.7818608E-02  0.3353716E+00
         11   -1    0    0    0    0  0.00000000000E+00  0.00000000000E+00  0.39999999674E+01  0.40000000000E+01  0.51100000000E-03 0.  1.
    9000002   -1    0    0    0    0 -0.00000000000E+00 -0.00000000000E+00  0.00000000000E+00  0.93800000000E+00  0.93800000000E+00 0. -1.
         11    1    1    2    0    0 -0.96349982039E-01  0.21328286767E+00  0.18747346285E+01  0.18892863968E+01  0.51100000000E-03 0.  1.
    9000002    1    1    2    0    0  0.19689210841E+00 -0.43391810610E+00  0.15483711428E+00  0.10634236960E+01  0.93800000000E+00 0. -1.
         22    1    1    2    0    0 -0.10054212637E+00  0.22063523843E+00  0.19704282245E+01  0.19852899072E+01  0.00000000000E+00 0.  1.
</event>
<event>
 5    1  0.3368139E+002  0.1598901E+01  0.7818608E-02  0.3354558E+00
         11   -1    0    0    0    0  0.00000000000E+00  0.00000000000E+00  0.39999999674E+01  0.40000000000E+01  0.51100000000E-03 0.  1.
    9000002   -1    0    0    0    0 -0.00000000000E+00 -0.00000000000E+00  0.00000000000E+00  0.93800000000E+00  0.93800000000E+00 0.  1.
         11    1    1    2    0    0  0.43036710044E-01  0.17757792872E+00  0.16424237162E+01  0.16525562030E+01  0.51100000000E-03 0.  1.
    9000002    1    1    2    0    0 -0.17905960098E+00 -0.41862594341E+00  0.14158655767E+00  0.10522360831E+01  0.93800000000E+00 0.  1.
         22    1    1    2    0    0  0.13602289094E+00  0.24104801469E+00  0.22159896935E+01  0.22332077140E+01  0.00000000000E+00 0. -1.
</event>
<event>
 5    1  0.3368139E+002  0.1575749E+01  0.7818608E-02  0.3380112E+00
         11   -1    0    0    0    0  0.00000000000E+00  0.00000000000E+00  0.39999999674E+01  0.40000000000E+01  0.51100000000E-03 0. -1.
    9000002   -1    0    0    0    0 -0.00000000000E+00 -0.00000000000E+00  0.00000000000E+00  0.93800000000E+00  0.93800000000E+00 0.  1.
         11    1    1    2    0    0 -0.95894758401E-01  0.16355271520E-01  0.38679811908E+00  0.39884376094E+00  0.51100000000E-03 0. -1.
    9000002    1    1    2    0    0 -0.15517770297E+00 -0.20063799553E+00  0.61294154955E-01  0.97362040764E+00  0.93800000000E+00 0.  1.
         22    1    1    2    0    0  0.25107246137E+00  0.18428272401E+00  0.35519076933E+01  0.35655358314E+01  0.00000000000E+00 0. -1.
</event>
<event>
 5    1  0.3368139E+002  0.1599568E+01  0.7818608E-02  0.3353832E+00
         11   -1    0    0    0    0  0.00000000000E+00  0.00000000000E+00  0.39999999674E+01  0.40000000000E+01  0.51100000000E-03 0.  1.
    9000002   -1    0    0    0    0 -0.00000000000E+00 -0.00000000000E+00  0.00000000000E+00  0.93800000000E+00  0.93800000000E+00 0.  1.
         11    1    1    2    0    0  0.12845588833E-01  0.40754105773E-01  0.74671067272E+00  0.74793248102E+00  0.51100000000E-03 0.  1.
    9000002    1    1    2    0    0 -0.27020737164E-01 -0.24811862135E+00  0.41462624436E-01  0.97152257808E+00  0.93800000000E+00 0.  1.
         22    1    1    2    0    0  0.14175148331E-01  0.20736451558E+00  0.32118266702E+01  0.32185449409E+01  0.00000000000E+00 0.  1.
</event>
<event>
 5    1  0.3368139E+002  0.1598995E+01  0.7818608E-02  0.3354455E+00
         11   -1    0    0    0    0  0.00000000000E+00  0.00000000000E+00  0.39999999674E+01  0.40000000000E+01  0.51100000000E-03 0.  1.
    9000002   -1    0    0    0    0 -0.00000000000E+00 -0.00000000000E+00  0.00000000000E+00  0.93800000000E+00  0.93800000000E+00 0.  1.
         11    1    1    2    0    0  0.78513588617E-01  0.89087438154E-01  0.12196397339E+01  0.12254069924E+01  0.51100000000E-03 0.  1.
    9000002    1    1    2    0    0 -0.28290425205E+00 -0.19791594109E+00  0.80434619919E-01  0.10027558345E+01  0.93800000000E+00 0.  1.
         22    1    1    2    0    0  0.20439066344E+00  0.10882850293E+00  0.26999256135E+01  0.27098371731E+01  0.00000000000E+00 0.  1.
</event>
<event>
 5    1  0.3368139E+002  0.1599677E+01  0.7818608E-02  0.3353714E+00
         11   -1    0    0    0    0  0.00000000000E+00  0.00000000000E+00  0.39999999674E+01  0.40000000000E+01  0.51100000000E-03 0.  1.
    9000002   -1    0    0    0    0 -0.00000000000E+00 -0.00000000000E+00  0.00000000000E+00  0.93800000000E+00  0.93800000000E+00 0.  1.
         11    1    1    2    0    0 -0.70200007197E-01  0.54581395048E-01  0.78589603258E+00  0.79091087036E+00  0.51100000000E-03 0.  1.
    9000002    1    1    2    0    0  0.34338325031E+00 -0.26912190532E+00  0.12901873002E+00  0.10425106662E+01  0.93800000000E+00 0.  1.
         22    1    1    2    0    0 -0.27318324311E+00  0.21454051027E+00  0.30850852048E+01  0.31045784634E+01  0.00000000000E+00 0.  1.
</event>
<event>
 5    1  0.3368139E+002  0.1498965E+01  0.7818608E-02  0.3470895E+00
         11   -1    0    0    0    0  0.00000000000E+00  0.00000000000E+00  0.39999999674E+01  0.40000000000E+01  0.51100000000E-03 0.  1.
    9000002   -1    0    0    0    0 -0.00000000000E+00 -0.00000000000E+00  0.00000000000E+00  0.93800000000E+00  0.93800000000E+00 0. -1.
         11    1    1    2    0    0 -0.20448485638E+00  0.12363629099E+00  0.33038867837E+00  0.40774615738E+00  0.51100000000E-03 0.  1.
    9000002    1    1    2    0    0  0.47229040507E-01 -0.26086465805E+00  0.12870746068E+00  0.98320423235E+00  0.93800000000E+00 0. -1.
         22    1    1    2    0    0  0.15725581587E+00  0.13722836706E+00  0.35409038283E+01  0.35470496103E+01  0.00000000000E+00 0.  1.
</event>
<event>
 5    1  0.3368139E+002  0.1599021E+01  0.7818608E-02  0.3354427E+00
         11   -1    0    0    0    0  0.00000000000E+00  0.00000000000E+00  0.39999999674E+01  0.40000000000E+01  0.51100000000E-03 0.  1.
    9000002   -1    0    0    0    0 -0.00000000000E+00 -0.00000000000E+00  0.00000000000E+00  0.93800000000E+00  0.93800000000E+00 0. -1.
         11    1    1    2    0    0  0.72402509896E-01  0.14514615721E+00  0.16845691139E+01  0.16923601540E+01  0.51100000000E-03 0.  1.
    9000002    1    1    2    0    0 -0.21999010835E+00 -0.28868874498E+00  0.88992875725E-01  0.10097032095E+01  0.93800000000E+00 0. -1.
         22    1    1    2    0    0  0.14758759845E+00  0.14354258777E+00  0.22264379777E+01  0.22359366365E+01  0.00000000000E+00 0.  1.
</event>
<event>
 5    1  0.3368139E+002  0.1599496E+01  0.7818608E-02  0.3353910E+00
         11   -1    0    0    0    0  0.00000000000E+00  0.00000000000E+00  0.39999999674E+01  0.40000000000E+01  0.51100000000E-03 0.  1.
    9000002   -1    0    0    0    0 -0.00000000000E+00 -0.00000000000E+00  0.00000000000E+00  0.93800000000E+00  0.93800000000E+00 0.  1.
         11    1    1    2    0    0 -0.10520168131E+00 -0.34839323014E+00  0.18960393809E+01  0.19306503650E+01  0.51100000000E-03 0.  1.
    9000002    1    1    2    0    0  0.17524187429E+00  0.68491112540E+00  0.35808431434E+00  0.12279581998E+01  0.93800000000E+00 0.  1.
         22    1    1    2    0    0 -0.70040192982E-01 -0.33651789527E+00  0.17458762721E+01  0.17793914353E+01  0.00000000000E+00 0.  1.
</event>
<event>
 5    1  0.3368139E+002  0.1573043E+01  0.7818608E-02  0.3383151E+00
         11   -1    0    0    0    0  0.00000000000E+00  0.00000000000E+00  0.39999999674E+01  0.40000000000E+01  0.51100000000E-03 0.  1.
    9000002   -1    0    0    0    0 -0.00000000000E+00 -0.00000000000E+00  0.00000000000E+00  0.93800000000E+00  0.93800000000E+00 0. -1.
         11    1    1    2    0    0  0.33677861495E+00  0.99872628438E-01  0.18964334640E+01  0.19286924384E+01  0.51100000000E-03 0.  1.
    9000002    1    1    2    0    0 -0.29767703110E+00 -0.30350048452E+00  0.14523483277E+00  0.10400294782E+01  0.93800000000E+00 0. -1.
         22    1    1    2    0    0 -0.39101583854E-01  0.20362785608E+00  0.19583316706E+01  0.19692780834E+01  0.00000000000E+00 0.  1.
</event>
<event>
 5    1  0.3368139E+002  0.1599604E+01  0.7818608E-02  0.3353794E+00
         11   -1    0    0    0    0  0.00000000000E+00  0.00000000000E+00  0.39999999674E+01  0.40000000000E+01  0.51100000000E-03 0.  1.
    9000002   -1    0    0    0    0 -0.00000000000E+00 -0.00000000000E+00  0.00000000000E+00  0.93800000000E+00  0.93800000000E+00 0. -1.
         11    1    1    2    0    0 -0.24456231609E-01 -0.12299527237E-01  0.46235077402E+00  0.46316075502E+00  0.51100000000E-03 0.  1.
    9000002    1    1    2    0    0  0.24346189991E+00  0.60192099553E-01  0.41840247762E-01  0.97184946977E+00  0.93800000000E+00 0. -1.
         22    1    1    2    0    0 -0.21900566830E+00 -0.47892572316E-01  0.34958089456E+01  0.35029897752E+01  0.00000000000E+00 0.  1.
</event>
<event>
 5    1  0.3368139E+002  0.1549637E+01  0.7818608E-02  0.3409907E+00
         11   -1    0    0    0    0  0.00000000000E+00  0.00000000000E+00  0.39999999674E+01  0.40000000000E+01  0.51100000000E-03 0. -1.
    9000002   -1    0    0    0    0 -0.00000000000E+00 -0.00000000000E+00  0.00000000000E+00  0.93800000000E+00  0.93800000000E+00 0. -1.
         11    1    1    2    0    0  0.24539857958E+00 -0.15274089221E+00  0.28361647086E+01  0.28508561448E+01  0.51100000000E-03 0. -1.
    9000002    1    1    2    0    0 -0.69491837781E-02  0.24294307791E+00  0.78367481552E-01  0.97213944083E+00  0.93800000000E+00 0. -1.
         22    1    1    2    0    0 -0.23844939580E+00 -0.90202185695E-01  0.10854677772E+01  0.11150044143E+01  0.00000000000E+00 0. -1.
</event>
<event>
 5    1  0.3368139E+002  0.1599677E+01  0.7818608E-02  0.3353715E+00
         11   -1    0    0    0    0  0.00000000000E+00  0.00000000000E+00  0.39999999674E+01  0.40000000000E+01  0.51100000000E-03 0. -1.
    9000002   -1    0    0    0    0 -0.00000000000E+00 -0.00000000000E+00  0.00000000000E+00  0.93800000000E+00  0.93800000000E+00 0. -1.
         11    1    1    2    0    0  0.54679406841E-01 -0.71529080219E-02  0.81811356297E+00  0.81997016084E+00  0.51100000000E-03 0.  1.
    9000002    1    1    2    0    0 -0.26655202806E+00  0.33036075966E-01  0.47994128400E-01  0.97687706613E+00  0.93800000000E+00 0. -1.
         22    1    1    2    0    0  0.21187262122E+00 -0.25883167944E-01  0.31338922760E+01  0.31411527730E+01  0.00000000000E+00 0. -1.
</event>
<event>
 5    1  0.3368139E+002  0.1599342E+01  0.7818608E-02  0.3354078E+00
         11   -1    0    0    0    0  0.00000000000E+00  0.00000000000E+00  0.39999999674E+01  0.40000000000E+01  0.51100000000E-03 0.  1.
    9000002   -1    0    0    0    0 -0.00000000000E+00 -0.00000000000E+00  0.00000000000E+00  0.93800000000E+00  0.93800000000E+00 0. -1.
         11    1    1    2    0    0 -0.18356874094E+00  0.63588999977E-01  0.16302762572E+01  0.16418105797E+01  0.51100000000E-03 0.  1.
    9000002    1    1    2    0    0  0.47992326322E+00 -0.13272986060E+00  0.16997380577E+00  0.10754899577E+01  0.93800000000E+00 0. -1.
         22    1    1    2    0    0 -0.29635452228E+00  0.69140860621E-01  0.21997499044E+01  0.22206994626E+01  0.00000000000E+00 0.  1.
</event>
<event>
 5    1  0.3368139E+002  0.1599670E+01  0.7818608E-02  0.3353722E+00
         11   -1    0    0    0    0  0.00000000000E+00  0.00000000000E+00  0.39999999674E+01  0.40000000000E+01  0.51100000000E-03 0.  1.
    9000002   -1    0    0    0    0 -0.00000000000E+00 -0.00000000000E+00  0.00000000000E+00  0.93800000000E+00  0.93800000000E+00 0. -1.
         11    1    1    2    0    0 -0.13080489265E+00 -0.26184795689E-01  0.14452411270E+01  0.14513847663E+01  0.51100000000E-03 0.  1.
    9000002    1    1    2    0    0  0.36170311479E+00  0.73807003517E-01  0.91580019271E-01  0.10121795873E+01  0.93800000000E+00 0. -1.
         22    1    1    2    0    0 -0.23089822214E+00 -0.47622207828E-01  0.24631788211E+01  0.24744356464E+01  0.00000000000E+00 0.  1.
</event>
<event>
 5    1  0.3368139E+002  0.1599650E+01  0.7818608E-02  0.3353743E+00
         11   -1    0    0    0    0  0.00000000000E+00  0.00000000000E+00  0.39999999674E+01  0.40000000000E+01  0.51100000000E-03 0. -1.
    9000002   -1    0    0    0    0 -0.00000000000E+00 -0.00000000000E+00  0.00000000000E+00  0.93800000000E+00  0.93800000000E+00 0.  1.
         11    1    1    2    0    0 -0.18623764281E+00 -0.95695369961E-01  0.16680003775E+01  0.16810911884E+01  0.51100000000E-03 0. -1.
    9000002    1    1    2    0    0  0.41870841493E+00  0.23008520886E+00  0.15571131545E+00  0.10641174530E+01  0.93800000000E+00 0.  1.
         22    1    1    2    0    0 -0.23247077212E+00 -0.13438983890E+00  0.21762882744E+01  0.21927913585E+01  0.00000000000E+00 0. -1.
</event>
<event>
 5    1  0.3368139E+002  0.1590734E+01  0.7818608E-02  0.3363483E+00
         11   -1    0    0    0    0  0.00000000000E+00  0.00000000000E+00  0.39999999674E+01  0.40000000000E+01  0.51100000000E-03 0. -1.
    9000002   -1    0    0    0    0 -0.00000000000E+00 -0.00000000000E+00  0.00000000000E+00  0.93800000000E+00  0.93800000000E+00 0. -1.
         11    1    1    2    0    0  0.29317982646E-01  0.51803952352E-02  0.92805227526E-01  0.97465132116E-01  0.51100000000E-03 0. -1.
    9000002    1    1    2    0    0  0.21219687276E+00  0.33025173824E-02  0.36601086869E-01  0.96240431160E+00  0.93800000000E+00 0. -1.
         22    1    1    2    0    0 -0.24151485541E+00 -0.84829126176E-02  0.38705936530E+01  0.38781305563E+01  0.00000000000E+00 0. -1.
</event>
<event>
 5    1  0.3368139E+002  0.1599666E+01  0.7818608E-02  0.3353726E+00
         11   -1    0    0    0    0  0.00000000000E+00  0.00000000000E+00  0.39999999674E+01  0.40000000000E+01  0.51100000000E-03 0. -1.
    9000002   -1    0    0    0    0 -0.00000000000E+00 -0.00000000000E+00  0.00000000000E+00  0.93800000000E+00  0.93800000000E+00 0.  1.
         11    1    1    2    0    0  0.23071510985E-01  0.43893435857E-03  0.37926485954E+00  0.37996655391E+00  0.51100000000E-03 0. -1.
    9000002    1    1    2    0    0 -0.24807488764E+00  0.18648885583E-01  0.41116896349E-01  0.97129991762E+00  0.93800000000E+00 0.  1.
         22    1    1    2    0    0  0.22500337665E+00 -0.19087819941E-01  0.35796182115E+01  0.35867335285E+01  0.00000000000E+00 0. -1.
</event>
<event>
 5    1  0.4332457E+002  0.1577403E+01  0.7818608E-02  0.3378261E+00
         11   -1    0    0    0    0  0.00000000000E+00  0.00000000000E+00  0.39999999674E+01  0.40000000000E+01  0.51100000000E-03 0. -1.
    9000002   -1    0    0    0    0 -0.00000000000E+00 -0.00000000000E+00  0.00000000000E+00  0.93800000000E+00  0.93800000000E+00 0.  1.
         11    1    1    2    0    0 -0.43528390806E-01  0.65944308330E-01  0.23991430839E+00  0.25259158557E+00  0.51100000000E-03 0. -1.
    9000002    1    1    2    0    0 -0.10365344590E+00  0.75928083601E-01  0.27427444762E-01  0.94715646830E+00  0.93800000000E+00 0.  1.
         22    1    1    2    0    0  0.14718183670E+00 -0.14187239193E+00  0.37326582142E+01  0.37382519461E+01  0.00000000000E+00 0. -1.
</event>
<event>
 5    1  0.3368139E+002  0.1599655E+01  0.7818608E-02  0.3353738E+00
         11   -1    0    0    0    0  0.00000000000E+00  0.00000000000E+00  0.39999999674E+01  0.40000000000E+01  0.51100000000E-03 0.  1.
    9000002   -1    0    0    0    0 -0.00000000000E+00 -0.00000000000E+00  0.00000000000E+00  0.93800000000E+00  0.93800000000E+00 0.  1.
         11    1    1    2    0    0 -0.49464626406E-01  0.45507008550E-01  0.33649706322E+00  0.34314453481E+00  0.51100000000E-03 0.  1.
    9000002    1    1    2    0    0  0.54804483363E+00 -0.51433887922E+00  0.40973630074E+00  0.12698919082E+01  0.93800000000E+00 0.  1.
         22    1    1    2    0    0 -0.49858020722E+00  0.46883187067E+00  0.32537666034E+01  0.33249635570E+01  0.00000000000E+00 0.  1.
</event>
<event>
 5    1  0.3368139E+002  0.1599215E+01  0.7818608E-02  0.3354216E+00
         11   -1    0    0    0    0  0.00000000000E+00  0.00000000000E+00  0.39999999674E+01  0.40000000000E+01  0.51100000000E-03 0. -1.
    9000002   -1    0    0    0    0 -0.00000000000E+00 -0.00000000000E+00  0.00000000000E+00  0.93800000000E+00  0.93800000000E+00 0.  1.
         11    1    1    2    0    0 -0.47051246101E-01  0.15977223762E-01  0.10816636922E+01  0.10828045509E+01  0.51100000000E-03 0. -1.
    9000002    1    1    2    0    0  0.25365799795E+00 -0.79708788218E-01  0.47377672309E-01  0.97610681520E+00  0.93800000000E+00 0.  1.
         22    1    1    2    0    0 -0.20660675185E+00  0.63731564456E-01  0.28709586029E+01  0.28790886339E+01  0.00000000000E+00 0. -1.
</event>
<event>
 5    1  0.3368139E+002  0.1596709E+01  0.7818608E-02  0.3356943E+00
         11   -1    0    0    0    0  0.00000000000E+00  0.00000000000E+00  0.39999999674E+01  0.40000000000E+01  0.51100000000E-03 0. -1.
    9000002   -1    0    0    0    0 -0.00000000000E+00 -0.00000000000E+00  0.00000000000E+00  0.93800000000E+00  0.93800000000E+00 0.  1.
         11    1    1    2    0    0  0.16721758630E+00  0.15586523605E+00  0.16108482689E+01  0.16269874306E+01  0.51100000000E-03 0. -1.
    9000002    1    1    2    0    0 -0.25582435089E+00 -0.43078525630E+00  0.17454817293E+00  0.10776516600E+01  0.93800000000E+00 0.  1.
         22    1    1    2    0    0  0.88606764587E-01  0.27492002024E+00  0.22146035256E+01  0.22333609094E+01  0.00000000000E+00 0. -1.
</event>
<event>
 5    1  0.3368139E+002  0.1597534E+01  0.7818608E-02  0.3356045E+00
         11   -1    0    0    0    0  0.00000000000E+00  0.00000000000E+00  0.39999999674E+01  0.40000000000E+01  0.51100000000E-03 0.  1.
    9000002   -1    0    0    0    0 -0.00000000000E+00 -0.00000000000E+00  0.00000000000E+00  0.93800000000E+00  0.93800000000E+00 0.  1.
         11    1    1    2    0    0  0.53266698781E-01  0.40559087971E+00  0.17040901165E+01  0.17525024077E+01  0.51100000000E-03 0.  1.
    9000002    1    1    2    0    0 -0.17651280346E-01 -0.88042359811E+00  0.59190037118E+00  0.14162087873E+01  0.93800000000E+00 0.  1.
         22    1    1    2    0    0 -0.35615418435E-01  0.47483271840E+00  0.17040094797E+01  0.17692888050E+01  0.00000000000E+00 0.  1.
</event>
<event>
 5    1  0.3368139E+002  0.1599216E+01  0.7818608E-02  0.3354214E+00
         11   -1    0    0    0    0  0.00000000000E+00  0.00000000000E+00  0.39999999674E+01  0.40000000000E+01  0.51100000000E-03 0.  1.
    9000002   -1    0    0    0    0 -0.00000000000E+00 -0.00000000000E+00  0.00000000000E+00  0.93800000000E+00  0.93800000000E+00 0. -1.
         11    1    1    2    0    0 -0.24065337067E-01 -0.93636309906E-03  0.20732616077E+00  0.20872090284E+00  0.51100000000E-03 0.  1.
    9000002    1    1    2    0    0  0.25080032437E+00  0.89595473097E-01  0.47532496333E-01  0.97623331725E+00  0.93800000000E+00 0. -1.
         22    1    1    2    0    0 -0.22673498731E+00 -0.88659109998E-01  0.37451413103E+01  0.37530457799E+01  0.00000000000E+00 0.  1.
</event>
<event>
 5    1  0.3368139E+002  0.1574499E+01  0.7818608E-02  0.3381515E+00
         11   -1    0    0    0    0  0.00000000000E+00  0.00000000000E+00  0.39999999674E+01  0.40000000000E+01  0.51100000000E-03 0. -1.
    9000002   -1    0    0    0    0 -0.00000000000E+00 -0.00000000000E+00  0.00000000000E+00  0.93800000000E+00  0.93800000000E+00 0. -1.
         11    1    1    2    0    0  0.76341959538E-01  0.19994777203E-01  0.56162227186E+00  0.56713995034E+00  0.51100000000E-03 0. -1.
    9000002    1    1    2    0    0  0.35024369146E+00  0.16385754710E+00  0.12174303323E+00  0.10218538571E+01  0.93800000000E+00 0. -1.
         22    1    1    2    0    0 -0.42658565100E+00 -0.18385232430E+00  0.33166346623E+01  0.33490061926E+01  0.00000000000E+00 0. -1.
</event>
<event>
 5    1  0.3368139E+002  0.1599636E+01  0.7818608E-02  0.3353759E+00
         11   -1    0    0    0    0  0.00000000000E+00  0.00000000000E+00  0.39999999674E+01  0.40000000000E+01  0.51100000000E-03 0.  1.
    9000002   -1    0    0    0    0 -0.00000000000E+00 -0.00000000000E+00  0.00000000000E+00  0.93800000000E+00  0.93800000000E+00 0. -1.
         11    1    1    2    0    0 -0.93282949635E-02 -0.84799964027E-01  0.98268353026E+00  0.98637986230E+00  0.51100000000E-03 0.  1.
    9000002    1    1    2    0    0  0.23945399492E-01  0.36087297176E+00  0.87853076072E-01  0.10091406477E+01  0.93800000000E+00 0. -1.
         22    1    1    2    0    0 -0.14617104529E-01 -0.27607300774E+00  0.29294633610E+01  0.29424794900E+01  0.00000000000E+00 0.  1.
</event>
<event>
 5    1  0.3368139E+002  0.1590634E+01  0.7818608E-02  0.3363592E+00
         11   -1    0    0    0    0  0.00000000000E+00  0.00000000000E+00  0.39999999674E+01  0.40000000000E+01  0.51100000000E-03 0.  1.
    9000002   -1    0    0    0    0 -0.00000000000E+00 -0.00000000000E+00  0.00000000000E+00  0.93800000000E+00  0.93800000000E+00 0.  1.
         11    1    1    2    0    0  0.10207326537E+00  0.28031557277E+00  0.21284131966E+01  0.21492181761E+01  0.51100000000E-03 0.  1.
    9000002    1    1    2    0    0  0.20010925066E-01 -0.48496690065E+00  0.16897505981E+00  0.10695746363E+01  0.93800000000E+00 0.  1.
         22    1    1    2    0    0 -0.12208419044E+00  0.20465132788E+00  0.17026117109E+01  0.17192071876E+01  0.00000000000E+00 0.  1.
</event>
<event>
 5    1  0.3368139E+002  0.1543368E+01  0.7818608E-02  0.3417221E+00
         11   -1    0    0    0    0  0.00000000000E+00  0.00000000000E+00  0.39999999674E+01  0.40000000000E+01  0.51100000000E-03 0. -1.
    9000002   -1    0    0    0    0 -0.00000000000E+00 -0.00000000000E+00  0.00000000000E+00  0.93800000000E+00  0.93800000000E+00 0. -1.
         11    1    1    2    0    0 -0.21693275762E+00  0.80069156469E-01  0.88075033435E-01  0.24744365779E+00  0.51100000000E-03 0. -1.
    9000002    1    1    2    0    0 -0.27384083203E+00  0.39931542921E+00  0.42691051177E+00  0.11386563127E+01  0.93800000000E+00 0. -1.
         22    1    1    2    0    0  0.49077358965E+00 -0.47938458567E+00  0.34850144222E+01  0.35519000296E+01  0.00000000000E+00 0. -1.
</event>
<event>
 5    1  0.3368139E+002  0.1583525E+01  0.7818608E-02  0.3371441E+00
         11   -1    0    0    0    0  0.00000000000E+00  0.00000000000E+00  0.39999999674E+01  0.40000000000E+01  0.51100000000E-03 0.  1.
    9000002   -1    0    0    0    0 -0.00000000000E+00 -0.00000000000E+00  0.00000000000E+00  0.93800000000E+00  0.93800000000E+00 0. -1.
         11    1    1    2    0    0  0.43301419244E-01  0.36344998119E-01  0.14416284959E+00  0.15485205882E+00  0.51100000000E-03 0.  1.
    9000002    1    1    2    0    0  0.19678010506E+00 -0.19763318531E+00  0.64405462569E-01  0.98070043810E+00  0.93800000000E+00 0. -1.
         22    1    1    2    0    0 -0.24008152430E+00  0.16128818719E+00  0.37914316552E+01  0.38024475031E+01  0.00000000000E+00 0.  1.
</event>
<event>
 5    1  0.3368139E+002  0.1530032E+01  0.7818608E-02  0.3432991E+00
         11   -1    0    0    0    0  0.00000000000E+00  0.00000000000E+00  0.39999999674E+01  0.40000000000E+01  0.51100000000E-03 0.  1.
    9000002   -1    0    0    0    0 -0.00000000000E+00 -0.00000000000E+00  0.00000000000E+00  0.93800000000E+00  0.93800000000E+00 0. -1.
         11    1    1    2    0    0  0.10514206237E+00  0.25478818224E+00  0.33773843807E+01  0.33886129002E+01  0.51100000000E-03 0.  1.
    9000002    1    1    2    0    0  0.98585143660E-01 -0.16102074637E+00  0.77507729465E-01  0.95994695657E+00  0.93800000000E+00 0. -1.
         22    1    1    2    0    0 -0.20372720603E+00 -0.93767435875E-01  0.54510785721E+00  0.58944014327E+00  0.00000000000E+00 0. -1.
</event>
<event>
 5    1  0.3368139E+002  0.1599628E+01  0.7818608E-02  0.3353767E+00
         11   -1    0    0    0    0  0.00000000000E+00  0.00000000000E+00  0.39999999674E+01  0.40000000000E+01  0.51100000000E-03 0.  1.
    9000002   -1    0    0    0    0 -0.00000000000E+00 -0.00000000000E+00  0.00000000000E+00  0.93800000000E+00  0.93800000000E+00 0.  1.
         11    1    1    2    0    0  0.19016762707E-01  0.60275905805E-02  0.23180585188E+00  0.23266323990E+00  0.51100000000E-03 0.  1.
    9000002    1    1    2    0    0 -0.34756880456E+00 -0.40549048793E-01  0.82141551590E-01  0.10045095986E+01  0.93800000000E+00 0.  1.
         22    1    1    2    0    0  0.32855204185E+00  0.34521458212E-01  0.36860525639E+01  0.37008271615E+01  0.00000000000E+00 0.  1.
</event>
<event>
 5    1  0.3368139E+002  0.1493113E+01  0.7818608E-02  0.3478225E+00
         11   -1    0    0    0    0  0.00000000000E+00  0.00000000000E+00  0.39999999674E+01  0.40000000000E+01  0.51100000000E-03 0.  1.
    9000002   -1    0    0    0    0 -0.00000000000E+00 -0.00000000000E+00  0.00000000000E+00  0.93800000000E+00  0.93800000000E+00 0. -1.
         11    1    1    2    0    0  0.18623119784E+00  0.11908467826E+00  0.33659505947E+00  0.40269059441E+00  0.51100000000E-03 0.  1.
    9000002    1    1    2    0    0  0.69374973797E-01  0.43594463018E-01  0.86435284094E-01  0.94553076234E+00  0.93800000000E+00 0. -1.
         22    1    1    2    0    0 -0.25560617163E+00 -0.16267914128E+00  0.35769696238E+01  0.35897786433E+01  0.00000000000E+00 0.  1.
</event>
<event>
 5    1  0.3368139E+002  0.1599638E+01  0.7818608E-02  0.3353756E+00
         11   -1    0    0    0    0  0.00000000000E+00  0.00000000000E+00  0.39999999674E+01  0.40000000000E+01  0.51100000000E-03 0. -1.
    9000002   -1    0    0    0    0 -0.00000000000E+00 -0.00000000000E+00  0.00000000000E+00  0.93800000000E+00  0.93800000000E+00 0. -1.
         11    1    1    2    0    0 -0.39319842364E-01 -0.39569086013E-01  0.86283415593E+00  0.86463564831E+00  0.51100000000E-03 0. -1.
    9000002    1    1    2    0    0  0.20490228308E+00  0.16752209478E+00  0.46616310757E-01  0.97573852967E+00  0.93800000000E+00 0. -1.
         22    1    1    2    0    0 -0.16558244072E+00 -0.12795300877E+00  0.30905495007E+01  0.30976258220E+01  0.00000000000E+00 0. -1.
</event>
<event>
 5    1  0.3368139E+002  0.1599370E+01  0.7818608E-02  0.3354047E+00
         11   -1    0    0    0    0  0.00000000000E+00  0.00000000000E+00  0.39999999674E+01  0.40000000000E+01  0.51100000000E-03 0.  1.
    9000002   -1    0    0    0    0 -0.00000000000E+00 -0.00000000000E+00  0.00000000000E+00  0.93800000000E+00  0.93800000000E+00 0. -1.
         11    1    1    2    0    0  0.49713962622E-01 -0.63079862035E-01  0.86552817206E+00  0.86924669964E+00  0.51100000000E-03 0.  1.
    9000002    1    1    2    0    0 -0.21249216153E+00  0.36103368325E+00  0.11893151856E+00  0.10341600192E+01  0.93800000000E+00 0. -1.
         22    1    1    2    0    0  0.16277819891E+00 -0.29795382121E+00  0.30155402767E+01  0.30345932812E+01  0.00000000000E+00 0. -1.
</event>
<event>
 5    1  0.3368139E+002  0.1562972E+01  0.7818608E-02  0.3394560E+00
         11   -1    0    0    0    0  0.00000000000E+00  0.00000000000E+00  0.39999999674E+01  0.40000000000E+01  0.51100000000E-03 0. -1.
    9000002   -1    0    0    0    0 -0.00000000000E+00 -0.00000000000E+00  0.00000000000E+00  0.93800000000E+00  0.93800000000E+00 0. -1.
         11    1    1    2    0    0  0.91337546516E-01 -0.12075981945E+00  0.47381683080E+00  0.49742148292E+00  0.51100000000E-03 0. -1.
    9000002    1    1    2    0    0  0.11629321746E+00  0.10405471226E+00  0.43725542870E-01  0.95189674790E+00  0.93800000000E+00 0. -1.
         22    1    1    2    0    0 -0.20763076397E+00  0.16705107195E-01  0.34824575937E+01  0.34886817692E+01  0.00000000000E+00 0. -1.
</event>
<event>
 5    1  0.3368139E+002  0.1590083E+01  0.7818608E-02  0.3364198E+00
         11   -1    0    0    0    0  0.00000000000E+00  0.00000000000E+00  0.39999999674E+01  0.40000000000E+01  0.51100000000E-03 0.  1.
    9000002   -1    0    0    0    0 -0.00000000000E+00 -0.00000000000E+00  0.00000000000E+00  0.93800000000E+00  0.93800000000E+00 0.  1.
         11    1    1    2    0    0  0.15684823375E-01 -0.38090704190E-01  0.53068011439E+00  0.53227677045E+00  0.51100000000E-03 0.  1.
    9000002    1    1    2    0    0  0.26826740938E+00 -0.17405178184E+00  0.75978764383E-01  0.99392061973E+00  0.93800000000E+00 0.  1.
         22    1    1    2    0    0 -0.28395223275E+00  0.21214248603E+00  0.33933410886E+01  0.34118026098E+01  0.00000000000E+00 0.  1.
</event>
<event>
 5    1  0.3368139E+002  0.1599676E+01  0.7818608E-02  0.3353715E+00
         11   -1    0    0    0    0  0.00000000000E+00  0.00000000000E+00  0.39999999674E+01  0.40000000000E+01  0.51100000000E-03 0.  1.
    9000002   -1    0    0    0    0 -0.00000000000E+00 -0.00000000000E+00  0.00000000000E+00  0.93800000000E+00  0.93800000000E+00 0. -1.
         11    1    1    2    0    0  0.81142635613E-01  0.98905300056E-01  0.13596463312E+01  0.13656517831E+01  0.51100000000E-03 0.  1.
    9000002    1    1    2    0    0 -0.23470237102E+00 -0.28208358081E+00  0.90462628390E-01  0.10112783181E+01  0.93800000000E+00 0. -1.
         22    1    1    2    0    0  0.15355973541E+00  0.18317828076E+00  0.25498910078E+01  0.25610698988E+01  0.00000000000E+00 0.  1.
</event>
<event>
 5    1  0.3368139E+002  0.1597782E+01  0.7818608E-02  0.3355774E+00
         11   -1    0    0    0    0  0.00000000000E+00  0.00000000000E+00  0.39999999674E+01  0.40000000000E+01  0.51100000000E-03 0. -1.
    9000002   -1    0    0    0    0 -0.00000000000E+00 -0.00000000000E+00  0.00000000000E+00  0.93800000000E+00  0.93800000000E+00 0. -1.
         11    1    1    2    0    0 -0.13677552668E+00  0.31086136116E+00  0.18714342050E+01  0.19020012028E+01  0.51100000000E-03 0. -1.
    9000002    1    1    2    0    0  0.17491244415E+00 -0.65288453942E+00  0.32651002992E+00  0.12013764541E+01  0.93800000000E+00 0. -1.
         22    1    1    2    0    0 -0.38136917470E-01  0.34202317825E+00  0.18020557324E+01  0.18346223431E+01  0.00000000000E+00 0. -1.
</event>
<event>
 5    1  0.3368139E+002  0.1599592E+01  0.7818608E-02  0.3353806E+00
         11   -1    0    0    0    0  0.00000000000E+00  0.00000000000E+00  0.39999999674E+01  0.40000000000E+01  0.51100000000E-03 0.  1.
    9000002   -1    0    0    0    0 -0.00000000000E+00 -0.00000000000E+00  0.00000000000E+00  0.93800000000E+00  0.93800000000E+00 0.  1.
         11    1    1    2    0    0 -0.22698048624E-01 -0.11245426855E-01  0.35147828189E+00  0.35239027341E+00  0.51100000000E-03 0.  1.
    9000002    1    1    2    0    0  0.22588780336E+00  0.62560969442E-01  0.36517740215E-01  0.96753125012E+00  0.93800000000E+00 0.  1.
         22    1    1    2    0    0 -0.20318975473E+00 -0.51315542587E-01  0.36120039453E+01  0.36180784765E+01  0.00000000000E+00 0.  1.
</event>
<event>
 5    1  0.3368139E+002  0.1599676E+01  0.7818608E-02  0.3353715E+00
         11   -1    0    0    0    0  0.00000000000E+00  0.00000000000E+00  0.39999999674E+01  0.40000000000E+01  0.51100000000E-03 0.  1.
    9000002   -1    0    0    0    0 -0.00000000000E+00 -0.00000000000E+00  0.00000000000E+00  0.93800000000E+00  0.93800000000E+00 0.  1.
         11    1    1    2    0    0 -0.39327870306E-01  0.16159271014E+00  0.12372617618E+01  0.12483892877E+01  0.51100000000E-03 0.  1.
    9000002    1    1    2    0    0  0.11879329192E+00 -0.50031815345E+00  0.18145866607E+00  0.10849891006E+01  0.93800000000E+00 0.  1.
         22    1    1    2    0    0 -0.79465421609E-01  0.33872544331E+00  0.25812795395E+01  0.26046216117E+01  0.00000000000E+00 0.  1.
</event>
<event>
 5    1  0.3368139E+002  0.1599658E+01  0.7818608E-02  0.3353734E+00
         11   -1    0    0    0    0  0.00000000000E+00  0.00000000000E+00  0.39999999674E+01  0.40000000000E+01  0.51100000000E-03 0. -1.
    9000002   -1    0    0    0    0 -0.00000000000E+00 -0.00000000000E+00  0.00000000000E+00  0.93800000000E+00  0.93800000000E+00 0.  1.
         11    1    1    2    0    0  0.89885322208E-02 -0.56544842274E-01  0.59608703793E+00  0.59883063617E+00  0.51100000000E-03 0. -1.
    9000002    1    1    2    0    0 -0.78415268594E-01  0.35610368556E+00  0.89312872803E-01  0.10103363690E+01  0.93800000000E+00 0.  1.
         22    1    1    2    0    0  0.69426736373E-01 -0.29955884328E+00  0.33146000566E+01  0.33288329949E+01  0.00000000000E+00 0. -1.
</event>
<event>
 5    1  0.3368139E+002  0.1597668E+01  0.7818608E-02  0.3355899E+00
         11   -1    0    0    0    0  0.00000000000E+00  0.00000000000E+00  0.39999999674E+01  0.40000000000E+01  0.51100000000E-03 0.  1.
    9000002   -1    0    0    0    0 -0.00000000000E+00 -0.00000000000E+00  0.00000000000E+00  0.93800000000E+00  0.93800000000E+00 0.  1.
         11    1    1    2    0    0  0.12935253827E+00 -0.16000157454E+00  0.15054571087E+01  0.15194518585E+01  0.51100000000E-03 0.  1.
    9000002    1    1    2    0    0 -0.44425490451E+00  0.44087755353E+00  0.27693473373E+00  0.11611512753E+01  0.93800000000E+00 0.  1.
         22    1    1    2    0    0  0.31490236624E+00 -0.28087597899E+00  0.22176081249E+01  0.22573968662E+01  0.00000000000E+00 0.  1.
</event>
<event>
 5    1  0.3368139E+002  0.1599665E+01  0.7818608E-02  0.3353727E+00
         11   -1    0    0    0    0  0.00000000000E+00  0.00000000000E+00  0.39999999674E+01  0.40000000000E+01  0.51100000000E-03 0. -1.
    9000002   -1    0    0    0    0 -0.00000000000E+00 -0.00000000000E+00  0.00000000000E+00  0.93800000000E+00  0.93800000000E+00 0. -1.
         11    1    1    2    0    0 -0.11792476524E-01  0.39882938129E-02  0.23194950969E+00  0.23228388915E+00  0.51100000000E-03 0. -1.
    9000002    1    1    2    0    0  0.19422223882E+00 -0.99207422866E-01  0.31533317228E-01  0.96353657995E+00  0.93800000000E+00 0. -1.
         22    1    1    2    0    0 -0.18242976230E+00  0.95219129053E-01  0.37365171404E+01  0.37421795309E+01  0.00000000000E+00 0. -1.
</event>
<event>
 5    1  0.3368139E+002  0.1599677E+01  0.7818608E-02  0.3353714E+00
         11   -1    0    0    0    0  0.00000000000E+00  0.00000000000E+00  0.39999999674E+01  0.40000000000E+01  0.51100000000E-03 0. -1.
    9000002   -1    0    0    0    0 -0.00000000000E+00 -0.00000000000E+00  0.00000000000E+00  0.93800000000E+00  0.93800000000E+00 0.  1.
         11    1    1    2    0    0  0.13864273906E+00 -0.52803550524E-01  0.12429602832E+01  0.12517829488E+01  0.51100000000E-03 0.  1.
    9000002    1    1    2    0    0 -0.43128685628E+00  0.16340402170E+00  0.14471140160E+00  0.10552225436E+01  0.93800000000E+00 0.  1.
         22    1    1    2    0    0  0.29264411722E+00 -0.11060047118E+00  0.26123282826E+01  0.26309945077E+01  0.00000000000E+00 0. -1.
</event>
<event>
 5    1  0.3368139E+002  0.1594671E+01  0.7818608E-02  0.3359168E+00
         11   -1    0    0    0    0  0.00000000000E+00  0.00000000000E+00  0.39999999674E+01  0.40000000000E+01  0.51100000000E-03 0. -1.
    9000002   -1    0    0    0    0 -0.00000000000E+00 -0.00000000000E+00  0.00000000000E+00  0.93800000000E+00  0.93800000000E+00 0. -1.
         11    1    1    2    0    0  0.24559528798E-01 -0.33952323307E-01  0.14015696673E+01  0.14021960363E+01  0.51100000000E-03 0. -1.
    9000002    1    1    2    0    0  0.76717621027E-01  0.27283666916E+00  0.57401337339E-01  0.98156220126E+00  0.93800000000E+00 0. -1.
         22    1    1    2    0    0 -0.10127714983E+00 -0.23888434585E+00  0.25410289627E+01  0.25542417625E+01  0.00000000000E+00 0. -1.
</event>
<event>
 5    1  0.3368139E+002  0.1593403E+01  0.7818608E-02  0.3360555E+00
         11   -1    0    0    0    0  0.00000000000E+00  0.00000000000E+00  0.39999999674E+01  0.40000000000E+01  0.51100000000E-03 0. -1.
    9000002   -1    0    0    0    0 -0.00000000000E+00 -0.00000000000E+00  0.00000000000E+00  0.93800000000E+00  0.93800000000E+00 0.  1.
         11    1    1    2    0    0 -0.77985250473E-02  0.16463487342E-01  0.35404856010E-01  0.39819949252E-01  0.51100000000E-03 0. -1.
    9000002    1    1    2    0    0 -0.23775927470E+00 -0.10008483846E+00  0.49060822588E-01  0.97406232445E+00  0.93800000000E+00 0.  1.
         22    1    1    2    0    0  0.24555779975E+00  0.83621351120E-01  0.39155342888E+01  0.39241177263E+01  0.00000000000E+00 0. -1.
</event>
<event>
 5    1  0.3368139E+002  0.1590797E+01  0.7818608E-02  0.3363413E+00
         11   -1    0    0    0    0  0.00000000000E+00  0.00000000000E+00  0.39999999674E+01  0.40000000000E+01  0.51100000000E-03 0. -1.
    9000002   -1    0    0    0    0 -0.00000000000E+00 -0.00000000000E+00  0.00000000000E+00  0.93800000000E+00  0.93800000000E+00 0. -1.
         11    1    1    2    0    0  0.87989455653E-01 -0.12191617112E-01  0.82606134861E+00  0.83082392396E+00  0.51100000000E-03 0. -1.
    9000002    1    1    2    0    0 -0.14476162469E+00  0.40062988578E+00  0.13039023268E+00  0.10384150645E+01  0.93800000000E+00 0. -1.
         22    1    1    2    0    0  0.56772169037E-01 -0.38843826867E+00  0.30435483861E+01  0.30687610116E+01  0.00000000000E+00 0. -1.
</event>
<event>
 5    1  0.3368139E+002  0.1599616E+01  0.7818608E-02  0.3353780E+00
         11   -1    0    0    0    0  0.00000000000E+00  0.00000000000E+00  0.39999999674E+01  0.40000000000E+01  0.51100000000E-03 0. -1.
    9000002   -1    0    0    0    0 -0.00000000000E+00 -0.00000000000E+00  0.00000000000E+00  0.93800000000E+00  0.93800000000E+00 0. -1.
         11    1    1    2    0    0 -0.78631907023E-01 -0.12629823440E+00  0.11298017291E+01  0.11395553646E+01  0.51100000000E-03 0. -1.
    9000002    1    1    2    0    0  0.25025273064E+00  0.40622294910E+00  0.15530778204E+00  0.10637706617E+01  0.93800000000E+00 0. -1.
         22    1    1    2    0    0 -0.17162082362E+00 -0.27992471470E+00  0.27148904562E+01  0.27346739737E+01  0.00000000000E+00 0.  1.
</event>
<event>
 5    1  0.3368139E+002  0.1599675E+01  0.7818608E-02  0.3353716E+00
         11   -1    0    0    0    0  0.00000000000E+00  0.00000000000E+00  0.39999999674E+01  0.40000000000E+01  0.51100000000E-03 0. -1.
    9000002   -1    0    0    0    0 -0.00000000000E+00 -0.00000000000E+00  0.00000000000E+00  0.93800000000E+00  0.93800000000E+00 0.  1.
         11    1    1    2    0    0  0.74999014779E-01  0.21432671622E-01  0.11026608315E+01  0.11054163841E+01  0.51100000000E-03 0. -1.
    9000002    1    1    2    0    0 -0.26737751170E+00 -0.81530870978E-01  0.52032525835E-01  0.98014764216E+00  0.93800000000E+00 0.  1.
         22    1    1    2    0    0  0.19237849693E+00  0.60098199356E-01  0.28453066100E+01  0.28524359738E+01  0.00000000000E+00 0. -1.
</event>
<event>
 5    1  0.3368139E+002  0.1599673E+01  0.7818608E-02  0.3353718E+00
         11   -1    0    0    0    0  0.00000000000E+00  0.00000000000E+00  0.39999999674E+01  0.40000000000E+01  0.51100000000E-03 0. -1.
    9000002   -1    0    0    0    0 -0.00000000000E+00 -0.00000000000E+00  0.00000000000E+00  0.93800000000E+00  0.93800000000E+00 0.  1.
         11    1    1    2    0    0 -0.60507579386E-01  0.25887030440E-01  0.64265382426E+00  0.64601509616E+00  0.51100000000E-03 0. -1.
    9000002    1    1    2    0    0  0.37210288270E+00 -0.14800828042E+00  0.10818034701E+00  0.10256285848E+01  0.93800000000E+00 0.  1.
         22    1    1    2    0    0 -0.31159530331E+00  0.12212124998E+00  0.32491657961E+01  0.32663563191E+01  0.00000000000E+00 0. -1.
</event>
<event>
 5    1  0.3368139E+002  0.1599676E+01  0.7818608E-02  0.3353715E+00
         11   -1    0    0    0    0  0.00000000000E+00  0.00000000000E+00  0.39999999674E+01  0.40000000000E+01  0.51100000000E-03 0.  1.
    9000002   -1    0    0    0    0 -0.00000000000E+00 -0.00000000000E+00  0.00000000000E+00  0.93800000000E+00  0.93800000000E+00 0.  1.
         11    1    1    2    0    0  0.31616148806E-01 -0.59750213922E-01  0.91801619960E+00  0.92050185919E+00  0.51100000000E-03 0.  1.
    9000002    1    1    2    0    0 -0.13852225828E+00  0.25446676034E+00  0.55946570841E-01  0.98331875144E+00  0.93800000000E+00 0.  1.
         22    1    1    2    0    0  0.10690610947E+00 -0.19471654642E+00  0.30260371969E+01  0.30341793894E+01  0.00000000000E+00 0.  1.
</event>
<event>
 5    1  0.3368139E+002  0.1593356E+01  0.7818608E-02  0.3360606E+00
         11   -1    0    0    0    0  0.00000000000E+00  0.00000000000E+00  0.39999999674E+01  0.40000000000E+01  0.51100000000E-03 0. -1.
    9000002   -1    0    0    0    0 -0.00000000000E+00 -0.00000000000E+00  0.00000000000E+00  0.93800000000E+00  0.93800000000E+00 0.  1.
         11    1    1    2    0    0  0.83372135779E-01 -0.41288007945E-01  0.76714128628E+00  0.77276233530E+00  0.51100000000E-03 0. -1.
    9000002    1    1    2    0    0 -0.23735893111E+00 -0.12704352575E+00  0.53109365182E-01  0.97731464958E+00  0.93800000000E+00 0.  1.
         22    1    1    2    0    0  0.15398679533E+00  0.16833153370E+00  0.31797493159E+01  0.31879230151E+01  0.00000000000E+00 0.  1.
</event>
<event>
 5    1  0.3368139E+002  0.1580834E+01  0.7818608E-02  0.3374431E+00
         11   -1    0    0    0    0  0.00000000000E+00  0.00000000000E+00  0.39999999674E+01  0.40000000000E+01  0.51100000000E-03 0.  1.
    9000002   -1    0    0    0    0 -0.00000000000E+00 -0.00000000000E+00  0.00000000000E+00  0.93800000000E+00  0.93800000000E+00 0. -1.
         11    1    1    2    0    0 -0.30097554351E-01  0.11434143349E+00  0.99315497708E+00  0.10001684337E+01  0.51100000000E-03 0.  1.
    9000002    1    1    2    0    0  0.36427413154E+00  0.59692372340E-01  0.10707985918E+00  0.10136907410E+01  0.93800000000E+00 0. -1.
         22    1    1    2    0    0 -0.33417657718E+00 -0.17403380583E+00  0.28997651311E+01  0.29241408252E+01  0.00000000000E+00 0.  1.
</event>
<event>
 5    1  0.3368139E+002  0.1598014E+01  0.7818608E-02  0.3355522E+00
         11   -1    0    0    0    0  0.00000000000E+00  0.00000000000E+00  0.39999999674E+01  0.40000000000E+01  0.51100000000E-03 0. -1.
    9000002   -1    0    0    0    0 -0.00000000000E+00 -0.00000000000E+00  0.00000000000E+00  0.93800000000E+00  0.93800000000E+00 0. -1.
         11    1    1    2    0    0  0.11844402123E+00  0.22963047546E-02  0.73140541263E+00  0.74093751284E+00  0.51100000000E-03 0. -1.
    9000002    1    1    2    0    0 -0.44569114476E+00 -0.11058438649E+00  0.14486444472E+00  0.10543714765E+01  0.93800000000E+00 0. -1.
         22    1    1    2    0    0  0.32724712352E+00  0.10828808174E+00  0.31237301100E+01  0.31426910107E+01  0.00000000000E+00 0. -1.
</event>
<event>
 5    1  0.3368139E+002  0.1599673E+01  0.7818608E-02  0.3353718E+00
         11   -1    0    0    0    0  0.00000000000E+00  0.00000000000E+00  0.39999999674E+01  0.40000000000E+01  0.51100000000E-03 0. -1.
    9000002   -1    0    0    0    0 -0.00000000000E+00 -0.00000000000E+00  0.00000000000E+00  0.93800000000E+00  0.93800000000E+00 0. -1.
         11    1    1    2    0    0 -0.19162322622E+00 -0.17013723326E+00  0.19556273052E+01  0.19723449386E+01  0.51100000000E-03 0. -1.
    9000002    1    1    2    0    0  0.37900633576E+00  0.33427137207E+00  0.17498557281E+00  0.10797439990E+01  0.93800000000E+00 0. -1.
         22    1    1    2    0    0 -0.18738310955E+00 -0.16413413881E+00  0.18693870893E+01  0.18859110623E+01  0.00000000000E+00 0. -1.
</event>
<event>
 5    1  0.3368139E+002  0.1596142E+01  0.7818608E-02  0.3357561E+00
         11   -1    0    0    0    0  0.00000000000E+00  0.00000000000E+00  0.39999999674E+01  0.40000000000E+01  0.51100000000E-03 0.  1.
    9000002   -1    0    0    0    0 -0.00000000000E+00 -0.00000000000E+00  0.00000000000E+00  0.93800000000E+00  0.93800000000E+00 0.  1.
         11    1    1    2    0    0  0.91082280228E-02 -0.26499800324E-01  0.59919278036E+00  0.59984785437E+00  0.51100000000E-03 0.  1.
    9000002    1    1    2    0    0  0.23906667521E+00  0.16154585967E-01  0.40804041045E-01  0.96898029681E+00  0.93800000000E+00 0.  1.
         22    1    1    2    0    0 -0.24817490323E+00  0.10345214357E-01  0.33600031460E+01  0.33691718488E+01  0.00000000000E+00 0.  1.
</event>
<event>
 5    1  0.3368139E+002  0.1591877E+01  0.7818608E-02  0.3362227E+00
         11   -1    0    0    0    0  0.00000000000E+00  0.00000000000E+00  0.39999999674E+01  0.40000000000E+01  0.51100000000E-03 0. -1.
    9000002   -1    0    0    0    0 -0.00000000000E+00 -0.00000000000E+00  0.00000000000E+00  0.93800000000E+00  0.93800000000E+00 0.  1.
         11    1    1    2    0    0  0.35689768213E-01  0.13455589111E-01  0.32505938225E+00  0.32728989526E+00  0.51100000000E-03 0. -1.
    9000002    1    1    2    0    0  0.23848905692E+00  0.64429585612E-01  0.46508200589E-01  0.97110000231E+00  0.93800000000E+00 0.  1.
         22    1    1    2    0    0 -0.27417882513E+00 -0.77885174723E-01  0.36284323845E+01  0.36396101024E+01  0.00000000000E+00 0. -1.
</event>
<event>
 5    1  0.3368139E+002  0.1599119E+01  0.7818608E-02  0.3354320E+00
         11   -1    0    0    0    0  0.00000000000E+00  0.00000000000E+00  0.39999999674E+01  0.40000000000E+01  0.51100000000E-03 0. -1.
    9000002   -1    0    0    0    0 -0.00000000000E+00 -0.00000000000E+00  0.00000000000E+00  0.93800000000E+00  0.93800000000E+00 0.  1.
         11    1    1    2    0    0  0.44774420441E-01 -0.17828718411E-01  0.52049626847E+00  0.52272290799E+00  0.51100000000E-03 0. -1.
    9000002    1    1    2    0    0 -0.39532534622E+00  0.18630553200E-02  0.10581764647E+00  0.10233899426E+01  0.93800000000E+00 0.  1.
         22    1    1    2    0    0  0.35055092578E+00  0.15965663090E-01  0.33736860524E+01  0.33918871494E+01  0.00000000000E+00 0. -1.
</event>
<event>
 5    1  0.3368139E+002  0.1598384E+01  0.7818608E-02  0.3355119E+00
         11   -1    0    0    0    0  0.00000000000E+00  0.00000000000E+00  0.39999999674E+01  0.40000000000E+01  0.51100000000E-03 0.  1.
    9000002   -1    0    0    0    0 -0.00000000000E+00 -0.00000000000E+00  0.00000000000E+00  0.93800000000E+00  0.93800000000E+00 0. -1.
         11    1    1    2    0    0  0.25424535521E+00  0.29194636731E+00  0.20764196221E+01  0.21122007693E+01  0.51100000000E-03 0.  1.
    9000002    1    1    2    0    0 -0.40623097159E+00 -0.46503121491E+00  0.26834416648E+00  0.11546125865E+01  0.93800000000E+00 0. -1.
         22    1    1    2    0    0  0.15198561638E+00  0.17308484760E+00  0.16552361788E+01  0.16711866442E+01  0.00000000000E+00 0. -1.
</event>
<event>
 5    1  0.3368139E+002  0.1592005E+01  0.7818608E-02  0.3362086E+00
         11   -1    0    0    0    0  0.00000000000E+00  0.00000000000E+00  0.39999999674E+01  0.40000000000E+01  0.51100000000E-03 0. -1.
    9000002   -1    0    0    0    0 -0.00000000000E+00 -0.00000000000E+00  0.00000000000E+00  0.93800000000E+00  0.93800000000E+00 0.  1.
         11    1    1    2    0    0 -0.13194368532E-01  0.12337212629E+00  0.10147979622E+01  0.10223550940E+01  0.51100000000E-03 0. -1.
    9000002    1    1    2    0    0  0.21899198121E+00 -0.16278687274E+00  0.55499427793E-01  0.97845860426E+00  0.93800000000E+00 0.  1.
         22    1    1    2    0    0 -0.20579761268E+00  0.39414746449E-01  0.29297025773E+01  0.29371863018E+01  0.00000000000E+00 0. -1.
</event>
<event>
 5    1  0.3368139E+002  0.1598684E+01  0.7818608E-02  0.3354793E+00
         11   -1    0    0    0    0  0.00000000000E+00  0.00000000000E+00  0.39999999674E+01  0.40000000000E+01  0.51100000000E-03 0. -1.
    9000002   -1    0    0    0    0 -0.00000000000E+00 -0.00000000000E+00  0.00000000000E+00  0.93800000000E+00  0.93800000000E+00 0.  1.
         11    1    1    2    0    0  0.17867348918E-01  0.44722882074E-02  0.25242803453E+00  0.25309961924E+00  0.51100000000E-03 0. -1.
    9000002    1    1    2    0    0 -0.11949845981E+00  0.17166993592E+00  0.29726946127E-01  0.96149786278E+00  0.93800000000E+00 0.  1.
         22    1    1    2    0    0  0.10163111089E+00 -0.17614222413E+00  0.37178449867E+01  0.37234025180E+01  0.00000000000E+00 0.  1.
</event>
<event>
 5    1  0.3368139E+002  0.1599677E+01  0.7818608E-02  0.3353714E+00
         11   -1    0    0    0    0  0.00000000000E+00  0.00000000000E+00  0.39999999674E+01  0.40000000000E+01  0.51100000000E-03 0.  1.
    9000002   -1    0    0    0    0 -0.00000000000E+00 -0.00000000000E+00  0.00000000000E+00  0.93800000000E+00  0.93800000000E+00 0. -1.
         11    1    1    2    0    0 -0.27147466526E-01 -0.19020763862E+00  0.13970114946E+01  0.14101621566E+01  0.51100000000E-03 0.  1.
    9000002    1    1    2    0    0  0.74975068489E-01  0.51936852777E+00  0.18931262364E+00  0.10913515465E+01  0.93800000000E+00 0. -1.
         22    1    1    2    0    0 -0.47827601963E-01 -0.32916088915E+00  0.24136758492E+01  0.24364862970E+01  0.00000000000E+00 0.  1.
</event>
<event>
 5    1  0.3368139E+002  0.1597719E+01  0.7818608E-02  0.3355843E+00
         11   -1    0    0    0    0  0.00000000000E+00  0.00000000000E+00  0.39999999674E+01  0.40000000000E+01  0.51100000000E-03 0.  1.
    9000002   -1    0    0    0    0 -0.00000000000E+00 -0.00000000000E+00  0.00000000000E+00  0.93800000000E+00  0.93800000000E+00 0. -1.
         11    1    1    2    0    0  0.39611294763E+00  0.13270745001E+00  0.20546878835E+01  0.20967258510E+01  0.51100000000E-03 0.  1.
    9000002    1    1    2    0    0 -0.63963262388E+00 -0.17359558978E+00  0.31302805773E+00  0.11904183665E+01  0.93800000000E+00 0. -1.
         22    1    1    2    0    0  0.24351967625E+00  0.40888139773E-01  0.16322840262E+01  0.16508557826E+01  0.00000000000E+00 0.  1.
</event>
<event>
 5    1  0.3368139E+002  0.1599671E+01  0.7818608E-02  0.3353720E+00
         11   -1    0    0    0    0  0.00000000000E+00  0.00000000000E+00  0.39999999674E+01  0.40000000000E+01  0.51100000000E-03 0. -1.
    9000002   -1    0    0    0    0 -0.00000000000E+00 -0.00000000000E+00  0.00000000000E+00  0.93800000000E+00  0.93800000000E+00 0.  1.
         11    1    1    2    0    0  0.22411600398E+00 -0.26410646308E-01  0.72721620390E+00  0.76142575069E+00  0.51100000000E-03 0. -1.
    9000002    1    1    2    0    0 -0.98125704173E+00  0.11972612984E+00  0.78109218454E+00  0.15707159924E+01  0.93800000000E+00 0.  1.
         22    1    1    2    0    0  0.75714103775E+00 -0.93315483534E-01  0.24916915789E+01  0.26058582569E+01  0.00000000000E+00 0. -1.
</event>
<event>
 5    1  0.3368139E+002  0.1599391E+01  0.7818608E-02  0.3354024E+00
         11   -1    0    0    0    0  0.00000000000E+00  0.00000000000E+00  0.39999999674E+01  0.40000000000E+01  0.51100000000E-03 0.  1.
    9000002   -1    0    0    0    0 -0.00000000000E+00 -0.00000000000E+00  0.00000000000E+00  0.93800000000E+00  0.93800000000E+00 0. -1.
         11    1    1    2    0    0 -0.85788124608E-01  0.12558521658E+00  0.14316168520E+01  0.14396729910E+01  0.51100000000E-03 0.  1.
    9000002    1    1    2    0    0  0.28222131285E+00 -0.32176446175E+00  0.12426515976E+00  0.10384926905E+01  0.93800000000E+00 0. -1.
         22    1    1    2    0    0 -0.19643318824E+00  0.19617924517E+00  0.24441179556E+01  0.24598343185E+01  0.00000000000E+00 0.  1.
</event>
<event>
 5    1  0.3368139E+002  0.1599677E+01  0.7818608E-02  0.3353714E+00
         11   -1    0    0    0    0  0.00000000000E+00  0.00000000000E+00  0.39999999674E+01  0.40000000000E+01  0.51100000000E-03 0.  1.
    9000002   -1    0    0    0    0 -0.00000000000E+00 -0.00000000000E+00  0.00000000000E+00  0.93800000000E+00  0.93800000000E+00 0.  1.
         11    1    1    2    0    0 -0.23052700893E-01 -0.38567712849E-01  0.65391099745E+00  0.65545308695E+00  0.51100000000E-03 0.  1.
    9000002    1    1    2    0    0  0.13703295881E+00  0.23140216726E+00  0.48117622932E-01  0.97697712381E+00  0.93800000000E+00 0.  1.
         22    1    1    2    0    0 -0.11398025792E+00 -0.19283445441E+00  0.32979713470E+01  0.33055697892E+01  0.00000000000E+00 0.  1.
</event>
<event>
 5    1  0.3368139E+002  0.1599663E+01  0.7818608E-02  0.3353729E+00
         11   -1    0    0    0    0  0.00000000000E+00  0.00000000000E+00  0.39999999674E+01  0.40000000000E+01  0.51100000000E-03 0. -1.
    9000002   -1    0    0    0    0 -0.00000000000E+00 -0.00000000000E+00  0.00000000000E+00  0.93800000000E+00  0.93800000000E+00 0.  1.
         11    1    1    2    0    0 -0.12786713459E-01  0.47062869902E-02  0.28589902095E+00  0.28622396909E+00  0.51100000000E-03 0. -1.
    9000002    1    1    2    0    0  0.20755204915E+00 -0.56901030409E-01  0.30701287936E-01  0.96286143834E+00  0.93800000000E+00 0.  1.
         22    1    1    2    0    0 -0.19476533569E+00  0.52194743419E-01  0.36833996585E+01  0.36889145926E+01  0.00000000000E+00 0. -1.
</event>
<event>
 5    1  0.3368139E+002  0.1598824E+01  0.7818608E-02  0.3354641E+00
         11   -1    0    0    0    0  0.00000000000E+00  0.00000000000E+00  0.39999999674E+01  0.40000000000E+01  0.51100000000E-03 0.  1.
    9000002   -1    0    0    0    0 -0.00000000000E+00 -0.00000000000E+00  0.00000000000E+00  0.93800000000E+00  0.93800000000E+00 0. -1.
         11    1    1    2    0    0  0.90036955803E-02  0.30946654233E-01  0.59043809369E+00  0.59131731375E+00  0.51100000000E-03 0.  1.
    9000002    1    1    2    0    0  0.10747857687E+00 -0.21297424332E+00  0.38421520885E-01  0.96862267477E+00  0.93800000000E+00 0. -1.
         22    1    1    2    0    0 -0.11648227245E+00  0.18202758909E+00  0.33711403528E+01  0.33780600115E+01  0.00000000000E+00 0.  1.
</event>
<event>
 5    1  0.3368139E+002  0.1599677E+01  0.7818608E-02  0.3353714E+00
         11   -1    0    0    0    0  0.00000000000E+00  0.00000000000E+00  0.39999999674E+01  0.40000000000E+01  0.51100000000E-03 0. -1.
    9000002   -1    0    0    0    0 -0.00000000000E+00 -0.00000000000E+00  0.00000000000E+00  0.93800000000E+00  0.93800000000E+00 0. -1.
         11    1    1    2    0    0 -0.13262508474E+00  0.72455101537E+00  0.24389650036E+01  0.25477664997E+01  0.51100000000E-03 0. -1.
    9000002    1    1    2    0    0  0.17621486945E+00 -0.96232464122E+00  0.76078883465E+00  0.15542728352E+01  0.93800000000E+00 0. -1.
         22    1    1    2    0    0 -0.43589784715E-01  0.23777362585E+00  0.80024612911E+00  0.83596066513E+00  0.00000000000E+00 0. -1.
</event>
<event>
 5    1  0.3368139E+002  0.1562632E+01  0.7818608E-02  0.3394947E+00
         11   -1    0    0    0    0  0.00000000000E+00  0.00000000000E+00  0.39999999674E+01  0.40000000000E+01  0.51100000000E-03 0. -1.
    9000002   -1    0    0    0    0 -0.00000000000E+00 -0.00000000000E+00  0.00000000000E+00  0.93800000000E+00  0.93800000000E+00 0.  1.
         11    1    1    2    0    0 -0.15655165999E+00  0.16897313511E-01  0.28815996494E+01  0.28858986022E+01  0.51100000000E-03 0. -1.
    9000002    1    1    2    0    0 -0.25652123464E-02 -0.20417403697E+00  0.55945351962E-01  0.96159632908E+00  0.93800000000E+00 0.  1.
         22    1    1    2    0    0  0.15911687234E+00  0.18727672345E+00  0.10624549660E+01  0.10905050688E+01  0.00000000000E+00 0.  1.
</event>
<event>
 5    1  0.3368139E+002  0.1599676E+01  0.7818608E-02  0.3353715E+00
         11   -1    0    0    0    0  0.00000000000E+00  0.00000000000E+00  0.39999999674E+01  0.40000000000E+01  0.51100000000E-03 0.  1.
    9000002   -1    0    0    0    0 -0.00000000000E+00 -0.00000000000E+00  0.00000000000E+00  0.93800000000E+00  0.93800000000E+00 0. -1.
         11    1    1    2    0    0 -0.19956208813E-02 -0.19138828394E-01  0.29440105381E+00  0.29502969149E+00  0.51100000000E-03 0. -1.
    9000002    1    1    2    0    0  0.25710166988E-01  0.25620545148E+00  0.44069999231E-01  0.97369831616E+00  0.93800000000E+00 0. -1.
         22    1    1    2    0    0 -0.23714546106E-01 -0.23706662308E+00  0.36615289143E+01  0.36692719924E+01  0.00000000000E+00 0.  1.
</event>
<event>
 5    1  0.3368139E+002  0.1598073E+01  0.7818608E-02  0.3355457E+00
         11   -1    0    0    0    0  0.00000000000E+00  0.00000000000E+00  0.39999999674E+01  0.40000000000E+01  0.51100000000E-03 0. -1.
    9000002   -1    0    0    0    0 -0.00000000000E+00 -0.00000000000E+00  0.00000000000E+00  0.93800000000E+00  0.93800000000E+00 0. -1.
         11    1    1    2    0    0 -0.26166722268E+00  0.66940112823E-01  0.19159157404E+01  0.19348602274E+01  0.51100000000E-03 0. -1.
    9000002    1    1    2    0    0  0.60453321052E+00 -0.12856540692E+00  0.26919359461E+00  0.11551184605E+01  0.93800000000E+00 0. -1.
         22    1    1    2    0    0 -0.34286598784E+00  0.61625294102E-01  0.18148906324E+01  0.18480213121E+01  0.00000000000E+00 0. -1.
</event>
<event>
 5    1  0.3368139E+002  0.1599656E+01  0.7818608E-02  0.3353737E+00
         11   -1    0    0    0    0  0.00000000000E+00  0.00000000000E+00  0.39999999674E+01  0.40000000000E+01  0.51100000000E-03 0.  1.
    9000002   -1    0    0    0    0 -0.00000000000E+00 -0.00000000000E+00  0.00000000000E+00  0.93800000000E+00  0.93800000000E+00 0. -1.
         11    1    1    2    0    0 -0.40325918575E-03 -0.97749165535E-03  0.32718173529E-01  0.32739244157E-01  0.51100000000E-03 0. -1.
    9000002    1    1    2    0    0 -0.65132418305E-02  0.20861730171E+00  0.28871491742E-01  0.96137462205E+00  0.93800000000E+00 0. -1.
         22    1    1    2    0    0  0.69165010163E-02 -0.20763981005E+00  0.39384103021E+01  0.39438861338E+01  0.00000000000E+00 0.  1.
</event>
<event>
 5    1  0.3368139E+002  0.1587350E+01  0.7818608E-02  0.3367209E+00
         11   -1    0    0    0    0  0.00000000000E+00  0.00000000000E+00  0.39999999674E+01  0.40000000000E+01  0.51100000000E-03 0. -1.
    9000002   -1    0    0    0    0 -0.00000000000E+00 -0.00000000000E+00  0.00000000000E+00  0.93800000000E+00  0.93800000000E+00 0.  1.
         11    1    1    2    0    0 -0.64628042683E-01 -0.17240433895E+00  0.81522077455E+00  0.83575427750E+00  0.51100000000E-03 0. -1.
    9000002    1    1    2    0    0  0.24342633645E-01  0.38292191151E+00  0.10931434270E+00  0.10193210386E+01  0.93800000000E+00 0.  1.
         22    1    1    2    0    0  0.40285409038E-01 -0.21051757257E+00  0.30754648501E+01  0.30829246839E+01  0.00000000000E+00 0. -1.
</event>
<event>
 5    1  0.3368139E+002  0.1599498E+01  0.7818608E-02  0.3353909E+00
         11   -1    0    0    0    0  0.00000000000E+00  0.00000000000E+00  0.39999999674E+01  0.40000000000E+01  0.51100000000E-03 0.  1.
    9000002   -1    0    0    0    0 -0.00000000000E+00 -0.00000000000E+00  0.00000000000E+00  0.93800000000E+00  0.93800000000E+00 0.  1.
         11    1    1    2    0    0  0.31281300322E-01  0.72285603864E-02  0.42522004561E+00  0.42643067449E+00  0.51100000000E-03 0.  1.
    9000002    1    1    2    0    0 -0.32428216627E+00  0.18633153370E-01  0.70696650609E-01  0.99516236573E+00  0.93800000000E+00 0.  1.
         22    1    1    2    0    0  0.29300086595E+00 -0.25861713756E-01  0.35040832711E+01  0.35164069598E+01  0.00000000000E+00 0.  1.
</event>
<event>
 5    1  0.3368139E+002  0.1599674E+01  0.7818608E-02  0.3353717E+00
         11   -1    0    0    0    0  0.00000000000E+00  0.00000000000E+00  0.39999999674E+01  0.40000000000E+01  0.51100000000E-03 0.  1.
    9000002   -1    0    0    0    0 -0.00000000000E+00 -0.00000000000E+00  0.00000000000E+00  0.93800000000E+00  0.93800000000E+00 0.  1.
         11    1    1    2    0    0 -0.44389690367E-02 -0.14882547215E-02  0.82784027441E-01  0.82917885095E-01  0.51100000000E-03 0. -1.
    9000002    1    1    2    0    0  0.21347841269E+00  0.85651328482E-01  0.35097696007E-01  0.96642900982E+00  0.93800000000E+00 0.  1.
         22    1    1    2    0    0 -0.20903944365E+00 -0.84163073761E-01  0.38821182439E+01  0.38886531051E+01  0.00000000000E+00 0.  1.
</event>
<event>
 5    1  0.3368139E+002  0.1593388E+01  0.7818608E-02  0.3360571E+00
         11   -1    0    0    0    0  0.00000000000E+00  0.00000000000E+00  0.39999999674E+01  0.40000000000E+01  0.51100000000E-03 0. -1.
    9000002   -1    0    0    0    0 -0.00000000000E+00 -0.00000000000E+00  0.00000000000E+00  0.93800000000E+00  0.93800000000E+00 0.  1.
         11    1    1    2    0    0  0.26965731918E+00 -0.26258502420E-01  0.12115427177E+01  0.12414671146E+01  0.51100000000E-03 0. -1.
    9000002    1    1    2    0    0 -0.56267642533E+00  0.13875636738E+00  0.23947059958E+00  0.11282944018E+01  0.93800000000E+00 0.  1.
         22    1    1    2    0    0  0.29301910615E+00 -0.11249786496E+00  0.25489866501E+01  0.25682384836E+01  0.00000000000E+00 0. -1.
</event>
<event>
 5    1  0.3368139E+002  0.1585261E+01  0.7818608E-02  0.3369517E+00
         11   -1    0    0    0    0  0.00000000000E+00  0.00000000000E+00  0.39999999674E+01  0.40000000000E+01  0.51100000000E-03 0.  1.
    9000002   -1    0    0    0    0 -0.00000000000E+00 -0.00000000000E+00  0.00000000000E+00  0.93800000000E+00  0.93800000000E+00 0.  1.
         11    1    1    2    0    0 -0.10724285742E+00 -0.13081120285E-03  0.15345658202E+01  0.15383086703E+01  0.51100000000E-03 0.  1.
    9000002    1    1    2    0    0  0.10511271167E+00 -0.31793499054E+00  0.86656084587E-01  0.99974227547E+00  0.93800000000E+00 0.  1.
         22    1    1    2    0    0  0.21301457433E-02  0.31806580174E+00  0.23787780626E+01  0.23999490542E+01  0.00000000000E+00 0.  1.
</event>
<event>
 5    1  0.3368139E+002  0.1599275E+01  0.7818608E-02  0.3354151E+00
         11   -1    0    0    0    0  0.00000000000E+00  0.00000000000E+00  0.39999999674E+01  0.40000000000E+01  0.51100000000E-03 0.  1.
    9000002   -1    0    0    0    0 -0.00000000000E+00 -0.00000000000E+00  0.00000000000E+00  0.93800000000E+00  0.93800000000E+00 0. -1.
         11    1    1    2    0    0  0.76081265085E-02  0.13250772724E-01  0.47199568348E+00  0.47224321373E+00  0.51100000000E-03 0.  1.
    9000002    1    1    2    0    0 -0.33847227566E-02 -0.22783538566E+00  0.34738951877E-01  0.96590435038E+00  0.93800000000E+00 0. -1.
         22    1    1    2    0    0 -0.42234037519E-02  0.21458461294E+00  0.34932653320E+01  0.34998524359E+01  0.00000000000E+00 0.  1.
</event>
<event>
 5    1  0.3368139E+002  0.1599568E+01  0.7818608E-02  0.3353833E+00
         11   -1    0    0    0    0  0.00000000000E+00  0.00000000000E+00  0.39999999674E+01  0.40000000000E+01  0.51100000000E-03 0. -1.
    9000002   -1    0    0    0    0 -0.00000000000E+00 -0.00000000000E+00  0.00000000000E+00  0.93800000000E+00  0.93800000000E+00 0.  1.
         11    1    1    2    0    0 -0.43359515187E-01 -0.64774564555E-01  0.11592165599E+01  0.11618343624E+01  0.51100000000E-03 0. -1.
    9000002    1    1    2    0    0  0.18569746908E+00  0.21183374746E+00  0.52937785687E-01  0.98081776887E+00  0.93800000000E+00 0.  1.
         22    1    1    2    0    0 -0.14233795389E+00 -0.14705918290E+00  0.27878456218E+01  0.27953478688E+01  0.00000000000E+00 0. -1.
</event>
<event>
 5    1  0.3941551E+002  0.1581258E+01  0.7818608E-02  0.3373959E+00
         11   -1    0    0    0    0  0.00000000000E+00  0.00000000000E+00  0.39999999674E+01  0.40000000000E+01  0.51100000000E-03 0.  1.
    9000002   -1    0    0    0    0 -0.00000000000E+00 -0.00000000000E+00  0.00000000000E+00  0.93800000000E+00  0.93800000000E+00 0.  1.
         11    1    1    2    0    0 -0.15411839848E-01 -0.10516870467E+00  0.19819685515E+01  0.19848167627E+01  0.51100000000E-03 0.  1.
    9000002    1    1    2    0    0  0.59950982568E-01 -0.11543884194E+00  0.24815347078E-01  0.94730145571E+00  0.93800000000E+00 0.  1.
         22    1    1    2    0    0 -0.44539142720E-01  0.22060754661E+00  0.19932160688E+01  0.20058817816E+01  0.00000000000E+00 0.  1.
</event>
<event>
 5    1  0.3368139E+002  0.1588212E+01  0.7818608E-02  0.3366257E+00
         11   -1    0    0    0    0  0.00000000000E+00  0.00000000000E+00  0.39999999674E+01  0.40000000000E+01  0.51100000000E-03 0.  1.
    9000002   -1    0    0    0    0 -0.00000000000E+00 -0.00000000000E+00  0.00000000000E+00  0.93800000000E+00  0.93800000000E+00 0. -1.
         11    1    1    2    0    0  0.18616558787E-01  0.23918555980E-01  0.18623399004E+01  0.18625865992E+01  0.51100000000E-03 0.  1.
    9000002    1    1    2    0    0 -0.30999872465E+00 -0.24294032951E-01  0.73650720527E-01  0.99093785777E+00  0.93800000000E+00 0. -1.
         22    1    1    2    0    0  0.29138216586E+00  0.37547697062E-03  0.20640093464E+01  0.20844755431E+01  0.00000000000E+00 0.  1.
</event>
<event>
 5    1  0.3368139E+002  0.1599576E+01  0.7818608E-02  0.3353824E+00
         11   -1    0    0    0    0  0.00000000000E+00  0.00000000000E+00  0.39999999674E+01  0.40000000000E+01  0.51100000000E-03 0. -1.
    9000002   -1    0    0    0    0 -0.00000000000E+00 -0.00000000000E+00  0.00000000000E+00  0.93800000000E+00  0.93800000000E+00 0.  1.
         11    1    1    2    0    0  0.15442827602E+00 -0.10674661666E+00  0.17738730278E+01  0.17837793340E+01  0.51100000000E-03 0. -1.
    9000002    1    1    2    0    0 -0.31642252139E+00  0.24835881881E+00  0.10925677033E+00  0.10264435478E+01  0.93800000000E+00 0.  1.
         22    1    1    2    0    0  0.16199424537E+00 -0.14161220216E+00  0.21168701692E+01  0.21277771182E+01  0.00000000000E+00 0. -1.
</event>
<event>
 5    1  0.3368139E+002  0.1599677E+01  0.7818608E-02  0.3353714E+00
         11   -1    0    0    0    0  0.00000000000E+00  0.00000000000E+00  0.39999999674E+01  0.40000000000E+01  0.51100000000E-03 0. -1.
    9000002   -1    0    0    0    0 -0.00000000000E+00 -0.00000000000E+00  0.00000000000E+00  0.93800000000E+00  0.93800000000E+00 0.  1.
         11    1    1    2    0    0 -0.10238055505E-01 -0.21851342646E+00  0.18461415202E+01  0.18590566718E+01  0.51100000000E-03 0. -1.
    9000002    1    1    2    0    0  0.20910376048E-01  0.45673702303E+00  0.14213335115E+00  0.10531342942E+01  0.93800000000E+00 0.  1.
         22    1    1    2    0    0 -0.10672320542E-01 -0.23822359658E+00  0.20117250960E+01  0.20258090340E+01  0.00000000000E+00 0. -1.
</event>
<event>
 5    1  0.3368139E+002  0.1597589E+01  0.7818608E-02  0.3355985E+00
         11   -1    0    0    0    0  0.00000000000E+00  0.00000000000E+00  0.39999999674E+01  0.40000000000E+01  0.51100000000E-03 0.  1.
    9000002   -1    0    0    0    0 -0.00000000000E+00 -0.00000000000E+00  0.00000000000E+00  0.93800000000E+00  0.93800000000E+00 0. -1.
         11    1    1    2    0    0  0.10506676493E-01 -0.81305263599E-02  0.34573786960E+00  0.34599339778E+00  0.51100000000E-03 0.  1.
    9000002    1    1    2    0    0  0.17101272376E+00 -0.11087842997E+00  0.29075022713E-01  0.96032741024E+00  0.93800000000E+00 0. -1.
         22    1    1    2    0    0 -0.18151940025E+00  0.11900895633E+00  0.36251870750E+01  0.36316791920E+01  0.00000000000E+00 0.  1.
</event>
<event>
 5    1  0.3368139E+002  0.1454080E+01  0.7818608E-02  0.3528753E+00
         11   -1    0    0    0    0  0.00000000000E+00  0.00000000000E+00  0.39999999674E+01  0.40000000000E+01  0.51100000000E-03 0. -1.
    9000002   -1    0    0    0    0 -0.00000000000E+00 -0.00000000000E+00  0.00000000000E+00  0.93800000000E+00  0.93800000000E+00 0. -1.
         11    1    1    2    0    0  0.33914433473E-01 -0.26005579648E-02 -0.56754433085E-01  0.66168561230E-01  0.51100000000E-03 0. -1.
    9000002    1    1    2    0    0 -0.37409735857E+00  0.74519454546E-01  0.24179843948E+00  0.10410631432E+01  0.93800000000E+00 0. -1.
         22    1    1    2    0    0  0.34018292510E+00 -0.71918896581E-01  0.38149559610E+01  0.38307682956E+01  0.00000000000E+00 0. -1.
</event>
<event>
 5    1  0.3368139E+002  0.1599673E+01  0.7818608E-02  0.3353719E+00
         11   -1    0    0    0    0  0.00000000000E+00  0.00000000000E+00  0.39999999674E+01  0.40000000000E+01  0.51100000000E-03 0.  1.
    9000002   -1    0    0    0    0 -0.00000000000E+00 -0.00000000000E+00  0.00000000000E+00  0.93800000000E+00  0.93800000000E+00 0. -1.
         11    1    1    2    0    0 -0.85916316304E-01  0.49383655940E-03  0.11285161595E+01  0.11317821525E+01  0.51100000000E-03 0.  1.
    9000002    1    1    2    0    0  0.30322321670E+00 -0.87985250328E-02  0.61411434108E-01  0.98774343705E+00  0.93800000000E+00 0. -1.
         22    1    1    2    0    0 -0.21730690040E+00  0.83046884734E-02  0.28100723737E+01  0.28184744104E+01  0.00000000000E+00 0.  1.
</event>
<event>
 5    1  0.3368139E+002  0.1599630E+01  0.7818608E-02  0.3353765E+00
         11   -1    0    0    0    0  0.00000000000E+00  0.00000000000E+00  0.39999999674E+01  0.40000000000E+01  0.51100000000E-03 0. -1.
    9000002   -1    0    0    0    0 -0.00000000000E+00 -0.00000000000E+00  0.00000000000E+00  0.93800000000E+00  0.93800000000E+00 0.  1.
         11    1    1    2    0    0  0.11329195233E-01  0.74761497326E-02  0.20449033819E+00  0.20494097446E+00  0.51100000000E-03 0. -1.
    9000002    1    1    2    0    0 -0.15362635781E+00 -0.16948929253E+00  0.34742624243E-01  0.96611527679E+00  0.93800000000E+00 0.  1.
         22    1    1    2    0    0  0.14229716258E+00  0.16201314280E+00  0.37607670049E+01  0.37669437488E+01  0.00000000000E+00 0. -1.
</event>
<event>
 5    1  0.3368139E+002  0.1599103E+01  0.7818608E-02  0.3354337E+00
         11   -1    0    0    0    0  0.00000000000E+00  0.00000000000E+00  0.39999999674E+01  0.40000000000E+01  0.51100000000E-03 0.  1.
    9000002   -1    0    0    0    0 -0.00000000000E+00 -0.00000000000E+00  0.00000000000E+00  0.93800000000E+00  0.93800000000E+00 0.  1.
         11    1    1    2    0    0 -0.74737422407E-02 -0.88507127836E-02  0.14120646304E+00  0.14168174993E+00  0.51100000000E-03 0.  1.
    9000002    1    1    2    0    0  0.21007432539E+00 -0.51180023935E-01  0.31414188131E-01  0.96311030949E+00  0.93800000000E+00 0.  1.
         22    1    1    2    0    0 -0.20260058315E+00  0.60030736718E-01  0.38273793162E+01  0.38332079406E+01  0.00000000000E+00 0.  1.
</event>
<event>
 5    1  0.3368139E+002  0.1595669E+01  0.7818608E-02  0.3358078E+00
         11   -1    0    0    0    0  0.00000000000E+00  0.00000000000E+00  0.39999999674E+01  0.40000000000E+01  0.51100000000E-03 0. -1.
    9000002   -1    0    0    0    0 -0.00000000000E+00 -0.00000000000E+00  0.00000000000E+00  0.93800000000E+00  0.93800000000E+00 0. -1.
         11    1    1    2    0    0 -0.12052179212E+00 -0.36867656443E-01  0.15122466191E+01  0.15174896456E+01  0.51100000000E-03 0. -1.
    9000002    1    1    2    0    0  0.22818106031E+00  0.26826311108E+00  0.86423408931E-01  0.10056563522E+01  0.93800000000E+00 0. -1.
         22    1    1    2    0    0 -0.10765926819E+00 -0.23139545464E+00  0.24013299393E+01  0.24148540022E+01  0.00000000000E+00 0. -1.
</event>
<event>
 5    1  0.3368139E+002  0.1599651E+01  0.7818608E-02  0.3353742E+00
         11   -1    0    0    0    0  0.00000000000E+00  0.00000000000E+00  0.39999999674E+01  0.40000000000E+01  0.51100000000E-03 0. -1.
    9000002   -1    0    0    0    0 -0.00000000000E+00 -0.00000000000E+00  0.00000000000E+00  0.93800000000E+00  0.93800000000E+00 0.  1.
         11    1    1    2    0    0 -0.18706139970E+00  0.54919536638E-01  0.18085354408E+01  0.18190131458E+01  0.51100000000E-03 0. -1.
    9000002    1    1    2    0    0  0.39082043813E+00 -0.11122952377E+00  0.11148517092E+00  0.10282925484E+01  0.93800000000E+00 0.  1.
         22    1    1    2    0    0 -0.20375903843E+00  0.56309987130E-01  0.20799793556E+01  0.20906943058E+01  0.00000000000E+00 0.  1.
</event>
<event>
 5    1  0.3477987E+002  0.1584532E+01  0.7818608E-02  0.3370325E+00
         11   -1    0    0    0    0  0.00000000000E+00  0.00000000000E+00  0.39999999674E+01  0.40000000000E+01  0.51100000000E-03 0. -1.
    9000002   -1    0    0    0    0 -0.00000000000E+00 -0.00000000000E+00  0.00000000000E+00  0.93800000000E+00  0.93800000000E+00 0.  1.
         11    1    1    2    0    0  0.67375008699E-03  0.94687780277E-01  0.10089199517E+01  0.10133538176E+01  0.51100000000E-03 0. -1.
    9000002    1    1    2    0    0  0.29921820662E-01  0.13368077341E+00  0.23609749838E-01  0.94824431705E+00  0.93800000000E+00 0.  1.
         22    1    1    2    0    0 -0.30595570749E-01 -0.22836855369E+00  0.29674702659E+01  0.29764018653E+01  0.00000000000E+00 0. -1.
</event>
<event>
 5    1  0.3368139E+002  0.1578548E+01  0.7818608E-02  0.3376981E+00
         11   -1    0    0    0    0  0.00000000000E+00  0.00000000000E+00  0.39999999674E+01  0.40000000000E+01  0.51100000000E-03 0.  1.
    9000002   -1    0    0    0    0 -0.00000000000E+00 -0.00000000000E+00  0.00000000000E+00  0.93800000000E+00  0.93800000000E+00 0. -1.
         11    1    1    2    0    0 -0.13110411102E+00  0.14103767547E+00  0.11985162034E+01  0.12138868418E+01  0.51100000000E-03 0.  1.
    9000002    1    1    2    0    0 -0.80235808668E-01 -0.32136387934E+00  0.90435030883E-01  0.99886686938E+00  0.93800000000E+00 0. -1.
         22    1    1    2    0    0  0.21133991969E+00  0.18032620387E+00  0.27110487331E+01  0.27252462888E+01  0.00000000000E+00 0.  1.
</event>
<event>
 5    1  0.3368139E+002  0.1584956E+01  0.7818608E-02  0.3369855E+00
         11   -1    0    0    0    0  0.00000000000E+00  0.00000000000E+00  0.39999999674E+01  0.40000000000E+01  0.51100000000E-03 0.  1.
    9000002   -1    0    0    0    0 -0.00000000000E+00 -0.00000000000E+00  0.00000000000E+00  0.93800000000E+00  0.93800000000E+00 0. -1.
         11    1    1    2    0    0 -0.41323425652E-01  0.29071297979E-01  0.92914089040E+00  0.93051374048E+00  0.51100000000E-03 0.  1.
    9000002    1    1    2    0    0 -0.84214443835E-01  0.33289911738E+00  0.90906613989E-01  0.10030064344E+01  0.93800000000E+00 0. -1.
         22    1    1    2    0    0  0.12553786949E+00 -0.36197041536E+00  0.29799524630E+01  0.30044798252E+01  0.00000000000E+00 0.  1.
</event>
<event>
 5    1  0.3368139E+002  0.1599360E+01  0.7818608E-02  0.3354058E+00
         11   -1    0    0    0    0  0.00000000000E+00  0.00000000000E+00  0.39999999674E+01  0.40000000000E+01  0.51100000000E-03 0. -1.
    9000002   -1    0    0    0    0 -0.00000000000E+00 -0.00000000000E+00  0.00000000000E+00  0.93800000000E+00  0.93800000000E+00 0.  1.
         11    1    1    2    0    0  0.47354890067E-01  0.14312088360E+00  0.11174006450E+01  0.11275240731E+01  0.51100000000E-03 0. -1.
    9000002    1    1    2    0    0 -0.12862509727E+00 -0.43639397477E+00  0.14095884720E+00  0.10519969170E+01  0.93800000000E+00 0.  1.
         22    1    1    2    0    0  0.81270207201E-01  0.29327309118E+00  0.27416404752E+01  0.27584790098E+01  0.00000000000E+00 0. -1.
</event>
<event>
 5    1  0.3368139E+002  0.1599463E+01  0.7818608E-02  0.3353947E+00
         11   -1    0    0    0    0  0.00000000000E+00  0.00000000000E+00  0.39999999674E+01  0.40000000000E+01  0.51100000000E-03 0. -1.
    9000002   -1    0    0    0    0 -0.00000000000E+00 -0.00000000000E+00  0.00000000000E+00  0.93800000000E+00  0.93800000000E+00 0.  1.
         11    1    1    2    0    0 -0.34092925615E-01  0.11685313518E-01  0.41355703404E+00  0.41512474710E+00  0.51100000000E-03 0. -1.
    9000002    1    1    2    0    0  0.22467932018E+00 -0.94253872508E-01  0.39579645642E-01  0.96993563588E+00  0.93800000000E+00 0.  1.
         22    1    1    2    0    0 -0.19058639457E+00  0.82568558990E-01  0.35468632877E+01  0.35529396170E+01  0.00000000000E+00 0. -1.
</event>
<event>
 5    1  0.3368139E+002  0.1599640E+01  0.7818608E-02  0.3353754E+00
         11   -1    0    0    0    0  0.00000000000E+00  0.00000000000E+00  0.39999999674E+01  0.40000000000E+01  0.51100000000E-03 0. -1.
    9000002   -1    0    0    0    0 -0.00000000000E+00 -0.00000000000E+00  0.00000000000E+00  0.93800000000E+00  0.93800000000E+00 0. -1.
         11    1    1    2    0    0 -0.65498963233E+00  0.34606083865E+00  0.22188448343E+01  0.23392396590E+01  0.51100000000E-03 0. -1.
    9000002    1    1    2    0    0  0.91378330195E+00 -0.48212120792E+00  0.87616240398E+00  0.16477091188E+01  0.93800000000E+00 0.  1.
         22    1    1    2    0    0 -0.25879366962E+00  0.13606036927E+00  0.90499272911E+00  0.95105122220E+00  0.00000000000E+00 0. -1.
</event>
<event>
 5    1  0.3368139E+002  0.1529946E+01  0.7818608E-02  0.3433093E+00
         11   -1    0    0    0    0  0.00000000000E+00  0.00000000000E+00  0.39999999674E+01  0.40000000000E+01  0.51100000000E-03 0. -1.
    9000002   -1    0    0    0    0 -0.00000000000E+00 -0.00000000000E+00  0.00000000000E+00  0.93800000000E+00  0.93800000000E+00 0. -1.
         11    1    1    2    0    0 -0.66062907504E-01 -0.33297563830E+00  0.15532962511E+01  0.15899580460E+01  0.51100000000E-03 0. -1.
    9000002    1    1    2    0    0  0.12044416065E+00  0.57066018027E-01  0.64843315432E-01  0.94963781612E+00  0.93800000000E+00 0. -1.
         22    1    1    2    0    0 -0.54381253146E-01  0.27590962027E+00  0.23818604009E+01  0.23984041379E+01  0.00000000000E+00 0. -1.
</event>
<event>
 5    1  0.3368139E+002  0.1585558E+01  0.7818608E-02  0.3369189E+00
         11   -1    0    0    0    0  0.00000000000E+00  0.00000000000E+00  0.39999999674E+01  0.40000000000E+01  0.51100000000E-03 0.  1.
    9000002   -1    0    0    0    0 -0.00000000000E+00 -0.00000000000E+00  0.00000000000E+00  0.93800000000E+00  0.93800000000E+00 0.  1.
         11    1    1    2    0    0  0.79208623070E-01 -0.89445493626E-03  0.17958866915E+00  0.19628335953E+00  0.51100000000E-03 0.  1.
    9000002    1    1    2    0    0 -0.38547025745E+00  0.25372784992E+00  0.15730421365E+00  0.10571441514E+01  0.93800000000E+00 0.  1.
         22    1    1    2    0    0  0.30626163438E+00 -0.25283339499E+00  0.36631070846E+01  0.36845724891E+01  0.00000000000E+00 0.  1.
</event>
<event>
 5    1  0.3368139E+002  0.1599156E+01  0.7818608E-02  0.3354280E+00
         11   -1    0    0    0    0  0.00000000000E+00  0.00000000000E+00  0.39999999674E+01  0.40000000000E+01  0.51100000000E-03 0. -1.
    9000002   -1    0    0    0    0 -0.00000000000E+00 -0.00000000000E+00  0.00000000000E+00  0.93800000000E+00  0.93800000000E+00 0.  1.
         11    1    1    2    0    0  0.64927886501E-01 -0.16848985653E+00  0.17520136363E+01  0.17612939860E+01  0.51100000000E-03 0. -1.
    9000002    1    1    2    0    0 -0.20399042133E+00  0.36606248841E+00  0.11919286980E+00  0.10342459947E+01  0.93800000000E+00 0.  1.
         22    1    1    2    0    0  0.13906253483E+00 -0.19757263188E+00  0.21287934613E+01  0.21424600193E+01  0.00000000000E+00 0. -1.
</event>
<event>
 5    1  0.3368139E+002  0.1522147E+01  0.7818608E-02  0.3442453E+00
         11   -1    0    0    0    0  0.00000000000E+00  0.00000000000E+00  0.39999999674E+01  0.40000000000E+01  0.51100000000E-03 0. -1.
    9000002   -1    0    0    0    0 -0.00000000000E+00 -0.00000000000E+00  0.00000000000E+00  0.93800000000E+00  0.93800000000E+00 0.  1.
         11    1    1    2    0    0 -0.10289807569E-01  0.14496889396E+00  0.22430458891E+00  0.26727265120E+00  0.51100000000E-03 0. -1.
    9000002    1    1    2    0    0 -0.19773107025E+00  0.25782575643E+00  0.13488691454E+00  0.10018034620E+01  0.93800000000E+00 0.  1.
         22    1    1    2    0    0  0.20802087781E+00 -0.40279465038E+00  0.36408084639E+01  0.36689238868E+01  0.00000000000E+00 0. -1.
</event>
<event>
 5    1  0.3368139E+002  0.1599048E+01  0.7818608E-02  0.3354398E+00
         11   -1    0    0    0    0  0.00000000000E+00  0.00000000000E+00  0.39999999674E+01  0.40000000000E+01  0.51100000000E-03 0. -1.
    9000002   -1    0    0    0    0 -0.00000000000E+00 -0.00000000000E+00  0.00000000000E+00  0.93800000000E+00  0.93800000000E+00 0.  1.
         11    1    1    2    0    0 -0.21157860542E+00  0.36119458757E-01  0.17785641889E+01  0.17914689383E+01  0.51100000000E-03 0. -1.
    9000002    1    1    2    0    0  0.43259442076E+00 -0.13805467301E+00  0.14067614864E+00  0.10515849012E+01  0.93800000000E+00 0.  1.
         22    1    1    2    0    0 -0.22101581534E+00  0.10193521425E+00  0.20807596298E+01  0.20949461605E+01  0.00000000000E+00 0. -1.
</event>
<event>
 5    1  0.3368139E+002  0.1598994E+01  0.7818608E-02  0.3354456E+00
         11   -1    0    0    0    0  0.00000000000E+00  0.00000000000E+00  0.39999999674E+01  0.40000000000E+01  0.51100000000E-03 0. -1.
    9000002   -1    0    0    0    0 -0.00000000000E+00 -0.00000000000E+00  0.00000000000E+00  0.93800000000E+00  0.93800000000E+00 0.  1.
         11    1    1    2    0    0  0.20170751641E-01  0.29501022117E-01  0.85153221349E+00  0.85228196113E+00  0.51100000000E-03 0. -1.
    9000002    1    1    2    0    0 -0.21321741315E+00 -0.14928410414E+00  0.45564685057E-01  0.97450887607E+00  0.93800000000E+00 0.  1.
         22    1    1    2    0    0  0.19304666151E+00  0.11978308202E+00  0.31029030688E+01  0.31112091628E+01  0.00000000000E+00 0. -1.
</event>
<event>
 5    1  0.3368139E+002  0.1599670E+01  0.7818608E-02  0.3353722E+00
         11   -1    0    0    0    0  0.00000000000E+00  0.00000000000E+00  0.39999999674E+01  0.40000000000E+01  0.51100000000E-03 0. -1.
    9000002   -1    0    0    0    0 -0.00000000000E+00 -0.00000000000E+00  0.00000000000E+00  0.93800000000E+00  0.93800000000E+00 0. -1.
         11    1    1    2    0    0 -0.13037976388E+00  0.23509601007E+00  0.21933682912E+01  0.22097813781E+01  0.51100000000E-03 0. -1.
    9000002    1    1    2    0    0  0.22771559012E+00 -0.41784069075E+00  0.15441287826E+00  0.10630769350E+01  0.93800000000E+00 0. -1.
         22    1    1    2    0    0 -0.97335826245E-01  0.18274468068E+00  0.16522187979E+01  0.16651416869E+01  0.00000000000E+00 0.  1.
</event>
<event>
 5    1  0.3368139E+002  0.1599655E+01  0.7818608E-02  0.3353738E+00
         11   -1    0    0    0    0  0.00000000000E+00  0.00000000000E+00  0.39999999674E+01  0.40000000000E+01  0.51100000000E-03 0.  1.
    9000002   -1    0    0    0    0 -0.00000000000E+00 -0.00000000000E+00  0.00000000000E+00  0.93800000000E+00  0.93800000000E+00 0. -1.
         11    1    1    2    0    0  0.23735297144E-01 -0.61520394939E-01  0.97980300650E+00  0.98201950896E+00  0.51100000000E-03 0.  1.
    9000002    1    1    2    0    0 -0.11182572433E+00  0.25901039595E+00  0.53028047278E-01  0.98094207353E+00  0.93800000000E+00 0. -1.
         22    1    1    2    0    0  0.88090427187E-01 -0.19749000101E+00  0.29671689136E+01  0.29750384175E+01  0.00000000000E+00 0.  1.
</event>
<event>
 5    1  0.3368139E+002  0.1599677E+01  0.7818608E-02  0.3353714E+00
         11   -1    0    0    0    0  0.00000000000E+00  0.00000000000E+00  0.39999999674E+01  0.40000000000E+01  0.51100000000E-03 0. -1.
    9000002   -1    0    0    0    0 -0.00000000000E+00 -0.00000000000E+00  0.00000000000E+00  0.93800000000E+00  0.93800000000E+00 0. -1.
         11    1    1    2    0    0  0.39814880610E-02  0.11149395776E+00  0.12325607255E+01  0.12375996760E+01  0.51100000000E-03 0.  1.
    9000002    1    1    2    0    0 -0.13231770273E-01 -0.35414471022E+00  0.84252903709E-01  0.10062485316E+01  0.93800000000E+00 0. -1.
         22    1    1    2    0    0  0.92502822117E-02  0.24265075246E+00  0.26831863381E+01  0.26941517924E+01  0.00000000000E+00 0. -1.
</event>
<event>
 5    1  0.3368139E+002  0.1599656E+01  0.7818608E-02  0.3353736E+00
         11   -1    0    0    0    0  0.00000000000E+00  0.00000000000E+00  0.39999999674E+01  0.40000000000E+01  0.51100000000E-03 0. -1.
    9000002   -1    0    0    0    0 -0.00000000000E+00 -0.00000000000E+00  0.00000000000E+00  0.93800000000E+00  0.93800000000E+00 0. -1.
         11    1    1    2    0    0  0.42669192829E+00  0.14935753558E+00  0.20625393161E+01  0.21115023957E+01  0.51100000000E-03 0. -1.
    9000002    1    1    2    0    0 -0.72789969507E+00 -0.25947079825E+00  0.43599195279E+00  0.12911607352E+01  0.93800000000E+00 0. -1.
         22    1    1    2    0    0  0.30120776678E+00  0.11011326267E+00  0.15014686984E+01  0.15353368691E+01  0.00000000000E+00 0. -1.
</event>
<event>
 5    1  0.3368139E+002  0.1597409E+01  0.7818608E-02  0.3356181E+00
         11   -1    0    0    0    0  0.00000000000E+00  0.00000000000E+00  0.39999999674E+01  0.40000000000E+01  0.51100000000E-03 0.  1.
    9000002   -1    0    0    0    0 -0.00000000000E+00 -0.00000000000E+00  0.00000000000E+00  0.93800000000E+00  0.93800000000E+00 0. -1.
         11    1    1    2    0    0  0.59480540833E-01  0.49208127002E-01  0.65315742728E+00  0.65770377863E+00  0.51100000000E-03 0.  1.
    9000002    1    1    2    0    0 -0.28437528839E+00 -0.50447285441E-01  0.57357132392E-01  0.98313176832E+00  0.93800000000E+00 0. -1.
         22    1    1    2    0    0  0.22489474755E+00  0.12391584390E-02  0.32894854077E+01  0.32971644530E+01  0.00000000000E+00 0.  1.
</event>
<event>
 5    1  0.3368139E+002  0.1599676E+01  0.7818608E-02  0.3353715E+00
         11   -1    0    0    0    0  0.00000000000E+00  0.00000000000E+00  0.39999999674E+01  0.40000000000E+01  0.51100000000E-03 0.  1.
    9000002   -1    0    0    0    0 -0.00000000000E+00 -0.00000000000E+00  0.00000000000E+00  0.93800000000E+00  0.93800000000E+00 0. -1.
         11    1    1    2    0    0  0.19971587627E-01  0.36382093671E-01  0.59255665224E+00  0.59400855910E+00  0.51100000000E-03 0. -1.
    9000002    1    1    2    0    0 -0.12974188270E+00 -0.24612390524E+00  0.51541346966E-01  0.97975019434E+00  0.93800000000E+00 0. -1.
         22    1    1    2    0    0  0.10977029507E+00  0.20974181157E+00  0.33559019682E+01  0.33642412466E+01  0.00000000000E+00 0.  1.
</event>
<event>
 5    1  0.3368139E+002  0.1598740E+01  0.7818608E-02  0.3354732E+00
         11   -1    0    0    0    0  0.00000000000E+00  0.00000000000E+00  0.39999999674E+01  0.40000000000E+01  0.51100000000E-03 0. -1.
    9000002   -1    0    0    0    0 -0.00000000000E+00 -0.00000000000E+00  0.00000000000E+00  0.93800000000E+00  0.93800000000E+00 0. -1.
         11    1    1    2    0    0  0.10910086939E+00  0.15281188628E+00  0.22116516893E+01  0.22196076068E+01  0.51100000000E-03 0. -1.
    9000002    1    1    2    0    0 -0.25077199248E+00 -0.29664702954E+00  0.10240069480E+00  0.10203998994E+01  0.93800000000E+00 0. -1.
         22    1    1    2    0    0  0.14167112309E+00  0.14383514327E+00  0.16859475832E+01  0.16979924938E+01  0.00000000000E+00 0.  1.
</event>
<event>
 5    1  0.3368139E+002  0.1599652E+01  0.7818608E-02  0.3353741E+00
         11   -1    0    0    0    0  0.00000000000E+00  0.00000000000E+00  0.39999999674E+01  0.40000000000E+01  0.51100000000E-03 0. -1.
    9000002   -1    0    0    0    0 -0.00000000000E+00 -0.00000000000E+00  0.00000000000E+00  0.93800000000E+00  0.93800000000E+00 0. -1.
         11    1    1    2    0    0 -0.12582542979E+00 -0.35998978205E-01  0.11302156084E+01  0.11377677916E+01  0.51100000000E-03 0. -1.
    9000002    1    1    2    0    0  0.41263921674E+00  0.12241072226E+00  0.12549010130E+00  0.10396380493E+01  0.93800000000E+00 0. -1.
         22    1    1    2    0    0 -0.28681378695E+00 -0.86411744054E-01  0.27442942577E+01  0.27605941590E+01  0.00000000000E+00 0. -1.
</event>
<event>
 5    1  0.3368139E+002  0.1599619E+01  0.7818608E-02  0.3353777E+00
         11   -1    0    0    0    0  0.00000000000E+00  0.00000000000E+00  0.39999999674E+01  0.40000000000E+01  0.51100000000E-03 0.  1.
    9000002   -1    0    0    0    0 -0.00000000000E+00 -0.00000000000E+00  0.00000000000E+00  0.93800000000E+00  0.93800000000E+00 0.  1.
         11    1    1    2    0    0  0.16001996361E-01 -0.22371742663E-01  0.30192468822E+00  0.30317542320E+00  0.51100000000E-03 0.  1.
    9000002    1    1    2    0    0 -0.18654820755E+00  0.23231831013E+00  0.59255166955E-01  0.98596511387E+00  0.93800000000E+00 0.  1.
         22    1    1    2    0    0  0.17054621118E+00 -0.20994656746E+00  0.36388201122E+01  0.36488594629E+01  0.00000000000E+00 0.  1.
</event>
<event>
 5    1  0.3368139E+002  0.1596122E+01  0.7818608E-02  0.3357583E+00
         11   -1    0    0    0    0  0.00000000000E+00  0.00000000000E+00  0.39999999674E+01  0.40000000000E+01  0.51100000000E-03 0.  1.
    9000002   -1    0    0    0    0 -0.00000000000E+00 -0.00000000000E+00  0.00000000000E+00  0.93800000000E+00  0.93800000000E+00 0.  1.
         11    1    1    2    0    0 -0.39885792886E-01 -0.10271275659E-01  0.37197209924E+00  0.37424574722E+00  0.51100000000E-03 0.  1.
    9000002    1    1    2    0    0  0.93859180990E-01 -0.18926584963E+00  0.32247039908E-01  0.96203689081E+00  0.93800000000E+00 0.  1.
         22    1    1    2    0    0 -0.53973388104E-01  0.19953712529E+00  0.35957808282E+01  0.36017173620E+01  0.00000000000E+00 0.  1.
</event>
<event>
 5    1  0.3368139E+002  0.1599676E+01  0.7818608E-02  0.3353715E+00
         11   -1    0    0    0    0  0.00000000000E+00  0.00000000000E+00  0.39999999674E+01  0.40000000000E+01  0.51100000000E-03 0.  1.
    9000002   -1    0    0    0    0 -0.00000000000E+00 -0.00000000000E+00  0.00000000000E+00  0.93800000000E+00  0.93800000000E+00 0. -1.
         11    1    1    2    0    0 -0.48792282078E-01 -0.29080319104E-01  0.64603111085E+00  0.64852356091E+00  0.51100000000E-03 0.  1.
    9000002    1    1    2    0    0  0.30025245144E+00  0.17742720254E+00  0.81544983993E-01  0.10040545459E+01  0.93800000000E+00 0. -1.
         22    1    1    2    0    0 -0.25146016936E+00 -0.14834688344E+00  0.32724238725E+01  0.32854218932E+01  0.00000000000E+00 0. -1.
</event>
<event>
 5    1  0.3368139E+002  0.1599669E+01  0.7818608E-02  0.3353722E+00
         11   -1    0    0    0    0  0.00000000000E+00  0.00000000000E+00  0.39999999674E+01  0.40000000000E+01  0.51100000000E-03 0.  1.
    9000002   -1    0    0    0    0 -0.00000000000E+00 -0.00000000000E+00  0.00000000000E+00  0.93800000000E+00  0.93800000000E+00 0.  1.
         11    1    1    2    0    0 -0.59334400235E-03  0.39150462323E-01  0.62807690092E+00  0.62929640500E+00  0.51100000000E-03 0.  1.
    9000002    1    1    2    0    0  0.13543237446E-01 -0.25830598657E+00  0.44480587503E-01  0.97402665500E+00  0.93800000000E+00 0.  1.
         22    1    1    2    0    0 -0.12949893443E-01  0.21915552425E+00  0.33274424789E+01  0.33346769400E+01  0.00000000000E+00 0.  1.
</event>
<event>
 5    1  0.3368139E+002  0.1599465E+01  0.7818608E-02  0.3353945E+00
         11   -1    0    0    0    0  0.00000000000E+00  0.00000000000E+00  0.39999999674E+01  0.40000000000E+01  0.51100000000E-03 0.  1.
    9000002   -1    0    0    0    0 -0.00000000000E+00 -0.00000000000E+00  0.00000000000E+00  0.93800000000E+00  0.93800000000E+00 0.  1.
         11    1    1    2    0    0 -0.35047577093E-01  0.17111517456E-01  0.78488317028E+00  0.78585176006E+00  0.51100000000E-03 0.  1.
    9000002    1    1    2    0    0  0.18079761994E+00 -0.15682741345E+00  0.38183405480E-01  0.96880575424E+00  0.93800000000E+00 0.  1.
         22    1    1    2    0    0 -0.14575004285E+00  0.13971589600E+00  0.31769333916E+01  0.31833424857E+01  0.00000000000E+00 0.  1.
</event>
<event>
 5    1  0.3368139E+002  0.1594722E+01  0.7818608E-02  0.3359111E+00
         11   -1    0    0    0    0  0.00000000000E+00  0.00000000000E+00  0.39999999674E+01  0.40000000000E+01  0.51100000000E-03 0.  1.
    9000002   -1    0    0    0    0 -0.00000000000E+00 -0.00000000000E+00  0.00000000000E+00  0.93800000000E+00  0.93800000000E+00 0.  1.
         11    1    1    2    0    0  0.10005023302E-01 -0.29009267252E-01  0.17148092257E+00  0.17420564286E+00  0.51100000000E-03 0.  1.
    9000002    1    1    2    0    0 -0.48734109894E+00 -0.89068973630E-01  0.17234308493E+00  0.10747003153E+01  0.93800000000E+00 0.  1.
         22    1    1    2    0    0  0.47733607564E+00  0.11807824088E+00  0.36561759599E+01  0.36890940418E+01  0.00000000000E+00 0.  1.
</event>
<event>
 5    1  0.3368139E+002  0.1577864E+01  0.7818608E-02  0.3377745E+00
         11   -1    0    0    0    0  0.00000000000E+00  0.00000000000E+00  0.39999999674E+01  0.40000000000E+01  0.51100000000E-03 0.  1.
    9000002   -1    0    0    0    0 -0.00000000000E+00 -0.00000000000E+00  0.00000000000E+00  0.93800000000E+00  0.93800000000E+00 0.  1.
         11    1    1    2    0    0  0.13489842606E+00  0.13995461168E+00  0.17717453563E+01  0.17823767131E+01  0.51100000000E-03 0.  1.
    9000002    1    1    2    0    0 -0.26205507364E+00  0.80080418525E-01  0.67022311000E-01  0.97950075305E+00  0.93800000000E+00 0.  1.
         22    1    1    2    0    0  0.12715664758E+00 -0.22003503020E+00  0.21612323001E+01  0.21761225339E+01  0.00000000000E+00 0.  1.
</event>
<event>
 5    1  0.3368139E+002  0.1544186E+01  0.7818608E-02  0.3416263E+00
         11   -1    0    0    0    0  0.00000000000E+00  0.00000000000E+00  0.39999999674E+01  0.40000000000E+01  0.51100000000E-03 0.  1.
    9000002   -1    0    0    0    0 -0.00000000000E+00 -0.00000000000E+00  0.00000000000E+00  0.93800000000E+00  0.93800000000E+00 0.  1.
         11    1    1    2    0    0  0.84693402162E-01 -0.23661737612E+00  0.83951055939E+00  0.87632128555E+00  0.51100000000E-03 0.  1.
    9000002    1    1    2    0    0 -0.19302813981E+00  0.31954478236E-01  0.68072030146E-01  0.96060332746E+00  0.93800000000E+00 0.  1.
         22    1    1    2    0    0  0.10833473765E+00  0.20466289789E+00  0.30924173778E+01  0.31010753870E+01  0.00000000000E+00 0.  1.
</event>
<event>
 5    1  0.3368139E+002  0.1560414E+01  0.7818608E-02  0.3397482E+00
         11   -1    0    0    0    0  0.00000000000E+00  0.00000000000E+00  0.39999999674E+01  0.40000000000E+01  0.51100000000E-03 0. -1.
    9000002   -1    0    0    0    0 -0.00000000000E+00 -0.00000000000E+00  0.00000000000E+00  0.93800000000E+00  0.93800000000E+00 0.  1.
         11    1    1    2    0    0  0.11599993350E+00  0.94880988645E-02  0.26027421004E+01  0.26053431081E+01  0.51100000000E-03 0. -1.
    9000002    1    1    2    0    0 -0.14046875556E+00 -0.34841248242E+00  0.12776755764E+00  0.10184749766E+01  0.93800000000E+00 0.  1.
         22    1    1    2    0    0  0.24468822061E-01  0.33892438355E+00  0.12694903093E+01  0.13141819153E+01  0.00000000000E+00 0. -1.
</event>
<event>
 5    1  0.3368139E+002  0.1597889E+01  0.7818608E-02  0.3355658E+00
         11   -1    0    0    0    0  0.00000000000E+00  0.00000000000E+00  0.39999999674E+01  0.40000000000E+01  0.51100000000E-03 0. -1.
    9000002   -1    0    0    0    0 -0.00000000000E+00 -0.00000000000E+00  0.00000000000E+00  0.93800000000E+00  0.93800000000E+00 0.  1.
         11    1    1    2    0    0  0.75867105430E-02  0.81652743797E-02  0.77812111304E+00  0.77820110355E+00  0.51100000000E-03 0. -1.
    9000002    1    1    2    0    0 -0.92370778064E-01 -0.24015844584E+00  0.45378962019E-01  0.97371027002E+00  0.93800000000E+00 0.  1.
         22    1    1    2    0    0  0.84784067521E-01  0.23199317146E+00  0.31764998923E+01  0.31860886264E+01  0.00000000000E+00 0. -1.
</event>
<event>
 5    1  0.3368139E+002  0.1595930E+01  0.7818608E-02  0.3357793E+00
         11   -1    0    0    0    0  0.00000000000E+00  0.00000000000E+00  0.39999999674E+01  0.40000000000E+01  0.51100000000E-03 0. -1.
    9000002   -1    0    0    0    0 -0.00000000000E+00 -0.00000000000E+00  0.00000000000E+00  0.93800000000E+00  0.93800000000E+00 0.  1.
         11    1    1    2    0    0 -0.31995446607E-01 -0.13433683189E-01  0.12134163211E+01  0.12139125183E+01  0.51100000000E-03 0. -1.
    9000002    1    1    2    0    0 -0.26236859883E-01  0.22316370130E+00  0.36317956463E-01  0.96522194565E+00  0.93800000000E+00 0.  1.
         22    1    1    2    0    0  0.58232306490E-01 -0.20973001811E+00  0.27502656898E+01  0.27588655361E+01  0.00000000000E+00 0. -1.
</event>
<event>
 5    1  0.3368139E+002  0.1599673E+01  0.7818608E-02  0.3353718E+00
         11   -1    0    0    0    0  0.00000000000E+00  0.00000000000E+00  0.39999999674E+01  0.40000000000E+01  0.51100000000E-03 0.  1.
    9000002   -1    0    0    0    0 -0.00000000000E+00 -0.00000000000E+00  0.00000000000E+00  0.93800000000E+00  0.93800000000E+00 0. -1.
         11    1    1    2    0    0  0.17870932110E+00 -0.25577905456E+00  0.22033132957E+01  0.22252976624E+01  0.51100000000E-03 0.  1.
    9000002    1    1    2    0    0 -0.30471940866E+00  0.44320606361E+00  0.19935982400E+00  0.10994880046E+01  0.93800000000E+00 0. -1.
         22    1    1    2    0    0  0.12601008757E+00 -0.18742700906E+00  0.15973268477E+01  0.16132143330E+01  0.00000000000E+00 0.  1.
</event>
<event>
 5    1  0.3368139E+002  0.1599075E+01  0.7818608E-02  0.3354368E+00
         11   -1    0    0    0    0  0.00000000000E+00  0.00000000000E+00  0.39999999674E+01  0.40000000000E+01  0.51100000000E-03 0. -1.
    9000002   -1    0    0    0    0 -0.00000000000E+00 -0.00000000000E+00  0.00000000000E+00  0.93800000000E+00  0.93800000000E+00 0.  1.
         11    1    1    2    0    0  0.19328334724E+00  0.54415135262E-02  0.15934587292E+01  0.16051476708E+01  0.51100000000E-03 0. -1.
    9000002    1    1    2    0    0 -0.40085505295E+00 -0.86710591861E-02  0.10895005047E+00  0.10259015909E+01  0.93800000000E+00 0.  1.
         22    1    1    2    0    0  0.20757170571E+00  0.32295456599E-02  0.22975911877E+01  0.23069507383E+01  0.00000000000E+00 0. -1.
</event>
<event>
 5    1  0.3368139E+002  0.1555772E+01  0.7818608E-02  0.3402812E+00
         11   -1    0    0    0    0  0.00000000000E+00  0.00000000000E+00  0.39999999674E+01  0.40000000000E+01  0.51100000000E-03 0. -1.
    9000002   -1    0    0    0    0 -0.00000000000E+00 -0.00000000000E+00  0.00000000000E+00  0.93800000000E+00  0.93800000000E+00 0. -1.
         11    1    1    2    0    0 -0.14693552908E+00  0.61500264503E-01  0.55871559928E+00  0.58097823904E+00  0.51100000000E-03 0. -1.
    9000002    1    1    2    0    0 -0.82495784473E-01  0.11298643302E+00  0.45964150668E-01  0.94948838416E+00  0.93800000000E+00 0. -1.
         22    1    1    2    0    0  0.22943131355E+00 -0.17448669752E+00  0.33953202174E+01  0.34075333768E+01  0.00000000000E+00 0. -1.
</event>
<event>
 5    1  0.3368139E+002  0.1599628E+01  0.7818608E-02  0.3353767E+00
         11   -1    0    0    0    0  0.00000000000E+00  0.00000000000E+00  0.39999999674E+01  0.40000000000E+01  0.51100000000E-03 0. -1.
    9000002   -1    0    0    0    0 -0.00000000000E+00 -0.00000000000E+00  0.00000000000E+00  0.93800000000E+00  0.93800000000E+00 0.  1.
         11    1    1    2    0    0 -0.31963445971E-01  0.34302722185E-01  0.54560032902E+00  0.54761146699E+00  0.51100000000E-03 0. -1.
    9000002    1    1    2    0    0  0.19229489313E+00 -0.23065872401E+00  0.60200863710E-01  0.98673649820E+00  0.93800000000E+00 0.  1.
         22    1    1    2    0    0 -0.16033144716E+00  0.19635600182E+00  0.33941987746E+01  0.34036520348E+01  0.00000000000E+00 0. -1.
</event>
<event>
 5    1  0.3368139E+002  0.1562523E+01  0.7818608E-02  0.3395072E+00
         11   -1    0    0    0    0  0.00000000000E+00  0.00000000000E+00  0.39999999674E+01  0.40000000000E+01  0.51100000000E-03 0. -1.
    9000002   -1    0    0    0    0 -0.00000000000E+00 -0.00000000000E+00  0.00000000000E+00  0.93800000000E+00  0.93800000000E+00 0. -1.
         11    1    1    2    0    0  0.48587878218E+00  0.50786944254E+00  0.62936592838E+00  0.94345709737E+00  0.51100000000E-03 0. -1.
    9000002    1    1    2    0    0 -0.60357546122E+00 -0.82746721010E+00  0.33796045604E+01  0.36538440451E+01  0.93800000000E+00 0. -1.
         22    1    1    2    0    0  0.11769667903E+00  0.31959776756E+00 -0.89705214094E-02  0.34069885755E+00  0.00000000000E+00 0.  1.
</event>
<event>
 5    1  0.3368139E+002  0.1599143E+01  0.7818608E-02  0.3354295E+00
         11   -1    0    0    0    0  0.00000000000E+00  0.00000000000E+00  0.39999999674E+01  0.40000000000E+01  0.51100000000E-03 0. -1.
    9000002   -1    0    0    0    0 -0.00000000000E+00 -0.00000000000E+00  0.00000000000E+00  0.93800000000E+00  0.93800000000E+00 0.  1.
         11    1    1    2    0    0 -0.13391074730E+00 -0.85926459981E-01  0.13182619091E+01  0.13278291181E+01  0.51100000000E-03 0. -1.
    9000002    1    1    2    0    0  0.41892998358E+00  0.17913722968E+00  0.14157517377E+00  0.10523687605E+01  0.93800000000E+00 0.  1.
         22    1    1    2    0    0 -0.28501923627E+00 -0.93210769694E-01  0.25401628845E+01  0.25578021215E+01  0.00000000000E+00 0. -1.
</event>
<event>
 5    1  0.3368139E+002  0.1500211E+01  0.7818608E-02  0.3469342E+00
         11   -1    0    0    0    0  0.00000000000E+00  0.00000000000E+00  0.39999999674E+01  0.40000000000E+01  0.51100000000E-03 0.  1.
    9000002   -1    0    0    0    0 -0.00000000000E+00 -0.00000000000E+00  0.00000000000E+00  0.93800000000E+00  0.93800000000E+00 0.  1.
         11    1    1    2    0    0  0.39633120984E+00 -0.11460325694E+00  0.26350137440E+01  0.26671164254E+01  0.51100000000E-03 0.  1.
    9000002    1    1    2    0    0 -0.64666494877E-01  0.23266355067E+00  0.11870462116E+00  0.97583239875E+00  0.93800000000E+00 0.  1.
         22    1    1    2    0    0 -0.33166471496E+00 -0.11806029373E+00  0.12462816022E+01  0.12950511759E+01  0.00000000000E+00 0.  1.
</event>
<event>
 5    1  0.3368139E+002  0.1524383E+01  0.7818608E-02  0.3439760E+00
         11   -1    0    0    0    0  0.00000000000E+00  0.00000000000E+00  0.39999999674E+01  0.40000000000E+01  0.51100000000E-03 0.  1.
    9000002   -1    0    0    0    0 -0.00000000000E+00 -0.00000000000E+00  0.00000000000E+00  0.93800000000E+00  0.93800000000E+00 0.  1.
         11    1    1    2    0    0  0.26003953462E+00 -0.13690031163E+00  0.25485019598E+01  0.25653897861E+01  0.51100000000E-03 0.  1.
    9000002    1    1    2    0    0  0.82865326713E-01  0.24390133296E+00  0.10425127163E+00  0.97829793531E+00  0.93800000000E+00 0.  1.
         22    1    1    2    0    0 -0.34290486133E+00 -0.10700102133E+00  0.13472467360E+01  0.13943122785E+01  0.00000000000E+00 0.  1.
</event>
<event>
 5    1  0.3368139E+002  0.1599673E+01  0.7818608E-02  0.3353718E+00
         11   -1    0    0    0    0  0.00000000000E+00  0.00000000000E+00  0.39999999674E+01  0.40000000000E+01  0.51100000000E-03 0.  1.
    9000002   -1    0    0    0    0 -0.00000000000E+00 -0.00000000000E+00  0.00000000000E+00  0.93800000000E+00  0.93800000000E+00 0. -1.
         11    1    1    2    0    0 -0.99977616439E+00  0.44211295162E-01  0.20158378216E+01  0.22505797923E+01  0.51100000000E-03 0.  1.
    9000002    1    1    2    0    0  0.12295578540E+01 -0.52439145155E-01  0.15180935962E+01  0.21677210492E+01  0.93800000000E+00 0. -1.
         22    1    1    2    0    0 -0.22978168965E+00  0.82278499934E-02  0.46606854955E+00  0.51969915846E+00  0.00000000000E+00 0.  1.
</event>
<event>
 5    1  0.3368139E+002  0.1599460E+01  0.7818608E-02  0.3353950E+00
         11   -1    0    0    0    0  0.00000000000E+00  0.00000000000E+00  0.39999999674E+01  0.40000000000E+01  0.51100000000E-03 0.  1.
    9000002   -1    0    0    0    0 -0.00000000000E+00 -0.00000000000E+00  0.00000000000E+00  0.93800000000E+00  0.93800000000E+00 0. -1.
         11    1    1    2    0    0  0.15046496848E-01 -0.86084687589E-01  0.12046003254E+01  0.12077661925E+01  0.51100000000E-03 0.  1.
    9000002    1    1    2    0    0 -0.44482408786E-01  0.33366949246E+00  0.76042009529E-01  0.99947006063E+00  0.93800000000E+00 0. -1.
         22    1    1    2    0    0  0.29435911938E-01 -0.24758480487E+00  0.27193576324E+01  0.27307637469E+01  0.00000000000E+00 0.  1.
</event>
<event>
 5    1  0.3368139E+002  0.1599582E+01  0.7818608E-02  0.3353817E+00
         11   -1    0    0    0    0  0.00000000000E+00  0.00000000000E+00  0.39999999674E+01  0.40000000000E+01  0.51100000000E-03 0.  1.
    9000002   -1    0    0    0    0 -0.00000000000E+00 -0.00000000000E+00  0.00000000000E+00  0.93800000000E+00  0.93800000000E+00 0. -1.
         11    1    1    2    0    0 -0.43652550255E-01 -0.14480426139E-03  0.80001227784E+00  0.80120251618E+00  0.51100000000E-03 0.  1.
    9000002    1    1    2    0    0  0.24270919426E+00  0.38929579829E-01  0.40198165174E-01  0.97050664998E+00  0.93800000000E+00 0. -1.
         22    1    1    2    0    0 -0.19905664401E+00 -0.38784775567E-01  0.31597895243E+01  0.31662908338E+01  0.00000000000E+00 0.  1.
</event>
<event>
 5    1  0.3368139E+002  0.1568902E+01  0.7818608E-02  0.3387824E+00
         11   -1    0    0    0    0  0.00000000000E+00  0.00000000000E+00  0.39999999674E+01  0.40000000000E+01  0.51100000000E-03 0.  1.
    9000002   -1    0    0    0    0 -0.00000000000E+00 -0.00000000000E+00  0.00000000000E+00  0.93800000000E+00  0.93800000000E+00 0. -1.
         11    1    1    2    0    0 -0.84887310522E-01 -0.12450834808E+00  0.20706757137E+01  0.20761518145E+01  0.51100000000E-03 0.  1.
    9000002    1    1    2    0    0 -0.22313896347E+00  0.12265916993E+00  0.67034732524E-01  0.97425557445E+00  0.93800000000E+00 0. -1.
         22    1    1    2    0    0  0.30802627399E+00  0.18491781473E-02  0.18622895211E+01  0.18875926111E+01  0.00000000000E+00 0.  1.
</event>
<event>
 5    1  0.3368139E+002  0.1599574E+01  0.7818608E-02  0.3353826E+00
         11   -1    0    0    0    0  0.00000000000E+00  0.00000000000E+00  0.39999999674E+01  0.40000000000E+01  0.51100000000E-03 0.  1.
    9000002   -1    0    0    0    0 -0.00000000000E+00 -0.00000000000E+00  0.00000000000E+00  0.93800000000E+00  0.93800000000E+00 0. -1.
         11    1    1    2    0    0  0.65166911760E-02 -0.71142009052E-02  0.13203557462E+00  0.13238856901E+00  0.51100000000E-03 0.  1.
    9000002    1    1    2    0    0 -0.19967628250E+00  0.83066864354E-01  0.31072364063E-01  0.96310965812E+00  0.93800000000E+00 0. -1.
         22    1    1    2    0    0  0.19315959133E+00 -0.75952663448E-01  0.38368920287E+01  0.38425017729E+01  0.00000000000E+00 0.  1.
</event>
<event>
 5    1  0.3368139E+002  0.1599676E+01  0.7818608E-02  0.3353715E+00
         11   -1    0    0    0    0  0.00000000000E+00  0.00000000000E+00  0.39999999674E+01  0.40000000000E+01  0.51100000000E-03 0. -1.
    9000002   -1    0    0    0    0 -0.00000000000E+00 -0.00000000000E+00  0.00000000000E+00  0.93800000000E+00  0.93800000000E+00 0.  1.
         11    1    1    2    0    0  0.17235487675E-01 -0.27416847845E-01  0.53500754199E+00  0.53598701168E+00  0.51100000000E-03 0. -1.
    9000002    1    1    2    0    0 -0.12912053751E+00  0.19990542943E+00  0.37588273883E-01  0.96844781597E+00  0.93800000000E+00 0.  1.
         22    1    1    2    0    0  0.11188504983E+00 -0.17248858159E+00  0.34274041515E+01  0.34335651723E+01  0.00000000000E+00 0.  1.
</event>
<event>
 5    1  0.3368139E+002  0.1571510E+01  0.7818608E-02  0.3384878E+00
         11   -1    0    0    0    0  0.00000000000E+00  0.00000000000E+00  0.39999999674E+01  0.40000000000E+01  0.51100000000E-03 0. -1.
    9000002   -1    0    0    0    0 -0.00000000000E+00 -0.00000000000E+00  0.00000000000E+00  0.93800000000E+00  0.93800000000E+00 0. -1.
         11    1    1    2    0    0  0.28687271220E-01  0.47519298792E-01  0.79282055995E-01  0.96782998567E-01  0.51100000000E-03 0. -1.
    9000002    1    1    2    0    0 -0.15247291732E-01  0.21769637311E+00  0.53122484320E-01  0.96451552041E+00  0.93800000000E+00 0. -1.
         22    1    1    2    0    0 -0.13439979488E-01 -0.26521567190E+00  0.38675954270E+01  0.38767014810E+01  0.00000000000E+00 0. -1.
</event>
<event>
 5    1  0.3368139E+002  0.1599667E+01  0.7818608E-02  0.3353725E+00
         11   -1    0    0    0    0  0.00000000000E+00  0.00000000000E+00  0.39999999674E+01  0.40000000000E+01  0.51100000000E-03 0. -1.
    9000002   -1    0    0    0    0 -0.00000000000E+00 -0.00000000000E+00  0.00000000000E+00  0.93800000000E+00  0.93800000000E+00 0.  1.
         11    1    1    2    0    0 -0.53055245978E-01 -0.21903268577E-01  0.76623017686E+00  0.76837722334E+00  0.51100000000E-03 0. -1.
    9000002    1    1    2    0    0  0.25791764270E+00  0.11256268901E+00  0.52749260696E-01  0.98072338296E+00  0.93800000000E+00 0.  1.
         22    1    1    2    0    0 -0.20486239672E+00 -0.90659420435E-01  0.31810205298E+01  0.31888993937E+01  0.00000000000E+00 0. -1.
</event>
<event>
 5    1  0.3368139E+002  0.1594458E+01  0.7818608E-02  0.3359400E+00
         11   -1    0    0    0    0  0.00000000000E+00  0.00000000000E+00  0.39999999674E+01  0.40000000000E+01  0.51100000000E-03 0. -1.
    9000002   -1    0    0    0    0 -0.00000000000E+00 -0.00000000000E+00  0.00000000000E+00  0.93800000000E+00  0.93800000000E+00 0. -1.
         11    1    1    2    0    0 -0.31587878507E+00 -0.47708929682E+00  0.17252785686E+01  0.18176853426E+01  0.51100000000E-03 0. -1.
    9000002    1    1    2    0    0  0.57731909873E+00  0.74362447495E+00  0.70019549983E+00  0.15021293019E+01  0.93800000000E+00 0. -1.
         22    1    1    2    0    0 -0.26144031366E+00 -0.26653517814E+00  0.15745258989E+01  0.16181853556E+01  0.00000000000E+00 0. -1.
</event>
<event>
 5    1  0.3368139E+002  0.1599653E+01  0.7818608E-02  0.3353740E+00
         11   -1    0    0    0    0  0.00000000000E+00  0.00000000000E+00  0.39999999674E+01  0.40000000000E+01  0.51100000000E-03 0.  1.
    9000002   -1    0    0    0    0 -0.00000000000E+00 -0.00000000000E+00  0.00000000000E+00  0.93800000000E+00  0.93800000000E+00 0. -1.
         11    1    1    2    0    0  0.30578109254E+00 -0.11892406592E+00  0.22106105503E+01  0.22348253346E+01  0.51100000000E-03 0.  1.
    9000002    1    1    2    0    0 -0.52393909335E+00  0.19371256450E+00  0.21590241864E+00  0.11128767162E+01  0.93800000000E+00 0. -1.
         22    1    1    2    0    0  0.21815800081E+00 -0.74788498583E-01  0.15734869984E+01  0.15902979492E+01  0.00000000000E+00 0. -1.
</event>
<event>
 5    1  0.3368139E+002  0.1599667E+01  0.7818608E-02  0.3353725E+00
         11   -1    0    0    0    0  0.00000000000E+00  0.00000000000E+00  0.39999999674E+01  0.40000000000E+01  0.51100000000E-03 0.  1.
    9000002   -1    0    0    0    0 -0.00000000000E+00 -0.00000000000E+00  0.00000000000E+00  0.93800000000E+00  0.93800000000E+00 0.  1.
         11    1    1    2    0    0  0.16383264953E-02 -0.73857649192E-03  0.24051776423E-01  0.24124234269E-01  0.51100000000E-03 0. -1.
    9000002    1    1    2    0    0 -0.29845941680E+00  0.78432724604E-01  0.63588494076E-01  0.98950351811E+00  0.93800000000E+00 0.  1.
         22    1    1    2    0    0  0.29682109031E+00 -0.77694148112E-01  0.39123596969E+01  0.39243722476E+01  0.00000000000E+00 0.  1.
</event>
<event>
 5    1  0.3368139E+002  0.1599667E+01  0.7818608E-02  0.3353725E+00
         11   -1    0    0    0    0  0.00000000000E+00  0.00000000000E+00  0.39999999674E+01  0.40000000000E+01  0.51100000000E-03 0.  1.
    9000002   -1    0    0    0    0 -0.00000000000E+00 -0.00000000000E+00  0.00000000000E+00  0.93800000000E+00  0.93800000000E+00 0.  1.
         11    1    1    2    0    0  0.13165316464E-02 -0.75811394380E-03  0.26875937710E-01  0.26923691075E-01  0.51100000000E-03 0. -1.
    9000002    1    1    2    0    0 -0.22329722620E+00  0.62111659397E-01  0.35645398563E-01  0.96686819365E+00  0.93800000000E+00 0.  1.
         22    1    1    2    0    0  0.22198069456E+00 -0.61353545453E-01  0.39374786311E+01  0.39442081153E+01  0.00000000000E+00 0.  1.
</event>
<event>
 5    1  0.3368139E+002  0.1593855E+01  0.7818608E-02  0.3360061E+00
         11   -1    0    0    0    0  0.00000000000E+00  0.00000000000E+00  0.39999999674E+01  0.40000000000E+01  0.51100000000E-03 0. -1.
    9000002   -1    0    0    0    0 -0.00000000000E+00 -0.00000000000E+00  0.00000000000E+00  0.93800000000E+00  0.93800000000E+00 0.  1.
         11    1    1    2    0    0 -0.37356696207E-01  0.69549624561E-01  0.47355104367E+00  0.48008699744E+00  0.51100000000E-03 0. -1.
    9000002    1    1    2    0    0 -0.10542857825E+00 -0.30312780663E+00  0.73476191450E-01  0.99410482494E+00  0.93800000000E+00 0.  1.
         22    1    1    2    0    0  0.14278527446E+00  0.23357818207E+00  0.34529727322E+01  0.34638081776E+01  0.00000000000E+00 0.  1.
</event>
<event>
 5    1  0.3368139E+002  0.1599677E+01  0.7818608E-02  0.3353715E+00
         11   -1    0    0    0    0  0.00000000000E+00  0.00000000000E+00  0.39999999674E+01  0.40000000000E+01  0.51100000000E-03 0.  1.
    9000002   -1    0    0    0    0 -0.00000000000E+00 -0.00000000000E+00  0.00000000000E+00  0.93800000000E+00  0.93800000000E+00 0. -1.
         11    1    1    2    0    0  0.25043547085E+00  0.26810615018E+00  0.16941439033E+01  0.17334135857E+01  0.51100000000E-03 0.  1.
    9000002    1    1    2    0    0 -0.52827847712E+00 -0.56298965526E+00  0.43504274601E+00  0.12904036935E+01  0.93800000000E+00 0. -1.
         22    1    1    2    0    0  0.27784300627E+00  0.29488350508E+00  0.18708133181E+01  0.19141827208E+01  0.00000000000E+00 0.  1.
</event>
<event>
 5    1  0.3368139E+002  0.1599675E+01  0.7818608E-02  0.3353716E+00
         11   -1    0    0    0    0  0.00000000000E+00  0.00000000000E+00  0.39999999674E+01  0.40000000000E+01  0.51100000000E-03 0. -1.
    9000002   -1    0    0    0    0 -0.00000000000E+00 -0.00000000000E+00  0.00000000000E+00  0.93800000000E+00  0.93800000000E+00 0.  1.
         11    1    1    2    0    0 -0.31336073035E-03 -0.10838334285E-01  0.18206216132E+00  0.18238546924E+00  0.51100000000E-03 0. -1.
    9000002    1    1    2    0    0 -0.81110038644E-03  0.22954445509E+00  0.34951180570E-01  0.96631097467E+00  0.93800000000E+00 0.  1.
         22    1    1    2    0    0  0.11244611168E-02 -0.21870612081E+00  0.37829866255E+01  0.37893035561E+01  0.00000000000E+00 0. -1.
</event>
<event>
 5    1  0.3368139E+002  0.1599672E+01  0.7818608E-02  0.3353719E+00
         11   -1    0    0    0    0  0.00000000000E+00  0.00000000000E+00  0.39999999674E+01  0.40000000000E+01  0.51100000000E-03 0.  1.
    9000002   -1    0    0    0    0 -0.00000000000E+00 -0.00000000000E+00  0.00000000000E+00  0.93800000000E+00  0.93800000000E+00 0.  1.
         11    1    1    2    0    0  0.19960250429E+00 -0.15888886953E-01  0.16911207677E+01  0.17029337417E+01  0.51100000000E-03 0.  1.
    9000002    1    1    2    0    0 -0.44983301898E+00  0.35192056552E-01  0.13830277515E+00  0.10500285155E+01  0.93800000000E+00 0.  1.
         22    1    1    2    0    0  0.25023051469E+00 -0.19303169599E-01  0.21705764245E+01  0.21850377428E+01  0.00000000000E+00 0.  1.
</event>
<event>
 5    1  0.3368139E+002  0.1599657E+01  0.7818608E-02  0.3353736E+00
         11   -1    0    0    0    0  0.00000000000E+00  0.00000000000E+00  0.39999999674E+01  0.40000000000E+01  0.51100000000E-03 0. -1.
    9000002   -1    0    0    0    0 -0.00000000000E+00 -0.00000000000E+00  0.00000000000E+00  0.93800000000E+00  0.93800000000E+00 0.  1.
         11    1    1    2    0    0 -0.20178255126E+00  0.87030561374E-01  0.14091936198E+01  0.14262248896E+01  0.51100000000E-03 0. -1.
    9000002    1    1    2    0    0  0.55108935881E+00 -0.23124642577E+00  0.24909462743E+00  0.11397659954E+01  0.93800000000E+00 0.  1.
         22    1    1    2    0    0 -0.34930680755E+00  0.14421586439E+00  0.23417117201E+01  0.23720091150E+01  0.00000000000E+00 0. -1.
</event>
<event>
 5    1  0.3368139E+002  0.1599193E+01  0.7818608E-02  0.3354240E+00
         11   -1    0    0    0    0  0.00000000000E+00  0.00000000000E+00  0.39999999674E+01  0.40000000000E+01  0.51100000000E-03 0. -1.
    9000002   -1    0    0    0    0 -0.00000000000E+00 -0.00000000000E+00  0.00000000000E+00  0.93800000000E+00  0.93800000000E+00 0. -1.
         11    1    1    2    0    0  0.18403671695E+00 -0.10272227608E+00  0.17419094446E+01  0.17546139614E+01  0.51100000000E-03 0. -1.
    9000002    1    1    2    0    0 -0.45823917327E+00  0.20378553569E+00  0.17265419239E+00  0.10775737351E+01  0.93800000000E+00 0. -1.
         22    1    1    2    0    0  0.27420245632E+00 -0.10106325961E+00  0.20854363304E+01  0.21058123035E+01  0.00000000000E+00 0.  1.
</event>
<event>
 5    1  0.3368139E+002  0.1599301E+01  0.7818608E-02  0.3354123E+00
         11   -1    0    0    0    0  0.00000000000E+00  0.00000000000E+00  0.39999999674E+01  0.40000000000E+01  0.51100000000E-03 0. -1.
    9000002   -1    0    0    0    0 -0.00000000000E+00 -0.00000000000E+00  0.00000000000E+00  0.93800000000E+00  0.93800000000E+00 0. -1.
         11    1    1    2    0    0 -0.26001626567E-01 -0.91048559540E-01  0.10247486481E+01  0.10291141713E+01  0.51100000000E-03 0. -1.
    9000002    1    1    2    0    0  0.16897015193E+00  0.37899416767E+00  0.11668856239E+00  0.10323021418E+01  0.93800000000E+00 0. -1.
         22    1    1    2    0    0 -0.14296852536E+00 -0.28794560813E+00  0.28585627569E+01  0.28765836869E+01  0.00000000000E+00 0. -1.
</event>
<event>
 5    1  0.3368139E+002  0.1453047E+01  0.7818608E-02  0.3530129E+00
         11   -1    0    0    0    0  0.00000000000E+00  0.00000000000E+00  0.39999999674E+01  0.40000000000E+01  0.51100000000E-03 0.  1.
    9000002   -1    0    0    0    0 -0.00000000000E+00 -0.00000000000E+00  0.00000000000E+00  0.93800000000E+00  0.93800000000E+00 0. -1.
         11    1    1    2    0    0 -0.32972136888E+00  0.14857491497E+00  0.20902463603E+01  0.21213016746E+01  0.51100000000E-03 0.  1.
    9000002    1    1    2    0    0  0.10830972358E+00  0.40160926689E+00  0.25275548577E+00  0.10567640868E+01  0.93800000000E+00 0. -1.
         22    1    1    2    0    0  0.22141164531E+00 -0.55018418187E+00  0.16569981212E+01  0.17599342387E+01  0.00000000000E+00 0. -1.
</event>
<event>
 5    1  0.3368139E+002  0.1465339E+01  0.7818608E-02  0.3513878E+00
         11   -1    0    0    0    0  0.00000000000E+00  0.00000000000E+00  0.39999999674E+01  0.40000000000E+01  0.51100000000E-03 0. -1.
    9000002   -1    0    0    0    0 -0.00000000000E+00 -0.00000000000E+00  0.00000000000E+00  0.93800000000E+00  0.93800000000E+00 0.  1.
         11    1    1    2    0    0  0.53675034622E+00 -0.22917010632E+00  0.30836587226E+01  0.31384026590E+01  0.51100000000E-03 0. -1.
    9000002    1    1    2    0    0 -0.59479833961E+00 -0.10253927710E+00  0.40364988720E+00  0.11862025963E+01  0.93800000000E+00 0.  1.
         22    1    1    2    0    0  0.58047993382E-01  0.33170938342E+00  0.51269135761E+00  0.61339474464E+00  0.00000000000E+00 0.  1.
</event>
<event>
 5    1  0.3368139E+002  0.1599676E+01  0.7818608E-02  0.3353715E+00
         11   -1    0    0    0    0  0.00000000000E+00  0.00000000000E+00  0.39999999674E+01  0.40000000000E+01  0.51100000000E-03 0. -1.
    9000002   -1    0    0    0    0 -0.00000000000E+00 -0.00000000000E+00  0.00000000000E+00  0.93800000000E+00  0.93800000000E+00 0.  1.
         11    1    1    2    0    0  0.52542397259E-01  0.45636267449E-01  0.99751317292E+00  0.99993807992E+00  0.51100000000E-03 0. -1.
    9000002    1    1    2    0    0 -0.20388066650E+00 -0.18054543955E+00  0.49355571483E-01  0.97797952655E+00  0.93800000000E+00 0.  1.
         22    1    1    2    0    0  0.15133826924E+00  0.13490917210E+00  0.29531312230E+01  0.29600823935E+01  0.00000000000E+00 0. -1.
</event>
<event>
 5    1  0.3368139E+002  0.1592592E+01  0.7818608E-02  0.3361443E+00
         11   -1    0    0    0    0  0.00000000000E+00  0.00000000000E+00  0.39999999674E+01  0.40000000000E+01  0.51100000000E-03 0. -1.
    9000002   -1    0    0    0    0 -0.00000000000E+00 -0.00000000000E+00  0.00000000000E+00  0.93800000000E+00  0.93800000000E+00 0.  1.
         11    1    1    2    0    0 -0.39658224937E-01 -0.43514501247E-01  0.30100763775E+00  0.30671182848E+00  0.51100000000E-03 0. -1.
    9000002    1    1    2    0    0 -0.10239782010E+00  0.23471915422E+00  0.49032316186E-01  0.97356384636E+00  0.93800000000E+00 0.  1.
         22    1    1    2    0    0  0.14205604504E+00 -0.19120465297E+00  0.36499600134E+01  0.36577243252E+01  0.00000000000E+00 0. -1.
</event>
<event>
 5    1  0.3368139E+002  0.1599670E+01  0.7818608E-02  0.3353722E+00
         11   -1    0    0    0    0  0.00000000000E+00  0.00000000000E+00  0.39999999674E+01  0.40000000000E+01  0.51100000000E-03 0. -1.
    9000002   -1    0    0    0    0 -0.00000000000E+00 -0.00000000000E+00  0.00000000000E+00  0.93800000000E+00  0.93800000000E+00 0.  1.
         11    1    1    2    0    0 -0.15758867849E+00  0.58373671676E-01  0.13843992073E+01  0.13945619755E+01  0.51100000000E-03 0. -1.
    9000002    1    1    2    0    0  0.44133347409E+00 -0.17034448257E+00  0.15253699803E+00  0.10615573531E+01  0.93800000000E+00 0.  1.
         22    1    1    2    0    0 -0.28374479560E+00  0.11197081090E+00  0.24630637620E+01  0.24818806715E+01  0.00000000000E+00 0. -1.
</event>
<event>
 5    1  0.3368139E+002  0.1599353E+01  0.7818608E-02  0.3354066E+00
         11   -1    0    0    0    0  0.00000000000E+00  0.00000000000E+00  0.39999999674E+01  0.40000000000E+01  0.51100000000E-03 0. -1.
    9000002   -1    0    0    0    0 -0.00000000000E+00 -0.00000000000E+00  0.00000000000E+00  0.93800000000E+00  0.93800000000E+00 0. -1.
         11    1    1    2    0    0 -0.14107242165E+00 -0.24945513799E+00  0.20522081229E+01  0.20721215541E+01  0.51100000000E-03 0. -1.
    9000002    1    1    2    0    0  0.27136687183E+00  0.42541180723E+00  0.17472689253E+00  0.10793464096E+01  0.93800000000E+00 0. -1.
         22    1    1    2    0    0 -0.13029445018E+00 -0.17595666924E+00  0.17730649519E+01  0.17865320364E+01  0.00000000000E+00 0. -1.
</event>
<event>
 5    1  0.3368139E+002  0.1599584E+01  0.7818608E-02  0.3353815E+00
         11   -1    0    0    0    0  0.00000000000E+00  0.00000000000E+00  0.39999999674E+01  0.40000000000E+01  0.51100000000E-03 0.  1.
    9000002   -1    0    0    0    0 -0.00000000000E+00 -0.00000000000E+00  0.00000000000E+00  0.93800000000E+00  0.93800000000E+00 0. -1.
         11    1    1    2    0    0 -0.14511166359E-01  0.54829840266E-01  0.88389414688E+00  0.88571214813E+00  0.51100000000E-03 0.  1.
    9000002    1    1    2    0    0  0.35311544133E-01 -0.27657791251E+00  0.51836736293E-01  0.97993535198E+00  0.93800000000E+00 0. -1.
         22    1    1    2    0    0 -0.20800377774E-01  0.22174807225E+00  0.30642690842E+01  0.30723524999E+01  0.00000000000E+00 0.  1.
</event>
<event>
 5    1  0.3368139E+002  0.1599649E+01  0.7818608E-02  0.3353745E+00
         11   -1    0    0    0    0  0.00000000000E+00  0.00000000000E+00  0.39999999674E+01  0.40000000000E+01  0.51100000000E-03 0.  1.
    9000002   -1    0    0    0    0 -0.00000000000E+00 -0.00000000000E+00  0.00000000000E+00  0.93800000000E+00  0.93800000000E+00 0.  1.
         11    1    1    2    0    0  0.57024415525E-01 -0.31274889330E-01  0.90206520796E+00  0.90440687923E+00  0.51100000000E-03 0.  1.
    9000002    1    1    2    0    0 -0.24350473782E+00  0.11427085796E+00  0.48157660255E-01  0.97699311490E+00  0.93800000000E+00 0.  1.
         22    1    1    2    0    0  0.18648032230E+00 -0.82995968629E-01  0.30497770991E+01  0.30566000059E+01  0.00000000000E+00 0.  1.
</event>
<event>
 5    1  0.3368139E+002  0.1599672E+01  0.7818608E-02  0.3353720E+00
         11   -1    0    0    0    0  0.00000000000E+00  0.00000000000E+00  0.39999999674E+01  0.40000000000E+01  0.51100000000E-03 0.  1.
    9000002   -1    0    0    0    0 -0.00000000000E+00 -0.00000000000E+00  0.00000000000E+00  0.93800000000E+00  0.93800000000E+00 0.  1.
         11    1    1    2    0    0 -0.53733208323E-01  0.41674555792E-01  0.84493931563E+00  0.84767135996E+00  0.51100000000E-03 0.  1.
    9000002    1    1    2    0    0  0.24884666617E+00 -0.20408266773E+00  0.69245872386E-01  0.99408922606E+00  0.93800000000E+00 0.  1.
         22    1    1    2    0    0 -0.19511345785E+00  0.16240811193E+00  0.30858147793E+01  0.30962394140E+01  0.00000000000E+00 0.  1.
</event>
<event>
 5    1  0.3368139E+002  0.1599674E+01  0.7818608E-02  0.3353717E+00
         11   -1    0    0    0    0  0.00000000000E+00  0.00000000000E+00  0.39999999674E+01  0.40000000000E+01  0.51100000000E-03 0. -1.
    9000002   -1    0    0    0    0 -0.00000000000E+00 -0.00000000000E+00  0.00000000000E+00  0.93800000000E+00  0.93800000000E+00 0. -1.
         11    1    1    2    0    0 -0.67698930766E-01 -0.53127936492E-01  0.11904619333E+01  0.11935684306E+01  0.51100000000E-03 0. -1.
    9000002    1    1    2    0    0  0.22557793809E+00  0.18224343187E+00  0.56053930620E-01  0.98340435110E+00  0.93800000000E+00 0. -1.
         22    1    1    2    0    0 -0.15787900733E+00 -0.12911549538E+00  0.27534841035E+01  0.27610272183E+01  0.00000000000E+00 0. -1.
</event>
<event>
 5    1  0.3368139E+002  0.1539574E+01  0.7818608E-02  0.3421678E+00
         11   -1    0    0    0    0  0.00000000000E+00  0.00000000000E+00  0.39999999674E+01  0.40000000000E+01  0.51100000000E-03 0.  1.
    9000002   -1    0    0    0    0 -0.00000000000E+00 -0.00000000000E+00  0.00000000000E+00  0.93800000000E+00  0.93800000000E+00 0.  1.
         11    1    1    2    0    0 -0.11588836935E+00  0.27542501909E+00  0.13629726658E+01  0.13953436151E+01  0.51100000000E-03 0.  1.
    9000002    1    1    2    0    0 -0.56066579806E-01 -0.84337335468E-01  0.52004831599E-01  0.94488345844E+00  0.93800000000E+00 0.  1.
         22    1    1    2    0    0  0.17195494916E+00 -0.19108768362E+00  0.25850224700E+01  0.25977729265E+01  0.00000000000E+00 0.  1.
</event>
<event>
 5    1  0.3368139E+002  0.1520109E+01  0.7818608E-02  0.3444917E+00
         11   -1    0    0    0    0  0.00000000000E+00  0.00000000000E+00  0.39999999674E+01  0.40000000000E+01  0.51100000000E-03 0.  1.
    9000002   -1    0    0    0    0 -0.00000000000E+00 -0.00000000000E+00  0.00000000000E+00  0.93800000000E+00  0.93800000000E+00 0. -1.
         11    1    1    2    0    0  0.86452630284E-01  0.97621025199E-01  0.11467088042E+00  0.17364790175E+00  0.51100000000E-03 0.  1.
    9000002    1    1    2    0    0 -0.35390682733E+00  0.22426090077E+00  0.18918918070E+00  0.10445953954E+01  0.93800000000E+00 0. -1.
         22    1    1    2    0    0  0.26745419705E+00 -0.32188192597E+00  0.36961399062E+01  0.37197567028E+01  0.00000000000E+00 0.  1.
</event>
<event>
 5    1  0.3368139E+002  0.1599674E+01  0.7818608E-02  0.3353717E+00
         11   -1    0    0    0    0  0.00000000000E+00  0.00000000000E+00  0.39999999674E+01  0.40000000000E+01  0.51100000000E-03 0. -1.
    9000002   -1    0    0    0    0 -0.00000000000E+00 -0.00000000000E+00  0.00000000000E+00  0.93800000000E+00  0.93800000000E+00 0.  1.
         11    1    1    2    0    0  0.28916634622E+00  0.13447375008E-01  0.16440681280E+01  0.16693586428E+01  0.51100000000E-03 0. -1.
    9000002    1    1    2    0    0 -0.65386488901E+00 -0.27776332029E-01  0.30256451486E+00  0.11830892204E+01  0.93800000000E+00 0.  1.
         22    1    1    2    0    0  0.36469854279E+00  0.14328957021E-01  0.20533673245E+01  0.20855521368E+01  0.00000000000E+00 0. -1.
</event>
<event>
 5    1  0.3368139E+002  0.1599677E+01  0.7818608E-02  0.3353714E+00
         11   -1    0    0    0    0  0.00000000000E+00  0.00000000000E+00  0.39999999674E+01  0.40000000000E+01  0.51100000000E-03 0.  1.
    9000002   -1    0    0    0    0 -0.00000000000E+00 -0.00000000000E+00  0.00000000000E+00  0.93800000000E+00  0.93800000000E+00 0.  1.
         11    1    1    2    0    0  0.29658773443E-01  0.42884373320E-01  0.77115352043E+00  0.77291443608E+00  0.51100000000E-03 0. -1.
    9000002    1    1    2    0    0 -0.15218473121E+00 -0.21819706272E+00  0.47071780672E-01  0.97613006466E+00  0.93800000000E+00 0.  1.
         22    1    1    2    0    0  0.12252595777E+00  0.17531268940E+00  0.31817746663E+01  0.31889554993E+01  0.00000000000E+00 0.  1.
</event>
<event>
 5    1  0.3368139E+002  0.1583326E+01  0.7818608E-02  0.3371662E+00
         11   -1    0    0    0    0  0.00000000000E+00  0.00000000000E+00  0.39999999674E+01  0.40000000000E+01  0.51100000000E-03 0.  1.
    9000002   -1    0    0    0    0 -0.00000000000E+00 -0.00000000000E+00  0.00000000000E+00  0.93800000000E+00  0.93800000000E+00 0.  1.
         11    1    1    2    0    0 -0.46596286823E+00 -0.65012889059E+00  0.27160325110E+01  0.28313639524E+01  0.51100000000E-03 0.  1.
    9000002    1    1    2    0    0  0.56133276585E+00  0.86311033771E+00  0.90310912025E+00  0.16599710877E+01  0.93800000000E+00 0.  1.
         22    1    1    2    0    0 -0.95369897624E-01 -0.21298144712E+00  0.38085833613E+00  0.44666495989E+00  0.00000000000E+00 0. -1.
</event>
<event>
 5    1  0.3368139E+002  0.1526841E+01  0.7818608E-02  0.3436808E+00
         11   -1    0    0    0    0  0.00000000000E+00  0.00000000000E+00  0.39999999674E+01  0.40000000000E+01  0.51100000000E-03 0.  1.
    9000002   -1    0    0    0    0 -0.00000000000E+00 -0.00000000000E+00  0.00000000000E+00  0.93800000000E+00  0.93800000000E+00 0.  1.
         11    1    1    2    0    0  0.39492240463E-01 -0.33991988978E+00  0.20804042019E+01  0.21083612293E+01  0.51100000000E-03 0.  1.
    9000002    1    1    2    0    0  0.75146482313E-01  0.48324613391E-01  0.60348541862E-01  0.94417594153E+00  0.93800000000E+00 0.  1.
         22    1    1    2    0    0 -0.11463872278E+00  0.29159527639E+00  0.18592472235E+01  0.18854628292E+01  0.00000000000E+00 0.  1.
</event>
<event>
 5    1  0.3368139E+002  0.1599659E+01  0.7818608E-02  0.3353733E+00
         11   -1    0    0    0    0  0.00000000000E+00  0.00000000000E+00  0.39999999674E+01  0.40000000000E+01  0.51100000000E-03 0.  1.
    9000002   -1    0    0    0    0 -0.00000000000E+00 -0.00000000000E+00  0.00000000000E+00  0.93800000000E+00  0.93800000000E+00 0. -1.
         11    1    1    2    0    0 -0.70507827254E-01 -0.27787555292E-01  0.88778681406E+00  0.89101581931E+00  0.51100000000E-03 0.  1.
    9000002    1    1    2    0    0  0.32170482689E+00  0.10714681437E+00  0.77014455817E-01  0.10003747607E+01  0.93800000000E+00 0. -1.
         22    1    1    2    0    0 -0.25119699964E+00 -0.79359259076E-01  0.30351986975E+01  0.30466094200E+01  0.00000000000E+00 0.  1.
</event>
<event>
 5    1  0.3368139E+002  0.1599641E+01  0.7818608E-02  0.3353753E+00
         11   -1    0    0    0    0  0.00000000000E+00  0.00000000000E+00  0.39999999674E+01  0.40000000000E+01  0.51100000000E-03 0. -1.
    9000002   -1    0    0    0    0 -0.00000000000E+00 -0.00000000000E+00  0.00000000000E+00  0.93800000000E+00  0.93800000000E+00 0.  1.
         11    1    1    2    0    0  0.41016049959E-01  0.27489805120E+00  0.22185712949E+01  0.22359137074E+01  0.51100000000E-03 0. -1.
    9000002    1    1    2    0    0 -0.75266462206E-01 -0.48671408197E+00  0.16586819748E+00  0.10723394504E+01  0.93800000000E+00 0.  1.
         22    1    1    2    0    0  0.34250412247E-01  0.21181603077E+00  0.16155604749E+01  0.16297468422E+01  0.00000000000E+00 0. -1.
</event>
<event>
 5    1  0.3368139E+002  0.1599565E+01  0.7818608E-02  0.3353835E+00
         11   -1    0    0    0    0  0.00000000000E+00  0.00000000000E+00  0.39999999674E+01  0.40000000000E+01  0.51100000000E-03 0. -1.
    9000002   -1    0    0    0    0 -0.00000000000E+00 -0.00000000000E+00  0.00000000000E+00  0.93800000000E+00  0.93800000000E+00 0.  1.
         11    1    1    2    0    0  0.49315342824E-02  0.48654455847E-01  0.53894832679E+00  0.54116276311E+00  0.51100000000E-03 0. -1.
    9000002    1    1    2    0    0  0.12286851126E-01 -0.31327958225E+00  0.65746616672E-01  0.99119205050E+00  0.93800000000E+00 0.  1.
         22    1    1    2    0    0 -0.17218385408E-01  0.26462512640E+00  0.33953050239E+01  0.34056451864E+01  0.00000000000E+00 0. -1.
</event>
<event>
 5    1  0.3368139E+002  0.1543536E+01  0.7818608E-02  0.3417024E+00
         11   -1    0    0    0    0  0.00000000000E+00  0.00000000000E+00  0.39999999674E+01  0.40000000000E+01  0.51100000000E-03 0. -1.
    9000002   -1    0    0    0    0 -0.00000000000E+00 -0.00000000000E+00  0.00000000000E+00  0.93800000000E+00  0.93800000000E+00 0.  1.
         11    1    1    2    0    0  0.94331970620E-01 -0.36695861898E-01  0.12279229311E+00  0.15913301144E+00  0.51100000000E-03 0. -1.
    9000002    1    1    2    0    0  0.14514379346E+00  0.37775375926E-01  0.57493268767E-01  0.95165286516E+00  0.93800000000E+00 0.  1.
         22    1    1    2    0    0 -0.23947576408E+00 -0.10795140281E-02  0.38197144055E+01  0.38272141234E+01  0.00000000000E+00 0. -1.
</event>
<event>
 5    1  0.3368139E+002  0.1599386E+01  0.7818608E-02  0.3354030E+00
         11   -1    0    0    0    0  0.00000000000E+00  0.00000000000E+00  0.39999999674E+01  0.40000000000E+01  0.51100000000E-03 0.  1.
    9000002   -1    0    0    0    0 -0.00000000000E+00 -0.00000000000E+00  0.00000000000E+00  0.93800000000E+00  0.93800000000E+00 0.  1.
         11    1    1    2    0    0  0.10007381210E-01 -0.13037417826E+00  0.13111839878E+01  0.13176878557E+01  0.51100000000E-03 0.  1.
    9000002    1    1    2    0    0 -0.82549246290E-01  0.36479963623E+00  0.94296223252E-01  0.10142134540E+01  0.93800000000E+00 0.  1.
         22    1    1    2    0    0  0.72541865080E-01 -0.23442545797E+00  0.25945197563E+01  0.26060986903E+01  0.00000000000E+00 0.  1.
</event>
<event>
 5    1  0.3368139E+002  0.1571530E+01  0.7818608E-02  0.3384856E+00
         11   -1    0    0    0    0  0.00000000000E+00  0.00000000000E+00  0.39999999674E+01  0.40000000000E+01  0.51100000000E-03 0.  1.
    9000002   -1    0    0    0    0 -0.00000000000E+00 -0.00000000000E+00  0.00000000000E+00  0.93800000000E+00  0.93800000000E+00 0. -1.
         11    1    1    2    0    0  0.10683171066E+00  0.17976981320E+00  0.12831233139E+01  0.13000522682E+01  0.51100000000E-03 0.  1.
    9000002    1    1    2    0    0 -0.17860148020E+00  0.92147276115E-02  0.42395238423E-01  0.95583720171E+00  0.93800000000E+00 0. -1.
         22    1    1    2    0    0  0.71769769537E-01 -0.18898454081E+00  0.26744814150E+01  0.26821105301E+01  0.00000000000E+00 0.  1.
</event>
<event>
 5    1  0.3368139E+002  0.1599485E+01  0.7818608E-02  0.3353923E+00
         11   -1    0    0    0    0  0.00000000000E+00  0.00000000000E+00  0.39999999674E+01  0.40000000000E+01  0.51100000000E-03 0.  1.
    9000002   -1    0    0    0    0 -0.00000000000E+00 -0.00000000000E+00  0.00000000000E+00  0.93800000000E+00  0.93800000000E+00 0.  1.
         11    1    1    2    0    0 -0.23382907728E+00  0.11967490238E+00  0.20830382540E+01  0.20995348885E+01  0.51100000000E-03 0.  1.
    9000002    1    1    2    0    0  0.40540185450E+00 -0.23640884274E+00  0.15018945267E+00  0.10595473922E+01  0.93800000000E+00 0.  1.
         22    1    1    2    0    0 -0.17157277722E+00  0.11673394036E+00  0.17667722607E+01  0.17789177193E+01  0.00000000000E+00 0.  1.
</event>
<event>
 5    1  0.3368139E+002  0.1599673E+01  0.7818608E-02  0.3353719E+00
         11   -1    0    0    0    0  0.00000000000E+00  0.00000000000E+00  0.39999999674E+01  0.40000000000E+01  0.51100000000E-03 0.  1.
    9000002   -1    0    0    0    0 -0.00000000000E+00 -0.00000000000E+00  0.00000000000E+00  0.93800000000E+00  0.93800000000E+00 0. -1.
         11    1    1    2    0    0  0.90829443713E-02 -0.14551304418E+00  0.74875102773E+00  0.76281380989E+00  0.51100000000E-03 0.  1.
    9000002    1    1    2    0    0 -0.39520667260E-01  0.71463314083E+00  0.36768617921E+00  0.12358396075E+01  0.93800000000E+00 0. -1.
         22    1    1    2    0    0  0.30437722889E-01 -0.56912009664E+00  0.28835627604E+01  0.29393465826E+01  0.00000000000E+00 0.  1.
</event>
<event>
 5    1  0.3368139E+002  0.1599601E+01  0.7818608E-02  0.3353797E+00
         11   -1    0    0    0    0  0.00000000000E+00  0.00000000000E+00  0.39999999674E+01  0.40000000000E+01  0.51100000000E-03 0. -1.
    9000002   -1    0    0    0    0 -0.00000000000E+00 -0.00000000000E+00  0.00000000000E+00  0.93800000000E+00  0.93800000000E+00 0.  1.
         11    1    1    2    0    0  0.25532044443E-01 -0.10562775794E+00  0.11498845476E+01  0.11550081569E+01  0.51100000000E-03 0. -1.
    9000002    1    1    2    0    0 -0.67110909804E-01  0.33429701170E+00  0.77937165435E-01  0.10010876925E+01  0.93800000000E+00 0.  1.
         22    1    1    2    0    0  0.41578865361E-01 -0.22866925376E+00  0.27721782543E+01  0.27819041506E+01  0.00000000000E+00 0. -1.
</event>
<event>
 5    1  0.3368139E+002  0.1599571E+01  0.7818608E-02  0.3353829E+00
         11   -1    0    0    0    0  0.00000000000E+00  0.00000000000E+00  0.39999999674E+01  0.40000000000E+01  0.51100000000E-03 0. -1.
    9000002   -1    0    0    0    0 -0.00000000000E+00 -0.00000000000E+00  0.00000000000E+00  0.93800000000E+00  0.93800000000E+00 0. -1.
         11    1    1    2    0    0 -0.43494331825E-01 -0.73480928353E-02  0.67792912589E+00  0.67936287227E+00  0.51100000000E-03 0. -1.
    9000002    1    1    2    0    0  0.23333210974E+00  0.93330809992E-01  0.42038220925E-01  0.97199059952E+00  0.93800000000E+00 0. -1.
         22    1    1    2    0    0 -0.18983777791E+00 -0.85982717157E-01  0.32800326205E+01  0.32866465282E+01  0.00000000000E+00 0. -1.
</event>
<event>
 5    1  0.3368139E+002  0.1481469E+01  0.7818608E-02  0.3492996E+00
         11   -1    0    0    0    0  0.00000000000E+00  0.00000000000E+00  0.39999999674E+01  0.40000000000E+01  0.51100000000E-03 0.  1.
    9000002   -1    0    0    0    0 -0.00000000000E+00 -0.00000000000E+00  0.00000000000E+00  0.93800000000E+00  0.93800000000E+00 0. -1.
         11    1    1    2    0    0  0.19433225570E+00  0.15228221009E+00  0.33870007212E+00  0.41913350748E+00  0.51100000000E-03 0.  1.
    9000002    1    1    2    0    0 -0.15016105841E-01 -0.36261434991E-01  0.92150303840E-01  0.94333241946E+00  0.93800000000E+00 0. -1.
         22    1    1    2    0    0 -0.17931614986E+00 -0.11602077510E+00  0.35691495914E+01  0.35755340731E+01  0.00000000000E+00 0.  1.
</event>
<event>
 5    1  0.3368139E+002  0.1599676E+01  0.7818608E-02  0.3353715E+00
         11   -1    0    0    0    0  0.00000000000E+00  0.00000000000E+00  0.39999999674E+01  0.40000000000E+01  0.51100000000E-03 0.  1.
    9000002   -1    0    0    0    0 -0.00000000000E+00 -0.00000000000E+00  0.00000000000E+00  0.93800000000E+00  0.93800000000E+00 0. -1.
         11    1    1    2    0    0 -0.36495299016E+00 -0.73152458950E-02  0.22431390740E+01  0.22726454551E+01  0.51100000000E-03 0.  1.
    9000002    1    1    2    0    0  0.61023514101E+00  0.12038072377E-01  0.26049859766E+00  0.11490149529E+01  0.93800000000E+00 0. -1.
         22    1    1    2    0    0 -0.24528215085E+00 -0.47228264816E-02  0.14963622957E+01  0.15163395921E+01  0.00000000000E+00 0.  1.
</event>
<event>
 5    1  0.3368139E+002  0.1599391E+01  0.7818608E-02  0.3354024E+00
         11   -1    0    0    0    0  0.00000000000E+00  0.00000000000E+00  0.39999999674E+01  0.40000000000E+01  0.51100000000E-03 0.  1.
    9000002   -1    0    0    0    0 -0.00000000000E+00 -0.00000000000E+00  0.00000000000E+00  0.93800000000E+00  0.93800000000E+00 0. -1.
         11    1    1    2    0    0  0.12969568645E+00  0.17281652281E+00  0.14138274022E+01  0.14302428835E+01  0.51100000000E-03 0.  1.
    9000002    1    1    2    0    0 -0.32069879157E+00 -0.42022572597E+00  0.19250982139E+00  0.10937739287E+01  0.93800000000E+00 0. -1.
         22    1    1    2    0    0  0.19100310512E+00  0.24740920316E+00  0.23936627438E+01  0.24139831878E+01  0.00000000000E+00 0.  1.
</event>
<event>
 5    1  0.3368139E+002  0.1599636E+01  0.7818608E-02  0.3353759E+00
         11   -1    0    0    0    0  0.00000000000E+00  0.00000000000E+00  0.39999999674E+01  0.40000000000E+01  0.51100000000E-03 0. -1.
    9000002   -1    0    0    0    0 -0.00000000000E+00 -0.00000000000E+00  0.00000000000E+00  0.93800000000E+00  0.93800000000E+00 0. -1.
         11    1    1    2    0    0  0.13506355538E-01  0.19316004991E-01  0.31128145015E+00  0.31217292006E+00  0.51100000000E-03 0. -1.
    9000002    1    1    2    0    0 -0.14114277130E+00 -0.20276211260E+00  0.40566515200E-01  0.97083644264E+00  0.93800000000E+00 0. -1.
         22    1    1    2    0    0  0.12763641576E+00  0.18344610761E+00  0.36481520020E+01  0.36549906373E+01  0.00000000000E+00 0. -1.
</event>
<event>
 5    1  0.3368139E+002  0.1599590E+01  0.7818608E-02  0.3353809E+00
         11   -1    0    0    0    0  0.00000000000E+00  0.00000000000E+00  0.39999999674E+01  0.40000000000E+01  0.51100000000E-03 0.  1.
    9000002   -1    0    0    0    0 -0.00000000000E+00 -0.00000000000E+00  0.00000000000E+00  0.93800000000E+00  0.93800000000E+00 0. -1.
         11    1    1    2    0    0 -0.84480679503E-02  0.83155762217E-02  0.28534660427E+00  0.28559317980E+00  0.51100000000E-03 0.  1.
    9000002    1    1    2    0    0  0.89742292764E-01 -0.19135770123E+00  0.29659917830E-01  0.96197461487E+00  0.93800000000E+00 0. -1.
         22    1    1    2    0    0 -0.81294224814E-01  0.18304212500E+00  0.36849934453E+01  0.36904322053E+01  0.00000000000E+00 0.  1.
</event>
<event>
 5    1  0.3368139E+002  0.1599675E+01  0.7818608E-02  0.3353716E+00
         11   -1    0    0    0    0  0.00000000000E+00  0.00000000000E+00  0.39999999674E+01  0.40000000000E+01  0.51100000000E-03 0.  1.
    9000002   -1    0    0    0    0 -0.00000000000E+00 -0.00000000000E+00  0.00000000000E+00  0.93800000000E+00  0.93800000000E+00 0. -1.
         11    1    1    2    0    0  0.96587851436E-02 -0.51842212099E-01  0.69367929860E+00  0.69568106019E+00  0.51100000000E-03 0.  1.
    9000002    1    1    2    0    0 -0.48846800137E-01  0.29137779995E+00  0.58207189008E-01  0.98514928262E+00  0.93800000000E+00 0. -1.
         22    1    1    2    0    0  0.39188014994E-01 -0.23953558785E+00  0.32481134798E+01  0.32571696572E+01  0.00000000000E+00 0.  1.
</event>
<event>
 5    1  0.3368139E+002  0.1504725E+01  0.7818608E-02  0.3463740E+00
         11   -1    0    0    0    0  0.00000000000E+00  0.00000000000E+00  0.39999999674E+01  0.40000000000E+01  0.51100000000E-03 0. -1.
    9000002   -1    0    0    0    0 -0.00000000000E+00 -0.00000000000E+00  0.00000000000E+00  0.93800000000E+00  0.93800000000E+00 0.  1.
         11    1    1    2    0    0 -0.24318370263E+00 -0.21894245829E+00  0.23895363956E+01  0.24118371753E+01  0.51100000000E-03 0. -1.
    9000002    1    1    2    0    0  0.91861706359E-01 -0.14894496146E+00  0.94471453494E-01  0.95884932610E+00  0.93800000000E+00 0.  1.
         22    1    1    2    0    0  0.15132199627E+00  0.36788741975E+00  0.15159921183E+01  0.15673134986E+01  0.00000000000E+00 0.  1.
</event>
<event>
 5    1  0.3368139E+002  0.1599669E+01  0.7818608E-02  0.3353723E+00
         11   -1    0    0    0    0  0.00000000000E+00  0.00000000000E+00  0.39999999674E+01  0.40000000000E+01  0.51100000000E-03 0. -1.
    9000002   -1    0    0    0    0 -0.00000000000E+00 -0.00000000000E+00  0.00000000000E+00  0.93800000000E+00  0.93800000000E+00 0.  1.
         11    1    1    2    0    0  0.26902971333E-02  0.43403737980E-02  0.81421559894E-01  0.81583136002E-01  0.51100000000E-03 0. -1.
    9000002    1    1    2    0    0 -0.12773966510E+00 -0.25179584926E+00  0.53103102410E-01  0.98101096387E+00  0.93800000000E+00 0.  1.
         22    1    1    2    0    0  0.12504936797E+00  0.24745547546E+00  0.38654753051E+01  0.38754059001E+01  0.00000000000E+00 0. -1.
</event>
<event>
 5    1  0.3368139E+002  0.1477280E+01  0.7818608E-02  0.3498372E+00
         11   -1    0    0    0    0  0.00000000000E+00  0.00000000000E+00  0.39999999674E+01  0.40000000000E+01  0.51100000000E-03 0.  1.
    9000002   -1    0    0    0    0 -0.00000000000E+00 -0.00000000000E+00  0.00000000000E+00  0.93800000000E+00  0.93800000000E+00 0.  1.
         11    1    1    2    0    0 -0.25929381035E+00 -0.34965372401E+00  0.18945158923E+01  0.19438831586E+01  0.51100000000E-03 0.  1.
    9000002    1    1    2    0    0 -0.17003491948E+00  0.21473282203E+00  0.15134009458E+00  0.98882247291E+00  0.93800000000E+00 0.  1.
         22    1    1    2    0    0  0.42932872984E+00  0.13492090198E+00  0.19541439805E+01  0.20052943685E+01  0.00000000000E+00 0.  1.
</event>
<event>
 5    1  0.3368139E+002  0.1596703E+01  0.7818608E-02  0.3356950E+00
         11   -1    0    0    0    0  0.00000000000E+00  0.00000000000E+00  0.39999999674E+01  0.40000000000E+01  0.51100000000E-03 0.  1.
    9000002   -1    0    0    0    0 -0.00000000000E+00 -0.00000000000E+00  0.00000000000E+00  0.93800000000E+00  0.93800000000E+00 0. -1.
         11    1    1    2    0    0 -0.42332860095E-02  0.16888563054E-01  0.17495915507E+00  0.17582409202E+00  0.51100000000E-03 0.  1.
    9000002    1    1    2    0    0  0.50793741657E+00  0.62925984308E-01  0.18240047744E+00  0.10840083177E+01  0.93800000000E+00 0. -1.
         22    1    1    2    0    0 -0.50370413056E+00 -0.79814547361E-01  0.36426403349E+01  0.36781675903E+01  0.00000000000E+00 0.  1.
</event>
<event>
 5    1  0.3368139E+002  0.1599675E+01  0.7818608E-02  0.3353716E+00
         11   -1    0    0    0    0  0.00000000000E+00  0.00000000000E+00  0.39999999674E+01  0.40000000000E+01  0.51100000000E-03 0.  1.
    9000002   -1    0    0    0    0 -0.00000000000E+00 -0.00000000000E+00  0.00000000000E+00  0.93800000000E+00  0.93800000000E+00 0.  1.
         11    1    1    2    0    0  0.76289090371E-01 -0.39599359706E+00  0.18898647406E+01  0.19324129872E+01  0.51100000000E-03 0.  1.
    9000002    1    1    2    0    0 -0.14658371812E+00  0.74734806551E+00  0.42196710654E+00  0.12798109847E+01  0.93800000000E+00 0.  1.
         22    1    1    2    0    0  0.70294627745E-01 -0.35135446846E+00  0.16881681202E+01  0.17257760282E+01  0.00000000000E+00 0.  1.
</event>
<event>
 5    1  0.3368139E+002  0.1599673E+01  0.7818608E-02  0.3353718E+00
         11   -1    0    0    0    0  0.00000000000E+00  0.00000000000E+00  0.39999999674E+01  0.40000000000E+01  0.51100000000E-03 0.  1.
    9000002   -1    0    0    0    0 -0.00000000000E+00 -0.00000000000E+00  0.00000000000E+00  0.93800000000E+00  0.93800000000E+00 0.  1.
         11    1    1    2    0    0 -0.78342780766E-01  0.25479783036E+00  0.13162225327E+01  0.13429451003E+01  0.51100000000E-03 0.  1.
    9000002    1    1    2    0    0  0.20954846371E+00 -0.69749259820E+00  0.38206477949E+00  0.12474870656E+01  0.93800000000E+00 0.  1.
         22    1    1    2    0    0 -0.13120568294E+00  0.44269476783E+00  0.23017126551E+01  0.23475678340E+01  0.00000000000E+00 0.  1.
</event>
<event>
 5    1  0.3368139E+002  0.1599677E+01  0.7818608E-02  0.3353714E+00
         11   -1    0    0    0    0  0.00000000000E+00  0.00000000000E+00  0.39999999674E+01  0.40000000000E+01  0.51100000000E-03 0. -1.
    9000002   -1    0    0    0    0 -0.00000000000E+00 -0.00000000000E+00  0.00000000000E+00  0.93800000000E+00  0.93800000000E+00 0.  1.
         11    1    1    2    0    0  0.22431817365E+00 -0.79864045899E-01  0.13139891743E+01  0.13353893515E+01  0.51100000000E-03 0.  1.
    9000002    1    1    2    0    0 -0.62876563214E+00  0.22425805562E+00  0.31581874598E+00  0.11938271969E+01  0.93800000000E+00 0.  1.
         22    1    1    2    0    0  0.40444745849E+00 -0.14439400972E+00  0.23701920471E+01  0.24087834516E+01  0.00000000000E+00 0. -1.
</event>
<event>
 5    1  0.3368139E+002  0.1577577E+01  0.7818608E-02  0.3378066E+00
         11   -1    0    0    0    0  0.00000000000E+00  0.00000000000E+00  0.39999999674E+01  0.40000000000E+01  0.51100000000E-03 0. -1.
    9000002   -1    0    0    0    0 -0.00000000000E+00 -0.00000000000E+00  0.00000000000E+00  0.93800000000E+00  0.93800000000E+00 0.  1.
         11    1    1    2    0    0  0.15228764982E+00 -0.99973100546E-01  0.18885197216E+01  0.18972857320E+01  0.51100000000E-03 0. -1.
    9000002    1    1    2    0    0 -0.16612049673E-01  0.42175958503E+00  0.13944995332E+00  0.10380016364E+01  0.93800000000E+00 0.  1.
         22    1    1    2    0    0 -0.13567560015E+00 -0.32178648448E+00  0.19720302925E+01  0.20027126315E+01  0.00000000000E+00 0. -1.
</event>
<event>
 5    1  0.3368139E+002  0.1598676E+01  0.7818608E-02  0.3354802E+00
         11   -1    0    0    0    0  0.00000000000E+00  0.00000000000E+00  0.39999999674E+01  0.40000000000E+01  0.51100000000E-03 0. -1.
    9000002   -1    0    0    0    0 -0.00000000000E+00 -0.00000000000E+00  0.00000000000E+00  0.93800000000E+00  0.93800000000E+00 0. -1.
         11    1    1    2    0    0  0.69064383917E-01 -0.14941644659E-01  0.55675531603E+00  0.56122177873E+00  0.51100000000E-03 0. -1.
    9000002    1    1    2    0    0 -0.30666984560E+00  0.54547934684E-01  0.65583862528E-01  0.99053880005E+00  0.93800000000E+00 0. -1.
         22    1    1    2    0    0  0.23760546168E+00 -0.39606290026E-01  0.33776607888E+01  0.33862394212E+01  0.00000000000E+00 0. -1.
</event>
<event>
 5    1  0.3368139E+002  0.1599632E+01  0.7818608E-02  0.3353763E+00
         11   -1    0    0    0    0  0.00000000000E+00  0.00000000000E+00  0.39999999674E+01  0.40000000000E+01  0.51100000000E-03 0.  1.
    9000002   -1    0    0    0    0 -0.00000000000E+00 -0.00000000000E+00  0.00000000000E+00  0.93800000000E+00  0.93800000000E+00 0. -1.
         11    1    1    2    0    0  0.21164322919E-01 -0.38928735795E-01  0.61719833832E+00  0.61878705948E+00  0.51100000000E-03 0.  1.
    9000002    1    1    2    0    0 -0.14774428422E+00  0.21408913682E+00  0.45017470646E-01  0.97443989280E+00  0.93800000000E+00 0. -1.
         22    1    1    2    0    0  0.12657996130E+00 -0.17516040103E+00  0.33377841584E+01  0.33447730477E+01  0.00000000000E+00 0.  1.
</event>
<event>
 5    1  0.3368139E+002  0.1599669E+01  0.7818608E-02  0.3353723E+00
         11   -1    0    0    0    0  0.00000000000E+00  0.00000000000E+00  0.39999999674E+01  0.40000000000E+01  0.51100000000E-03 0.  1.
    9000002   -1    0    0    0    0 -0.00000000000E+00 -0.00000000000E+00  0.00000000000E+00  0.93800000000E+00  0.93800000000E+00 0. -1.
         11    1    1    2    0    0  0.11527319240E-01 -0.93334010122E-02  0.27405051108E+00  0.27445206359E+00  0.51100000000E-03 0.  1.
    9000002    1    1    2    0    0 -0.19096899370E+00  0.13381247363E+00  0.36082017789E-01  0.96722326619E+00  0.93800000000E+00 0. -1.
         22    1    1    2    0    0  0.17944167446E+00 -0.12447907262E+00  0.36898674385E+01  0.36963246702E+01  0.00000000000E+00 0.  1.
</event>
<event>
 5    1  0.3368139E+002  0.1562032E+01  0.7818608E-02  0.3395633E+00
         11   -1    0    0    0    0  0.00000000000E+00  0.00000000000E+00  0.39999999674E+01  0.40000000000E+01  0.51100000000E-03 0. -1.
    9000002   -1    0    0    0    0 -0.00000000000E+00 -0.00000000000E+00  0.00000000000E+00  0.93800000000E+00  0.93800000000E+00 0. -1.
         11    1    1    2    0    0 -0.56861215263E-01  0.19713528421E+00  0.28686655207E+01  0.28759933325E+01  0.51100000000E-03 0. -1.
    9000002    1    1    2    0    0 -0.13990317076E+00 -0.83934328029E-01  0.46007232069E-01  0.95319385962E+00  0.93800000000E+00 0. -1.
         22    1    1    2    0    0  0.19676438603E+00 -0.11320095618E+00  0.10853272146E+01  0.11088128079E+01  0.00000000000E+00 0.  1.
</event>
<event>
 5    1  0.3368139E+002  0.1599166E+01  0.7818608E-02  0.3354270E+00
         11   -1    0    0    0    0  0.00000000000E+00  0.00000000000E+00  0.39999999674E+01  0.40000000000E+01  0.51100000000E-03 0.  1.
    9000002   -1    0    0    0    0 -0.00000000000E+00 -0.00000000000E+00  0.00000000000E+00  0.93800000000E+00  0.93800000000E+00 0.  1.
         11    1    1    2    0    0  0.31266729605E-02 -0.59744434617E-02  0.32329384437E+00  0.32336456359E+00  0.51100000000E-03 0.  1.
    9000002    1    1    2    0    0 -0.21330300647E+00  0.20367066718E-01  0.30807836388E-01  0.96265576026E+00  0.93800000000E+00 0. -1.
         22    1    1    2    0    0  0.21017633351E+00 -0.14392623256E-01  0.36458982866E+01  0.36519796762E+01  0.00000000000E+00 0.  1.
</event>
<event>
 5    1  0.3368139E+002  0.1598426E+01  0.7818608E-02  0.3355073E+00
         11   -1    0    0    0    0  0.00000000000E+00  0.00000000000E+00  0.39999999674E+01  0.40000000000E+01  0.51100000000E-03 0.  1.
    9000002   -1    0    0    0    0 -0.00000000000E+00 -0.00000000000E+00  0.00000000000E+00  0.93800000000E+00  0.93800000000E+00 0. -1.
         11    1    1    2    0    0  0.27538088484E-02  0.24504030921E-02  0.66182896488E-02  0.75928135341E-02  0.51100000000E-03 0.  1.
    9000002    1    1    2    0    0  0.72627044714E-01 -0.20254305875E+00  0.31622702842E-01  0.96288232594E+00  0.93800000000E+00 0. -1.
         22    1    1    2    0    0 -0.75380853563E-01  0.20009265566E+00  0.39617589749E+01  0.39675248605E+01  0.00000000000E+00 0.  1.
</event>
<event>
 5    1  0.3368139E+002  0.1582641E+01  0.7818608E-02  0.3372422E+00
         11   -1    0    0    0    0  0.00000000000E+00  0.00000000000E+00  0.39999999674E+01  0.40000000000E+01  0.51100000000E-03 0. -1.
    9000002   -1    0    0    0    0 -0.00000000000E+00 -0.00000000000E+00  0.00000000000E+00  0.93800000000E+00  0.93800000000E+00 0. -1.
         11    1    1    2    0    0 -0.18839351429E-01 -0.17673864645E-01  0.19772534210E+01  0.19774222206E+01  0.51100000000E-03 0. -1.
    9000002    1    1    2    0    0 -0.27504640709E+00  0.56477494316E-01  0.65828306383E-01  0.98133460111E+00  0.93800000000E+00 0. -1.
         22    1    1    2    0    0  0.29388575852E+00 -0.38803629671E-01  0.19569182400E+01  0.19792431783E+01  0.00000000000E+00 0.  1.
</event>
<event>
 5    1  0.3368139E+002  0.1599156E+01  0.7818608E-02  0.3354280E+00
         11   -1    0    0    0    0  0.00000000000E+00  0.00000000000E+00  0.39999999674E+01  0.40000000000E+01  0.51100000000E-03 0. -1.
    9000002   -1    0    0    0    0 -0.00000000000E+00 -0.00000000000E+00  0.00000000000E+00  0.93800000000E+00  0.93800000000E+00 0.  1.
         11    1    1    2    0    0 -0.15238525559E+00 -0.46376331139E-01  0.14942594444E+01  0.15027253836E+01  0.51100000000E-03 0. -1.
    9000002    1    1    2    0    0  0.35863111568E+00  0.17891976606E+00  0.10879188722E+00  0.10258207614E+01  0.93800000000E+00 0.  1.
         22    1    1    2    0    0 -0.20624586009E+00 -0.13254343492E+00  0.23969486358E+01  0.24094538550E+01  0.00000000000E+00 0. -1.
</event>
<event>
 5    1  0.3368139E+002  0.1599676E+01  0.7818608E-02  0.3353715E+00
         11   -1    0    0    0    0  0.00000000000E+00  0.00000000000E+00  0.39999999674E+01  0.40000000000E+01  0.51100000000E-03 0. -1.
    9000002   -1    0    0    0    0 -0.00000000000E+00 -0.00000000000E+00  0.00000000000E+00  0.93800000000E+00  0.93800000000E+00 0. -1.
         11    1    1    2    0    0  0.48154937411E-01  0.19090916395E-01  0.79449321675E+00  0.79618031480E+00  0.51100000000E-03 0. -1.
    9000002    1    1    2    0    0 -0.23676737729E+00 -0.91679848131E-01  0.42836453785E-01  0.97269879576E+00  0.93800000000E+00 0. -1.
         22    1    1    2    0    0  0.18861243988E+00  0.72588931736E-01  0.31626702968E+01  0.31691208894E+01  0.00000000000E+00 0.  1.
</event>
<event>
 5    1  0.3368139E+002  0.1598730E+01  0.7818608E-02  0.3354743E+00
         11   -1    0    0    0    0  0.00000000000E+00  0.00000000000E+00  0.39999999674E+01  0.40000000000E+01  0.51100000000E-03 0. -1.
    9000002   -1    0    0    0    0 -0.00000000000E+00 -0.00000000000E+00  0.00000000000E+00  0.93800000000E+00  0.93800000000E+00 0.  1.
         11    1    1    2    0    0  0.12414884549E-01  0.25846667982E-01  0.81584317744E+00  0.81634706522E+00  0.51100000000E-03 0. -1.
    9000002    1    1    2    0    0 -0.97399354782E-01 -0.26542670142E+00  0.53979762109E-01  0.98117061863E+00  0.93800000000E+00 0.  1.
         22    1    1    2    0    0  0.84984470233E-01  0.23958003344E+00  0.31301770278E+01  0.31404823162E+01  0.00000000000E+00 0. -1.
</event>
<event>
 5    1  0.3368139E+002  0.1599404E+01  0.7818608E-02  0.3354011E+00
         11   -1    0    0    0    0  0.00000000000E+00  0.00000000000E+00  0.39999999674E+01  0.40000000000E+01  0.51100000000E-03 0.  1.
    9000002   -1    0    0    0    0 -0.00000000000E+00 -0.00000000000E+00  0.00000000000E+00  0.93800000000E+00  0.93800000000E+00 0.  1.
         11    1    1    2    0    0 -0.51033668723E-01  0.42933525921E-02  0.43082249626E+00  0.43385614278E+00  0.51100000000E-03 0.  1.
    9000002    1    1    2    0    0  0.36751761999E+00 -0.10089454984E+00  0.97967009169E-01  0.10171973486E+01  0.93800000000E+00 0.  1.
         22    1    1    2    0    0 -0.31648395127E+00  0.96601197243E-01  0.34712104619E+01  0.34869465086E+01  0.00000000000E+00 0.  1.
</event>
<event>
 5    1  0.3368139E+002  0.1577005E+01  0.7818608E-02  0.3378706E+00
         11   -1    0    0    0    0  0.00000000000E+00  0.00000000000E+00  0.39999999674E+01  0.40000000000E+01  0.51100000000E-03 0. -1.
    9000002   -1    0    0    0    0 -0.00000000000E+00 -0.00000000000E+00  0.00000000000E+00  0.93800000000E+00  0.93800000000E+00 0. -1.
         11    1    1    2    0    0 -0.48239281512E-01 -0.40866791525E-01  0.18111954955E+01  0.18122986804E+01  0.51100000000E-03 0. -1.
    9000002    1    1    2    0    0  0.45124131579E+00  0.24071553751E+00  0.20033656696E+00  0.10869873206E+01  0.93800000000E+00 0. -1.
         22    1    1    2    0    0 -0.40300203428E+00 -0.19984874599E+00  0.19884679049E+01  0.20387139990E+01  0.00000000000E+00 0.  1.
</event>
<event>
 5    1  0.3368139E+002  0.1598826E+01  0.7818608E-02  0.3354638E+00
         11   -1    0    0    0    0  0.00000000000E+00  0.00000000000E+00  0.39999999674E+01  0.40000000000E+01  0.51100000000E-03 0. -1.
    9000002   -1    0    0    0    0 -0.00000000000E+00 -0.00000000000E+00  0.00000000000E+00  0.93800000000E+00  0.93800000000E+00 0. -1.
         11    1    1    2    0    0 -0.12616006105E+00  0.20497776303E-01  0.15616334142E+01  0.15668553543E+01  0.51100000000E-03 0. -1.
    9000002    1    1    2    0    0  0.39892444788E+00 -0.34799587317E-01  0.10887502735E+00  0.10256946417E+01  0.93800000000E+00 0. -1.
         22    1    1    2    0    0 -0.27276438684E+00  0.14301811015E-01  0.23294915258E+01  0.23454500040E+01  0.00000000000E+00 0. -1.
</event>
<event>
 5    1  0.3368139E+002  0.1573437E+01  0.7818608E-02  0.3382708E+00
         11   -1    0    0    0    0  0.00000000000E+00  0.00000000000E+00  0.39999999674E+01  0.40000000000E+01  0.51100000000E-03 0.  1.
    9000002   -1    0    0    0    0 -0.00000000000E+00 -0.00000000000E+00  0.00000000000E+00  0.93800000000E+00  0.93800000000E+00 0.  1.
         11    1    1    2    0    0 -0.10298558447E-01 -0.15294458233E+00  0.99954536726E+00  0.10112315798E+01  0.51100000000E-03 0.  1.
    9000002    1    1    2    0    0  0.16814962698E+00 -0.53148468160E-01  0.40332761292E-01  0.95528518692E+00  0.93800000000E+00 0.  1.
         22    1    1    2    0    0 -0.15785106854E+00  0.20609305049E+00  0.29601218388E+01  0.29714832333E+01  0.00000000000E+00 0.  1.
</event>
<event>
 5    1  0.3368139E+002  0.1594081E+01  0.7818608E-02  0.3359813E+00
         11   -1    0    0    0    0  0.00000000000E+00  0.00000000000E+00  0.39999999674E+01  0.40000000000E+01  0.51100000000E-03 0. -1.
    9000002   -1    0    0    0    0 -0.00000000000E+00 -0.00000000000E+00  0.00000000000E+00  0.93800000000E+00  0.93800000000E+00 0.  1.
         11    1    1    2    0    0 -0.31965312896E-01  0.78762627463E-02  0.13373854249E+01  0.13377906609E+01  0.51100000000E-03 0. -1.
    9000002    1    1    2    0    0 -0.68747259472E-01 -0.21559595537E+00  0.38204795963E-01  0.96566630266E+00  0.93800000000E+00 0.  1.
         22    1    1    2    0    0  0.10071257237E+00  0.20771969263E+00  0.26244097465E+01  0.26345430364E+01  0.00000000000E+00 0. -1.
</event>
<event>
 5    1  0.3368139E+002  0.1572207E+01  0.7818608E-02  0.3384092E+00
         11   -1    0    0    0    0  0.00000000000E+00  0.00000000000E+00  0.39999999674E+01  0.40000000000E+01  0.51100000000E-03 0. -1.
    9000002   -1    0    0    0    0 -0.00000000000E+00 -0.00000000000E+00  0.00000000000E+00  0.93800000000E+00  0.93800000000E+00 0. -1.
         11    1    1    2    0    0 -0.16090161839E+00  0.94568005315E-01  0.39226616085E+00  0.43440239468E+00  0.51100000000E-03 0. -1.
    9000002    1    1    2    0    0  0.48245405900E+00 -0.30165089980E+00  0.25137410306E+00  0.11255168253E+01  0.93800000000E+00 0. -1.
         22    1    1    2    0    0 -0.32155244061E+00  0.20708289449E+00  0.33563597035E+01  0.33780807800E+01  0.00000000000E+00 0. -1.
</event>
<event>
 5    1  0.3368139E+002  0.1599676E+01  0.7818608E-02  0.3353715E+00
         11   -1    0    0    0    0  0.00000000000E+00  0.00000000000E+00  0.39999999674E+01  0.40000000000E+01  0.51100000000E-03 0. -1.
    9000002   -1    0    0    0    0 -0.00000000000E+00 -0.00000000000E+00  0.00000000000E+00  0.93800000000E+00  0.93800000000E+00 0.  1.
         11    1    1    2    0    0 -0.48383344000E-01  0.33400209782E-01  0.54559126858E+00  0.54875004825E+00  0.51100000000E-03 0. -1.
    9000002    1    1    2    0    0  0.34177116938E+00 -0.23563974332E+00  0.11647386542E+00  0.10323486728E+01  0.93800000000E+00 0.  1.
         22    1    1    2    0    0 -0.29338782538E+00  0.20223953354E+00  0.33379348334E+01  0.33569012790E+01  0.00000000000E+00 0. -1.
</event>
<event>
 5    1  0.3368139E+002  0.1599636E+01  0.7818608E-02  0.3353758E+00
         11   -1    0    0    0    0  0.00000000000E+00  0.00000000000E+00  0.39999999674E+01  0.40000000000E+01  0.51100000000E-03 0. -1.
    9000002   -1    0    0    0    0 -0.00000000000E+00 -0.00000000000E+00  0.00000000000E+00  0.93800000000E+00  0.93800000000E+00 0.  1.
         11    1    1    2    0    0  0.39292934339E-02  0.34422358446E-01  0.36823438798E+00  0.36986100595E+00  0.51100000000E-03 0. -1.
    9000002    1    1    2    0    0  0.55855115977E-02 -0.36384194446E+00  0.88955789803E-01  0.10100343019E+01  0.93800000000E+00 0.  1.
         22    1    1    2    0    0 -0.95148050317E-02  0.32941958601E+00  0.35428097896E+01  0.35581046921E+01  0.00000000000E+00 0. -1.
</event>
<event>
 5    1  0.3368139E+002  0.1558367E+01  0.7818608E-02  0.3399828E+00
         11   -1    0    0    0    0  0.00000000000E+00  0.00000000000E+00  0.39999999674E+01  0.40000000000E+01  0.51100000000E-03 0.  1.
    9000002   -1    0    0    0    0 -0.00000000000E+00 -0.00000000000E+00  0.00000000000E+00  0.93800000000E+00  0.93800000000E+00 0. -1.
         11    1    1    2    0    0  0.67262523153E-02 -0.33794906765E+00  0.25518293283E+01  0.25741188778E+01  0.51100000000E-03 0.  1.
    9000002    1    1    2    0    0 -0.18926554873E+00  0.20896185242E+00  0.85697585403E-01  0.98319610447E+00  0.93800000000E+00 0. -1.
         22    1    1    2    0    0  0.18253929642E+00  0.12898721524E+00  0.13624730536E+01  0.13806850178E+01  0.00000000000E+00 0. -1.
</event>
<event>
 5    1  0.3368139E+002  0.1599675E+01  0.7818608E-02  0.3353716E+00
         11   -1    0    0    0    0  0.00000000000E+00  0.00000000000E+00  0.39999999674E+01  0.40000000000E+01  0.51100000000E-03 0.  1.
    9000002   -1    0    0    0    0 -0.00000000000E+00 -0.00000000000E+00  0.00000000000E+00  0.93800000000E+00  0.93800000000E+00 0. -1.
         11    1    1    2    0    0 -0.13230840798E+00  0.32344813823E-02  0.15494646575E+01  0.15551067367E+01  0.51100000000E-03 0.  1.
    9000002    1    1    2    0    0  0.33348279365E+00 -0.11620374706E-01  0.74529081957E-01  0.99837086838E+00  0.93800000000E+00 0. -1.
         22    1    1    2    0    0 -0.20117438567E+00  0.83858933233E-02  0.23760062279E+01  0.23845223949E+01  0.00000000000E+00 0.  1.
</event>
<event>
 5    1  0.3368139E+002  0.1599674E+01  0.7818608E-02  0.3353717E+00
         11   -1    0    0    0    0  0.00000000000E+00  0.00000000000E+00  0.39999999674E+01  0.40000000000E+01  0.51100000000E-03 0.  1.
    9000002   -1    0    0    0    0 -0.00000000000E+00 -0.00000000000E+00  0.00000000000E+00  0.93800000000E+00  0.93800000000E+00 0. -1.
         11    1    1    2    0    0  0.18392727337E+00  0.19296088298E+00  0.20408824714E+01  0.20582188094E+01  0.51100000000E-03 0.  1.
    9000002    1    1    2    0    0 -0.34868238500E+00 -0.36182162196E+00  0.17292144261E+00  0.10780724081E+01  0.93800000000E+00 0. -1.
         22    1    1    2    0    0  0.16475511163E+00  0.16886073898E+00  0.17861960534E+01  0.18017087825E+01  0.00000000000E+00 0.  1.
</event>
<event>
 5    1  0.3368139E+002  0.1354087E+01  0.7818608E-02  0.3683418E+00
         11   -1    0    0    0    0  0.00000000000E+00  0.00000000000E+00  0.39999999674E+01  0.40000000000E+01  0.51100000000E-03 0. -1.
    9000002   -1    0    0    0    0 -0.00000000000E+00 -0.00000000000E+00  0.00000000000E+00  0.93800000000E+00  0.93800000000E+00 0. -1.
         11    1    1    2    0    0 -0.13250328733E+00 -0.57882331287E+00  0.20356591209E+01  0.21204956652E+01  0.51100000000E-03 0. -1.
    9000002    1    1    2    0    0 -0.46926192494E+00  0.25407625304E+00  0.47577552041E+00  0.11793929974E+01  0.93800000000E+00 0. -1.
         22    1    1    2    0    0  0.60176521227E+00  0.32474705983E+00  0.14885653261E+01  0.16381113373E+01  0.00000000000E+00 0. -1.
</event>
<event>
 5    1  0.3368139E+002  0.1582522E+01  0.7818608E-02  0.3372555E+00
         11   -1    0    0    0    0  0.00000000000E+00  0.00000000000E+00  0.39999999674E+01  0.40000000000E+01  0.51100000000E-03 0.  1.
    9000002   -1    0    0    0    0 -0.00000000000E+00 -0.00000000000E+00  0.00000000000E+00  0.93800000000E+00  0.93800000000E+00 0. -1.
         11    1    1    2    0    0 -0.99757124103E-01  0.60887913890E-01  0.21069189112E+01  0.21101579044E+01  0.51100000000E-03 0.  1.
    9000002    1    1    2    0    0  0.68962765578E-01  0.15682596911E+00  0.32246667681E-01  0.95406189275E+00  0.93800000000E+00 0. -1.
         22    1    1    2    0    0  0.30794358525E-01 -0.21771388300E+00  0.18608343884E+01  0.18737802029E+01  0.00000000000E+00 0.  1.
</event>
<event>
 5    1  0.3368139E+002  0.1599676E+01  0.7818608E-02  0.3353715E+00
         11   -1    0    0    0    0  0.00000000000E+00  0.00000000000E+00  0.39999999674E+01  0.40000000000E+01  0.51100000000E-03 0. -1.
    9000002   -1    0    0    0    0 -0.00000000000E+00 -0.00000000000E+00  0.00000000000E+00  0.93800000000E+00  0.93800000000E+00 0.  1.
         11    1    1    2    0    0 -0.14637486304E-01  0.55084425796E-01  0.82370025953E+00  0.82566998773E+00  0.51100000000E-03 0. -1.
    9000002    1    1    2    0    0  0.71691833603E-01 -0.26898490703E+00  0.51597332162E-01  0.97979532756E+00  0.93800000000E+00 0.  1.
         22    1    1    2    0    0 -0.57054347299E-01  0.21390048123E+00  0.31247023757E+01  0.31325346847E+01  0.00000000000E+00 0. -1.
</event>
<event>
 5    1  0.3368139E+002  0.1597720E+01  0.7818608E-02  0.3355841E+00
         11   -1    0    0    0    0  0.00000000000E+00  0.00000000000E+00  0.39999999674E+01  0.40000000000E+01  0.51100000000E-03 0.  1.
    9000002   -1    0    0    0    0 -0.00000000000E+00 -0.00000000000E+00  0.00000000000E+00  0.93800000000E+00  0.93800000000E+00 0.  1.
         11    1    1    2    0    0  0.54268969742E-01 -0.71532258485E-01  0.62000905700E+00  0.62647703626E+00  0.51100000000E-03 0.  1.
    9000002    1    1    2    0    0 -0.17902396994E+00  0.26894038242E+00  0.71340427230E-01  0.99464162776E+00  0.93800000000E+00 0.  1.
         22    1    1    2    0    0  0.12475500020E+00 -0.19740812393E+00  0.33086504831E+01  0.33168813360E+01  0.00000000000E+00 0.  1.
</event>
<event>
 5    1  0.3368139E+002  0.1599666E+01  0.7818608E-02  0.3353726E+00
         11   -1    0    0    0    0  0.00000000000E+00  0.00000000000E+00  0.39999999674E+01  0.40000000000E+01  0.51100000000E-03 0.  1.
    9000002   -1    0    0    0    0 -0.00000000000E+00 -0.00000000000E+00  0.00000000000E+00  0.93800000000E+00  0.93800000000E+00 0.  1.
         11    1    1    2    0    0 -0.45608733826E-01  0.10171996555E+00  0.14164354418E+01  0.14208155158E+01  0.51100000000E-03 0.  1.
    9000002    1    1    2    0    0  0.12151396728E+00 -0.29185100560E+00  0.66784881321E-01  0.99209217016E+00  0.93800000000E+00 0.  1.
         22    1    1    2    0    0 -0.75905233450E-01  0.19013104005E+00  0.25167796442E+01  0.25250923140E+01  0.00000000000E+00 0.  1.
</event>
<event>
 5    1  0.3368139E+002  0.1477293E+01  0.7818608E-02  0.3498355E+00
         11   -1    0    0    0    0  0.00000000000E+00  0.00000000000E+00  0.39999999674E+01  0.40000000000E+01  0.51100000000E-03 0.  1.
    9000002   -1    0    0    0    0 -0.00000000000E+00 -0.00000000000E+00  0.00000000000E+00  0.93800000000E+00  0.93800000000E+00 0. -1.
         11    1    1    2    0    0  0.25432713001E-01  0.36629129572E+00  0.71249876919E+00  0.80154282070E+00  0.51100000000E-03 0.  1.
    9000002    1    1    2    0    0 -0.22778055746E+00 -0.17320166875E+00  0.15661611185E+00  0.99310392553E+00  0.93800000000E+00 0. -1.
         22    1    1    2    0    0  0.20234784446E+00 -0.19308962697E+00  0.31308850863E+01  0.31433532538E+01  0.00000000000E+00 0.  1.
</event>
<event>
 5    1  0.3368139E+002  0.1599664E+01  0.7818608E-02  0.3353728E+00
         11   -1    0    0    0    0  0.00000000000E+00  0.00000000000E+00  0.39999999674E+01  0.40000000000E+01  0.51100000000E-03 0. -1.
    9000002   -1    0    0    0    0 -0.00000000000E+00 -0.00000000000E+00  0.00000000000E+00  0.93800000000E+00  0.93800000000E+00 0.  1.
         11    1    1    2    0    0 -0.60532946036E-01  0.14643349515E+00  0.14790119840E+01  0.14874756186E+01  0.51100000000E-03 0. -1.
    9000002    1    1    2    0    0  0.15494415146E+00 -0.39442224998E+00  0.12152192295E+00  0.10364304989E+01  0.93800000000E+00 0.  1.
         22    1    1    2    0    0 -0.94411205427E-01  0.24798875483E+00  0.23994660604E+01  0.24140938825E+01  0.00000000000E+00 0. -1.
</event>
<event>
 5    1  0.3368139E+002  0.1597203E+01  0.7818608E-02  0.3356404E+00
         11   -1    0    0    0    0  0.00000000000E+00  0.00000000000E+00  0.39999999674E+01  0.40000000000E+01  0.51100000000E-03 0. -1.
    9000002   -1    0    0    0    0 -0.00000000000E+00 -0.00000000000E+00  0.00000000000E+00  0.93800000000E+00  0.93800000000E+00 0. -1.
         11    1    1    2    0    0 -0.72103572706E-01  0.35990386157E-01  0.10793902806E+01  0.10823945085E+01  0.51100000000E-03 0. -1.
    9000002    1    1    2    0    0  0.44456080409E+00 -0.17079595760E+00  0.15684723961E+00  0.10636026628E+01  0.93800000000E+00 0. -1.
         22    1    1    2    0    0 -0.37245723139E+00  0.13480557144E+00  0.27637624472E+01  0.27920028287E+01  0.00000000000E+00 0. -1.
</event>
<event>
 5    1  0.3368139E+002  0.1599657E+01  0.7818608E-02  0.3353736E+00
         11   -1    0    0    0    0  0.00000000000E+00  0.00000000000E+00  0.39999999674E+01  0.40000000000E+01  0.51100000000E-03 0. -1.
    9000002   -1    0    0    0    0 -0.00000000000E+00 -0.00000000000E+00  0.00000000000E+00  0.93800000000E+00  0.93800000000E+00 0.  1.
         11    1    1    2    0    0 -0.14023108882E+00 -0.15805310740E-01  0.12931742087E+01  0.13008513986E+01  0.51100000000E-03 0. -1.
    9000002    1    1    2    0    0  0.43176565926E+00  0.56804097704E-01  0.12855309207E+00  0.10421219638E+01  0.93800000000E+00 0.  1.
         22    1    1    2    0    0 -0.29153457044E+00 -0.40998786964E-01  0.25782726666E+01  0.25950266375E+01  0.00000000000E+00 0. -1.
</event>
<event>
 5    1  0.3368139E+002  0.1596868E+01  0.7818608E-02  0.3356770E+00
         11   -1    0    0    0    0  0.00000000000E+00  0.00000000000E+00  0.39999999674E+01  0.40000000000E+01  0.51100000000E-03 0.  1.
    9000002   -1    0    0    0    0 -0.00000000000E+00 -0.00000000000E+00  0.00000000000E+00  0.93800000000E+00  0.93800000000E+00 0. -1.
         11    1    1    2    0    0 -0.13481438901E+00  0.27971478355E+00  0.23814021082E+01  0.24015602307E+01  0.51100000000E-03 0.  1.
    9000002    1    1    2    0    0  0.31028329272E+00 -0.41837826079E+00  0.18898332644E+00  0.10894378314E+01  0.93800000000E+00 0. -1.
         22    1    1    2    0    0 -0.17546890370E+00  0.13866347725E+00  0.14296145327E+01  0.14470019379E+01  0.00000000000E+00 0.  1.
</event>
<event>
 5    1  0.3368139E+002  0.1599281E+01  0.7818608E-02  0.3354144E+00
         11   -1    0    0    0    0  0.00000000000E+00  0.00000000000E+00  0.39999999674E+01  0.40000000000E+01  0.51100000000E-03 0.  1.
    9000002   -1    0    0    0    0 -0.00000000000E+00 -0.00000000000E+00  0.00000000000E+00  0.93800000000E+00  0.93800000000E+00 0. -1.
         11    1    1    2    0    0 -0.16062482279E+00 -0.55017635161E-01  0.14747928995E+01  0.14845341462E+01  0.51100000000E-03 0.  1.
    9000002    1    1    2    0    0  0.38261268619E+00  0.99855465282E-01  0.10573703964E+00  0.10234197102E+01  0.93800000000E+00 0. -1.
         22    1    1    2    0    0 -0.22198786340E+00 -0.44837830121E-01  0.24194700283E+01  0.24300461436E+01  0.00000000000E+00 0.  1.
</event>
<event>
 5    1  0.3368139E+002  0.1599674E+01  0.7818608E-02  0.3353717E+00
         11   -1    0    0    0    0  0.00000000000E+00  0.00000000000E+00  0.39999999674E+01  0.40000000000E+01  0.51100000000E-03 0. -1.
    9000002   -1    0    0    0    0 -0.00000000000E+00 -0.00000000000E+00  0.00000000000E+00  0.93800000000E+00  0.93800000000E+00 0.  1.
         11    1    1    2    0    0 -0.19270532215E-01  0.21558760661E+00  0.19258303100E+01  0.19379556274E+01  0.51100000000E-03 0. -1.
    9000002    1    1    2    0    0  0.37874168439E-01 -0.43717433880E+00  0.13057089799E+00  0.10437665517E+01  0.93800000000E+00 0.  1.
         22    1    1    2    0    0 -0.18603636224E-01  0.22158673219E+00  0.19435987593E+01  0.19562778209E+01  0.00000000000E+00 0. -1.
</event>
<event>
 5    1  0.3368139E+002  0.1599659E+01  0.7818608E-02  0.3353734E+00
         11   -1    0    0    0    0  0.00000000000E+00  0.00000000000E+00  0.39999999674E+01  0.40000000000E+01  0.51100000000E-03 0.  1.
    9000002   -1    0    0    0    0 -0.00000000000E+00 -0.00000000000E+00  0.00000000000E+00  0.93800000000E+00  0.93800000000E+00 0.  1.
         11    1    1    2    0    0  0.23046912975E-01  0.17847396722E-01  0.53181857811E+00  0.53261707718E+00  0.51100000000E-03 0.  1.
    9000002    1    1    2    0    0 -0.19509619306E+00 -0.14408045148E+00  0.39066556933E-01  0.96963492971E+00  0.93800000000E+00 0.  1.
         22    1    1    2    0    0  0.17204928008E+00  0.12623305476E+00  0.34291148323E+01  0.34357479931E+01  0.00000000000E+00 0.  1.
</event>
<event>
 5    1  0.3368139E+002  0.1599649E+01  0.7818608E-02  0.3353744E+00
         11   -1    0    0    0    0  0.00000000000E+00  0.00000000000E+00  0.39999999674E+01  0.40000000000E+01  0.51100000000E-03 0. -1.
    9000002   -1    0    0    0    0 -0.00000000000E+00 -0.00000000000E+00  0.00000000000E+00  0.93800000000E+00  0.93800000000E+00 0.  1.
         11    1    1    2    0    0  0.13091236576E+00 -0.14707820851E+00  0.18675586185E+01  0.18779098758E+01  0.51100000000E-03 0. -1.
    9000002    1    1    2    0    0 -0.26935365455E+00  0.31861543099E+00  0.11770126939E+00  0.10333270406E+01  0.93800000000E+00 0.  1.
         22    1    1    2    0    0  0.13844128879E+00 -0.17153722249E+00  0.20147400795E+01  0.20267630836E+01  0.00000000000E+00 0.  1.
</event>
<event>
 5    1  0.3368139E+002  0.1599589E+01  0.7818608E-02  0.3353809E+00
         11   -1    0    0    0    0  0.00000000000E+00  0.00000000000E+00  0.39999999674E+01  0.40000000000E+01  0.51100000000E-03 0. -1.
    9000002   -1    0    0    0    0 -0.00000000000E+00 -0.00000000000E+00  0.00000000000E+00  0.93800000000E+00  0.93800000000E+00 0. -1.
         11    1    1    2    0    0 -0.12847271488E+00  0.72654018092E-01  0.11543330519E+01  0.11637305962E+01  0.51100000000E-03 0. -1.
    9000002    1    1    2    0    0  0.40282978745E+00 -0.22015569491E+00  0.14340170230E+00  0.10541102484E+01  0.93800000000E+00 0. -1.
         22    1    1    2    0    0 -0.27435707257E+00  0.14750167682E+00  0.27022652132E+01  0.27201591553E+01  0.00000000000E+00 0. -1.
</event>
<event>
 5    1  0.3368139E+002  0.1599175E+01  0.7818608E-02  0.3354259E+00
         11   -1    0    0    0    0  0.00000000000E+00  0.00000000000E+00  0.39999999674E+01  0.40000000000E+01  0.51100000000E-03 0.  1.
    9000002   -1    0    0    0    0 -0.00000000000E+00 -0.00000000000E+00  0.00000000000E+00  0.93800000000E+00  0.93800000000E+00 0.  1.
         11    1    1    2    0    0  0.88850458478E-02 -0.13382261086E-01  0.60912994271E+00  0.60934192140E+00  0.51100000000E-03 0.  1.
    9000002    1    1    2    0    0 -0.65680359690E-01  0.21356789424E+00  0.33480694568E-01  0.96482646730E+00  0.93800000000E+00 0.  1.
         22    1    1    2    0    0  0.56795313842E-01 -0.20018563315E+00  0.33573893301E+01  0.33638316113E+01  0.00000000000E+00 0.  1.
</event>
<event>
 5    1  0.3368139E+002  0.1555108E+01  0.7818608E-02  0.3403577E+00
         11   -1    0    0    0    0  0.00000000000E+00  0.00000000000E+00  0.39999999674E+01  0.40000000000E+01  0.51100000000E-03 0.  1.
    9000002   -1    0    0    0    0 -0.00000000000E+00 -0.00000000000E+00  0.00000000000E+00  0.93800000000E+00  0.93800000000E+00 0. -1.
         11    1    1    2    0    0  0.24865754886E+00 -0.34692485830E+00  0.24239079954E+01  0.24612024836E+01  0.51100000000E-03 0.  1.
    9000002    1    1    2    0    0 -0.48155156256E-01  0.37389915228E+00  0.13304641809E+00  0.10196395660E+01  0.93800000000E+00 0. -1.
         22    1    1    2    0    0 -0.20050239261E+00 -0.26974293976E-01  0.14430455539E+01  0.14571579504E+01  0.00000000000E+00 0. -1.
</event>
<event>
 5    1  0.3368139E+002  0.1516958E+01  0.7818608E-02  0.3448738E+00
         11   -1    0    0    0    0  0.00000000000E+00  0.00000000000E+00  0.39999999674E+01  0.40000000000E+01  0.51100000000E-03 0. -1.
    9000002   -1    0    0    0    0 -0.00000000000E+00 -0.00000000000E+00  0.00000000000E+00  0.93800000000E+00  0.93800000000E+00 0. -1.
         11    1    1    2    0    0  0.23161241433E+00  0.33967511378E-01  0.49808018256E+00  0.55034737365E+00  0.51100000000E-03 0. -1.
    9000002    1    1    2    0    0  0.27501387641E-01 -0.23605924020E+00  0.10324713368E+00  0.97313116373E+00  0.93800000000E+00 0. -1.
         22    1    1    2    0    0 -0.25911380197E+00  0.20209172882E+00  0.33986726511E+01  0.34145214626E+01  0.00000000000E+00 0. -1.
</event>
<event>
 5    1  0.3368139E+002  0.1599677E+01  0.7818608E-02  0.3353714E+00
         11   -1    0    0    0    0  0.00000000000E+00  0.00000000000E+00  0.39999999674E+01  0.40000000000E+01  0.51100000000E-03 0.  1.
    9000002   -1    0    0    0    0 -0.00000000000E+00 -0.00000000000E+00  0.00000000000E+00  0.93800000000E+00  0.93800000000E+00 0.  1.
         11    1    1    2    0    0 -0.53687389304E-01  0.47232029635E-01  0.97745084987E+00  0.98006307216E+00  0.51100000000E-03 0.  1.
    9000002    1    1    2    0    0  0.21767303758E+00 -0.18988304308E+00  0.55605464204E-01  0.98304277068E+00  0.93800000000E+00 0.  1.
         22    1    1    2    0    0 -0.16398564828E+00  0.14265101344E+00  0.29669436533E+01  0.29748941572E+01  0.00000000000E+00 0.  1.
</event>
<event>
 5    1  0.3368139E+002  0.1583854E+01  0.7818608E-02  0.3371076E+00
         11   -1    0    0    0    0  0.00000000000E+00  0.00000000000E+00  0.39999999674E+01  0.40000000000E+01  0.51100000000E-03 0.  1.
    9000002   -1    0    0    0    0 -0.00000000000E+00 -0.00000000000E+00  0.00000000000E+00  0.93800000000E+00  0.93800000000E+00 0. -1.
         11    1    1    2    0    0  0.68034458439E-01 -0.87153386488E-01  0.65389023714E+00  0.66317200157E+00  0.51100000000E-03 0.  1.
    9000002    1    1    2    0    0 -0.17092100537E+00 -0.10988406182E+00  0.39305157061E-01  0.96056097802E+00  0.93800000000E+00 0. -1.
         22    1    1    2    0    0  0.10288654693E+00  0.19703744830E+00  0.33068045732E+01  0.33142670204E+01  0.00000000000E+00 0.  1.
</event>
<event>
 5    1  0.3368139E+002  0.1599318E+01  0.7818608E-02  0.3354104E+00
         11   -1    0    0    0    0  0.00000000000E+00  0.00000000000E+00  0.39999999674E+01  0.40000000000E+01  0.51100000000E-03 0. -1.
    9000002   -1    0    0    0    0 -0.00000000000E+00 -0.00000000000E+00  0.00000000000E+00  0.93800000000E+00  0.93800000000E+00 0. -1.
         11    1    1    2    0    0  0.56172393371E-01  0.22106283740E-01  0.53708985411E+00  0.54047182911E+00  0.51100000000E-03 0. -1.
    9000002    1    1    2    0    0 -0.30993328591E+00 -0.10629267502E+00  0.72098370224E-01  0.99619222516E+00  0.93800000000E+00 0. -1.
         22    1    1    2    0    0  0.25376089254E+00  0.84186391277E-01  0.33908117430E+01  0.34013359457E+01  0.00000000000E+00 0. -1.
</event>
<event>
 5    1  0.3368139E+002  0.1595943E+01  0.7818608E-02  0.3357779E+00
         11   -1    0    0    0    0  0.00000000000E+00  0.00000000000E+00  0.39999999674E+01  0.40000000000E+01  0.51100000000E-03 0. -1.
    9000002   -1    0    0    0    0 -0.00000000000E+00 -0.00000000000E+00  0.00000000000E+00  0.93800000000E+00  0.93800000000E+00 0. -1.
         11    1    1    2    0    0  0.28390178534E+00 -0.19420577694E+00  0.23166562088E+01  0.23420530221E+01  0.51100000000E-03 0. -1.
    9000002    1    1    2    0    0 -0.49242300573E+00  0.20396525483E+00  0.19907104144E+00  0.10970667807E+01  0.93800000000E+00 0. -1.
         22    1    1    2    0    0  0.20852122038E+00 -0.97594778811E-02  0.14842727171E+01  0.14988801972E+01  0.00000000000E+00 0. -1.
</event>
<event>
 5    1  0.3368139E+002  0.1599675E+01  0.7818608E-02  0.3353716E+00
         11   -1    0    0    0    0  0.00000000000E+00  0.00000000000E+00  0.39999999674E+01  0.40000000000E+01  0.51100000000E-03 0. -1.
    9000002   -1    0    0    0    0 -0.00000000000E+00 -0.00000000000E+00  0.00000000000E+00  0.93800000000E+00  0.93800000000E+00 0. -1.
         11    1    1    2    0    0  0.33950235763E-01  0.25194485772E-01  0.60789640576E+00  0.60936498248E+00  0.51100000000E-03 0.  1.
    9000002    1    1    2    0    0 -0.21618669448E+00 -0.15718034787E+00  0.47525313923E-01  0.97649628985E+00  0.93800000000E+00 0. -1.
         22    1    1    2    0    0  0.18223645872E+00  0.13198586209E+00  0.33445782477E+01  0.33521387277E+01  0.00000000000E+00 0. -1.
</event>
<event>
 5    1  0.3368139E+002  0.1599631E+01  0.7818608E-02  0.3353764E+00
         11   -1    0    0    0    0  0.00000000000E+00  0.00000000000E+00  0.39999999674E+01  0.40000000000E+01  0.51100000000E-03 0.  1.
    9000002   -1    0    0    0    0 -0.00000000000E+00 -0.00000000000E+00  0.00000000000E+00  0.93800000000E+00  0.93800000000E+00 0.  1.
         11    1    1    2    0    0 -0.33258836670E+00 -0.15363789003E+00  0.16325184569E+01  0.16731217517E+01  0.51100000000E-03 0.  1.
    9000002    1    1    2    0    0  0.73460492069E+00  0.33460810577E+00  0.48123490799E+00  0.13277944158E+01  0.93800000000E+00 0.  1.
         22    1    1    2    0    0 -0.40201655398E+00 -0.18097021573E+00  0.18862466025E+01  0.19370838325E+01  0.00000000000E+00 0.  1.
</event>
<event>
 5    1  0.3368139E+002  0.1594634E+01  0.7818608E-02  0.3359209E+00
         11   -1    0    0    0    0  0.00000000000E+00  0.00000000000E+00  0.39999999674E+01  0.40000000000E+01  0.51100000000E-03 0. -1.
    9000002   -1    0    0    0    0 -0.00000000000E+00 -0.00000000000E+00  0.00000000000E+00  0.93800000000E+00  0.93800000000E+00 0. -1.
         11    1    1    2    0    0  0.67161753822E-01 -0.54860091415E-01  0.15647710699E+01  0.15671723240E+01  0.51100000000E-03 0. -1.
    9000002    1    1    2    0    0 -0.37557997447E+00  0.12150035004E+00  0.10922781816E+00  0.10235220411E+01  0.93800000000E+00 0. -1.
         22    1    1    2    0    0  0.30841822064E+00 -0.66640258630E-01  0.23260010793E+01  0.23473056350E+01  0.00000000000E+00 0.  1.
</event>
<event>
 5    1  0.3368139E+002  0.1550310E+01  0.7818608E-02  0.3409127E+00
         11   -1    0    0    0    0  0.00000000000E+00  0.00000000000E+00  0.39999999674E+01  0.40000000000E+01  0.51100000000E-03 0.  1.
    9000002   -1    0    0    0    0 -0.00000000000E+00 -0.00000000000E+00  0.00000000000E+00  0.93800000000E+00  0.93800000000E+00 0.  1.
         11    1    1    2    0    0 -0.21945170950E+00 -0.13593495110E+00  0.19718287343E+01  0.19886543647E+01  0.51100000000E-03 0.  1.
    9000002    1    1    2    0    0 -0.55261669563E-01  0.67440743743E-01  0.41875989305E-01  0.94297386206E+00  0.93800000000E+00 0.  1.
         22    1    1    2    0    0  0.27471337907E+00  0.68494207361E-01  0.19862952437E+01  0.20063717732E+01  0.00000000000E+00 0.  1.
</event>
<event>
 5    1  0.3368139E+002  0.1599381E+01  0.7818608E-02  0.3354035E+00
         11   -1    0    0    0    0  0.00000000000E+00  0.00000000000E+00  0.39999999674E+01  0.40000000000E+01  0.51100000000E-03 0.  1.
    9000002   -1    0    0    0    0 -0.00000000000E+00 -0.00000000000E+00  0.00000000000E+00  0.93800000000E+00  0.93800000000E+00 0.  1.
         11    1    1    2    0    0  0.66189332458E-01 -0.88321042193E-01  0.12469630178E+01  0.12518381138E+01  0.51100000000E-03 0.  1.
    9000002    1    1    2    0    0 -0.26358765442E+00  0.25408960040E+00  0.90279950034E-01  0.10109571929E+01  0.93800000000E+00 0.  1.
         22    1    1    2    0    0  0.19739832196E+00 -0.16576855820E+00  0.26627569995E+01  0.26752046932E+01  0.00000000000E+00 0. -1.
</event>
<event>
 5    1  0.3368139E+002  0.1599675E+01  0.7818608E-02  0.3353717E+00
         11   -1    0    0    0    0  0.00000000000E+00  0.00000000000E+00  0.39999999674E+01  0.40000000000E+01  0.51100000000E-03 0.  1.
    9000002   -1    0    0    0    0 -0.00000000000E+00 -0.00000000000E+00  0.00000000000E+00  0.93800000000E+00  0.93800000000E+00 0.  1.
         11    1    1    2    0    0 -0.16292756959E+00 -0.90217676130E-01  0.15591439033E+01  0.15702275613E+01  0.51100000000E-03 0.  1.
    9000002    1    1    2    0    0  0.39895063257E+00  0.22506531887E+00  0.14267705093E+00  0.10535733225E+01  0.93800000000E+00 0.  1.
         22    1    1    2    0    0 -0.23602306298E+00 -0.13484764274E+00  0.22981790131E+01  0.23141991162E+01  0.00000000000E+00 0.  1.
</event>
<event>
 5    1  0.3368139E+002  0.1599675E+01  0.7818608E-02  0.3353716E+00
         11   -1    0    0    0    0  0.00000000000E+00  0.00000000000E+00  0.39999999674E+01  0.40000000000E+01  0.51100000000E-03 0. -1.
    9000002   -1    0    0    0    0 -0.00000000000E+00 -0.00000000000E+00  0.00000000000E+00  0.93800000000E+00  0.93800000000E+00 0.  1.
         11    1    1    2    0    0 -0.22475183859E-01  0.83730551558E-01  0.10199034695E+01  0.10235815978E+01  0.51100000000E-03 0. -1.
    9000002    1    1    2    0    0  0.81736911645E-01 -0.31906986516E+00  0.72583118809E-01  0.99679426700E+00  0.93800000000E+00 0.  1.
         22    1    1    2    0    0 -0.59261727786E-01  0.23533931361E+00  0.29075133790E+01  0.29176241352E+01  0.00000000000E+00 0. -1.
</event>
<event>
 5    1  0.3368139E+002  0.1598909E+01  0.7818608E-02  0.3354548E+00
         11   -1    0    0    0    0  0.00000000000E+00  0.00000000000E+00  0.39999999674E+01  0.40000000000E+01  0.51100000000E-03 0.  1.
    9000002   -1    0    0    0    0 -0.00000000000E+00 -0.00000000000E+00  0.00000000000E+00  0.93800000000E+00  0.93800000000E+00 0. -1.
         11    1    1    2    0    0 -0.22060830472E+00 -0.23777859365E-01  0.20166047825E+01  0.20287751282E+01  0.51100000000E-03 0.  1.
    9000002    1    1    2    0    0  0.48360871376E+00  0.40566004422E-01  0.16152150573E+00  0.10683895289E+01  0.93800000000E+00 0. -1.
         22    1    1    2    0    0 -0.26300040904E+00 -0.16788145056E-01  0.18218736791E+01  0.18408353429E+01  0.00000000000E+00 0.  1.
</event>
<event>
 5    1  0.3368139E+002  0.1599677E+01  0.7818608E-02  0.3353714E+00
         11   -1    0    0    0    0  0.00000000000E+00  0.00000000000E+00  0.39999999674E+01  0.40000000000E+01  0.51100000000E-03 0. -1.
    9000002   -1    0    0    0    0 -0.00000000000E+00 -0.00000000000E+00  0.00000000000E+00  0.93800000000E+00  0.93800000000E+00 0.  1.
         11    1    1    2    0    0 -0.76564302115E-01 -0.13682723817E+00  0.14544774265E+01  0.14629041769E+01  0.51100000000E-03 0. -1.
    9000002    1    1    2    0    0  0.20365354334E+00  0.36625371261E+00  0.11875534746E+00  0.10341969736E+01  0.93800000000E+00 0.  1.
         22    1    1    2    0    0 -0.12708924122E+00 -0.22942647444E+00  0.24267671934E+01  0.24408988495E+01  0.00000000000E+00 0. -1.
</event>
<event>
 5    1  0.3368139E+002  0.1599662E+01  0.7818608E-02  0.3353731E+00
         11   -1    0    0    0    0  0.00000000000E+00  0.00000000000E+00  0.39999999674E+01  0.40000000000E+01  0.51100000000E-03 0. -1.
    9000002   -1    0    0    0    0 -0.00000000000E+00 -0.00000000000E+00  0.00000000000E+00  0.93800000000E+00  0.93800000000E+00 0. -1.
         11    1    1    2    0    0  0.11719285707E-01  0.24435443993E-01  0.40410159130E+00  0.40500961691E+00  0.51100000000E-03 0. -1.
    9000002    1    1    2    0    0 -0.14209555148E+00 -0.23619227371E+00  0.50587914287E-01  0.97896939328E+00  0.93800000000E+00 0. -1.
         22    1    1    2    0    0  0.13037626577E+00  0.21175682972E+00  0.35453104618E+01  0.35540209898E+01  0.00000000000E+00 0. -1.
</event>
<event>
 5    1  0.3368139E+002  0.1599455E+01  0.7818608E-02  0.3353955E+00
         11   -1    0    0    0    0  0.00000000000E+00  0.00000000000E+00  0.39999999674E+01  0.40000000000E+01  0.51100000000E-03 0.  1.
    9000002   -1    0    0    0    0 -0.00000000000E+00 -0.00000000000E+00  0.00000000000E+00  0.93800000000E+00  0.93800000000E+00 0.  1.
         11    1    1    2    0    0  0.11852886870E-01 -0.31829552313E-01  0.78728929118E+00  0.78802176394E+00  0.51100000000E-03 0.  1.
    9000002    1    1    2    0    0 -0.54054367409E-01  0.23199267282E+00  0.37828852831E-01  0.96851303398E+00  0.93800000000E+00 0.  1.
         22    1    1    2    0    0  0.42201480539E-01 -0.20016312051E+00  0.31748818234E+01  0.31814652021E+01  0.00000000000E+00 0.  1.
</event>
<event>
 5    1  0.3368139E+002  0.1599570E+01  0.7818608E-02  0.3353831E+00
         11   -1    0    0    0    0  0.00000000000E+00  0.00000000000E+00  0.39999999674E+01  0.40000000000E+01  0.51100000000E-03 0. -1.
    9000002   -1    0    0    0    0 -0.00000000000E+00 -0.00000000000E+00  0.00000000000E+00  0.93800000000E+00  0.93800000000E+00 0.  1.
         11    1    1    2    0    0 -0.46323699786E-02 -0.17964702117E-01  0.24950374779E+00  0.25019306676E+00  0.51100000000E-03 0. -1.
    9000002    1    1    2    0    0  0.11910105587E+00  0.20077848587E+00  0.36239176277E-01  0.96729227217E+00  0.93800000000E+00 0.  1.
         22    1    1    2    0    0 -0.11446868589E+00 -0.18281378376E+00  0.37142570433E+01  0.37205146611E+01  0.00000000000E+00 0. -1.
</event>
<event>
 5    1  0.3368139E+002  0.1599542E+01  0.7818608E-02  0.3353861E+00
         11   -1    0    0    0    0  0.00000000000E+00  0.00000000000E+00  0.39999999674E+01  0.40000000000E+01  0.51100000000E-03 0.  1.
    9000002   -1    0    0    0    0 -0.00000000000E+00 -0.00000000000E+00  0.00000000000E+00  0.93800000000E+00  0.93800000000E+00 0. -1.
         11    1    1    2    0    0  0.16392676323E-02 -0.36749342321E-01  0.43444471232E+00  0.43599962218E+00  0.51100000000E-03 0.  1.
    9000002    1    1    2    0    0 -0.33840516056E-01  0.40565419831E+00  0.11198368587E+00  0.10286325170E+01  0.93800000000E+00 0. -1.
         22    1    1    2    0    0  0.32201248424E-01 -0.36890485599E+00  0.34535715692E+01  0.34733678608E+01  0.00000000000E+00 0.  1.
</event>
<event>
 5    1  0.3368139E+002  0.1599652E+01  0.7818608E-02  0.3353741E+00
         11   -1    0    0    0    0  0.00000000000E+00  0.00000000000E+00  0.39999999674E+01  0.40000000000E+01  0.51100000000E-03 0.  1.
    9000002   -1    0    0    0    0 -0.00000000000E+00 -0.00000000000E+00  0.00000000000E+00  0.93800000000E+00  0.93800000000E+00 0.  1.
         11    1    1    2    0    0  0.52537108691E+00 -0.10748629439E+00  0.21589482770E+01  0.22245507426E+01  0.51100000000E-03 0.  1.
    9000002    1    1    2    0    0 -0.84334472313E+00  0.16377462448E+00  0.55552566432E+00  0.13879860278E+01  0.93800000000E+00 0.  1.
         22    1    1    2    0    0  0.31797363622E+00 -0.56288330095E-01  0.12855260260E+01  0.13254632296E+01  0.00000000000E+00 0.  1.
</event>
<event>
 5    1  0.3368139E+002  0.1599676E+01  0.7818608E-02  0.3353715E+00
         11   -1    0    0    0    0  0.00000000000E+00  0.00000000000E+00  0.39999999674E+01  0.40000000000E+01  0.51100000000E-03 0.  1.
    9000002   -1    0    0    0    0 -0.00000000000E+00 -0.00000000000E+00  0.00000000000E+00  0.93800000000E+00  0.93800000000E+00 0.  1.
         11    1    1    2    0    0  0.13519850945E-01  0.25196152563E-01  0.49873660772E+00  0.49955590025E+00  0.51100000000E-03 0. -1.
    9000002    1    1    2    0    0 -0.10592838253E+00 -0.20657300369E+00  0.35754643182E-01  0.96696205851E+00  0.93800000000E+00 0.  1.
         22    1    1    2    0    0  0.92408531584E-01  0.18137685113E+00  0.34655087165E+01  0.34714820412E+01  0.00000000000E+00 0.  1.
</event>
<event>
 5    1  0.3368139E+002  0.1599677E+01  0.7818608E-02  0.3353714E+00
         11   -1    0    0    0    0  0.00000000000E+00  0.00000000000E+00  0.39999999674E+01  0.40000000000E+01  0.51100000000E-03 0.  1.
    9000002   -1    0    0    0    0 -0.00000000000E+00 -0.00000000000E+00  0.00000000000E+00  0.93800000000E+00  0.93800000000E+00 0.  1.
         11    1    1    2    0    0  0.17143440546E+00  0.21622612570E+00  0.18491647625E+01  0.18696400917E+01  0.51100000000E-03 0.  1.
    9000002    1    1    2    0    0 -0.34996719257E+00 -0.44159418252E+00  0.21985551845E+00  0.11160926964E+01  0.93800000000E+00 0.  1.
         22    1    1    2    0    0  0.17853278711E+00  0.22536805681E+00  0.19309796865E+01  0.19522672119E+01  0.00000000000E+00 0.  1.
</event>
<event>
 5    1  0.3368139E+002  0.1595919E+01  0.7818608E-02  0.3357805E+00
         11   -1    0    0    0    0  0.00000000000E+00  0.00000000000E+00  0.39999999674E+01  0.40000000000E+01  0.51100000000E-03 0.  1.
    9000002   -1    0    0    0    0 -0.00000000000E+00 -0.00000000000E+00  0.00000000000E+00  0.93800000000E+00  0.93800000000E+00 0.  1.
         11    1    1    2    0    0 -0.69310842270E-01  0.21923533267E+00  0.12622776833E+01  0.12830484538E+01  0.51100000000E-03 0.  1.
    9000002    1    1    2    0    0  0.11589941654E-01 -0.58063235750E+00  0.23803554843E+00  0.11286156049E+01  0.93800000000E+00 0.  1.
         22    1    1    2    0    0  0.57720900616E-01  0.36139702483E+00  0.24996867357E+01  0.25263359413E+01  0.00000000000E+00 0.  1.
</event>
<event>
 5    1  0.3368139E+002  0.1599639E+01  0.7818608E-02  0.3353756E+00
         11   -1    0    0    0    0  0.00000000000E+00  0.00000000000E+00  0.39999999674E+01  0.40000000000E+01  0.51100000000E-03 0.  1.
    9000002   -1    0    0    0    0 -0.00000000000E+00 -0.00000000000E+00  0.00000000000E+00  0.93800000000E+00  0.93800000000E+00 0. -1.
         11    1    1    2    0    0  0.12910335202E+00 -0.58435161634E-01  0.12427126420E+01  0.12507666910E+01  0.51100000000E-03 0.  1.
    9000002    1    1    2    0    0 -0.40878523440E+00  0.16138660705E+00  0.13101758912E+00  0.10441075680E+01  0.93800000000E+00 0. -1.
         22    1    1    2    0    0  0.27968188238E+00 -0.10295144542E+00  0.26262697362E+01  0.26431257410E+01  0.00000000000E+00 0.  1.
</event>
<event>
 5    1  0.3368139E+002  0.1598959E+01  0.7818608E-02  0.3354494E+00
         11   -1    0    0    0    0  0.00000000000E+00  0.00000000000E+00  0.39999999674E+01  0.40000000000E+01  0.51100000000E-03 0. -1.
    9000002   -1    0    0    0    0 -0.00000000000E+00 -0.00000000000E+00  0.00000000000E+00  0.93800000000E+00  0.93800000000E+00 0.  1.
         11    1    1    2    0    0  0.19589262949E+00  0.67586637638E-01  0.13516266861E+01  0.13674197730E+01  0.51100000000E-03 0. -1.
    9000002    1    1    2    0    0 -0.47535551611E+00 -0.23251660776E+00  0.19333503989E+00  0.10941888673E+01  0.93800000000E+00 0.  1.
         22    1    1    2    0    0  0.27946288662E+00  0.16492997012E+00  0.24550382414E+01  0.24763913597E+01  0.00000000000E+00 0. -1.
</event>
<event>
 5    1  0.3368139E+002  0.1526475E+01  0.7818608E-02  0.3437246E+00
         11   -1    0    0    0    0  0.00000000000E+00  0.00000000000E+00  0.39999999674E+01  0.40000000000E+01  0.51100000000E-03 0.  1.
    9000002   -1    0    0    0    0 -0.00000000000E+00 -0.00000000000E+00  0.00000000000E+00  0.93800000000E+00  0.93800000000E+00 0.  1.
         11    1    1    2    0    0  0.72623860213E-01 -0.12049244834E-02  0.14746497599E-01  0.74117455621E-01  0.51100000000E-03 0.  1.
    9000002    1    1    2    0    0 -0.31624236346E+00 -0.14980190387E-01  0.12721819494E+00  0.99812930409E+00  0.93800000000E+00 0.  1.
         22    1    1    2    0    0  0.24361850325E+00  0.16185114871E-01  0.38580352748E+01  0.38657532403E+01  0.00000000000E+00 0.  1.
</event>
<event>
 5    1  0.3368139E+002  0.1590902E+01  0.7818608E-02  0.3363298E+00
         11   -1    0    0    0    0  0.00000000000E+00  0.00000000000E+00  0.39999999674E+01  0.40000000000E+01  0.51100000000E-03 0. -1.
    9000002   -1    0    0    0    0 -0.00000000000E+00 -0.00000000000E+00  0.00000000000E+00  0.93800000000E+00  0.93800000000E+00 0.  1.
         11    1    1    2    0    0  0.50942356942E-02  0.14408759970E+00  0.84151057611E+00  0.85377250978E+00  0.51100000000E-03 0. -1.
    9000002    1    1    2    0    0 -0.36837923523E+00 -0.40621704696E+00  0.21595699769E+00  0.11077892286E+01  0.93800000000E+00 0.  1.
         22    1    1    2    0    0  0.36328499953E+00  0.26212944727E+00  0.29425323936E+01  0.29764382616E+01  0.00000000000E+00 0. -1.
</event>
<event>
 5    1  0.3368139E+002  0.1599676E+01  0.7818608E-02  0.3353715E+00
         11   -1    0    0    0    0  0.00000000000E+00  0.00000000000E+00  0.39999999674E+01  0.40000000000E+01  0.51100000000E-03 0.  1.
    9000002   -1    0    0    0    0 -0.00000000000E+00 -0.00000000000E+00  0.00000000000E+00  0.93800000000E+00  0.93800000000E+00 0. -1.
         11    1    1    2    0    0 -0.28892094304E+00 -0.38757750092E-01  0.21006697550E+01  0.21207996499E+01  0.51100000000E-03 0.  1.
    9000002    1    1    2    0    0  0.52162737917E+00  0.69588046936E-01  0.19044580625E+00  0.10922688424E+01  0.93800000000E+00 0. -1.
         22    1    1    2    0    0 -0.23270643612E+00 -0.30830296844E-01  0.17088844062E+01  0.17249315077E+01  0.00000000000E+00 0.  1.
</event>
<event>
 5    1  0.3368139E+002  0.1599675E+01  0.7818608E-02  0.3353716E+00
         11   -1    0    0    0    0  0.00000000000E+00  0.00000000000E+00  0.39999999674E+01  0.40000000000E+01  0.51100000000E-03 0.  1.
    9000002   -1    0    0    0    0 -0.00000000000E+00 -0.00000000000E+00  0.00000000000E+00  0.93800000000E+00  0.93800000000E+00 0.  1.
         11    1    1    2    0    0  0.21629279856E-01  0.80750414592E-01  0.10982689902E+01  0.11014460909E+01  0.51100000000E-03 0.  1.
    9000002    1    1    2    0    0 -0.82160942190E-01 -0.28620259064E+00  0.59137211529E-01  0.98590240546E+00  0.93800000000E+00 0.  1.
         22    1    1    2    0    0  0.60531662334E-01  0.20545217604E+00  0.28425937656E+01  0.28506515036E+01  0.00000000000E+00 0.  1.
</event>
<event>
 5    1  0.3368139E+002  0.1599541E+01  0.7818608E-02  0.3353862E+00
         11   -1    0    0    0    0  0.00000000000E+00  0.00000000000E+00  0.39999999674E+01  0.40000000000E+01  0.51100000000E-03 0. -1.
    9000002   -1    0    0    0    0 -0.00000000000E+00 -0.00000000000E+00  0.00000000000E+00  0.93800000000E+00  0.93800000000E+00 0. -1.
         11    1    1    2    0    0 -0.48152327273E-01 -0.49655787624E-01  0.97195185738E+00  0.97441008721E+00  0.51100000000E-03 0. -1.
    9000002    1    1    2    0    0  0.15600959068E+00  0.23084320821E+00  0.51792833812E-01  0.97987452094E+00  0.93800000000E+00 0. -1.
         22    1    1    2    0    0 -0.10785726340E+00 -0.18118742058E+00  0.29762552762E+01  0.29837153918E+01  0.00000000000E+00 0. -1.
</event>
<event>
 5    1  0.3368139E+002  0.1599597E+01  0.7818608E-02  0.3353801E+00
         11   -1    0    0    0    0  0.00000000000E+00  0.00000000000E+00  0.39999999674E+01  0.40000000000E+01  0.51100000000E-03 0. -1.
    9000002   -1    0    0    0    0 -0.00000000000E+00 -0.00000000000E+00  0.00000000000E+00  0.93800000000E+00  0.93800000000E+00 0.  1.
         11    1    1    2    0    0  0.11095056784E-01  0.24366118713E-02  0.15811128132E+00  0.15851963841E+00  0.51100000000E-03 0. -1.
    9000002    1    1    2    0    0 -0.36829351969E+00 -0.10437219225E+00  0.98692962957E-01  0.10178988025E+01  0.93800000000E+00 0.  1.
         22    1    1    2    0    0  0.35719846291E+00  0.10193558038E+00  0.37431957231E+01  0.37615815591E+01  0.00000000000E+00 0. -1.
</event>
<event>
 5    1  0.3368139E+002  0.1599649E+01  0.7818608E-02  0.3353745E+00
         11   -1    0    0    0    0  0.00000000000E+00  0.00000000000E+00  0.39999999674E+01  0.40000000000E+01  0.51100000000E-03 0. -1.
    9000002   -1    0    0    0    0 -0.00000000000E+00 -0.00000000000E+00  0.00000000000E+00  0.93800000000E+00  0.93800000000E+00 0.  1.
         11    1    1    2    0    0  0.39420249040E-01  0.16879462673E+00  0.18084317471E+01  0.18167199088E+01  0.51100000000E-03 0. -1.
    9000002    1    1    2    0    0 -0.96965131150E-01 -0.37110675508E+00  0.99056225738E-01  0.10182232546E+01  0.93800000000E+00 0.  1.
         22    1    1    2    0    0  0.57544882110E-01  0.20231212835E+00  0.20925119945E+01  0.21030568366E+01  0.00000000000E+00 0. -1.
</event>
<event>
 5    1  0.3368139E+002  0.1599659E+01  0.7818608E-02  0.3353734E+00
         11   -1    0    0    0    0  0.00000000000E+00  0.00000000000E+00  0.39999999674E+01  0.40000000000E+01  0.51100000000E-03 0.  1.
    9000002   -1    0    0    0    0 -0.00000000000E+00 -0.00000000000E+00  0.00000000000E+00  0.93800000000E+00  0.93800000000E+00 0.  1.
         11    1    1    2    0    0 -0.54148915126E-02  0.19637899632E-01  0.15107127829E+00  0.15243936630E+00  0.51100000000E-03 0.  1.
    9000002    1    1    2    0    0  0.18525934272E+00 -0.49834153884E+00  0.19459026696E+00  0.10956161214E+01  0.93800000000E+00 0.  1.
         22    1    1    2    0    0 -0.17984445121E+00  0.47870363921E+00  0.36543384221E+01  0.36899445123E+01  0.00000000000E+00 0.  1.
</event>
<event>
 5    1  0.3368139E+002  0.1544977E+01  0.7818608E-02  0.3415338E+00
         11   -1    0    0    0    0  0.00000000000E+00  0.00000000000E+00  0.39999999674E+01  0.40000000000E+01  0.51100000000E-03 0. -1.
    9000002   -1    0    0    0    0 -0.00000000000E+00 -0.00000000000E+00  0.00000000000E+00  0.93800000000E+00  0.93800000000E+00 0.  1.
         11    1    1    2    0    0  0.36859507658E+00  0.33123383207E-01  0.28549673599E+01  0.28788536567E+01  0.51100000000E-03 0. -1.
    9000002    1    1    2    0    0 -0.21338624359E+00 -0.22370804186E+00  0.10816002046E+00  0.99353991715E+00  0.93800000000E+00 0.  1.
         22    1    1    2    0    0 -0.15520883300E+00  0.19058465865E+00  0.10368725870E+01  0.10656064262E+01  0.00000000000E+00 0.  1.
</event>
<event>
 5    1  0.3368139E+002  0.1591595E+01  0.7818608E-02  0.3362537E+00
         11   -1    0    0    0    0  0.00000000000E+00  0.00000000000E+00  0.39999999674E+01  0.40000000000E+01  0.51100000000E-03 0.  1.
    9000002   -1    0    0    0    0 -0.00000000000E+00 -0.00000000000E+00  0.00000000000E+00  0.93800000000E+00  0.93800000000E+00 0.  1.
         11    1    1    2    0    0  0.14814297588E+00 -0.27789489865E-01  0.11767300080E+01  0.11863441195E+01  0.51100000000E-03 0.  1.
    9000002    1    1    2    0    0 -0.53069788480E+00 -0.22722393472E+00  0.23931124892E+00  0.11271134971E+01  0.93800000000E+00 0.  1.
         22    1    1    2    0    0  0.38255490892E+00  0.25501342458E+00  0.25839587104E+01  0.26245423834E+01  0.00000000000E+00 0.  1.
</event>
<event>
 5    1  0.3368139E+002  0.1599667E+01  0.7818608E-02  0.3353725E+00
         11   -1    0    0    0    0  0.00000000000E+00  0.00000000000E+00  0.39999999674E+01  0.40000000000E+01  0.51100000000E-03 0.  1.
    9000002   -1    0    0    0    0 -0.00000000000E+00 -0.00000000000E+00  0.00000000000E+00  0.93800000000E+00  0.93800000000E+00 0. -1.
         11    1    1    2    0    0 -0.10251021995E+00 -0.34138761729E-01  0.12273687629E+01  0.12321153118E+01  0.51100000000E-03 0.  1.
    9000002    1    1    2    0    0  0.31785492499E+00  0.10332258319E+00  0.74782325225E-01  0.99857083159E+00  0.93800000000E+00 0. -1.
         22    1    1    2    0    0 -0.21534470504E+00 -0.69183821458E-01  0.26978488792E+01  0.27073138566E+01  0.00000000000E+00 0.  1.
</event>
<event>
 5    1  0.3368139E+002  0.1599653E+01  0.7818608E-02  0.3353740E+00
         11   -1    0    0    0    0  0.00000000000E+00  0.00000000000E+00  0.39999999674E+01  0.40000000000E+01  0.51100000000E-03 0. -1.
    9000002   -1    0    0    0    0 -0.00000000000E+00 -0.00000000000E+00  0.00000000000E+00  0.93800000000E+00  0.93800000000E+00 0. -1.
         11    1    1    2    0    0  0.20895932136E-02 -0.22949304911E-01  0.26681320647E+00  0.26780699256E+00  0.51100000000E-03 0. -1.
    9000002    1    1    2    0    0  0.10161440963E-01  0.32415821012E+00  0.70353146570E-01  0.99497505763E+00  0.93800000000E+00 0. -1.
         22    1    1    2    0    0 -0.12251034177E-01 -0.30120890521E+00  0.36628336143E+01  0.36752179498E+01  0.00000000000E+00 0. -1.
</event>
<event>
 5    1  0.3368139E+002  0.1599485E+01  0.7818608E-02  0.3353922E+00
         11   -1    0    0    0    0  0.00000000000E+00  0.00000000000E+00  0.39999999674E+01  0.40000000000E+01  0.51100000000E-03 0. -1.
    9000002   -1    0    0    0    0 -0.00000000000E+00 -0.00000000000E+00  0.00000000000E+00  0.93800000000E+00  0.93800000000E+00 0.  1.
         11    1    1    2    0    0  0.48952871320E-02  0.23125876089E-01  0.47286286185E+00  0.47345360620E+00  0.51100000000E-03 0. -1.
    9000002    1    1    2    0    0 -0.88896223755E-03 -0.27425952952E+00  0.50213179947E-01  0.97856243706E+00  0.93800000000E+00 0.  1.
         22    1    1    2    0    0 -0.40063248944E-02  0.25113365343E+00  0.34769239256E+01  0.34859839567E+01  0.00000000000E+00 0. -1.
</event>
<event>
 5    1  0.3368139E+002  0.1599673E+01  0.7818608E-02  0.3353718E+00
         11   -1    0    0    0    0  0.00000000000E+00  0.00000000000E+00  0.39999999674E+01  0.40000000000E+01  0.51100000000E-03 0. -1.
    9000002   -1    0    0    0    0 -0.00000000000E+00 -0.00000000000E+00  0.00000000000E+00  0.93800000000E+00  0.93800000000E+00 0. -1.
         11    1    1    2    0    0  0.43875286109E+00 -0.25808022143E+00  0.11385432853E+01  0.12471529768E+01  0.51100000000E-03 0. -1.
    9000002    1    1    2    0    0 -0.10270307016E+01  0.60611176865E+00  0.13454129097E+01  0.20278420638E+01  0.93800000000E+00 0. -1.
         22    1    1    2    0    0  0.58827784050E+00 -0.34803154722E+00  0.15160437723E+01  0.16630049594E+01  0.00000000000E+00 0. -1.
</event>
<event>
 5    1  0.3368139E+002  0.1599510E+01  0.7818608E-02  0.3353895E+00
         11   -1    0    0    0    0  0.00000000000E+00  0.00000000000E+00  0.39999999674E+01  0.40000000000E+01  0.51100000000E-03 0.  1.
    9000002   -1    0    0    0    0 -0.00000000000E+00 -0.00000000000E+00  0.00000000000E+00  0.93800000000E+00  0.93800000000E+00 0. -1.
         11    1    1    2    0    0 -0.82456529627E-01  0.34257731535E-01  0.93610466493E+00  0.94035359109E+00  0.51100000000E-03 0.  1.
    9000002    1    1    2    0    0  0.34135495336E+00 -0.88012775461E-01  0.83481521956E-01  0.10055260401E+01  0.93800000000E+00 0. -1.
         22    1    1    2    0    0 -0.25889842374E+00  0.53755043926E-01  0.29804137805E+01  0.29921203688E+01  0.00000000000E+00 0.  1.
</event>
<event>
 5    1  0.3368139E+002  0.1599651E+01  0.7818608E-02  0.3353742E+00
         11   -1    0    0    0    0  0.00000000000E+00  0.00000000000E+00  0.39999999674E+01  0.40000000000E+01  0.51100000000E-03 0. -1.
    9000002   -1    0    0    0    0 -0.00000000000E+00 -0.00000000000E+00  0.00000000000E+00  0.93800000000E+00  0.93800000000E+00 0. -1.
         11    1    1    2    0    0 -0.83758139358E-01 -0.21033731941E-02  0.96954226347E+00  0.97315585178E+00  0.51100000000E-03 0. -1.
    9000002    1    1    2    0    0  0.32081650136E+00  0.18680665253E-01  0.69056911568E-01  0.99392406744E+00  0.93800000000E+00 0. -1.
         22    1    1    2    0    0 -0.23705836200E+00 -0.16577292059E-01  0.29614007923E+01  0.29709200808E+01  0.00000000000E+00 0. -1.
</event>
<event>
 5    1  0.3368139E+002  0.1599676E+01  0.7818608E-02  0.3353715E+00
         11   -1    0    0    0    0  0.00000000000E+00  0.00000000000E+00  0.39999999674E+01  0.40000000000E+01  0.51100000000E-03 0. -1.
    9000002   -1    0    0    0    0 -0.00000000000E+00 -0.00000000000E+00  0.00000000000E+00  0.93800000000E+00  0.93800000000E+00 0.  1.
         11    1    1    2    0    0 -0.13343923351E-01 -0.29576035370E-01  0.53207369640E+00  0.53306236190E+00  0.51100000000E-03 0. -1.
    9000002    1    1    2    0    0  0.93260732133E-01  0.22201386983E+00  0.38495073084E-01  0.96918191956E+00  0.93800000000E+00 0.  1.
         22    1    1    2    0    0 -0.79916808783E-01 -0.19243783446E+00  0.34294311979E+01  0.34357557185E+01  0.00000000000E+00 0. -1.
</event>
<event>
 5    1  0.3368139E+002  0.1599676E+01  0.7818608E-02  0.3353715E+00
         11   -1    0    0    0    0  0.00000000000E+00  0.00000000000E+00  0.39999999674E+01  0.40000000000E+01  0.51100000000E-03 0.  1.
    9000002   -1    0    0    0    0 -0.00000000000E+00 -0.00000000000E+00  0.00000000000E+00  0.93800000000E+00  0.93800000000E+00 0.  1.
         11    1    1    2    0    0  0.38529619780E-02 -0.23163650473E+00  0.19358366819E+01  0.19496497726E+01  0.51100000000E-03 0.  1.
    9000002    1    1    2    0    0 -0.57634571269E-02  0.46073655502E+00  0.14443172327E+00  0.10549956935E+01  0.93800000000E+00 0.  1.
         22    1    1    2    0    0  0.19104951489E-02 -0.22910005029E+00  0.19197315622E+01  0.19333545339E+01  0.00000000000E+00 0.  1.
</event>
<event>
 5    1  0.3368139E+002  0.1599435E+01  0.7818608E-02  0.3353976E+00
         11   -1    0    0    0    0  0.00000000000E+00  0.00000000000E+00  0.39999999674E+01  0.40000000000E+01  0.51100000000E-03 0.  1.
    9000002   -1    0    0    0    0 -0.00000000000E+00 -0.00000000000E+00  0.00000000000E+00  0.93800000000E+00  0.93800000000E+00 0. -1.
         11    1    1    2    0    0  0.19824235878E-02  0.13696136436E-01  0.11621143576E+00  0.11703364080E+00  0.51100000000E-03 0.  1.
    9000002    1    1    2    0    0 -0.29275489372E-01 -0.25437095937E+00  0.43757597701E-01  0.97330384085E+00  0.93800000000E+00 0. -1.
         22    1    1    2    0    0  0.27293065784E-01  0.24067482294E+00  0.38400309339E+01  0.38476625184E+01  0.00000000000E+00 0.  1.
</event>
<event>
 5    1  0.3368139E+002  0.1599677E+01  0.7818608E-02  0.3353714E+00
         11   -1    0    0    0    0  0.00000000000E+00  0.00000000000E+00  0.39999999674E+01  0.40000000000E+01  0.51100000000E-03 0.  1.
    9000002   -1    0    0    0    0 -0.00000000000E+00 -0.00000000000E+00  0.00000000000E+00  0.93800000000E+00  0.93800000000E+00 0.  1.
         11    1    1    2    0    0 -0.32205183175E-01  0.81136837993E-01  0.10806313789E+01  0.10841516493E+01  0.51100000000E-03 0.  1.
    9000002    1    1    2    0    0  0.11798081084E+00 -0.29298182472E+00  0.66651042360E-01  0.99199001144E+00  0.93800000000E+00 0.  1.
         22    1    1    2    0    0 -0.85775627661E-01  0.21184498673E+00  0.28527175461E+01  0.28618583393E+01  0.00000000000E+00 0.  1.
</event>
<event>
 5    1  0.3983299E+002  0.1568453E+01  0.7818608E-02  0.3388332E+00
         11   -1    0    0    0    0  0.00000000000E+00  0.00000000000E+00  0.39999999674E+01  0.40000000000E+01  0.51100000000E-03 0.  1.
    9000002   -1    0    0    0    0 -0.00000000000E+00 -0.00000000000E+00  0.00000000000E+00  0.93800000000E+00  0.93800000000E+00 0.  1.
         11    1    1    2    0    0 -0.13889361854E+00 -0.13900244617E+00  0.16489196841E+01  0.16605870959E+01  0.51100000000E-03 0.  1.
    9000002    1    1    2    0    0  0.61154572719E-01 -0.89457404249E-01  0.30928928991E-01  0.94474499606E+00  0.93800000000E+00 0.  1.
         22    1    1    2    0    0  0.77739045817E-01  0.22845985042E+00  0.23201513543E+01  0.23326679080E+01  0.00000000000E+00 0.  1.
</event>
<event>
 5    1  0.3368139E+002  0.1599200E+01  0.7818608E-02  0.3354233E+00
         11   -1    0    0    0    0  0.00000000000E+00  0.00000000000E+00  0.39999999674E+01  0.40000000000E+01  0.51100000000E-03 0. -1.
    9000002   -1    0    0    0    0 -0.00000000000E+00 -0.00000000000E+00  0.00000000000E+00  0.93800000000E+00  0.93800000000E+00 0. -1.
         11    1    1    2    0    0 -0.12973125506E+00  0.35103935981E-01  0.12722385908E+01  0.12793177002E+01  0.51100000000E-03 0. -1.
    9000002    1    1    2    0    0  0.32687733748E+00 -0.86856756858E-01  0.76985744557E-01  0.10000818441E+01  0.93800000000E+00 0. -1.
         22    1    1    2    0    0 -0.19714608243E+00  0.51752820877E-01  0.26507756320E+01  0.26586004557E+01  0.00000000000E+00 0. -1.
</event>
<event>
 5    1  0.3368139E+002  0.1599675E+01  0.7818608E-02  0.3353716E+00
         11   -1    0    0    0    0  0.00000000000E+00  0.00000000000E+00  0.39999999674E+01  0.40000000000E+01  0.51100000000E-03 0. -1.
    9000002   -1    0    0    0    0 -0.00000000000E+00 -0.00000000000E+00  0.00000000000E+00  0.93800000000E+00  0.93800000000E+00 0.  1.
         11    1    1    2    0    0  0.16737591199E+00  0.24328493587E+00  0.20826442278E+01  0.21034755755E+01  0.51100000000E-03 0. -1.
    9000002    1    1    2    0    0 -0.30787143793E+00 -0.44508276859E+00  0.20196195835E+00  0.11015970796E+01  0.93800000000E+00 0.  1.
         22    1    1    2    0    0  0.14049552594E+00  0.20179783272E+00  0.17153937812E+01  0.17329273449E+01  0.00000000000E+00 0. -1.
</event>
<event>
 5    1  0.3368139E+002  0.1599676E+01  0.7818608E-02  0.3353715E+00
         11   -1    0    0    0    0  0.00000000000E+00  0.00000000000E+00  0.39999999674E+01  0.40000000000E+01  0.51100000000E-03 0. -1.
    9000002   -1    0    0    0    0 -0.00000000000E+00 -0.00000000000E+00  0.00000000000E+00  0.93800000000E+00  0.93800000000E+00 0.  1.
         11    1    1    2    0    0 -0.19047940583E-01 -0.26359189234E+00  0.20602702970E+01  0.20771512867E+01  0.51100000000E-03 0. -1.
    9000002    1    1    2    0    0  0.33853858982E-01  0.48924906462E+00  0.16438246049E+00  0.10711565359E+01  0.93800000000E+00 0.  1.
         22    1    1    2    0    0 -0.14805918400E-01 -0.22565717229E+00  0.17753472098E+01  0.17896921775E+01  0.00000000000E+00 0. -1.
</event>
<event>
 5    1  0.3368139E+002  0.1599200E+01  0.7818608E-02  0.3354232E+00
         11   -1    0    0    0    0  0.00000000000E+00  0.00000000000E+00  0.39999999674E+01  0.40000000000E+01  0.51100000000E-03 0.  1.
    9000002   -1    0    0    0    0 -0.00000000000E+00 -0.00000000000E+00  0.00000000000E+00  0.93800000000E+00  0.93800000000E+00 0. -1.
         11    1    1    2    0    0  0.19600622869E+00 -0.40634599280E-01  0.15109248511E+01  0.15241272188E+01  0.51100000000E-03 0.  1.
    9000002    1    1    2    0    0 -0.43598271218E+00  0.11518650135E+00  0.13854276372E+00  0.10499461666E+01  0.93800000000E+00 0. -1.
         22    1    1    2    0    0  0.23997648349E+00 -0.74551902072E-01  0.23505323526E+01  0.23639266146E+01  0.00000000000E+00 0.  1.
</event>
<event>
 5    1  0.3368139E+002  0.1599343E+01  0.7818608E-02  0.3354077E+00
         11   -1    0    0    0    0  0.00000000000E+00  0.00000000000E+00  0.39999999674E+01  0.40000000000E+01  0.51100000000E-03 0. -1.
    9000002   -1    0    0    0    0 -0.00000000000E+00 -0.00000000000E+00  0.00000000000E+00  0.93800000000E+00  0.93800000000E+00 0. -1.
         11    1    1    2    0    0 -0.28592823421E+00 -0.34868596901E+00  0.23949788807E+01  0.24370599009E+01  0.51100000000E-03 0. -1.
    9000002    1    1    2    0    0  0.42099514651E+00  0.55966634881E+00  0.35092764402E+00  0.12220710072E+01  0.93800000000E+00 0. -1.
         22    1    1    2    0    0 -0.13506691230E+00 -0.21098037980E+00  0.12540934426E+01  0.12788690919E+01  0.00000000000E+00 0. -1.
</event>
<event>
 5    1  0.3368139E+002  0.1599643E+01  0.7818608E-02  0.3353751E+00
         11   -1    0    0    0    0  0.00000000000E+00  0.00000000000E+00  0.39999999674E+01  0.40000000000E+01  0.51100000000E-03 0.  1.
    9000002   -1    0    0    0    0 -0.00000000000E+00 -0.00000000000E+00  0.00000000000E+00  0.93800000000E+00  0.93800000000E+00 0.  1.
         11    1    1    2    0    0 -0.31391811512E-01  0.63744379845E-02  0.60547862953E+00  0.60632558187E+00  0.51100000000E-03 0.  1.
    9000002    1    1    2    0    0  0.23709612517E+00 -0.50067314944E-01  0.39011045194E-01  0.96958092506E+00  0.93800000000E+00 0.  1.
         22    1    1    2    0    0 -0.20570431366E+00  0.43692876959E-01  0.33555102926E+01  0.33620934931E+01  0.00000000000E+00 0.  1.
</event>
<event>
 5    1  0.3368139E+002  0.1576046E+01  0.7818608E-02  0.3379780E+00
         11   -1    0    0    0    0  0.00000000000E+00  0.00000000000E+00  0.39999999674E+01  0.40000000000E+01  0.51100000000E-03 0.  1.
    9000002   -1    0    0    0    0 -0.00000000000E+00 -0.00000000000E+00  0.00000000000E+00  0.93800000000E+00  0.93800000000E+00 0.  1.
         11    1    1    2    0    0  0.25710387935E-02  0.13894304450E+00  0.84090929817E+00  0.85231478265E+00  0.51100000000E-03 0.  1.
    9000002    1    1    2    0    0  0.17892437878E+00  0.32800624510E-01  0.39697237675E-01  0.95629999737E+00  0.93800000000E+00 0.  1.
         22    1    1    2    0    0 -0.18149541757E+00 -0.17174366901E+00  0.31193934315E+01  0.31293852200E+01  0.00000000000E+00 0.  1.
</event>
<event>
 5    1  0.3368139E+002  0.1599673E+01  0.7818608E-02  0.3353718E+00
         11   -1    0    0    0    0  0.00000000000E+00  0.00000000000E+00  0.39999999674E+01  0.40000000000E+01  0.51100000000E-03 0.  1.
    9000002   -1    0    0    0    0 -0.00000000000E+00 -0.00000000000E+00  0.00000000000E+00  0.93800000000E+00  0.93800000000E+00 0. -1.
         11    1    1    2    0    0 -0.11338215330E+00 -0.57428475186E-01  0.90498825597E+00  0.91386954595E+00  0.51100000000E-03 0.  1.
    9000002    1    1    2    0    0  0.47122142032E+00  0.24818618598E+00  0.19528508050E+00  0.10961871522E+01  0.93800000000E+00 0. -1.
         22    1    1    2    0    0 -0.35783926702E+00 -0.19075771079E+00  0.28997266309E+01  0.29279433019E+01  0.00000000000E+00 0.  1.
</event>
<event>
 5    1  0.3368139E+002  0.1485819E+01  0.7818608E-02  0.3487449E+00
         11   -1    0    0    0    0  0.00000000000E+00  0.00000000000E+00  0.39999999674E+01  0.40000000000E+01  0.51100000000E-03 0.  1.
    9000002   -1    0    0    0    0 -0.00000000000E+00 -0.00000000000E+00  0.00000000000E+00  0.93800000000E+00  0.93800000000E+00 0. -1.
         11    1    1    2    0    0 -0.19002391279E+00  0.23378699945E+00  0.23347569016E+01  0.23541145892E+01  0.51100000000E-03 0.  1.
    9000002    1    1    2    0    0 -0.10589786303E+00  0.12430568455E+00  0.10727228972E+00  0.95813235242E+00  0.93800000000E+00 0. -1.
         22    1    1    2    0    0  0.29592177582E+00 -0.35809268400E+00  0.15579707761E+01  0.16257530584E+01  0.00000000000E+00 0.  1.
</event>
<event>
 5    1  0.3368139E+002  0.1599676E+01  0.7818608E-02  0.3353715E+00
         11   -1    0    0    0    0  0.00000000000E+00  0.00000000000E+00  0.39999999674E+01  0.40000000000E+01  0.51100000000E-03 0.  1.
    9000002   -1    0    0    0    0 -0.00000000000E+00 -0.00000000000E+00  0.00000000000E+00  0.93800000000E+00  0.93800000000E+00 0. -1.
         11    1    1    2    0    0 -0.48330707929E-01 -0.84868420157E-02  0.75939177984E+00  0.76097570278E+00  0.51100000000E-03 0.  1.
    9000002    1    1    2    0    0  0.25504674528E+00  0.40849632861E-01  0.44349246064E-01  0.97392422211E+00  0.93800000000E+00 0. -1.
         22    1    1    2    0    0 -0.20671603735E+00 -0.32362790845E-01  0.31962589415E+01  0.32031000751E+01  0.00000000000E+00 0.  1.
</event>
<event>
 5    1  0.3368139E+002  0.1599632E+01  0.7818608E-02  0.3353763E+00
         11   -1    0    0    0    0  0.00000000000E+00  0.00000000000E+00  0.39999999674E+01  0.40000000000E+01  0.51100000000E-03 0. -1.
    9000002   -1    0    0    0    0 -0.00000000000E+00 -0.00000000000E+00  0.00000000000E+00  0.93800000000E+00  0.93800000000E+00 0. -1.
         11    1    1    2    0    0  0.24818652231E+00 -0.30181709183E+00  0.24182649062E+01  0.24496317120E+01  0.51100000000E-03 0. -1.
    9000002    1    1    2    0    0 -0.37385759248E+00  0.47303390042E+00  0.25383915784E+00  0.11435947221E+01  0.93800000000E+00 0. -1.
         22    1    1    2    0    0  0.12567107017E+00 -0.17121680860E+00  0.13278959033E+01  0.13447735659E+01  0.00000000000E+00 0. -1.
</event>
<event>
 5    1  0.3368139E+002  0.1598180E+01  0.7818608E-02  0.3355341E+00
         11   -1    0    0    0    0  0.00000000000E+00  0.00000000000E+00  0.39999999674E+01  0.40000000000E+01  0.51100000000E-03 0. -1.
    9000002   -1    0    0    0    0 -0.00000000000E+00 -0.00000000000E+00  0.00000000000E+00  0.93800000000E+00  0.93800000000E+00 0.  1.
         11    1    1    2    0    0 -0.22119885898E-01  0.24000481101E-01  0.19099492580E+00  0.19376438075E+00  0.51100000000E-03 0. -1.
    9000002    1    1    2    0    0  0.10341797907E+00 -0.27722085244E+00  0.59550973870E-01  0.98536135398E+00  0.93800000000E+00 0.  1.
         22    1    1    2    0    0 -0.81298093170E-01  0.25322037134E+00  0.37494540677E+01  0.37588742653E+01  0.00000000000E+00 0. -1.
</event>
<event>
 5    1  0.3368139E+002  0.1599603E+01  0.7818608E-02  0.3353795E+00
         11   -1    0    0    0    0  0.00000000000E+00  0.00000000000E+00  0.39999999674E+01  0.40000000000E+01  0.51100000000E-03 0.  1.
    9000002   -1    0    0    0    0 -0.00000000000E+00 -0.00000000000E+00  0.00000000000E+00  0.93800000000E+00  0.93800000000E+00 0. -1.
         11    1    1    2    0    0  0.39784077039E-01 -0.77145618024E-01  0.99637581343E+00  0.10001496097E+01  0.51100000000E-03 0.  1.
    9000002    1    1    2    0    0 -0.12730607852E+00  0.32366755483E+00  0.81150110497E-01  0.10036916180E+01  0.93800000000E+00 0. -1.
         22    1    1    2    0    0  0.87522001478E-01 -0.24652193680E+00  0.29224740434E+01  0.29341587722E+01  0.00000000000E+00 0.  1.
</event>
<event>
 5    1  0.3368139E+002  0.1599675E+01  0.7818608E-02  0.3353717E+00
         11   -1    0    0    0    0  0.00000000000E+00  0.00000000000E+00  0.39999999674E+01  0.40000000000E+01  0.51100000000E-03 0.  1.
    9000002   -1    0    0    0    0 -0.00000000000E+00 -0.00000000000E+00  0.00000000000E+00  0.93800000000E+00  0.93800000000E+00 0. -1.
         11    1    1    2    0    0 -0.46146829580E-01 -0.32620303364E-01  0.86416237335E+00  0.86600836179E+00  0.51100000000E-03 0.  1.
    9000002    1    1    2    0    0  0.21322461658E+00  0.15573591034E+00  0.46366357301E-01  0.97555740476E+00  0.93800000000E+00 0. -1.
         22    1    1    2    0    0 -0.16707778700E+00 -0.12311560698E+00  0.30894712367E+01  0.30964342334E+01  0.00000000000E+00 0.  1.
</event>
<event>
 5    1  0.3368139E+002  0.1599529E+01  0.7818608E-02  0.3353875E+00
         11   -1    0    0    0    0  0.00000000000E+00  0.00000000000E+00  0.39999999674E+01  0.40000000000E+01  0.51100000000E-03 0.  1.
    9000002   -1    0    0    0    0 -0.00000000000E+00 -0.00000000000E+00  0.00000000000E+00  0.93800000000E+00  0.93800000000E+00 0. -1.
         11    1    1    2    0    0  0.13892229277E-01 -0.71885492600E-01  0.72467302295E+00  0.72836238878E+00  0.51100000000E-03 0.  1.
    9000002    1    1    2    0    0 -0.37047661155E-01  0.43265148545E+00  0.12790188298E+00  0.10415194327E+01  0.93800000000E+00 0. -1.
         22    1    1    2    0    0  0.23155431878E-01 -0.36076599285E+00  0.31474250614E+01  0.31681181785E+01  0.00000000000E+00 0.  1.
</event>
<event>
 5    1  0.3368139E+002  0.1599675E+01  0.7818608E-02  0.3353717E+00
         11   -1    0    0    0    0  0.00000000000E+00  0.00000000000E+00  0.39999999674E+01  0.40000000000E+01  0.51100000000E-03 0.  1.
    9000002   -1    0    0    0    0 -0.00000000000E+00 -0.00000000000E+00  0.00000000000E+00  0.93800000000E+00  0.93800000000E+00 0.  1.
         11    1    1    2    0    0 -0.24728362060E+00  0.80420127830E-02  0.19197251129E+01  0.19356029121E+01  0.51100000000E-03 0.  1.
    9000002    1    1    2    0    0  0.49473723113E+00 -0.19646284132E-01  0.16768531288E+00  0.10738311173E+01  0.93800000000E+00 0.  1.
         22    1    1    2    0    0 -0.24745361054E+00  0.11604271349E-01  0.19125895416E+01  0.19285659706E+01  0.00000000000E+00 0.  1.
</event>
<event>
 5    1  0.3368139E+002  0.1594402E+01  0.7818608E-02  0.3359462E+00
         11   -1    0    0    0    0  0.00000000000E+00  0.00000000000E+00  0.39999999674E+01  0.40000000000E+01  0.51100000000E-03 0.  1.
    9000002   -1    0    0    0    0 -0.00000000000E+00 -0.00000000000E+00  0.00000000000E+00  0.93800000000E+00  0.93800000000E+00 0.  1.
         11    1    1    2    0    0  0.52131757856E-01 -0.80488524793E-02  0.19848910296E+00  0.20537937900E+00  0.51100000000E-03 0.  1.
    9000002    1    1    2    0    0 -0.28301537810E+00  0.17101164966E-02  0.57458807879E-01  0.98145103971E+00  0.93800000000E+00 0.  1.
         22    1    1    2    0    0  0.23088362025E+00  0.63387359827E-02  0.37440520565E+01  0.37511695813E+01  0.00000000000E+00 0.  1.
</event>
<event>
 5    1  0.3368139E+002  0.1599077E+01  0.7818608E-02  0.3354366E+00
         11   -1    0    0    0    0  0.00000000000E+00  0.00000000000E+00  0.39999999674E+01  0.40000000000E+01  0.51100000000E-03 0.  1.
    9000002   -1    0    0    0    0 -0.00000000000E+00 -0.00000000000E+00  0.00000000000E+00  0.93800000000E+00  0.93800000000E+00 0. -1.
         11    1    1    2    0    0 -0.14940286619E+00 -0.82329156518E-01  0.71708323108E+00  0.73709424625E+00  0.51100000000E-03 0.  1.
    9000002    1    1    2    0    0  0.66396484219E+00  0.49790122067E+00  0.51352800554E+00  0.13536284386E+01  0.93800000000E+00 0. -1.
         22    1    1    2    0    0 -0.51456197600E+00 -0.41557206415E+00  0.27693887307E+01  0.28472773152E+01  0.00000000000E+00 0.  1.
</event>
<event>
 5    1  0.3368139E+002  0.1599559E+01  0.7818608E-02  0.3353842E+00
         11   -1    0    0    0    0  0.00000000000E+00  0.00000000000E+00  0.39999999674E+01  0.40000000000E+01  0.51100000000E-03 0. -1.
    9000002   -1    0    0    0    0 -0.00000000000E+00 -0.00000000000E+00  0.00000000000E+00  0.93800000000E+00  0.93800000000E+00 0. -1.
         11    1    1    2    0    0  0.41170784130E-01 -0.45051396997E-01  0.73442147184E+00  0.73695306584E+00  0.51100000000E-03 0. -1.
    9000002    1    1    2    0    0 -0.23811413376E+00  0.18976098285E+00  0.61965054326E-01  0.98812511316E+00  0.93800000000E+00 0. -1.
         22    1    1    2    0    0  0.19694334963E+00 -0.14470958586E+00  0.32036134412E+01  0.32129218210E+01  0.00000000000E+00 0. -1.
</event>
<event>
 5    1  0.3368139E+002  0.1599659E+01  0.7818608E-02  0.3353734E+00
         11   -1    0    0    0    0  0.00000000000E+00  0.00000000000E+00  0.39999999674E+01  0.40000000000E+01  0.51100000000E-03 0.  1.
    9000002   -1    0    0    0    0 -0.00000000000E+00 -0.00000000000E+00  0.00000000000E+00  0.93800000000E+00  0.93800000000E+00 0. -1.
         11    1    1    2    0    0 -0.10375544497E+00  0.22400665302E+00  0.21029514099E+01  0.21173920437E+01  0.51100000000E-03 0.  1.
    9000002    1    1    2    0    0  0.18117994803E+00 -0.41274785303E+00  0.13803283945E+00  0.10498018997E+01  0.93800000000E+00 0. -1.
         22    1    1    2    0    0 -0.77424503056E-01  0.18874120000E+00  0.17590157180E+01  0.17708060567E+01  0.00000000000E+00 0.  1.
</event>
<event>
 5    1  0.3368139E+002  0.1599420E+01  0.7818608E-02  0.3353994E+00
         11   -1    0    0    0    0  0.00000000000E+00  0.00000000000E+00  0.39999999674E+01  0.40000000000E+01  0.51100000000E-03 0. -1.
    9000002   -1    0    0    0    0 -0.00000000000E+00 -0.00000000000E+00  0.00000000000E+00  0.93800000000E+00  0.93800000000E+00 0.  1.
         11    1    1    2    0    0 -0.21484759822E-01 -0.83637976745E-01  0.97540983228E+00  0.97922495275E+00  0.51100000000E-03 0. -1.
    9000002    1    1    2    0    0  0.19875446083E-01  0.32818151714E+00  0.72521952354E-01  0.99659499052E+00  0.93800000000E+00 0.  1.
         22    1    1    2    0    0  0.16093137390E-02 -0.24454354040E+00  0.29520681827E+01  0.29621800567E+01  0.00000000000E+00 0. -1.
</event>
<event>
 5    1  0.3368139E+002  0.1598393E+01  0.7818608E-02  0.3355109E+00
         11   -1    0    0    0    0  0.00000000000E+00  0.00000000000E+00  0.39999999674E+01  0.40000000000E+01  0.51100000000E-03 0.  1.
    9000002   -1    0    0    0    0 -0.00000000000E+00 -0.00000000000E+00  0.00000000000E+00  0.93800000000E+00  0.93800000000E+00 0.  1.
         11    1    1    2    0    0  0.20284080218E+00 -0.63610197407E-01  0.17716710004E+01  0.17843791758E+01  0.51100000000E-03 0.  1.
    9000002    1    1    2    0    0 -0.41667302216E+00  0.22835249863E+00  0.15505529462E+00  0.10628487265E+01  0.93800000000E+00 0.  1.
         22    1    1    2    0    0  0.21383221998E+00 -0.16474230123E+00  0.20732736723E+01  0.20907720977E+01  0.00000000000E+00 0.  1.
</event>
<event>
 5    1  0.3368139E+002  0.1506291E+01  0.7818608E-02  0.3461805E+00
         11   -1    0    0    0    0  0.00000000000E+00  0.00000000000E+00  0.39999999674E+01  0.40000000000E+01  0.51100000000E-03 0.  1.
    9000002   -1    0    0    0    0 -0.00000000000E+00 -0.00000000000E+00  0.00000000000E+00  0.93800000000E+00  0.93800000000E+00 0. -1.
         11    1    1    2    0    0 -0.14275201700E+00 -0.10407540852E+00  0.16964806908E+00  0.24492969906E+00  0.51100000000E-03 0.  1.
    9000002    1    1    2    0    0  0.45293098490E+00 -0.27615955543E+00  0.28601392866E+00  0.11149253538E+01  0.93800000000E+00 0. -1.
         22    1    1    2    0    0 -0.31017896790E+00  0.38023496396E+00  0.35443379696E+01  0.35781449471E+01  0.00000000000E+00 0.  1.
</event>
<event>
 5    1  0.3368139E+002  0.1595341E+01  0.7818608E-02  0.3358436E+00
         11   -1    0    0    0    0  0.00000000000E+00  0.00000000000E+00  0.39999999674E+01  0.40000000000E+01  0.51100000000E-03 0.  1.
    9000002   -1    0    0    0    0 -0.00000000000E+00 -0.00000000000E+00  0.00000000000E+00  0.93800000000E+00  0.93800000000E+00 0. -1.
         11    1    1    2    0    0 -0.34123974016E-01  0.43610004225E-01  0.33386166683E+00  0.33842303670E+00  0.51100000000E-03 0.  1.
    9000002    1    1    2    0    0  0.37638223439E+00  0.88689713337E-02  0.98888364690E-01  0.10155614968E+01  0.93800000000E+00 0. -1.
         22    1    1    2    0    0 -0.34225826038E+00 -0.52478975559E-01  0.35672499358E+01  0.35840154665E+01  0.00000000000E+00 0.  1.
</event>
<event>
 5    1  0.3368139E+002  0.1599503E+01  0.7818608E-02  0.3353903E+00
         11   -1    0    0    0    0  0.00000000000E+00  0.00000000000E+00  0.39999999674E+01  0.40000000000E+01  0.51100000000E-03 0.  1.
    9000002   -1    0    0    0    0 -0.00000000000E+00 -0.00000000000E+00  0.00000000000E+00  0.93800000000E+00  0.93800000000E+00 0.  1.
         11    1    1    2    0    0  0.32945684358E-01 -0.61440114342E-02  0.37475299179E+00  0.37624889763E+00  0.51100000000E-03 0.  1.
    9000002    1    1    2    0    0 -0.26048050742E+00  0.11120327699E+00  0.53567638518E-01  0.98128984274E+00  0.93800000000E+00 0.  1.
         22    1    1    2    0    0  0.22753482306E+00 -0.10505926556E+00  0.35716793371E+01  0.35804612596E+01  0.00000000000E+00 0.  1.
</event>
<event>
 5    1  0.3368139E+002  0.1599472E+01  0.7818608E-02  0.3353936E+00
         11   -1    0    0    0    0  0.00000000000E+00  0.00000000000E+00  0.39999999674E+01  0.40000000000E+01  0.51100000000E-03 0. -1.
    9000002   -1    0    0    0    0 -0.00000000000E+00 -0.00000000000E+00  0.00000000000E+00  0.93800000000E+00  0.93800000000E+00 0. -1.
         11    1    1    2    0    0  0.23240177807E+00 -0.77431135739E-01  0.19606953952E+01  0.19759384760E+01  0.51100000000E-03 0. -1.
    9000002    1    1    2    0    0 -0.47102905596E+00  0.17990191480E+00  0.17434565007E+00  0.10791077222E+01  0.93800000000E+00 0. -1.
         22    1    1    2    0    0  0.23862727789E+00 -0.10247077907E+00  0.18649589221E+01  0.18829538018E+01  0.00000000000E+00 0. -1.
</event>
<event>
 5    1  0.3368139E+002  0.1599407E+01  0.7818608E-02  0.3354007E+00
         11   -1    0    0    0    0  0.00000000000E+00  0.00000000000E+00  0.39999999674E+01  0.40000000000E+01  0.51100000000E-03 0. -1.
    9000002   -1    0    0    0    0 -0.00000000000E+00 -0.00000000000E+00  0.00000000000E+00  0.93800000000E+00  0.93800000000E+00 0.  1.
         11    1    1    2    0    0  0.92909373068E-01  0.25131756578E-01  0.13503737756E+01  0.13537995981E+01  0.51100000000E-03 0. -1.
    9000002    1    1    2    0    0 -0.30659967531E+00 -0.11403381240E+00  0.71789231227E-01  0.99599435992E+00  0.93800000000E+00 0.  1.
         22    1    1    2    0    0  0.21369030224E+00  0.88902055818E-01  0.25778369605E+01  0.25882060420E+01  0.00000000000E+00 0. -1.
</event>
<event>
 5    1  0.3368139E+002  0.1599545E+01  0.7818608E-02  0.3353857E+00
         11   -1    0    0    0    0  0.00000000000E+00  0.00000000000E+00  0.39999999674E+01  0.40000000000E+01  0.51100000000E-03 0. -1.
    9000002   -1    0    0    0    0 -0.00000000000E+00 -0.00000000000E+00  0.00000000000E+00  0.93800000000E+00  0.93800000000E+00 0. -1.
         11    1    1    2    0    0 -0.18217471427E+00 -0.86600774189E-01  0.17687549308E+01  0.17802195334E+01  0.51100000000E-03 0. -1.
    9000002    1    1    2    0    0  0.38122372654E+00  0.21410937508E+00  0.12971542620E+00  0.10429978169E+01  0.93800000000E+00 0. -1.
         22    1    1    2    0    0 -0.19904901227E+00 -0.12750860089E+00  0.21015296103E+01  0.21147826498E+01  0.00000000000E+00 0. -1.
</event>
<event>
 5    1  0.3368139E+002  0.1599651E+01  0.7818608E-02  0.3353743E+00
         11   -1    0    0    0    0  0.00000000000E+00  0.00000000000E+00  0.39999999674E+01  0.40000000000E+01  0.51100000000E-03 0.  1.
    9000002   -1    0    0    0    0 -0.00000000000E+00 -0.00000000000E+00  0.00000000000E+00  0.93800000000E+00  0.93800000000E+00 0. -1.
         11    1    1    2    0    0  0.13247662501E+00 -0.10874427807E+00  0.16683741635E+01  0.16771547289E+01  0.51100000000E-03 0.  1.
    9000002    1    1    2    0    0 -0.29633138734E+00  0.25993088369E+00  0.10474871978E+00  0.10228355927E+01  0.93800000000E+00 0. -1.
         22    1    1    2    0    0  0.16385476233E+00 -0.15118660562E+00  0.22268770841E+01  0.22380096784E+01  0.00000000000E+00 0.  1.
</event>
<event>
 5    1  0.3368139E+002  0.1599676E+01  0.7818608E-02  0.3353715E+00
         11   -1    0    0    0    0  0.00000000000E+00  0.00000000000E+00  0.39999999674E+01  0.40000000000E+01  0.51100000000E-03 0.  1.
    9000002   -1    0    0    0    0 -0.00000000000E+00 -0.00000000000E+00  0.00000000000E+00  0.93800000000E+00  0.93800000000E+00 0. -1.
         11    1    1    2    0    0 -0.11268183412E+00 -0.20169886608E-01  0.14047484126E+01  0.14094049751E+01  0.51100000000E-03 0.  1.
    9000002    1    1    2    0    0  0.31838459625E+00  0.55105972342E-01  0.69807352349E-01  0.99454637185E+00  0.93800000000E+00 0. -1.
         22    1    1    2    0    0 -0.20570276214E+00 -0.34936085734E-01  0.25254442024E+01  0.25340486530E+01  0.00000000000E+00 0.  1.
</event>
<event>
 5    1  0.3368139E+002  0.1599655E+01  0.7818608E-02  0.3353738E+00
         11   -1    0    0    0    0  0.00000000000E+00  0.00000000000E+00  0.39999999674E+01  0.40000000000E+01  0.51100000000E-03 0. -1.
    9000002   -1    0    0    0    0 -0.00000000000E+00 -0.00000000000E+00  0.00000000000E+00  0.93800000000E+00  0.93800000000E+00 0. -1.
         11    1    1    2    0    0 -0.38767013284E+00  0.91277637222E-01  0.21893996707E+01  0.22253293955E+01  0.51100000000E-03 0. -1.
    9000002    1    1    2    0    0  0.64410203613E+00 -0.15621395290E+00  0.31095938420E+00  0.11898781327E+01  0.93800000000E+00 0. -1.
         22    1    1    2    0    0 -0.25643190329E+00  0.64936315683E-01  0.14996409124E+01  0.15227924719E+01  0.00000000000E+00 0. -1.
</event>
<event>
 5    1  0.3368139E+002  0.1599676E+01  0.7818608E-02  0.3353715E+00
         11   -1    0    0    0    0  0.00000000000E+00  0.00000000000E+00  0.39999999674E+01  0.40000000000E+01  0.51100000000E-03 0.  1.
    9000002   -1    0    0    0    0 -0.00000000000E+00 -0.00000000000E+00  0.00000000000E+00  0.93800000000E+00  0.93800000000E+00 0. -1.
         11    1    1    2    0    0  0.81602461204E-01  0.39218515792E-01  0.69690272307E+00  0.70275936151E+00  0.51100000000E-03 0.  1.
    9000002    1    1    2    0    0 -0.45207195572E+00 -0.21729847334E+00  0.17227256029E+00  0.10775479176E+01  0.93800000000E+00 0. -1.
         22    1    1    2    0    0  0.37046949452E+00  0.17807995755E+00  0.31308246840E+01  0.31576927209E+01  0.00000000000E+00 0.  1.
</event>
<event>
 5    1  0.3368139E+002  0.1588455E+01  0.7818608E-02  0.3365990E+00
         11   -1    0    0    0    0  0.00000000000E+00  0.00000000000E+00  0.39999999674E+01  0.40000000000E+01  0.51100000000E-03 0. -1.
    9000002   -1    0    0    0    0 -0.00000000000E+00 -0.00000000000E+00  0.00000000000E+00  0.93800000000E+00  0.93800000000E+00 0.  1.
         11    1    1    2    0    0  0.11789125102E-01 -0.70585282959E-01  0.61406607964E+00  0.61822219058E+00  0.51100000000E-03 0. -1.
    9000002    1    1    2    0    0 -0.25970757706E+00 -0.11118887824E+00  0.61915883379E-01  0.98157453555E+00  0.93800000000E+00 0.  1.
         22    1    1    2    0    0  0.24791845195E+00  0.18177416120E+00  0.33240180043E+01  0.33382032739E+01  0.00000000000E+00 0. -1.
</event>
<event>
 5    1  0.4397779E+002  0.1570416E+01  0.7818608E-02  0.3386112E+00
         11   -1    0    0    0    0  0.00000000000E+00  0.00000000000E+00  0.39999999674E+01  0.40000000000E+01  0.51100000000E-03 0.  1.
    9000002   -1    0    0    0    0 -0.00000000000E+00 -0.00000000000E+00  0.00000000000E+00  0.93800000000E+00  0.93800000000E+00 0.  1.
         11    1    1    2    0    0 -0.19745764564E+00 -0.44638828569E-01  0.17042820014E+01  0.17162632515E+01  0.51100000000E-03 0.  1.
    9000002    1    1    2    0    0 -0.14612284046E-01  0.96660405084E-01  0.27964522422E-01  0.94349497469E+00  0.93800000000E+00 0.  1.
         22    1    1    2    0    0  0.21206992969E+00 -0.52021576515E-01  0.22677534435E+01  0.22782417738E+01  0.00000000000E+00 0.  1.
</event>
<event>
 5    1  0.3368139E+002  0.1597630E+01  0.7818608E-02  0.3355940E+00
         11   -1    0    0    0    0  0.00000000000E+00  0.00000000000E+00  0.39999999674E+01  0.40000000000E+01  0.51100000000E-03 0.  1.
    9000002   -1    0    0    0    0 -0.00000000000E+00 -0.00000000000E+00  0.00000000000E+00  0.93800000000E+00  0.93800000000E+00 0.  1.
         11    1    1    2    0    0  0.72458386168E-01  0.51626562747E-01  0.60893915848E+00  0.61540448451E+00  0.51100000000E-03 0.  1.
    9000002    1    1    2    0    0 -0.20983467240E+00 -0.34677053176E+00  0.11259815747E+00  0.10280091130E+01  0.93800000000E+00 0.  1.
         22    1    1    2    0    0  0.13737628623E+00  0.29514396901E+00  0.32784626514E+01  0.32945864024E+01  0.00000000000E+00 0.  1.
</event>
<event>
 5    1  0.3368139E+002  0.1591715E+01  0.7818608E-02  0.3362405E+00
         11   -1    0    0    0    0  0.00000000000E+00  0.00000000000E+00  0.39999999674E+01  0.40000000000E+01  0.51100000000E-03 0. -1.
    9000002   -1    0    0    0    0 -0.00000000000E+00 -0.00000000000E+00  0.00000000000E+00  0.93800000000E+00  0.93800000000E+00 0.  1.
         11    1    1    2    0    0  0.32466599736E+00  0.33860146369E+00  0.21961887652E+01  0.22457302408E+01  0.51100000000E-03 0. -1.
    9000002    1    1    2    0    0 -0.36949101213E+00 -0.54042902077E+00  0.31124869217E+00  0.11854564028E+01  0.93800000000E+00 0.  1.
         22    1    1    2    0    0  0.44825014770E-01  0.20182755708E+00  0.14925625100E+01  0.15068133564E+01  0.00000000000E+00 0.  1.
</event>
<event>
 5    1  0.3368139E+002  0.1510477E+01  0.7818608E-02  0.3456654E+00
         11   -1    0    0    0    0  0.00000000000E+00  0.00000000000E+00  0.39999999674E+01  0.40000000000E+01  0.51100000000E-03 0. -1.
    9000002   -1    0    0    0    0 -0.00000000000E+00 -0.00000000000E+00  0.00000000000E+00  0.93800000000E+00  0.93800000000E+00 0. -1.
         11    1    1    2    0    0 -0.39065780064E+00  0.15806776711E+00  0.13929231650E+01  0.14552780287E+01  0.51100000000E-03 0. -1.
    9000002    1    1    2    0    0  0.19877086879E+00 -0.69343836672E-01  0.99745951741E-01  0.96649453224E+00  0.93800000000E+00 0. -1.
         22    1    1    2    0    0  0.19188693185E+00 -0.88723930434E-01  0.25073308506E+01  0.25162274390E+01  0.00000000000E+00 0. -1.
</event>
<event>
 5    1  0.3368139E+002  0.1578830E+01  0.7818608E-02  0.3376666E+00
         11   -1    0    0    0    0  0.00000000000E+00  0.00000000000E+00  0.39999999674E+01  0.40000000000E+01  0.51100000000E-03 0. -1.
    9000002   -1    0    0    0    0 -0.00000000000E+00 -0.00000000000E+00  0.00000000000E+00  0.93800000000E+00  0.93800000000E+00 0.  1.
         11    1    1    2    0    0 -0.35420404571E-01  0.13822818265E+00  0.12792514701E+01  0.12871853870E+01  0.51100000000E-03 0. -1.
    9000002    1    1    2    0    0  0.29426296209E+00  0.39834707790E-01  0.75280879674E-01  0.98675665979E+00  0.93800000000E+00 0.  1.
         22    1    1    2    0    0 -0.25884255752E+00 -0.17806289044E+00  0.26454676176E+01  0.26640579533E+01  0.00000000000E+00 0. -1.
</event>
<event>
 5    1  0.3368139E+002  0.1599671E+01  0.7818608E-02  0.3353720E+00
         11   -1    0    0    0    0  0.00000000000E+00  0.00000000000E+00  0.39999999674E+01  0.40000000000E+01  0.51100000000E-03 0.  1.
    9000002   -1    0    0    0    0 -0.00000000000E+00 -0.00000000000E+00  0.00000000000E+00  0.93800000000E+00  0.93800000000E+00 0. -1.
         11    1    1    2    0    0  0.65968975107E-02 -0.24971385085E-02  0.12251216641E+00  0.12271612281E+00  0.51100000000E-03 0.  1.
    9000002    1    1    2    0    0 -0.21792168125E+00  0.52276926337E-01  0.33304459898E-01  0.96497457129E+00  0.93800000000E+00 0. -1.
         22    1    1    2    0    0  0.21132478374E+00 -0.49779787828E-01  0.38441833411E+01  0.38503093059E+01  0.00000000000E+00 0.  1.
</event>
<event>
 5    1  0.3368139E+002  0.1599488E+01  0.7818608E-02  0.3353919E+00
         11   -1    0    0    0    0  0.00000000000E+00  0.00000000000E+00  0.39999999674E+01  0.40000000000E+01  0.51100000000E-03 0.  1.
    9000002   -1    0    0    0    0 -0.00000000000E+00 -0.00000000000E+00  0.00000000000E+00  0.93800000000E+00  0.93800000000E+00 0.  1.
         11    1    1    2    0    0 -0.25532595176E-01  0.89881175864E-03  0.46982062857E+00  0.47051504272E+00  0.51100000000E-03 0.  1.
    9000002    1    1    2    0    0  0.22164128297E+00 -0.97410794765E-01  0.39057080394E-01  0.96952729553E+00  0.93800000000E+00 0.  1.
         22    1    1    2    0    0 -0.19610868779E+00  0.96511983007E-01  0.34911222584E+01  0.34979576617E+01  0.00000000000E+00 0.  1.
</event>
<event>
 5    1  0.3368139E+002  0.1587989E+01  0.7818608E-02  0.3366504E+00
         11   -1    0    0    0    0  0.00000000000E+00  0.00000000000E+00  0.39999999674E+01  0.40000000000E+01  0.51100000000E-03 0. -1.
    9000002   -1    0    0    0    0 -0.00000000000E+00 -0.00000000000E+00  0.00000000000E+00  0.93800000000E+00  0.93800000000E+00 0. -1.
         11    1    1    2    0    0 -0.13186579228E-01  0.16459384106E+00  0.25448631035E+01  0.25502144018E+01  0.51100000000E-03 0. -1.
    9000002    1    1    2    0    0  0.21022704525E+00 -0.22439944554E+00  0.72362301742E-01  0.98976301427E+00  0.93800000000E+00 0. -1.
         22    1    1    2    0    0 -0.19704046602E+00  0.59805604477E-01  0.13827745621E+01  0.13980225839E+01  0.00000000000E+00 0. -1.
</event>
<event>
 5    1  0.3368139E+002  0.1590954E+01  0.7818608E-02  0.3363241E+00
         11   -1    0    0    0    0  0.00000000000E+00  0.00000000000E+00  0.39999999674E+01  0.40000000000E+01  0.51100000000E-03 0. -1.
    9000002   -1    0    0    0    0 -0.00000000000E+00 -0.00000000000E+00  0.00000000000E+00  0.93800000000E+00  0.93800000000E+00 0.  1.
         11    1    1    2    0    0 -0.74941392283E-01 -0.82010407145E-01  0.46011207740E+00  0.47333424136E+00  0.51100000000E-03 0. -1.
    9000002    1    1    2    0    0  0.20074734309E+00  0.25551582593E+00  0.77563590740E-01  0.99571479032E+00  0.93800000000E+00 0.  1.
         22    1    1    2    0    0 -0.12580595081E+00 -0.17350541878E+00  0.34623242992E+01  0.34689509683E+01  0.00000000000E+00 0. -1.
</event>
<event>
 5    1  0.3368139E+002  0.1599642E+01  0.7818608E-02  0.3353752E+00
         11   -1    0    0    0    0  0.00000000000E+00  0.00000000000E+00  0.39999999674E+01  0.40000000000E+01  0.51100000000E-03 0.  1.
    9000002   -1    0    0    0    0 -0.00000000000E+00 -0.00000000000E+00  0.00000000000E+00  0.93800000000E+00  0.93800000000E+00 0.  1.
         11    1    1    2    0    0 -0.26009660418E+00 -0.12542729424E+00  0.22005271301E+01  0.22193922954E+01  0.51100000000E-03 0.  1.
    9000002    1    1    2    0    0  0.45016489748E+00  0.20650112846E+00  0.16781414104E+00  0.10739165409E+01  0.93800000000E+00 0.  1.
         22    1    1    2    0    0 -0.19006829331E+00 -0.81073834214E-01  0.16316586963E+01  0.16446911637E+01  0.00000000000E+00 0.  1.
</event>
<event>
 5    1  0.3368139E+002  0.1597706E+01  0.7818608E-02  0.3355856E+00
         11   -1    0    0    0    0  0.00000000000E+00  0.00000000000E+00  0.39999999674E+01  0.40000000000E+01  0.51100000000E-03 0.  1.
    9000002   -1    0    0    0    0 -0.00000000000E+00 -0.00000000000E+00  0.00000000000E+00  0.93800000000E+00  0.93800000000E+00 0.  1.
         11    1    1    2    0    0  0.86800866204E-01 -0.53482323593E-01  0.12319486393E+01  0.12361603700E+01  0.51100000000E-03 0.  1.
    9000002    1    1    2    0    0 -0.17931120089E+00  0.29473120168E+00  0.81343186047E-01  0.10027361078E+01  0.93800000000E+00 0.  1.
         22    1    1    2    0    0  0.92510334685E-01 -0.24124887809E+00  0.26867081420E+01  0.26991035222E+01  0.00000000000E+00 0.  1.
</event>
<event>
 5    1  0.3368139E+002  0.1599670E+01  0.7818608E-02  0.3353721E+00
         11   -1    0    0    0    0  0.00000000000E+00  0.00000000000E+00  0.39999999674E+01  0.40000000000E+01  0.51100000000E-03 0. -1.
    9000002   -1    0    0    0    0 -0.00000000000E+00 -0.00000000000E+00  0.00000000000E+00  0.93800000000E+00  0.93800000000E+00 0. -1.
         11    1    1    2    0    0  0.25847608946E-02  0.26123694935E-01  0.13160337336E+00  0.13419700976E+00  0.51100000000E-03 0. -1.
    9000002    1    1    2    0    0 -0.65765709840E-01 -0.69559844661E+00  0.34877723283E+00  0.12205211533E+01  0.93800000000E+00 0. -1.
         22    1    1    2    0    0  0.63180948945E-01  0.66947475167E+00  0.35196193612E+01  0.35832818369E+01  0.00000000000E+00 0. -1.
</event>
<event>
 5    1  0.3368139E+002  0.1599676E+01  0.7818608E-02  0.3353715E+00
         11   -1    0    0    0    0  0.00000000000E+00  0.00000000000E+00  0.39999999674E+01  0.40000000000E+01  0.51100000000E-03 0. -1.
    9000002   -1    0    0    0    0 -0.00000000000E+00 -0.00000000000E+00  0.00000000000E+00  0.93800000000E+00  0.93800000000E+00 0. -1.
         11    1    1    2    0    0  0.14295491428E+00 -0.77336297950E-01  0.15133925077E+01  0.15220953170E+01  0.51100000000E-03 0. -1.
    9000002    1    1    2    0    0 -0.36751609601E+00  0.20114860507E+00  0.11869500603E+00  0.10341476426E+01  0.93800000000E+00 0. -1.
         22    1    1    2    0    0  0.22456118173E+00 -0.12381230712E+00  0.23679124537E+01  0.23817570405E+01  0.00000000000E+00 0. -1.
</event>
<event>
 5    1  0.3368139E+002  0.1599670E+01  0.7818608E-02  0.3353721E+00
         11   -1    0    0    0    0  0.00000000000E+00  0.00000000000E+00  0.39999999674E+01  0.40000000000E+01  0.51100000000E-03 0. -1.
    9000002   -1    0    0    0    0 -0.00000000000E+00 -0.00000000000E+00  0.00000000000E+00  0.93800000000E+00  0.93800000000E+00 0. -1.
         11    1    1    2    0    0  0.16500546209E-01  0.62780362944E-01  0.66201502274E+00  0.66519004311E+00  0.51100000000E-03 0. -1.
    9000002    1    1    2    0    0 -0.95138962552E-01 -0.35705022212E+00  0.91757870425E-01  0.10123239551E+01  0.93800000000E+00 0. -1.
         22    1    1    2    0    0  0.78638416343E-01  0.29426985918E+00  0.32462270742E+01  0.32604860018E+01  0.00000000000E+00 0. -1.
</event>
<event>
 5    1  0.3368139E+002  0.1538929E+01  0.7818608E-02  0.3422437E+00
         11   -1    0    0    0    0  0.00000000000E+00  0.00000000000E+00  0.39999999674E+01  0.40000000000E+01  0.51100000000E-03 0. -1.
    9000002   -1    0    0    0    0 -0.00000000000E+00 -0.00000000000E+00  0.00000000000E+00  0.93800000000E+00  0.93800000000E+00 0. -1.
         11    1    1    2    0    0  0.43310222765E+00  0.71893176882E-01  0.26782699365E+01  0.27140147903E+01  0.51100000000E-03 0. -1.
    9000002    1    1    2    0    0 -0.77843967763E+00 -0.31576799873E+00  0.61710680213E+00  0.14022633725E+01  0.93800000000E+00 0. -1.
         22    1    1    2    0    0  0.34533744998E+00  0.24387482185E+00  0.70462322877E+00  0.82172183712E+00  0.00000000000E+00 0.  1.
</event>
<event>
 5    1  0.3368139E+002  0.1599677E+01  0.7818608E-02  0.3353714E+00
         11   -1    0    0    0    0  0.00000000000E+00  0.00000000000E+00  0.39999999674E+01  0.40000000000E+01  0.51100000000E-03 0. -1.
    9000002   -1    0    0    0    0 -0.00000000000E+00 -0.00000000000E+00  0.00000000000E+00  0.93800000000E+00  0.93800000000E+00 0.  1.
         11    1    1    2    0    0 -0.28827033432E+00 -0.13423934671E+00  0.21981752629E+01  0.22210571212E+01  0.51100000000E-03 0. -1.
    9000002    1    1    2    0    0  0.49654036386E+00  0.23094092905E+00  0.20703842497E+00  0.11057101587E+01  0.93800000000E+00 0.  1.
         22    1    1    2    0    0 -0.20827002954E+00 -0.96701582334E-01  0.15947862795E+01  0.16112327201E+01  0.00000000000E+00 0. -1.
</event>
<event>
 5    1  0.3368139E+002  0.1599057E+01  0.7818608E-02  0.3354388E+00
         11   -1    0    0    0    0  0.00000000000E+00  0.00000000000E+00  0.39999999674E+01  0.40000000000E+01  0.51100000000E-03 0. -1.
    9000002   -1    0    0    0    0 -0.00000000000E+00 -0.00000000000E+00  0.00000000000E+00  0.93800000000E+00  0.93800000000E+00 0. -1.
         11    1    1    2    0    0 -0.71583988779E+00 -0.43862927535E+00  0.24337891765E+01  0.25745198393E+01  0.51100000000E-03 0. -1.
    9000002    1    1    2    0    0  0.88173599297E+00  0.55196265005E+00  0.89352285611E+00  0.16614295720E+01  0.93800000000E+00 0. -1.
         22    1    1    2    0    0 -0.16589610518E+00 -0.11333337471E+00  0.67268793470E+00  0.70205058866E+00  0.00000000000E+00 0. -1.
</event>
<event>
 5    1  0.3368139E+002  0.1599668E+01  0.7818608E-02  0.3353723E+00
         11   -1    0    0    0    0  0.00000000000E+00  0.00000000000E+00  0.39999999674E+01  0.40000000000E+01  0.51100000000E-03 0. -1.
    9000002   -1    0    0    0    0 -0.00000000000E+00 -0.00000000000E+00  0.00000000000E+00  0.93800000000E+00  0.93800000000E+00 0. -1.
         11    1    1    2    0    0  0.60288731945E-02 -0.18545771345E-02  0.71178507286E-01  0.71459273637E-01  0.51100000000E-03 0.  1.
    9000002    1    1    2    0    0 -0.36975997740E+00  0.12168487143E+00  0.10207838436E+00  0.10206829309E+01  0.93800000000E+00 0. -1.
         22    1    1    2    0    0  0.36373110421E+00 -0.11983029430E+00  0.38267430757E+01  0.38458577955E+01  0.00000000000E+00 0. -1.
</event>
<event>
 5    1  0.3368139E+002  0.1599675E+01  0.7818608E-02  0.3353716E+00
         11   -1    0    0    0    0  0.00000000000E+00  0.00000000000E+00  0.39999999674E+01  0.40000000000E+01  0.51100000000E-03 0. -1.
    9000002   -1    0    0    0    0 -0.00000000000E+00 -0.00000000000E+00  0.00000000000E+00  0.93800000000E+00  0.93800000000E+00 0. -1.
         11    1    1    2    0    0 -0.22606162605E+00  0.14716990918E+00  0.14980200089E+01  0.15221126926E+01  0.51100000000E-03 0. -1.
    9000002    1    1    2    0    0  0.55421660495E+00 -0.36571681396E+00  0.31219042150E+00  0.11908869352E+01  0.93800000000E+00 0. -1.
         22    1    1    2    0    0 -0.32815497891E+00  0.21854690478E+00  0.21897895370E+01  0.22250003721E+01  0.00000000000E+00 0. -1.
</event>
<event>
 5    1  0.3368139E+002  0.1599508E+01  0.7818608E-02  0.3353898E+00
         11   -1    0    0    0    0  0.00000000000E+00  0.00000000000E+00  0.39999999674E+01  0.40000000000E+01  0.51100000000E-03 0. -1.
    9000002   -1    0    0    0    0 -0.00000000000E+00 -0.00000000000E+00  0.00000000000E+00  0.93800000000E+00  0.93800000000E+00 0. -1.
         11    1    1    2    0    0  0.28141121836E-01  0.50822208750E-01  0.60515681933E+00  0.60793902387E+00  0.51100000000E-03 0. -1.
    9000002    1    1    2    0    0 -0.11226645038E+00 -0.35097807562E+00  0.91377509917E-01  0.10119205575E+01  0.93800000000E+00 0. -1.
         22    1    1    2    0    0  0.84125328542E-01  0.30015586687E+00  0.33034656381E+01  0.33181404186E+01  0.00000000000E+00 0. -1.
</event>
<event>
 5    1  0.3368139E+002  0.1599649E+01  0.7818608E-02  0.3353745E+00
         11   -1    0    0    0    0  0.00000000000E+00  0.00000000000E+00  0.39999999674E+01  0.40000000000E+01  0.51100000000E-03 0. -1.
    9000002   -1    0    0    0    0 -0.00000000000E+00 -0.00000000000E+00  0.00000000000E+00  0.93800000000E+00  0.93800000000E+00 0. -1.
         11    1    1    2    0    0  0.22221398346E+00  0.61543867277E-01  0.15806733772E+01  0.15974026695E+01  0.51100000000E-03 0. -1.
    9000002    1    1    2    0    0 -0.53833219529E+00 -0.16089287486E+00  0.21857185621E+00  0.11150361994E+01  0.93800000000E+00 0. -1.
         22    1    1    2    0    0  0.31611821183E+00  0.99349007586E-01  0.22007547339E+01  0.22255611311E+01  0.00000000000E+00 0. -1.
</event>
<event>
 5    1  0.3368139E+002  0.1599460E+01  0.7818608E-02  0.3353950E+00
         11   -1    0    0    0    0  0.00000000000E+00  0.00000000000E+00  0.39999999674E+01  0.40000000000E+01  0.51100000000E-03 0.  1.
    9000002   -1    0    0    0    0 -0.00000000000E+00 -0.00000000000E+00  0.00000000000E+00  0.93800000000E+00  0.93800000000E+00 0. -1.
         11    1    1    2    0    0 -0.76183504512E-01  0.17761663393E+00  0.15381428918E+01  0.15502372114E+01  0.51100000000E-03 0.  1.
    9000002    1    1    2    0    0  0.18855958946E+00 -0.40258044422E+00  0.13430420657E+00  0.10466648713E+01  0.93800000000E+00 0. -1.
         22    1    1    2    0    0 -0.11237608495E+00  0.22496381029E+00  0.23275528690E+01  0.23410979173E+01  0.00000000000E+00 0.  1.
</event>
<event>
 5    1  0.3368139E+002  0.1599676E+01  0.7818608E-02  0.3353715E+00
         11   -1    0    0    0    0  0.00000000000E+00  0.00000000000E+00  0.39999999674E+01  0.40000000000E+01  0.51100000000E-03 0. -1.
    9000002   -1    0    0    0    0 -0.00000000000E+00 -0.00000000000E+00  0.00000000000E+00  0.93800000000E+00  0.93800000000E+00 0. -1.
         11    1    1    2    0    0  0.16529156948E+00  0.19212679091E+00  0.16095432534E+01  0.16293752644E+01  0.51100000000E-03 0. -1.
    9000002    1    1    2    0    0 -0.38674388657E+00 -0.44607038083E+00  0.24268960693E+00  0.11345888523E+01  0.93800000000E+00 0. -1.
         22    1    1    2    0    0  0.22145231709E+00  0.25394358992E+00  0.21477671071E+01  0.21740358833E+01  0.00000000000E+00 0. -1.
</event>
<event>
 5    1  0.3368139E+002  0.1599030E+01  0.7818608E-02  0.3354417E+00
         11   -1    0    0    0    0  0.00000000000E+00  0.00000000000E+00  0.39999999674E+01  0.40000000000E+01  0.51100000000E-03 0.  1.
    9000002   -1    0    0    0    0 -0.00000000000E+00 -0.00000000000E+00  0.00000000000E+00  0.93800000000E+00  0.93800000000E+00 0.  1.
         11    1    1    2    0    0  0.81828021661E-01 -0.35842511441E-01  0.68791149395E+00  0.69368796687E+00  0.51100000000E-03 0.  1.
    9000002    1    1    2    0    0 -0.33531453041E+00  0.17088751662E+00  0.95788280581E-01  0.10152131660E+01  0.93800000000E+00 0.  1.
         22    1    1    2    0    0  0.25348650875E+00 -0.13504500518E+00  0.32163001928E+01  0.32290988672E+01  0.00000000000E+00 0.  1.
</event>
<event>
 5    1  0.3368139E+002  0.1599676E+01  0.7818608E-02  0.3353715E+00
         11   -1    0    0    0    0  0.00000000000E+00  0.00000000000E+00  0.39999999674E+01  0.40000000000E+01  0.51100000000E-03 0.  1.
    9000002   -1    0    0    0    0 -0.00000000000E+00 -0.00000000000E+00  0.00000000000E+00  0.93800000000E+00  0.93800000000E+00 0.  1.
         11    1    1    2    0    0 -0.11992002854E+00 -0.74981435384E-01  0.15052138375E+01  0.15118439028E+01  0.51100000000E-03 0.  1.
    9000002    1    1    2    0    0  0.31352492355E+00  0.19564846799E+00  0.91780252364E-01  0.10123456996E+01  0.93800000000E+00 0.  1.
         22    1    1    2    0    0 -0.19360489501E+00 -0.12066703260E+00  0.24030058775E+01  0.24138103976E+01  0.00000000000E+00 0.  1.
</event>
<event>
 5    1  0.3368139E+002  0.1599677E+01  0.7818608E-02  0.3353714E+00
         11   -1    0    0    0    0  0.00000000000E+00  0.00000000000E+00  0.39999999674E+01  0.40000000000E+01  0.51100000000E-03 0. -1.
    9000002   -1    0    0    0    0 -0.00000000000E+00 -0.00000000000E+00  0.00000000000E+00  0.93800000000E+00  0.93800000000E+00 0. -1.
         11    1    1    2    0    0 -0.18952534266E+00 -0.20545117739E+00  0.16199329025E+01  0.16438713184E+01  0.51100000000E-03 0. -1.
    9000002    1    1    2    0    0  0.43523444752E+00  0.47105606753E+00  0.28965348725E+00  0.11726320760E+01  0.93800000000E+00 0. -1.
         22    1    1    2    0    0 -0.24570910486E+00 -0.26560489014E+00  0.20904135776E+01  0.21214966056E+01  0.00000000000E+00 0. -1.
</event>
<event>
 5    1  0.3368139E+002  0.1599676E+01  0.7818608E-02  0.3353715E+00
         11   -1    0    0    0    0  0.00000000000E+00  0.00000000000E+00  0.39999999674E+01  0.40000000000E+01  0.51100000000E-03 0.  1.
    9000002   -1    0    0    0    0 -0.00000000000E+00 -0.00000000000E+00  0.00000000000E+00  0.93800000000E+00  0.93800000000E+00 0. -1.
         11    1    1    2    0    0  0.18997069698E-01  0.52067183894E-01  0.83453737022E+00  0.83637597031E+00  0.51100000000E-03 0.  1.
    9000002    1    1    2    0    0 -0.90256311697E-01 -0.24969228397E+00  0.46885296958E-01  0.97597882638E+00  0.93800000000E+00 0. -1.
         22    1    1    2    0    0  0.71259241999E-01  0.19762510008E+00  0.31185773002E+01  0.31256452033E+01  0.00000000000E+00 0.  1.
</event>
<event>
 5    1  0.3368139E+002  0.1599359E+01  0.7818608E-02  0.3354059E+00
         11   -1    0    0    0    0  0.00000000000E+00  0.00000000000E+00  0.39999999674E+01  0.40000000000E+01  0.51100000000E-03 0. -1.
    9000002   -1    0    0    0    0 -0.00000000000E+00 -0.00000000000E+00  0.00000000000E+00  0.93800000000E+00  0.93800000000E+00 0.  1.
         11    1    1    2    0    0  0.17642472651E-01 -0.12479346776E-01  0.50302877487E+00  0.50349299936E+00  0.51100000000E-03 0. -1.
    9000002    1    1    2    0    0 -0.18920745035E+00  0.19828095074E+00  0.50240163349E-01  0.97851053582E+00  0.93800000000E+00 0.  1.
         22    1    1    2    0    0  0.17156497770E+00 -0.18580160397E+00  0.34467310291E+01  0.34559964648E+01  0.00000000000E+00 0. -1.
</event>
<event>
 5    1  0.3368139E+002  0.1596991E+01  0.7818608E-02  0.3356636E+00
         11   -1    0    0    0    0  0.00000000000E+00  0.00000000000E+00  0.39999999674E+01  0.40000000000E+01  0.51100000000E-03 0.  1.
    9000002   -1    0    0    0    0 -0.00000000000E+00 -0.00000000000E+00  0.00000000000E+00  0.93800000000E+00  0.93800000000E+00 0. -1.
         11    1    1    2    0    0  0.10701047633E-01  0.20920076097E-01  0.21327261262E+00  0.21456381433E+00  0.51100000000E-03 0.  1.
    9000002    1    1    2    0    0  0.20372560175E+00 -0.54894887352E-01  0.31515248342E-01  0.96195362692E+00  0.93800000000E+00 0. -1.
         22    1    1    2    0    0 -0.21442664938E+00  0.33974811254E-01  0.37552121064E+01  0.37614825588E+01  0.00000000000E+00 0.  1.
</event>
<event>
 5    1  0.3368139E+002  0.1579984E+01  0.7818608E-02  0.3375379E+00
         11   -1    0    0    0    0  0.00000000000E+00  0.00000000000E+00  0.39999999674E+01  0.40000000000E+01  0.51100000000E-03 0. -1.
    9000002   -1    0    0    0    0 -0.00000000000E+00 -0.00000000000E+00  0.00000000000E+00  0.93800000000E+00  0.93800000000E+00 0. -1.
         11    1    1    2    0    0 -0.73174804337E-01  0.60948810775E-01  0.93156410850E+00  0.93641938195E+00  0.51100000000E-03 0. -1.
    9000002    1    1    2    0    0 -0.21122420689E+00  0.53896119187E-01  0.46499892622E-01  0.96411964883E+00  0.93800000000E+00 0. -1.
         22    1    1    2    0    0  0.28439901122E+00 -0.11484492996E+00  0.30219359662E+01  0.30374609692E+01  0.00000000000E+00 0. -1.
</event>
<event>
 5    1  0.4316253E+002  0.1587999E+01  0.7818608E-02  0.3366492E+00
         11   -1    0    0    0    0  0.00000000000E+00  0.00000000000E+00  0.39999999674E+01  0.40000000000E+01  0.51100000000E-03 0. -1.
    9000002   -1    0    0    0    0 -0.00000000000E+00 -0.00000000000E+00  0.00000000000E+00  0.93800000000E+00  0.93800000000E+00 0. -1.
         11    1    1    2    0    0 -0.48720541580E-01 -0.24125518617E-01  0.19643926644E+01  0.19651449139E+01  0.51100000000E-03 0. -1.
    9000002    1    1    2    0    0 -0.96237591712E-01 -0.12823871518E+00  0.25675219757E-01  0.95195065998E+00  0.93800000000E+00 0. -1.
         22    1    1    2    0    0  0.14495813329E+00  0.15236423380E+00  0.20099320832E+01  0.20209044261E+01  0.00000000000E+00 0. -1.
</event>
<event>
 5    1  0.3368139E+002  0.1599624E+01  0.7818608E-02  0.3353772E+00
         11   -1    0    0    0    0  0.00000000000E+00  0.00000000000E+00  0.39999999674E+01  0.40000000000E+01  0.51100000000E-03 0. -1.
    9000002   -1    0    0    0    0 -0.00000000000E+00 -0.00000000000E+00  0.00000000000E+00  0.93800000000E+00  0.93800000000E+00 0. -1.
         11    1    1    2    0    0 -0.38244599831E-02 -0.14144861050E-01  0.25744694966E+00  0.25786410491E+00  0.51100000000E-03 0. -1.
    9000002    1    1    2    0    0  0.37265129448E-02  0.25422496238E+00  0.42997393072E-01  0.97279853732E+00  0.93800000000E+00 0. -1.
         22    1    1    2    0    0  0.97947038340E-04 -0.24008010133E+00  0.36995556246E+01  0.37073373578E+01  0.00000000000E+00 0. -1.
</event>
<event>
 5    1  0.3368139E+002  0.1599053E+01  0.7818608E-02  0.3354391E+00
         11   -1    0    0    0    0  0.00000000000E+00  0.00000000000E+00  0.39999999674E+01  0.40000000000E+01  0.51100000000E-03 0. -1.
    9000002   -1    0    0    0    0 -0.00000000000E+00 -0.00000000000E+00  0.00000000000E+00  0.93800000000E+00  0.93800000000E+00 0. -1.
         11    1    1    2    0    0  0.50015094830E-01  0.27612539910E+00  0.17802604289E+01  0.18022414382E+01  0.51100000000E-03 0. -1.
    9000002    1    1    2    0    0 -0.10551191737E+00 -0.52503518485E+00  0.19813595193E+00  0.10981332185E+01  0.93800000000E+00 0. -1.
         22    1    1    2    0    0  0.55496822539E-01  0.24890978574E+00  0.20216035865E+01  0.20376253433E+01  0.00000000000E+00 0. -1.
</event>
<event>
 5    1  0.3368139E+002  0.1598655E+01  0.7818608E-02  0.3354824E+00
         11   -1    0    0    0    0  0.00000000000E+00  0.00000000000E+00  0.39999999674E+01  0.40000000000E+01  0.51100000000E-03 0. -1.
    9000002   -1    0    0    0    0 -0.00000000000E+00 -0.00000000000E+00  0.00000000000E+00  0.93800000000E+00  0.93800000000E+00 0.  1.
         11    1    1    2    0    0 -0.10013043249E-01  0.20143003908E-01  0.52926569293E+00  0.52974374605E+00  0.51100000000E-03 0. -1.
    9000002    1    1    2    0    0 -0.11804201715E+00 -0.18490740920E+00  0.32670177065E-01  0.96386514008E+00  0.93800000000E+00 0.  1.
         22    1    1    2    0    0  0.12805506040E+00  0.16476440529E+00  0.34380640974E+01  0.34443911139E+01  0.00000000000E+00 0. -1.
</event>
<event>
 5    1  0.3368139E+002  0.1546409E+01  0.7818608E-02  0.3413665E+00
         11   -1    0    0    0    0  0.00000000000E+00  0.00000000000E+00  0.39999999674E+01  0.40000000000E+01  0.51100000000E-03 0. -1.
    9000002   -1    0    0    0    0 -0.00000000000E+00 -0.00000000000E+00  0.00000000000E+00  0.93800000000E+00  0.93800000000E+00 0. -1.
         11    1    1    2    0    0 -0.44250375636E-01 -0.17880406297E+00  0.12302733433E+01  0.12439862334E+01  0.51100000000E-03 0. -1.
    9000002    1    1    2    0    0 -0.31187231963E+00 -0.11487844257E+00  0.11765621834E+00  0.10020720463E+01  0.93800000000E+00 0. -1.
         22    1    1    2    0    0  0.35612269526E+00  0.29368250554E+00  0.26520704057E+01  0.26919417202E+01  0.00000000000E+00 0. -1.
</event>
<event>
 5    1  0.3368139E+002  0.1599249E+01  0.7818608E-02  0.3354179E+00
         11   -1    0    0    0    0  0.00000000000E+00  0.00000000000E+00  0.39999999674E+01  0.40000000000E+01  0.51100000000E-03 0. -1.
    9000002   -1    0    0    0    0 -0.00000000000E+00 -0.00000000000E+00  0.00000000000E+00  0.93800000000E+00  0.93800000000E+00 0. -1.
         11    1    1    2    0    0 -0.73123503751E-01  0.46886735044E-01  0.85676450147E+00  0.86115682940E+00  0.51100000000E-03 0. -1.
    9000002    1    1    2    0    0  0.34333903016E+00 -0.12047685030E+00  0.89259657311E-01  0.10100532894E+01  0.93800000000E+00 0. -1.
         22    1    1    2    0    0 -0.27021552641E+00  0.73590115254E-01  0.30539758086E+01  0.30667898812E+01  0.00000000000E+00 0. -1.
</event>
<event>
 5    1  0.3368139E+002  0.1599490E+01  0.7818608E-02  0.3353917E+00
         11   -1    0    0    0    0  0.00000000000E+00  0.00000000000E+00  0.39999999674E+01  0.40000000000E+01  0.51100000000E-03 0.  1.
    9000002   -1    0    0    0    0 -0.00000000000E+00 -0.00000000000E+00  0.00000000000E+00  0.93800000000E+00  0.93800000000E+00 0.  1.
         11    1    1    2    0    0  0.34266459119E+00  0.19809407705E+00  0.23282736812E+01  0.23616771331E+01  0.51100000000E-03 0.  1.
    9000002    1    1    2    0    0 -0.52787227617E+00 -0.30528976468E+00  0.26017802473E+00  0.11486459789E+01  0.93800000000E+00 0. -1.
         22    1    1    2    0    0  0.18520768499E+00  0.10719568762E+00  0.14115482614E+01  0.14276768879E+01  0.00000000000E+00 0.  1.
</event>
<event>
 5    1  0.3368139E+002  0.1598864E+01  0.7818608E-02  0.3354597E+00
         11   -1    0    0    0    0  0.00000000000E+00  0.00000000000E+00  0.39999999674E+01  0.40000000000E+01  0.51100000000E-03 0. -1.
    9000002   -1    0    0    0    0 -0.00000000000E+00 -0.00000000000E+00  0.00000000000E+00  0.93800000000E+00  0.93800000000E+00 0.  1.
         11    1    1    2    0    0 -0.17302851708E-02  0.52202687873E-02  0.74057875574E-01  0.74263551951E-01  0.51100000000E-03 0. -1.
    9000002    1    1    2    0    0  0.66320762479E-01  0.21641955660E+00  0.34592319575E-01  0.96554466318E+00  0.93800000000E+00 0.  1.
         22    1    1    2    0    0 -0.64590477308E-01 -0.22163982539E+00  0.38913497722E+01  0.38981917849E+01  0.00000000000E+00 0. -1.
</event>
<event>
 5    1  0.3368139E+002  0.1599677E+01  0.7818608E-02  0.3353714E+00
         11   -1    0    0    0    0  0.00000000000E+00  0.00000000000E+00  0.39999999674E+01  0.40000000000E+01  0.51100000000E-03 0. -1.
    9000002   -1    0    0    0    0 -0.00000000000E+00 -0.00000000000E+00  0.00000000000E+00  0.93800000000E+00  0.93800000000E+00 0. -1.
         11    1    1    2    0    0  0.21628472386E-01 -0.13306853474E+00  0.15267258341E+01  0.15326666498E+01  0.51100000000E-03 0. -1.
    9000002    1    1    2    0    0 -0.56033554955E-01  0.34305401180E+00  0.80993809398E-01  0.10036083955E+01  0.93800000000E+00 0. -1.
         22    1    1    2    0    0  0.34405082569E-01 -0.20998547706E+00  0.23922803239E+01  0.24017249548E+01  0.00000000000E+00 0. -1.
</event>
<event>
 5    1  0.3368139E+002  0.1580338E+01  0.7818608E-02  0.3374984E+00
         11   -1    0    0    0    0  0.00000000000E+00  0.00000000000E+00  0.39999999674E+01  0.40000000000E+01  0.51100000000E-03 0. -1.
    9000002   -1    0    0    0    0 -0.00000000000E+00 -0.00000000000E+00  0.00000000000E+00  0.93800000000E+00  0.93800000000E+00 0. -1.
         11    1    1    2    0    0 -0.12067532243E+00 -0.99567895287E-02  0.11718137533E+01  0.11780532265E+01  0.51100000000E-03 0. -1.
    9000002    1    1    2    0    0 -0.59439087606E-01 -0.18578743920E+00  0.39792321068E-01  0.95889384528E+00  0.93800000000E+00 0. -1.
         22    1    1    2    0    0  0.18011441004E+00  0.19574422873E+00  0.27883938930E+01  0.28010529282E+01  0.00000000000E+00 0. -1.
</event>
<event>
 5    1  0.3368139E+002  0.1599650E+01  0.7818608E-02  0.3353743E+00
         11   -1    0    0    0    0  0.00000000000E+00  0.00000000000E+00  0.39999999674E+01  0.40000000000E+01  0.51100000000E-03 0.  1.
    9000002   -1    0    0    0    0 -0.00000000000E+00 -0.00000000000E+00  0.00000000000E+00  0.93800000000E+00  0.93800000000E+00 0.  1.
         11    1    1    2    0    0  0.15607186684E-01 -0.12433347729E+00  0.15342056863E+01  0.15393147003E+01  0.51100000000E-03 0.  1.
    9000002    1    1    2    0    0 -0.29097873872E-01  0.32943445641E+00  0.73206558786E-01  0.99728478760E+00  0.93800000000E+00 0.  1.
         22    1    1    2    0    0  0.13490687188E-01 -0.20510097912E+00  0.23925877223E+01  0.24014005121E+01  0.00000000000E+00 0. -1.
</event>
<event>
 5    1  0.3368139E+002  0.1599443E+01  0.7818608E-02  0.3353969E+00
         11   -1    0    0    0    0  0.00000000000E+00  0.00000000000E+00  0.39999999674E+01  0.40000000000E+01  0.51100000000E-03 0. -1.
    9000002   -1    0    0    0    0 -0.00000000000E+00 -0.00000000000E+00  0.00000000000E+00  0.93800000000E+00  0.93800000000E+00 0.  1.
         11    1    1    2    0    0  0.18602824516E-01 -0.22467211628E-01  0.69516056847E+00  0.69577246120E+00  0.51100000000E-03 0. -1.
    9000002    1    1    2    0    0 -0.13841425820E+00  0.20106400322E+00  0.39742977054E-01  0.97005605224E+00  0.93800000000E+00 0.  1.
         22    1    1    2    0    0  0.11981143368E+00 -0.17859679160E+00  0.32650964218E+01  0.32721714866E+01  0.00000000000E+00 0. -1.
</event>
<event>
 5    1  0.3368139E+002  0.1599576E+01  0.7818608E-02  0.3353824E+00
         11   -1    0    0    0    0  0.00000000000E+00  0.00000000000E+00  0.39999999674E+01  0.40000000000E+01  0.51100000000E-03 0. -1.
    9000002   -1    0    0    0    0 -0.00000000000E+00 -0.00000000000E+00  0.00000000000E+00  0.93800000000E+00  0.93800000000E+00 0.  1.
         11    1    1    2    0    0  0.10786881248E+00  0.91036310268E-01  0.91367773234E+00  0.92451638719E+00  0.51100000000E-03 0. -1.
    9000002    1    1    2    0    0 -0.42895793285E+00 -0.33897584254E+00  0.20642451360E+00  0.11051536589E+01  0.93800000000E+00 0.  1.
         22    1    1    2    0    0  0.32108912037E+00  0.24793953228E+00  0.28798977214E+01  0.29083299539E+01  0.00000000000E+00 0. -1.
</event>
<event>
 5    1  0.3368139E+002  0.1598270E+01  0.7818608E-02  0.3355244E+00
         11   -1    0    0    0    0  0.00000000000E+00  0.00000000000E+00  0.39999999674E+01  0.40000000000E+01  0.51100000000E-03 0. -1.
    9000002   -1    0    0    0    0 -0.00000000000E+00 -0.00000000000E+00  0.00000000000E+00  0.93800000000E+00  0.93800000000E+00 0.  1.
         11    1    1    2    0    0  0.93586938664E-01 -0.24040935403E-01  0.82197831141E+00  0.82763825867E+00  0.51100000000E-03 0. -1.
    9000002    1    1    2    0    0 -0.30656148292E+00  0.10112111754E-01  0.63909361455E-01  0.98894418654E+00  0.93800000000E+00 0.  1.
         22    1    1    2    0    0  0.21297454425E+00  0.13928823649E-01  0.31141122945E+01  0.31214175548E+01  0.00000000000E+00 0. -1.
</event>
<event>
 5    1  0.3368139E+002  0.1597830E+01  0.7818608E-02  0.3355722E+00
         11   -1    0    0    0    0  0.00000000000E+00  0.00000000000E+00  0.39999999674E+01  0.40000000000E+01  0.51100000000E-03 0. -1.
    9000002   -1    0    0    0    0 -0.00000000000E+00 -0.00000000000E+00  0.00000000000E+00  0.93800000000E+00  0.93800000000E+00 0.  1.
         11    1    1    2    0    0  0.69226568259E-02  0.68591279152E-01  0.52487487330E+00  0.52938320760E+00  0.51100000000E-03 0. -1.
    9000002    1    1    2    0    0 -0.26842716321E+00 -0.36066307683E+00  0.13887235176E+00  0.10494096088E+01  0.93800000000E+00 0.  1.
         22    1    1    2    0    0  0.26150450638E+00  0.29207179768E+00  0.33362527423E+01  0.33592071836E+01  0.00000000000E+00 0. -1.
</event>
<event>
 5    1  0.3368139E+002  0.1599656E+01  0.7818608E-02  0.3353737E+00
         11   -1    0    0    0    0  0.00000000000E+00  0.00000000000E+00  0.39999999674E+01  0.40000000000E+01  0.51100000000E-03 0. -1.
    9000002   -1    0    0    0    0 -0.00000000000E+00 -0.00000000000E+00  0.00000000000E+00  0.93800000000E+00  0.93800000000E+00 0. -1.
         11    1    1    2    0    0  0.22304080927E+00  0.16525889003E+00  0.19710843027E+01  0.19905354287E+01  0.51100000000E-03 0. -1.
    9000002    1    1    2    0    0 -0.42427990531E+00 -0.32769488756E+00  0.19801082236E+00  0.10983850250E+01  0.93800000000E+00 0. -1.
         22    1    1    2    0    0  0.20123909604E+00  0.16243599753E+00  0.18309048423E+01  0.18490795463E+01  0.00000000000E+00 0. -1.
</event>
<event>
 5    1  0.3368139E+002  0.1599484E+01  0.7818608E-02  0.3353924E+00
         11   -1    0    0    0    0  0.00000000000E+00  0.00000000000E+00  0.39999999674E+01  0.40000000000E+01  0.51100000000E-03 0.  1.
    9000002   -1    0    0    0    0 -0.00000000000E+00 -0.00000000000E+00  0.00000000000E+00  0.93800000000E+00  0.93800000000E+00 0. -1.
         11    1    1    2    0    0  0.34402245098E-01 -0.82045184793E-01  0.10744375760E+01  0.10781146937E+01  0.51100000000E-03 0.  1.
    9000002    1    1    2    0    0 -0.14674827000E+00  0.25040457576E+00  0.56296150785E-01  0.98348907615E+00  0.93800000000E+00 0. -1.
         22    1    1    2    0    0  0.11234602490E+00 -0.16835939097E+00  0.28692662405E+01  0.28763962302E+01  0.00000000000E+00 0.  1.
</event>
<event>
 5    1  0.3368139E+002  0.1594752E+01  0.7818608E-02  0.3359079E+00
         11   -1    0    0    0    0  0.00000000000E+00  0.00000000000E+00  0.39999999674E+01  0.40000000000E+01  0.51100000000E-03 0. -1.
    9000002   -1    0    0    0    0 -0.00000000000E+00 -0.00000000000E+00  0.00000000000E+00  0.93800000000E+00  0.93800000000E+00 0. -1.
         11    1    1    2    0    0 -0.47441510966E-01 -0.32198174275E-01  0.51348188510E+00  0.51667332700E+00  0.51100000000E-03 0. -1.
    9000002    1    1    2    0    0 -0.69644835800E-01  0.20559757901E+00  0.34951438704E-01  0.96342429423E+00  0.93800000000E+00 0. -1.
         22    1    1    2    0    0  0.11708634677E+00 -0.17339940473E+00  0.34515666436E+01  0.34579023788E+01  0.00000000000E+00 0. -1.
</event>
<event>
 5    1  0.3368139E+002  0.1597673E+01  0.7818608E-02  0.3355893E+00
         11   -1    0    0    0    0  0.00000000000E+00  0.00000000000E+00  0.39999999674E+01  0.40000000000E+01  0.51100000000E-03 0.  1.
    9000002   -1    0    0    0    0 -0.00000000000E+00 -0.00000000000E+00  0.00000000000E+00  0.93800000000E+00  0.93800000000E+00 0. -1.
         11    1    1    2    0    0  0.16267174158E+00 -0.72033672082E-01  0.17416949750E+01  0.17507577196E+01  0.51100000000E-03 0.  1.
    9000002    1    1    2    0    0 -0.42243351984E+00  0.25800966247E+00  0.16938818836E+00  0.10740369747E+01  0.93800000000E+00 0. -1.
         22    1    1    2    0    0  0.25976177825E+00 -0.18597599039E+00  0.20889168040E+01  0.21132053058E+01  0.00000000000E+00 0.  1.
</event>
<event>
 5    1  0.3368139E+002  0.1598820E+01  0.7818608E-02  0.3354645E+00
         11   -1    0    0    0    0  0.00000000000E+00  0.00000000000E+00  0.39999999674E+01  0.40000000000E+01  0.51100000000E-03 0. -1.
    9000002   -1    0    0    0    0 -0.00000000000E+00 -0.00000000000E+00  0.00000000000E+00  0.93800000000E+00  0.93800000000E+00 0. -1.
         11    1    1    2    0    0 -0.80355382808E-01  0.15909636040E-01  0.10986295849E+01  0.11016793227E+01  0.51100000000E-03 0. -1.
    9000002    1    1    2    0    0  0.24273718006E+00 -0.16082061356E+00  0.57182861282E-01  0.98381832060E+00  0.93800000000E+00 0. -1.
         22    1    1    2    0    0 -0.16238179726E+00  0.14491097752E+00  0.28441875212E+01  0.28525023567E+01  0.00000000000E+00 0. -1.
</event>
<event>
 5    1  0.3368139E+002  0.1590874E+01  0.7818608E-02  0.3363329E+00
         11   -1    0    0    0    0  0.00000000000E+00  0.00000000000E+00  0.39999999674E+01  0.40000000000E+01  0.51100000000E-03 0.  1.
    9000002   -1    0    0    0    0 -0.00000000000E+00 -0.00000000000E+00  0.00000000000E+00  0.93800000000E+00  0.93800000000E+00 0.  1.
         11    1    1    2    0    0  0.51617600133E-01  0.28944366854E-01  0.19203024495E+01  0.19212141764E+01  0.51100000000E-03 0.  1.
    9000002    1    1    2    0    0  0.26293456161E-01 -0.25063956339E+00  0.48960414038E-01  0.97249815358E+00  0.93800000000E+00 0.  1.
         22    1    1    2    0    0 -0.77911056293E-01  0.22169519654E+00  0.20307371038E+01  0.20442876700E+01  0.00000000000E+00 0.  1.
</event>
<event>
 5    1  0.3368139E+002  0.1555408E+01  0.7818608E-02  0.3403232E+00
         11   -1    0    0    0    0  0.00000000000E+00  0.00000000000E+00  0.39999999674E+01  0.40000000000E+01  0.51100000000E-03 0. -1.
    9000002   -1    0    0    0    0 -0.00000000000E+00 -0.00000000000E+00  0.00000000000E+00  0.93800000000E+00  0.93800000000E+00 0.  1.
         11    1    1    2    0    0 -0.13109282042E+00  0.82894736071E-01  0.50749547794E+00  0.53066824484E+00  0.51100000000E-03 0. -1.
    9000002    1    1    2    0    0  0.79679928791E-01  0.29591216676E+00  0.98308619476E-01  0.99167609942E+00  0.93800000000E+00 0.  1.
         22    1    1    2    0    0  0.51412891626E-01 -0.37880690283E+00  0.33941958699E+01  0.34156556557E+01  0.00000000000E+00 0. -1.
</event>
<event>
 5    1  0.3368139E+002  0.1593300E+01  0.7818608E-02  0.3360668E+00
         11   -1    0    0    0    0  0.00000000000E+00  0.00000000000E+00  0.39999999674E+01  0.40000000000E+01  0.51100000000E-03 0.  1.
    9000002   -1    0    0    0    0 -0.00000000000E+00 -0.00000000000E+00  0.00000000000E+00  0.93800000000E+00  0.93800000000E+00 0. -1.
         11    1    1    2    0    0 -0.15148324350E+00 -0.22650356614E+00  0.20282592315E+01  0.20464815685E+01  0.51100000000E-03 0.  1.
    9000002    1    1    2    0    0  0.25930594970E+00  0.58916005528E+00  0.29863832578E+00  0.11761709042E+01  0.93800000000E+00 0. -1.
         22    1    1    2    0    0 -0.10782270620E+00 -0.36265648914E+00  0.16731024100E+01  0.17153475273E+01  0.00000000000E+00 0.  1.
</event>
<event>
 5    1  0.3368139E+002  0.1545045E+01  0.7818608E-02  0.3415258E+00
         11   -1    0    0    0    0  0.00000000000E+00  0.00000000000E+00  0.39999999674E+01  0.40000000000E+01  0.51100000000E-03 0. -1.
    9000002   -1    0    0    0    0 -0.00000000000E+00 -0.00000000000E+00  0.00000000000E+00  0.93800000000E+00  0.93800000000E+00 0. -1.
         11    1    1    2    0    0  0.32100679966E-01 -0.27280761075E+00  0.11023650519E+01  0.11360736837E+01  0.51100000000E-03 0. -1.
    9000002    1    1    2    0    0  0.63792252904E-01  0.87916052226E-01  0.48842973670E-01  0.94553070804E+00  0.93800000000E+00 0. -1.
         22    1    1    2    0    0 -0.95892932870E-01  0.18489155852E+00  0.28487919418E+01  0.28563956082E+01  0.00000000000E+00 0. -1.
</event>
<event>
 5    1  0.3368139E+002  0.1599663E+01  0.7818608E-02  0.3353729E+00
         11   -1    0    0    0    0  0.00000000000E+00  0.00000000000E+00  0.39999999674E+01  0.40000000000E+01  0.51100000000E-03 0.  1.
    9000002   -1    0    0    0    0 -0.00000000000E+00 -0.00000000000E+00  0.00000000000E+00  0.93800000000E+00  0.93800000000E+00 0.  1.
         11    1    1    2    0    0 -0.21690897813E-01  0.25891931124E-01  0.42501354355E+00  0.42635391456E+00  0.51100000000E-03 0.  1.
    9000002    1    1    2    0    0  0.20814195002E+00 -0.21547444585E+00  0.59883423348E-01  0.98650004185E+00  0.93800000000E+00 0.  1.
         22    1    1    2    0    0 -0.18645105220E+00  0.18958251472E+00  0.35151030005E+01  0.35251460436E+01  0.00000000000E+00 0.  1.
</event>
<event>
 5    1  0.3368139E+002  0.1599676E+01  0.7818608E-02  0.3353715E+00
         11   -1    0    0    0    0  0.00000000000E+00  0.00000000000E+00  0.39999999674E+01  0.40000000000E+01  0.51100000000E-03 0. -1.
    9000002   -1    0    0    0    0 -0.00000000000E+00 -0.00000000000E+00  0.00000000000E+00  0.93800000000E+00  0.93800000000E+00 0. -1.
         11    1    1    2    0    0 -0.23361376395E-01 -0.55511210845E-01  0.86224230077E+00  0.86434327370E+00  0.51100000000E-03 0. -1.
    9000002    1    1    2    0    0  0.10428131999E+00  0.25060040392E+00  0.49026607595E-01  0.97771302763E+00  0.93800000000E+00 0. -1.
         22    1    1    2    0    0 -0.80919943598E-01 -0.19508919307E+00  0.30887310590E+01  0.30959436987E+01  0.00000000000E+00 0. -1.
</event>
<event>
 5    1  0.3368139E+002  0.1599676E+01  0.7818608E-02  0.3353715E+00
         11   -1    0    0    0    0  0.00000000000E+00  0.00000000000E+00  0.39999999674E+01  0.40000000000E+01  0.51100000000E-03 0. -1.
    9000002   -1    0    0    0    0 -0.00000000000E+00 -0.00000000000E+00  0.00000000000E+00  0.93800000000E+00  0.93800000000E+00 0. -1.
         11    1    1    2    0    0 -0.33571171933E+00 -0.98405423320E-01  0.24054800160E+01  0.24307859540E+01  0.51100000000E-03 0. -1.
    9000002    1    1    2    0    0  0.52803867867E+00  0.15397603777E+00  0.20896193746E+00  0.11072680604E+01  0.93800000000E+00 0. -1.
         22    1    1    2    0    0 -0.19232695934E+00 -0.55570614449E-01  0.13855580139E+01  0.13999459856E+01  0.00000000000E+00 0.  1.
</event>
<event>
 5    1  0.3368139E+002  0.1599675E+01  0.7818608E-02  0.3353716E+00
         11   -1    0    0    0    0  0.00000000000E+00  0.00000000000E+00  0.39999999674E+01  0.40000000000E+01  0.51100000000E-03 0. -1.
    9000002   -1    0    0    0    0 -0.00000000000E+00 -0.00000000000E+00  0.00000000000E+00  0.93800000000E+00  0.93800000000E+00 0. -1.
         11    1    1    2    0    0  0.83723042214E-01 -0.15068283431E+00  0.99310483385E+00  0.10079545310E+01  0.51100000000E-03 0. -1.
    9000002    1    1    2    0    0 -0.31731039249E+00  0.55983058298E+00  0.29175673836E+00  0.11743347739E+01  0.93800000000E+00 0. -1.
         22    1    1    2    0    0  0.23358735028E+00 -0.40914774867E+00  0.27151383952E+01  0.27557106951E+01  0.00000000000E+00 0. -1.
</event>
<event>
 5    1  0.3368139E+002  0.1594453E+01  0.7818608E-02  0.3359406E+00
         11   -1    0    0    0    0  0.00000000000E+00  0.00000000000E+00  0.39999999674E+01  0.40000000000E+01  0.51100000000E-03 0.  1.
    9000002   -1    0    0    0    0 -0.00000000000E+00 -0.00000000000E+00  0.00000000000E+00  0.93800000000E+00  0.93800000000E+00 0.  1.
         11    1    1    2    0    0  0.18442393348E+00  0.20365245951E+00  0.26450222517E+01  0.26592535577E+01  0.51100000000E-03 0.  1.
    9000002    1    1    2    0    0 -0.36861967503E+00 -0.35066631379E+00  0.18221733922E+00  0.10825407554E+01  0.93800000000E+00 0.  1.
         22    1    1    2    0    0  0.18419574155E+00  0.14701385428E+00  0.11727603765E+01  0.11962056868E+01  0.00000000000E+00 0.  1.
</event>
<event>
 5    1  0.3368139E+002  0.1599332E+01  0.7818608E-02  0.3354089E+00
         11   -1    0    0    0    0  0.00000000000E+00  0.00000000000E+00  0.39999999674E+01  0.40000000000E+01  0.51100000000E-03 0.  1.
    9000002   -1    0    0    0    0 -0.00000000000E+00 -0.00000000000E+00  0.00000000000E+00  0.93800000000E+00  0.93800000000E+00 0.  1.
         11    1    1    2    0    0  0.40216757689E-02  0.28214431903E-02  0.73492698407E-02  0.88547899951E-02  0.51100000000E-03 0.  1.
    9000002    1    1    2    0    0 -0.11415744337E+01 -0.23153110379E+00  0.12428485909E+01  0.19445604798E+01  0.93800000000E+00 0.  1.
         22    1    1    2    0    0  0.11375527580E+01  0.22870966060E+00  0.27498021067E+01  0.29845847302E+01  0.00000000000E+00 0.  1.
</event>
<event>
 5    1  0.3368139E+002  0.1572761E+01  0.7818608E-02  0.3383469E+00
         11   -1    0    0    0    0  0.00000000000E+00  0.00000000000E+00  0.39999999674E+01  0.40000000000E+01  0.51100000000E-03 0. -1.
    9000002   -1    0    0    0    0 -0.00000000000E+00 -0.00000000000E+00  0.00000000000E+00  0.93800000000E+00  0.93800000000E+00 0.  1.
         11    1    1    2    0    0 -0.11947088905E+00  0.30118706814E+00  0.28361324749E+01  0.28545813387E+01  0.51100000000E-03 0. -1.
    9000002    1    1    2    0    0  0.37712945800E+00 -0.31943398237E+00  0.19158615226E+00  0.10774107624E+01  0.93800000000E+00 0.  1.
         22    1    1    2    0    0 -0.25765856895E+00  0.18246914227E-01  0.97228134025E+00  0.10060078989E+01  0.00000000000E+00 0. -1.
</event>
<event>
 5    1  0.3368139E+002  0.1599612E+01  0.7818608E-02  0.3353784E+00
         11   -1    0    0    0    0  0.00000000000E+00  0.00000000000E+00  0.39999999674E+01  0.40000000000E+01  0.51100000000E-03 0. -1.
    9000002   -1    0    0    0    0 -0.00000000000E+00 -0.00000000000E+00  0.00000000000E+00  0.93800000000E+00  0.93800000000E+00 0. -1.
         11    1    1    2    0    0  0.14290591893E-01 -0.57241801137E-02  0.16538473449E+00  0.16610044785E+00  0.51100000000E-03 0. -1.
    9000002    1    1    2    0    0 -0.24893616684E+00  0.14281118484E+00  0.54931631886E-01  0.98245902401E+00  0.93800000000E+00 0. -1.
         22    1    1    2    0    0  0.23464557495E+00 -0.13708700473E+00  0.37796836010E+01  0.37894405281E+01  0.00000000000E+00 0. -1.
</event>
<event>
 5    1  0.3368139E+002  0.1568936E+01  0.7818608E-02  0.3387785E+00
         11   -1    0    0    0    0  0.00000000000E+00  0.00000000000E+00  0.39999999674E+01  0.40000000000E+01  0.51100000000E-03 0. -1.
    9000002   -1    0    0    0    0 -0.00000000000E+00 -0.00000000000E+00  0.00000000000E+00  0.93800000000E+00  0.93800000000E+00 0. -1.
         11    1    1    2    0    0 -0.52944185341E-01 -0.45684392601E-01  0.10884975304E+00  0.12937805203E+00  0.51100000000E-03 0. -1.
    9000002    1    1    2    0    0  0.55363649195E-01 -0.16037882295E+00  0.42195717129E-01  0.95415458865E+00  0.93800000000E+00 0. -1.
         22    1    1    2    0    0 -0.24194638543E-02  0.20606321555E+00  0.38489544972E+01  0.38544673593E+01  0.00000000000E+00 0. -1.
</event>
<event>
 5    1  0.3368139E+002  0.1472161E+01  0.7818608E-02  0.3504986E+00
         11   -1    0    0    0    0  0.00000000000E+00  0.00000000000E+00  0.39999999674E+01  0.40000000000E+01  0.51100000000E-03 0. -1.
    9000002   -1    0    0    0    0 -0.00000000000E+00 -0.00000000000E+00  0.00000000000E+00  0.93800000000E+00  0.93800000000E+00 0. -1.
         11    1    1    2    0    0  0.13735312818E+00 -0.13145724410E+00  0.32124593005E+01  0.32180804694E+01  0.51100000000E-03 0. -1.
    9000002    1    1    2    0    0  0.22338382417E+00  0.75607981776E-01  0.14095692547E+00  0.97740971688E+00  0.93800000000E+00 0. -1.
         22    1    1    2    0    0 -0.36073695235E+00  0.55849262323E-01  0.64658374140E+00  0.74250981376E+00  0.00000000000E+00 0.  1.
</event>
<event>
 5    1  0.3368139E+002  0.1599673E+01  0.7818608E-02  0.3353718E+00
         11   -1    0    0    0    0  0.00000000000E+00  0.00000000000E+00  0.39999999674E+01  0.40000000000E+01  0.51100000000E-03 0. -1.
    9000002   -1    0    0    0    0 -0.00000000000E+00 -0.00000000000E+00  0.00000000000E+00  0.93800000000E+00  0.93800000000E+00 0. -1.
         11    1    1    2    0    0  0.48768280149E-02 -0.55426082640E-01  0.70986009002E+00  0.71203752893E+00  0.51100000000E-03 0. -1.
    9000002    1    1    2    0    0 -0.35832496381E-01  0.31224483935E+00  0.65991074165E-01  0.99145329157E+00  0.93800000000E+00 0. -1.
         22    1    1    2    0    0  0.30955668366E-01 -0.25681875671E+00  0.32241488032E+01  0.32345091795E+01  0.00000000000E+00 0. -1.
</event>
<event>
 5    1  0.3368139E+002  0.1599121E+01  0.7818608E-02  0.3354318E+00
         11   -1    0    0    0    0  0.00000000000E+00  0.00000000000E+00  0.39999999674E+01  0.40000000000E+01  0.51100000000E-03 0. -1.
    9000002   -1    0    0    0    0 -0.00000000000E+00 -0.00000000000E+00  0.00000000000E+00  0.93800000000E+00  0.93800000000E+00 0. -1.
         11    1    1    2    0    0 -0.78555165874E-01  0.29048295853E+00  0.20091321887E+01  0.20315421916E+01  0.51100000000E-03 0. -1.
    9000002    1    1    2    0    0  0.10878731523E+00 -0.51456119191E+00  0.19072046441E+00  0.10921658279E+01  0.93800000000E+00 0. -1.
         22    1    1    2    0    0 -0.30232149358E-01  0.22407823338E+00  0.18001473143E+01  0.18142919805E+01  0.00000000000E+00 0. -1.
</event>
<event>
 5    1  0.3368139E+002  0.1599619E+01  0.7818608E-02  0.3353777E+00
         11   -1    0    0    0    0  0.00000000000E+00  0.00000000000E+00  0.39999999674E+01  0.40000000000E+01  0.51100000000E-03 0.  1.
    9000002   -1    0    0    0    0 -0.00000000000E+00 -0.00000000000E+00  0.00000000000E+00  0.93800000000E+00  0.93800000000E+00 0. -1.
         11    1    1    2    0    0  0.75155879459E-02 -0.11070208527E+00  0.10232323653E+01  0.10292308635E+01  0.51100000000E-03 0.  1.
    9000002    1    1    2    0    0 -0.31603426606E-01  0.39079132057E+00  0.10362874753E+00  0.10219097563E+01  0.93800000000E+00 0. -1.
         22    1    1    2    0    0  0.24087838660E-01 -0.28008923530E+00  0.28731388545E+01  0.28868593802E+01  0.00000000000E+00 0.  1.
</event>
<event>
 5    1  0.3368139E+002  0.1597778E+01  0.7818608E-02  0.3355779E+00
         11   -1    0    0    0    0  0.00000000000E+00  0.00000000000E+00  0.39999999674E+01  0.40000000000E+01  0.51100000000E-03 0. -1.
    9000002   -1    0    0    0    0 -0.00000000000E+00 -0.00000000000E+00  0.00000000000E+00  0.93800000000E+00  0.93800000000E+00 0.  1.
         11    1    1    2    0    0 -0.93696858388E-01 -0.22070740097E+00  0.16452713508E+01  0.16626511772E+01  0.51100000000E-03 0. -1.
    9000002    1    1    2    0    0  0.18435757050E+00  0.40128385404E+00  0.13392136288E+00  0.10453685363E+01  0.93800000000E+00 0.  1.
         22    1    1    2    0    0 -0.90660712115E-01 -0.18057645307E+00  0.22208072537E+01  0.22299802865E+01  0.00000000000E+00 0. -1.
</event>
<event>
 5    1  0.3368139E+002  0.1599673E+01  0.7818608E-02  0.3353718E+00
         11   -1    0    0    0    0  0.00000000000E+00  0.00000000000E+00  0.39999999674E+01  0.40000000000E+01  0.51100000000E-03 0. -1.
    9000002   -1    0    0    0    0 -0.00000000000E+00 -0.00000000000E+00  0.00000000000E+00  0.93800000000E+00  0.93800000000E+00 0. -1.
         11    1    1    2    0    0 -0.15976200410E-02  0.39517769071E-01  0.55606935661E+00  0.55747430160E+00  0.51100000000E-03 0. -1.
    9000002    1    1    2    0    0  0.23723131158E-02 -0.28776401637E+00  0.55187728830E-01  0.98270211275E+00  0.93800000000E+00 0. -1.
         22    1    1    2    0    0 -0.77469307480E-03  0.24824624730E+00  0.33887428819E+01  0.33978235856E+01  0.00000000000E+00 0. -1.
</event>
<event>
 5    1  0.3368139E+002  0.1599665E+01  0.7818608E-02  0.3353727E+00
         11   -1    0    0    0    0  0.00000000000E+00  0.00000000000E+00  0.39999999674E+01  0.40000000000E+01  0.51100000000E-03 0.  1.
    9000002   -1    0    0    0    0 -0.00000000000E+00 -0.00000000000E+00  0.00000000000E+00  0.93800000000E+00  0.93800000000E+00 0.  1.
         11    1    1    2    0    0 -0.85680855512E-01 -0.19841515240E+00  0.17797107448E+01  0.17927856475E+01  0.51100000000E-03 0.  1.
    9000002    1    1    2    0    0  0.17665305811E+00  0.43155576555E+00  0.14806047290E+00  0.10579284406E+01  0.93800000000E+00 0.  1.
         22    1    1    2    0    0 -0.90972202597E-01 -0.23314061315E+00  0.20722287496E+01  0.20872859119E+01  0.00000000000E+00 0.  1.
</event>
<event>
 5    1  0.3368139E+002  0.1487479E+01  0.7818608E-02  0.3485341E+00
         11   -1    0    0    0    0  0.00000000000E+00  0.00000000000E+00  0.39999999674E+01  0.40000000000E+01  0.51100000000E-03 0. -1.
    9000002   -1    0    0    0    0 -0.00000000000E+00 -0.00000000000E+00  0.00000000000E+00  0.93800000000E+00  0.93800000000E+00 0. -1.
         11    1    1    2    0    0  0.34539363048E+00 -0.94336515791E-01  0.12019284741E+01  0.12541245777E+01  0.51100000000E-03 0. -1.
    9000002    1    1    2    0    0  0.88763732089E-01  0.42832225995E+00  0.23288429370E+00  0.10608572254E+01  0.93800000000E+00 0. -1.
         22    1    1    2    0    0 -0.43415736257E+00 -0.33398574416E+00  0.25651871995E+01  0.26230181969E+01  0.00000000000E+00 0.  1.
</event>
<event>
 5    1  0.3368139E+002  0.1599438E+01  0.7818608E-02  0.3353974E+00
         11   -1    0    0    0    0  0.00000000000E+00  0.00000000000E+00  0.39999999674E+01  0.40000000000E+01  0.51100000000E-03 0.  1.
    9000002   -1    0    0    0    0 -0.00000000000E+00 -0.00000000000E+00  0.00000000000E+00  0.93800000000E+00  0.93800000000E+00 0.  1.
         11    1    1    2    0    0 -0.62279605439E+00  0.13631327881E+00  0.20499335737E+01  0.21467846080E+01  0.51100000000E-03 0.  1.
    9000002    1    1    2    0    0  0.95433406684E+00 -0.21725327776E+00  0.76206206130E+00  0.15551640052E+01  0.93800000000E+00 0.  1.
         22    1    1    2    0    0 -0.33153801246E+00  0.80939998949E-01  0.11880043324E+01  0.12360513868E+01  0.00000000000E+00 0.  1.
</event>
<event>
 5    1  0.3368139E+002  0.1599451E+01  0.7818608E-02  0.3353960E+00
         11   -1    0    0    0    0  0.00000000000E+00  0.00000000000E+00  0.39999999674E+01  0.40000000000E+01  0.51100000000E-03 0. -1.
    9000002   -1    0    0    0    0 -0.00000000000E+00 -0.00000000000E+00  0.00000000000E+00  0.93800000000E+00  0.93800000000E+00 0.  1.
         11    1    1    2    0    0  0.27299401549E-01  0.63226214109E-01  0.79987770909E+00  0.80283710807E+00  0.51100000000E-03 0. -1.
    9000002    1    1    2    0    0 -0.70242519114E-01 -0.27991552577E+00  0.55679750137E-01  0.98297047139E+00  0.93800000000E+00 0.  1.
         22    1    1    2    0    0  0.42943117565E-01  0.21668931166E+00  0.31444425081E+01  0.31521924205E+01  0.00000000000E+00 0. -1.
</event>
<event>
 5    1  0.3368139E+002  0.1599676E+01  0.7818608E-02  0.3353715E+00
         11   -1    0    0    0    0  0.00000000000E+00  0.00000000000E+00  0.39999999674E+01  0.40000000000E+01  0.51100000000E-03 0.  1.
    9000002   -1    0    0    0    0 -0.00000000000E+00 -0.00000000000E+00  0.00000000000E+00  0.93800000000E+00  0.93800000000E+00 0.  1.
         11    1    1    2    0    0 -0.21620722558E-01  0.59592737829E-01  0.95172665690E+00  0.95383575139E+00  0.51100000000E-03 0.  1.
    9000002    1    1    2    0    0  0.92012746876E-01 -0.25011097612E+00  0.47241392090E-01  0.97626717403E+00  0.93800000000E+00 0.  1.
         22    1    1    2    0    0 -0.70392024318E-01  0.19051823829E+00  0.30010319184E+01  0.30078970746E+01  0.00000000000E+00 0.  1.
</event>
<event>
 5    1  0.3368139E+002  0.1599658E+01  0.7818608E-02  0.3353735E+00
         11   -1    0    0    0    0  0.00000000000E+00  0.00000000000E+00  0.39999999674E+01  0.40000000000E+01  0.51100000000E-03 0. -1.
    9000002   -1    0    0    0    0 -0.00000000000E+00 -0.00000000000E+00  0.00000000000E+00  0.93800000000E+00  0.93800000000E+00 0.  1.
         11    1    1    2    0    0 -0.29738501679E-01 -0.92840454328E-01  0.11036436641E+01  0.11079410304E+01  0.51100000000E-03 0. -1.
    9000002    1    1    2    0    0  0.11515865521E+00  0.34295933185E+00  0.87890084740E-01  0.10091834750E+01  0.93800000000E+00 0.  1.
         22    1    1    2    0    0 -0.85420153536E-01 -0.25011887752E+00  0.28084662185E+01  0.28208754946E+01  0.00000000000E+00 0. -1.
</event>
<event>
 5    1  0.3368139E+002  0.1599623E+01  0.7818608E-02  0.3353773E+00
         11   -1    0    0    0    0  0.00000000000E+00  0.00000000000E+00  0.39999999674E+01  0.40000000000E+01  0.51100000000E-03 0. -1.
    9000002   -1    0    0    0    0 -0.00000000000E+00 -0.00000000000E+00  0.00000000000E+00  0.93800000000E+00  0.93800000000E+00 0.  1.
         11    1    1    2    0    0 -0.51484496594E-01  0.41108531736E-02  0.67031016464E+00  0.67229720395E+00  0.51100000000E-03 0. -1.
    9000002    1    1    2    0    0  0.29109833405E+00 -0.61367895281E-01  0.59070665381E-01  0.98581823992E+00  0.93800000000E+00 0.  1.
         22    1    1    2    0    0 -0.23961383745E+00  0.57257042107E-01  0.32706191373E+01  0.32798845561E+01  0.00000000000E+00 0.  1.
</event>
<event>
 5    1  0.3368139E+002  0.1527978E+01  0.7818608E-02  0.3435446E+00
         11   -1    0    0    0    0  0.00000000000E+00  0.00000000000E+00  0.39999999674E+01  0.40000000000E+01  0.51100000000E-03 0. -1.
    9000002   -1    0    0    0    0 -0.00000000000E+00 -0.00000000000E+00  0.00000000000E+00  0.93800000000E+00  0.93800000000E+00 0.  1.
         11    1    1    2    0    0  0.26570161452E+00 -0.17217907708E+00  0.22063849728E+01  0.22289858438E+01  0.51100000000E-03 0. -1.
    9000002    1    1    2    0    0 -0.11436657990E+00 -0.13559654007E+00  0.76170895376E-01  0.95765972119E+00  0.93800000000E+00 0.  1.
         22    1    1    2    0    0 -0.15133503462E+00  0.30777561716E+00  0.17174440991E+01  0.17513544350E+01  0.00000000000E+00 0.  1.
</event>
<event>
 5    1  0.3368139E+002  0.1599666E+01  0.7818608E-02  0.3353726E+00
         11   -1    0    0    0    0  0.00000000000E+00  0.00000000000E+00  0.39999999674E+01  0.40000000000E+01  0.51100000000E-03 0. -1.
    9000002   -1    0    0    0    0 -0.00000000000E+00 -0.00000000000E+00  0.00000000000E+00  0.93800000000E+00  0.93800000000E+00 0. -1.
         11    1    1    2    0    0  0.33553534871E-01 -0.15181020111E-01  0.66422144295E+00  0.66524182781E+00  0.51100000000E-03 0. -1.
    9000002    1    1    2    0    0 -0.21614387598E+00  0.97652461278E-01  0.37341567365E-01  0.96824200021E+00  0.93800000000E+00 0. -1.
         22    1    1    2    0    0  0.18259034111E+00 -0.82471441167E-01  0.32984369570E+01  0.33045161720E+01  0.00000000000E+00 0. -1.
</event>
<event>
 5    1  0.3368139E+002  0.1585318E+01  0.7818608E-02  0.3369454E+00
         11   -1    0    0    0    0  0.00000000000E+00  0.00000000000E+00  0.39999999674E+01  0.40000000000E+01  0.51100000000E-03 0. -1.
    9000002   -1    0    0    0    0 -0.00000000000E+00 -0.00000000000E+00  0.00000000000E+00  0.93800000000E+00  0.93800000000E+00 0.  1.
         11    1    1    2    0    0  0.99406428321E-01  0.53527668079E-01  0.17750685489E+01  0.17786555213E+01  0.51100000000E-03 0. -1.
    9000002    1    1    2    0    0 -0.68345634632E-01  0.16159063851E+00  0.31101664078E-01  0.95477430513E+00  0.93800000000E+00 0.  1.
         22    1    1    2    0    0 -0.31060793689E-01 -0.21511830659E+00  0.21938297544E+01  0.22045701735E+01  0.00000000000E+00 0. -1.
</event>
<event>
 5    1  0.3368139E+002  0.1563867E+01  0.7818608E-02  0.3393539E+00
         11   -1    0    0    0    0  0.00000000000E+00  0.00000000000E+00  0.39999999674E+01  0.40000000000E+01  0.51100000000E-03 0. -1.
    9000002   -1    0    0    0    0 -0.00000000000E+00 -0.00000000000E+00  0.00000000000E+00  0.93800000000E+00  0.93800000000E+00 0. -1.
         11    1    1    2    0    0  0.11342563234E+00  0.46211022043E-01  0.80091566961E+00  0.81022651375E+00  0.51100000000E-03 0. -1.
    9000002    1    1    2    0    0  0.25616898479E+00 -0.58931261526E+00  0.32924487373E+00  0.11837052396E+01  0.93800000000E+00 0. -1.
         22    1    1    2    0    0 -0.36959461713E+00  0.54310159321E+00  0.28698394240E+01  0.29440682467E+01  0.00000000000E+00 0. -1.
</event>
<event>
 5    1  0.3368139E+002  0.1599669E+01  0.7818608E-02  0.3353722E+00
         11   -1    0    0    0    0  0.00000000000E+00  0.00000000000E+00  0.39999999674E+01  0.40000000000E+01  0.51100000000E-03 0.  1.
    9000002   -1    0    0    0    0 -0.00000000000E+00 -0.00000000000E+00  0.00000000000E+00  0.93800000000E+00  0.93800000000E+00 0. -1.
         11    1    1    2    0    0 -0.34882339596E-01 -0.15674450578E+00  0.10182635573E+01  0.10308474916E+01  0.51100000000E-03 0.  1.
    9000002    1    1    2    0    0  0.11966455716E+00  0.57322729908E+00  0.23853092924E+00  0.11312162246E+01  0.93800000000E+00 0. -1.
         22    1    1    2    0    0 -0.84782217564E-01 -0.41648279330E+00  0.27432054808E+01  0.27759362837E+01  0.00000000000E+00 0.  1.
</event>
<event>
 5    1  0.3368139E+002  0.1599675E+01  0.7818608E-02  0.3353716E+00
         11   -1    0    0    0    0  0.00000000000E+00  0.00000000000E+00  0.39999999674E+01  0.40000000000E+01  0.51100000000E-03 0.  1.
    9000002   -1    0    0    0    0 -0.00000000000E+00 -0.00000000000E+00  0.00000000000E+00  0.93800000000E+00  0.93800000000E+00 0. -1.
         11    1    1    2    0    0 -0.54876885594E-01  0.22956045179E-01  0.73216049637E+00  0.73457314554E+00  0.51100000000E-03 0.  1.
    9000002    1    1    2    0    0  0.28851356125E+00 -0.12433495017E+00  0.65933941509E-01  0.99140836163E+00  0.93800000000E+00 0. -1.
         22    1    1    2    0    0 -0.23363667566E+00  0.10137890499E+00  0.32019055295E+01  0.32120184928E+01  0.00000000000E+00 0.  1.
</event>
<event>
 5    1  0.3368139E+002  0.1599671E+01  0.7818608E-02  0.3353721E+00
         11   -1    0    0    0    0  0.00000000000E+00  0.00000000000E+00  0.39999999674E+01  0.40000000000E+01  0.51100000000E-03 0. -1.
    9000002   -1    0    0    0    0 -0.00000000000E+00 -0.00000000000E+00  0.00000000000E+00  0.93800000000E+00  0.93800000000E+00 0. -1.
         11    1    1    2    0    0 -0.49367224064E-01  0.70695481453E-01  0.68912198537E+00  0.69449574927E+00  0.51100000000E-03 0. -1.
    9000002    1    1    2    0    0  0.26583614073E+00 -0.40273529741E+00  0.15895851325E+00  0.10667597585E+01  0.93800000000E+00 0. -1.
         22    1    1    2    0    0 -0.21646891667E+00  0.33203981596E+00  0.31519194687E+01  0.31767444922E+01  0.00000000000E+00 0. -1.
</event>
<event>
 5    1  0.3368139E+002  0.1599673E+01  0.7818608E-02  0.3353718E+00
         11   -1    0    0    0    0  0.00000000000E+00  0.00000000000E+00  0.39999999674E+01  0.40000000000E+01  0.51100000000E-03 0.  1.
    9000002   -1    0    0    0    0 -0.00000000000E+00 -0.00000000000E+00  0.00000000000E+00  0.93800000000E+00  0.93800000000E+00 0.  1.
         11    1    1    2    0    0 -0.20545540945E-01  0.52220822839E-01  0.48856519039E+00  0.49177773432E+00  0.51100000000E-03 0.  1.
    9000002    1    1    2    0    0  0.15114181848E+00 -0.41422317094E+00  0.13187896256E+00  0.10448257010E+01  0.93800000000E+00 0.  1.
         22    1    1    2    0    0 -0.13059627753E+00  0.36200234810E+00  0.33795558144E+01  0.34013965647E+01  0.00000000000E+00 0.  1.
</event>
<event>
 5    1  0.3368139E+002  0.1599637E+01  0.7818608E-02  0.3353758E+00
         11   -1    0    0    0    0  0.00000000000E+00  0.00000000000E+00  0.39999999674E+01  0.40000000000E+01  0.51100000000E-03 0.  1.
    9000002   -1    0    0    0    0 -0.00000000000E+00 -0.00000000000E+00  0.00000000000E+00  0.93800000000E+00  0.93800000000E+00 0. -1.
         11    1    1    2    0    0  0.15374869697E+00  0.30316017672E-01  0.15298044040E+01  0.15378099682E+01  0.51100000000E-03 0.  1.
    9000002    1    1    2    0    0 -0.38313852200E+00 -0.60316562155E-01  0.10134817190E+00  0.10200728732E+01  0.93800000000E+00 0. -1.
         22    1    1    2    0    0  0.22938982503E+00  0.30000544482E-01  0.23688473915E+01  0.23801171586E+01  0.00000000000E+00 0.  1.
</event>
<event>
 5    1  0.3368139E+002  0.1594381E+01  0.7818608E-02  0.3359484E+00
         11   -1    0    0    0    0  0.00000000000E+00  0.00000000000E+00  0.39999999674E+01  0.40000000000E+01  0.51100000000E-03 0. -1.
    9000002   -1    0    0    0    0 -0.00000000000E+00 -0.00000000000E+00  0.00000000000E+00  0.93800000000E+00  0.93800000000E+00 0.  1.
         11    1    1    2    0    0 -0.71901337954E-01  0.13138673043E-01  0.10794915499E+01  0.10819633518E+01  0.51100000000E-03 0. -1.
    9000002    1    1    2    0    0  0.11050415504E+00  0.19335728416E+00  0.36895195514E-01  0.96478156236E+00  0.93800000000E+00 0.  1.
         22    1    1    2    0    0 -0.38602817086E-01 -0.20649595721E+00  0.28836132219E+01  0.28912550858E+01  0.00000000000E+00 0. -1.
</event>
<event>
 5    1  0.3368139E+002  0.1599633E+01  0.7818608E-02  0.3353762E+00
         11   -1    0    0    0    0  0.00000000000E+00  0.00000000000E+00  0.39999999674E+01  0.40000000000E+01  0.51100000000E-03 0.  1.
    9000002   -1    0    0    0    0 -0.00000000000E+00 -0.00000000000E+00  0.00000000000E+00  0.93800000000E+00  0.93800000000E+00 0.  1.
         11    1    1    2    0    0 -0.29190964110E+00 -0.22858158609E+00  0.21537884351E+01  0.21854669213E+01  0.51100000000E-03 0.  1.
    9000002    1    1    2    0    0  0.49166622980E+00  0.39030635721E+00  0.27668060388E+00  0.11620976252E+01  0.93800000000E+00 0.  1.
         22    1    1    2    0    0 -0.19975658870E+00 -0.16172477111E+00  0.15695309284E+01  0.15904354534E+01  0.00000000000E+00 0.  1.
</event>
<event>
 5    1  0.3368139E+002  0.1597046E+01  0.7818608E-02  0.3356576E+00
         11   -1    0    0    0    0  0.00000000000E+00  0.00000000000E+00  0.39999999674E+01  0.40000000000E+01  0.51100000000E-03 0.  1.
    9000002   -1    0    0    0    0 -0.00000000000E+00 -0.00000000000E+00  0.00000000000E+00  0.93800000000E+00  0.93800000000E+00 0.  1.
         11    1    1    2    0    0 -0.15356934040E+00 -0.21669807109E+00  0.21138729030E+01  0.21304930198E+01  0.51100000000E-03 0.  1.
    9000002    1    1    2    0    0  0.38265531751E+00  0.35800579558E+00  0.19118292394E+00  0.10913240362E+01  0.93800000000E+00 0.  1.
         22    1    1    2    0    0 -0.22908597710E+00 -0.14130772449E+00  0.16949441404E+01  0.17161829439E+01  0.00000000000E+00 0.  1.
</event>
<event>
 5    1  0.3368139E+002  0.1583856E+01  0.7818608E-02  0.3371074E+00
         11   -1    0    0    0    0  0.00000000000E+00  0.00000000000E+00  0.39999999674E+01  0.40000000000E+01  0.51100000000E-03 0.  1.
    9000002   -1    0    0    0    0 -0.00000000000E+00 -0.00000000000E+00  0.00000000000E+00  0.93800000000E+00  0.93800000000E+00 0.  1.
         11    1    1    2    0    0  0.15753315811E+00 -0.59961447443E-01  0.22495500657E+01  0.22558563408E+01  0.51100000000E-03 0.  1.
    9000002    1    1    2    0    0 -0.59376095943E-01  0.25364483046E+00  0.57363273432E-01  0.97519011784E+00  0.93800000000E+00 0.  1.
         22    1    1    2    0    0 -0.98157062172E-01 -0.19368338302E+00  0.16930866282E+01  0.17069535414E+01  0.00000000000E+00 0. -1.
</event>
<event>
 5    1  0.3368139E+002  0.1587247E+01  0.7818608E-02  0.3367322E+00
         11   -1    0    0    0    0  0.00000000000E+00  0.00000000000E+00  0.39999999674E+01  0.40000000000E+01  0.51100000000E-03 0. -1.
    9000002   -1    0    0    0    0 -0.00000000000E+00 -0.00000000000E+00  0.00000000000E+00  0.93800000000E+00  0.93800000000E+00 0. -1.
         11    1    1    2    0    0  0.46899917983E-01 -0.96609840443E-01  0.86053842516E+00  0.86721376020E+00  0.51100000000E-03 0. -1.
    9000002    1    1    2    0    0  0.15611727729E+00  0.96829900317E-01  0.31643311886E-01  0.95634404534E+00  0.93800000000E+00 0. -1.
         22    1    1    2    0    0 -0.20301719527E+00 -0.22005987333E-03  0.31078182303E+01  0.31144421945E+01  0.00000000000E+00 0. -1.
</event>
<event>
 5    1  0.3368139E+002  0.1595325E+01  0.7818608E-02  0.3358453E+00
         11   -1    0    0    0    0  0.00000000000E+00  0.00000000000E+00  0.39999999674E+01  0.40000000000E+01  0.51100000000E-03 0.  1.
    9000002   -1    0    0    0    0 -0.00000000000E+00 -0.00000000000E+00  0.00000000000E+00  0.93800000000E+00  0.93800000000E+00 0.  1.
         11    1    1    2    0    0  0.90860038098E-02  0.44952721657E-01  0.15474293548E+00  0.16139683966E+00  0.51100000000E-03 0.  1.
    9000002    1    1    2    0    0 -0.17827969807E+00 -0.33973046201E+00  0.10267542274E+00  0.10186199880E+01  0.93800000000E+00 0.  1.
         22    1    1    2    0    0  0.16919369426E+00  0.29477774035E+00  0.37425816091E+01  0.37579831723E+01  0.00000000000E+00 0.  1.
</event>
<event>
 5    1  0.3368139E+002  0.1599677E+01  0.7818608E-02  0.3353714E+00
         11   -1    0    0    0    0  0.00000000000E+00  0.00000000000E+00  0.39999999674E+01  0.40000000000E+01  0.51100000000E-03 0. -1.
    9000002   -1    0    0    0    0 -0.00000000000E+00 -0.00000000000E+00  0.00000000000E+00  0.93800000000E+00  0.93800000000E+00 0. -1.
         11    1    1    2    0    0  0.16843096076E+00  0.31894875036E+00  0.23750318038E+01  0.24022642702E+01  0.51100000000E-03 0. -1.
    9000002    1    1    2    0    0 -0.26773607947E+00 -0.50624818766E+00  0.22753393898E+00  0.11223125809E+01  0.93800000000E+00 0. -1.
         22    1    1    2    0    0  0.99305118702E-01  0.18729943730E+00  0.13974342246E+01  0.14134231489E+01  0.00000000000E+00 0. -1.
</event>
<event>
 5    1  0.3368139E+002  0.1590360E+01  0.7818608E-02  0.3363894E+00
         11   -1    0    0    0    0  0.00000000000E+00  0.00000000000E+00  0.39999999674E+01  0.40000000000E+01  0.51100000000E-03 0.  1.
    9000002   -1    0    0    0    0 -0.00000000000E+00 -0.00000000000E+00  0.00000000000E+00  0.93800000000E+00  0.93800000000E+00 0. -1.
         11    1    1    2    0    0 -0.40092555831E-02 -0.18680246586E-01  0.23252874043E-01  0.30099551742E-01  0.51100000000E-03 0.  1.
    9000002    1    1    2    0    0 -0.81450461880E+00  0.17344424287E+00  0.52963501166E+00  0.13615645137E+01  0.93800000000E+00 0. -1.
         22    1    1    2    0    0  0.81851387439E+00 -0.15476399629E+00  0.34471120817E+01  0.35463359345E+01  0.00000000000E+00 0.  1.
</event>
<event>
 5    1  0.3368139E+002  0.1599608E+01  0.7818608E-02  0.3353789E+00
         11   -1    0    0    0    0  0.00000000000E+00  0.00000000000E+00  0.39999999674E+01  0.40000000000E+01  0.51100000000E-03 0.  1.
    9000002   -1    0    0    0    0 -0.00000000000E+00 -0.00000000000E+00  0.00000000000E+00  0.93800000000E+00  0.93800000000E+00 0.  1.
         11    1    1    2    0    0  0.75094387663E-01  0.16359229542E+00  0.16648634630E+01  0.16745662775E+01  0.51100000000E-03 0.  1.
    9000002    1    1    2    0    0 -0.15553220014E+00 -0.37042133020E+00  0.10895132667E+00  0.10262147040E+01  0.93800000000E+00 0.  1.
         22    1    1    2    0    0  0.80437812474E-01  0.20682903478E+00  0.22261851777E+01  0.22372190185E+01  0.00000000000E+00 0.  1.
</event>
<event>
 5    1  0.3368139E+002  0.1599669E+01  0.7818608E-02  0.3353723E+00
         11   -1    0    0    0    0  0.00000000000E+00  0.00000000000E+00  0.39999999674E+01  0.40000000000E+01  0.51100000000E-03 0.  1.
    9000002   -1    0    0    0    0 -0.00000000000E+00 -0.00000000000E+00  0.00000000000E+00  0.93800000000E+00  0.93800000000E+00 0.  1.
         11    1    1    2    0    0 -0.39312473600E-01  0.44165130424E-01  0.72545230645E+00  0.72785804892E+00  0.51100000000E-03 0.  1.
    9000002    1    1    2    0    0  0.22393869267E+00 -0.24810300064E+00  0.74778072827E-01  0.99856867424E+00  0.93800000000E+00 0.  1.
         22    1    1    2    0    0 -0.18462621907E+00  0.20393787021E+00  0.31997695881E+01  0.32115732768E+01  0.00000000000E+00 0.  1.
</event>
<event>
 5    1  0.3368139E+002  0.1599674E+01  0.7818608E-02  0.3353718E+00
         11   -1    0    0    0    0  0.00000000000E+00  0.00000000000E+00  0.39999999674E+01  0.40000000000E+01  0.51100000000E-03 0. -1.
    9000002   -1    0    0    0    0 -0.00000000000E+00 -0.00000000000E+00  0.00000000000E+00  0.93800000000E+00  0.93800000000E+00 0.  1.
         11    1    1    2    0    0 -0.12570186856E-01  0.25120527881E-01  0.50208039738E+00  0.50286582413E+00  0.51100000000E-03 0. -1.
    9000002    1    1    2    0    0  0.10215282645E+00 -0.20931142143E+00  0.35992581396E-01  0.96715352298E+00  0.93800000000E+00 0.  1.
         22    1    1    2    0    0 -0.89582639589E-01  0.18419089355E+00  0.34619269886E+01  0.34679806529E+01  0.00000000000E+00 0. -1.
</event>
<event>
 5    1  0.3368139E+002  0.1599673E+01  0.7818608E-02  0.3353719E+00
         11   -1    0    0    0    0  0.00000000000E+00  0.00000000000E+00  0.39999999674E+01  0.40000000000E+01  0.51100000000E-03 0.  1.
    9000002   -1    0    0    0    0 -0.00000000000E+00 -0.00000000000E+00  0.00000000000E+00  0.93800000000E+00  0.93800000000E+00 0. -1.
         11    1    1    2    0    0 -0.46664627648E-01  0.10918747700E-01  0.60095537980E+00  0.60286353029E+00  0.51100000000E-03 0.  1.
    9000002    1    1    2    0    0  0.30454506053E+00 -0.59790632878E-01  0.64324653337E-01  0.99010316367E+00  0.93800000000E+00 0. -1.
         22    1    1    2    0    0 -0.25788043288E+00  0.48871885178E-01  0.33347199342E+01  0.33450333060E+01  0.00000000000E+00 0.  1.
</event>
<event>
 5    1  0.3368139E+002  0.1543613E+01  0.7818608E-02  0.3416934E+00
         11   -1    0    0    0    0  0.00000000000E+00  0.00000000000E+00  0.39999999674E+01  0.40000000000E+01  0.51100000000E-03 0.  1.
    9000002   -1    0    0    0    0 -0.00000000000E+00 -0.00000000000E+00  0.00000000000E+00  0.93800000000E+00  0.93800000000E+00 0. -1.
         11    1    1    2    0    0  0.18405991749E+00 -0.74995304205E-01  0.13973703084E+01  0.14114341603E+01  0.51100000000E-03 0.  1.
    9000002    1    1    2    0    0  0.11172975867E+00 -0.22734037925E+00  0.86847401558E-01  0.97547611871E+00  0.93800000000E+00 0. -1.
         22    1    1    2    0    0 -0.29578967616E+00  0.30233568345E+00  0.25157822574E+01  0.25510897210E+01  0.00000000000E+00 0. -1.
</event>
<event>
 5    1  0.3368139E+002  0.1599676E+01  0.7818608E-02  0.3353715E+00
         11   -1    0    0    0    0  0.00000000000E+00  0.00000000000E+00  0.39999999674E+01  0.40000000000E+01  0.51100000000E-03 0. -1.
    9000002   -1    0    0    0    0 -0.00000000000E+00 -0.00000000000E+00  0.00000000000E+00  0.93800000000E+00  0.93800000000E+00 0.  1.
         11    1    1    2    0    0  0.34230022987E-01 -0.19513767997E+00  0.18997571720E+01  0.19100596803E+01  0.51100000000E-03 0. -1.
    9000002    1    1    2    0    0 -0.70590286783E-01  0.39751454663E+00  0.11000087592E+00  0.10271051534E+01  0.93800000000E+00 0.  1.
         22    1    1    2    0    0  0.36360263796E-01 -0.20237686666E+00  0.19902419194E+01  0.20008351663E+01  0.00000000000E+00 0.  1.
</event>
<event>
 5    1  0.3368139E+002  0.1590555E+01  0.7818608E-02  0.3363679E+00
         11   -1    0    0    0    0  0.00000000000E+00  0.00000000000E+00  0.39999999674E+01  0.40000000000E+01  0.51100000000E-03 0.  1.
    9000002   -1    0    0    0    0 -0.00000000000E+00 -0.00000000000E+00  0.00000000000E+00  0.93800000000E+00  0.93800000000E+00 0. -1.
         11    1    1    2    0    0 -0.40390862735E-01  0.67918599933E-01  0.27392963028E+00  0.28510009028E+00  0.51100000000E-03 0.  1.
    9000002    1    1    2    0    0  0.34759333795E-01 -0.31888874721E+00  0.76038201870E-01  0.99424546895E+00  0.93800000000E+00 0. -1.
         22    1    1    2    0    0  0.56315289408E-02  0.25097014727E+00  0.36500321352E+01  0.36586544408E+01  0.00000000000E+00 0.  1.
</event>
<event>
 5    1  0.3368139E+002  0.1599466E+01  0.7818608E-02  0.3353943E+00
         11   -1    0    0    0    0  0.00000000000E+00  0.00000000000E+00  0.39999999674E+01  0.40000000000E+01  0.51100000000E-03 0.  1.
    9000002   -1    0    0    0    0 -0.00000000000E+00 -0.00000000000E+00  0.00000000000E+00  0.93800000000E+00  0.93800000000E+00 0. -1.
         11    1    1    2    0    0  0.39291697788E-01 -0.85802464525E-01  0.11387330795E+01  0.11426369449E+01  0.51100000000E-03 0.  1.
    9000002    1    1    2    0    0 -0.18963736789E+00  0.29900011506E+00  0.84265860419E-01  0.10061352470E+01  0.93800000000E+00 0. -1.
         22    1    1    2    0    0  0.15034567010E+00 -0.21319765054E+00  0.27770010274E+01  0.27892278080E+01  0.00000000000E+00 0.  1.
</event>
<event>
 5    1  0.3368139E+002  0.1596440E+01  0.7818608E-02  0.3357236E+00
         11   -1    0    0    0    0  0.00000000000E+00  0.00000000000E+00  0.39999999674E+01  0.40000000000E+01  0.51100000000E-03 0.  1.
    9000002   -1    0    0    0    0 -0.00000000000E+00 -0.00000000000E+00  0.00000000000E+00  0.93800000000E+00  0.93800000000E+00 0.  1.
         11    1    1    2    0    0  0.13274223111E+00  0.18681957228E-01  0.17520846663E+01  0.17572052966E+01  0.51100000000E-03 0.  1.
    9000002    1    1    2    0    0 -0.36153431652E+00  0.95354407552E-01  0.96644396279E-01  0.10143883203E+01  0.93800000000E+00 0.  1.
         22    1    1    2    0    0  0.22879208542E+00 -0.11403636478E+00  0.21512709048E+01  0.21664063831E+01  0.00000000000E+00 0.  1.
</event>
<event>
 5    1  0.3368139E+002  0.1599493E+01  0.7818608E-02  0.3353913E+00
         11   -1    0    0    0    0  0.00000000000E+00  0.00000000000E+00  0.39999999674E+01  0.40000000000E+01  0.51100000000E-03 0.  1.
    9000002   -1    0    0    0    0 -0.00000000000E+00 -0.00000000000E+00  0.00000000000E+00  0.93800000000E+00  0.93800000000E+00 0.  1.
         11    1    1    2    0    0 -0.60921326302E-01 -0.44934256773E-01  0.96699847831E+00  0.96995711947E+00  0.51100000000E-03 0.  1.
    9000002    1    1    2    0    0  0.22891357265E+00  0.23649188047E+00  0.72620892490E-01  0.99671842930E+00  0.93800000000E+00 0.  1.
         22    1    1    2    0    0 -0.16799224634E+00 -0.19155762370E+00  0.29603805966E+01  0.29713244512E+01  0.00000000000E+00 0.  1.
</event>
<event>
 5    1  0.3368139E+002  0.1599376E+01  0.7818608E-02  0.3354041E+00
         11   -1    0    0    0    0  0.00000000000E+00  0.00000000000E+00  0.39999999674E+01  0.40000000000E+01  0.51100000000E-03 0. -1.
    9000002   -1    0    0    0    0 -0.00000000000E+00 -0.00000000000E+00  0.00000000000E+00  0.93800000000E+00  0.93800000000E+00 0. -1.
         11    1    1    2    0    0  0.18503744924E+00 -0.23609349490E+00  0.22239520487E+01  0.22440904554E+01  0.51100000000E-03 0. -1.
    9000002    1    1    2    0    0 -0.31727484462E+00  0.43852601982E+00  0.20230367341E+00  0.11016983132E+01  0.93800000000E+00 0. -1.
         22    1    1    2    0    0  0.13223739538E+00 -0.20243252491E+00  0.15737442452E+01  0.15922112314E+01  0.00000000000E+00 0. -1.
</event>
<event>
 5    1  0.3368139E+002  0.1599600E+01  0.7818608E-02  0.3353798E+00
         11   -1    0    0    0    0  0.00000000000E+00  0.00000000000E+00  0.39999999674E+01  0.40000000000E+01  0.51100000000E-03 0.  1.
    9000002   -1    0    0    0    0 -0.00000000000E+00 -0.00000000000E+00  0.00000000000E+00  0.93800000000E+00  0.93800000000E+00 0.  1.
         11    1    1    2    0    0  0.59966849580E-01 -0.11667102807E-01  0.10345854535E+01  0.10363877006E+01  0.51100000000E-03 0.  1.
    9000002    1    1    2    0    0 -0.25744522988E+00  0.66085013031E-01  0.47047071886E-01  0.97606490681E+00  0.93800000000E+00 0.  1.
         22    1    1    2    0    0  0.19747838030E+00 -0.54417910224E-01  0.29183674420E+01  0.29255473926E+01  0.00000000000E+00 0.  1.
</event>
<event>
 5    1  0.3368139E+002  0.1599668E+01  0.7818608E-02  0.3353724E+00
         11   -1    0    0    0    0  0.00000000000E+00  0.00000000000E+00  0.39999999674E+01  0.40000000000E+01  0.51100000000E-03 0.  1.
    9000002   -1    0    0    0    0 -0.00000000000E+00 -0.00000000000E+00  0.00000000000E+00  0.93800000000E+00  0.93800000000E+00 0. -1.
         11    1    1    2    0    0 -0.26329540229E+00 -0.28087337605E+00  0.22440751162E+01  0.22768591767E+01  0.51100000000E-03 0.  1.
    9000002    1    1    2    0    0  0.44131762702E+00  0.46343640534E+00  0.28830902412E+00  0.11715377259E+01  0.93800000000E+00 0. -1.
         22    1    1    2    0    0 -0.17802222473E+00 -0.18256302928E+00  0.14676158270E+01  0.14896030974E+01  0.00000000000E+00 0.  1.
</event>
<event>
 5    1  0.3368139E+002  0.1576510E+01  0.7818608E-02  0.3379260E+00
         11   -1    0    0    0    0  0.00000000000E+00  0.00000000000E+00  0.39999999674E+01  0.40000000000E+01  0.51100000000E-03 0.  1.
    9000002   -1    0    0    0    0 -0.00000000000E+00 -0.00000000000E+00  0.00000000000E+00  0.93800000000E+00  0.93800000000E+00 0.  1.
         11    1    1    2    0    0 -0.91788204052E-02  0.16844663771E+00  0.48384763978E+00  0.51241323182E+00  0.51100000000E-03 0.  1.
    9000002    1    1    2    0    0  0.97192497967E-01 -0.36266739776E+00  0.11400871547E+00  0.10167674317E+01  0.93800000000E+00 0.  1.
         22    1    1    2    0    0 -0.88013677562E-01  0.19422076005E+00  0.34021436121E+01  0.34088193364E+01  0.00000000000E+00 0.  1.
</event>
<event>
 5    1  0.3368139E+002  0.1599606E+01  0.7818608E-02  0.3353791E+00
         11   -1    0    0    0    0  0.00000000000E+00  0.00000000000E+00  0.39999999674E+01  0.40000000000E+01  0.51100000000E-03 0.  1.
    9000002   -1    0    0    0    0 -0.00000000000E+00 -0.00000000000E+00  0.00000000000E+00  0.93800000000E+00  0.93800000000E+00 0.  1.
         11    1    1    2    0    0  0.25809659505E-02 -0.84574489790E-03  0.58173866695E-01  0.58239475933E-01  0.51100000000E-03 0.  1.
    9000002    1    1    2    0    0 -0.32229491564E+00  0.12297439931E+00  0.79801689581E-01  0.10026011297E+01  0.93800000000E+00 0.  1.
         22    1    1    2    0    0  0.31971394969E+00 -0.12212865441E+00  0.38620244111E+01  0.38771593944E+01  0.00000000000E+00 0.  1.
</event>
<event>
 5    1  0.3368139E+002  0.1599097E+01  0.7818608E-02  0.3354345E+00
         11   -1    0    0    0    0  0.00000000000E+00  0.00000000000E+00  0.39999999674E+01  0.40000000000E+01  0.51100000000E-03 0. -1.
    9000002   -1    0    0    0    0 -0.00000000000E+00 -0.00000000000E+00  0.00000000000E+00  0.93800000000E+00  0.93800000000E+00 0. -1.
         11    1    1    2    0    0 -0.10573819262E-01  0.37144860925E-01  0.47087430876E+00  0.47245573561E+00  0.51100000000E-03 0. -1.
    9000002    1    1    2    0    0  0.17821120138E+00 -0.18208135879E+00  0.43581531009E-01  0.97296259094E+00  0.93800000000E+00 0. -1.
         22    1    1    2    0    0 -0.16763738212E+00  0.14493649787E+00  0.34855441276E+01  0.34925816734E+01  0.00000000000E+00 0. -1.
</event>
<event>
 5    1  0.3368139E+002  0.1599656E+01  0.7818608E-02  0.3353736E+00
         11   -1    0    0    0    0  0.00000000000E+00  0.00000000000E+00  0.39999999674E+01  0.40000000000E+01  0.51100000000E-03 0. -1.
    9000002   -1    0    0    0    0 -0.00000000000E+00 -0.00000000000E+00  0.00000000000E+00  0.93800000000E+00  0.93800000000E+00 0. -1.
         11    1    1    2    0    0 -0.63484343468E-01  0.57969435027E-01  0.58498447732E+00  0.59126797401E+00  0.51100000000E-03 0. -1.
    9000002    1    1    2    0    0  0.41227035156E+00 -0.35072714275E+00  0.20204685801E+00  0.11016548027E+01  0.93800000000E+00 0. -1.
         22    1    1    2    0    0 -0.34878600809E+00  0.29275770772E+00  0.32129686320E+01  0.32450772233E+01  0.00000000000E+00 0. -1.
</event>
<event>
 5    1  0.3368139E+002  0.1599675E+01  0.7818608E-02  0.3353717E+00
         11   -1    0    0    0    0  0.00000000000E+00  0.00000000000E+00  0.39999999674E+01  0.40000000000E+01  0.51100000000E-03 0.  1.
    9000002   -1    0    0    0    0 -0.00000000000E+00 -0.00000000000E+00  0.00000000000E+00  0.93800000000E+00  0.93800000000E+00 0. -1.
         11    1    1    2    0    0 -0.68717227094E-03  0.17509898892E+00  0.11822316592E+01  0.11951284806E+01  0.51100000000E-03 0.  1.
    9000002    1    1    2    0    0  0.29276326973E-02 -0.56516476928E+00  0.22127398051E+00  0.11172403331E+01  0.93800000000E+00 0. -1.
         22    1    1    2    0    0 -0.22404604264E-02  0.39006578036E+00  0.25964943277E+01  0.26256311863E+01  0.00000000000E+00 0. -1.
</event>
<event>
 5    1  0.3368139E+002  0.1599189E+01  0.7818608E-02  0.3354244E+00
         11   -1    0    0    0    0  0.00000000000E+00  0.00000000000E+00  0.39999999674E+01  0.40000000000E+01  0.51100000000E-03 0. -1.
    9000002   -1    0    0    0    0 -0.00000000000E+00 -0.00000000000E+00  0.00000000000E+00  0.93800000000E+00  0.93800000000E+00 0. -1.
         11    1    1    2    0    0  0.57655925896E-01  0.18614665676E-01  0.12626426682E+01  0.12640955187E+01  0.51100000000E-03 0. -1.
    9000002    1    1    2    0    0 -0.24422904149E+00 -0.10274777675E+00  0.47066865972E-01  0.97584026367E+00  0.93800000000E+00 0. -1.
         22    1    1    2    0    0  0.18657311560E+00  0.84133111075E-01  0.26902904332E+01  0.26980642177E+01  0.00000000000E+00 0. -1.
</event>
<event>
 5    1  0.3368139E+002  0.1499801E+01  0.7818608E-02  0.3469853E+00
         11   -1    0    0    0    0  0.00000000000E+00  0.00000000000E+00  0.39999999674E+01  0.40000000000E+01  0.51100000000E-03 0.  1.
    9000002   -1    0    0    0    0 -0.00000000000E+00 -0.00000000000E+00  0.00000000000E+00  0.93800000000E+00  0.93800000000E+00 0.  1.
         11    1    1    2    0    0  0.79231590321E-01  0.12118584324E+00  0.32817141452E+01  0.32849066418E+01  0.51100000000E-03 0.  1.
    9000002    1    1    2    0    0  0.19557721030E+00  0.28850690270E-01  0.10478575780E+00  0.96431678538E+00  0.93800000000E+00 0.  1.
         22    1    1    2    0    0 -0.27480880062E+00 -0.15003653351E+00  0.61350006436E+00  0.68877657282E+00  0.00000000000E+00 0.  1.
</event>
<event>
 5    1  0.3368139E+002  0.1598294E+01  0.7818608E-02  0.3355217E+00
         11   -1    0    0    0    0  0.00000000000E+00  0.00000000000E+00  0.39999999674E+01  0.40000000000E+01  0.51100000000E-03 0.  1.
    9000002   -1    0    0    0    0 -0.00000000000E+00 -0.00000000000E+00  0.00000000000E+00  0.93800000000E+00  0.93800000000E+00 0.  1.
         11    1    1    2    0    0 -0.20461593500E+00 -0.59943636474E-01  0.18556224097E+01  0.18678318203E+01  0.51100000000E-03 0.  1.
    9000002    1    1    2    0    0  0.37871469184E+00  0.20490685869E+00  0.12675523806E+00  0.10398665919E+01  0.93800000000E+00 0.  1.
         22    1    1    2    0    0 -0.17409875683E+00 -0.14496322222E+00  0.20176223196E+01  0.20303015878E+01  0.00000000000E+00 0.  1.
</event>
<event>
 5    1  0.3368139E+002  0.1598930E+01  0.7818608E-02  0.3354526E+00
         11   -1    0    0    0    0  0.00000000000E+00  0.00000000000E+00  0.39999999674E+01  0.40000000000E+01  0.51100000000E-03 0.  1.
    9000002   -1    0    0    0    0 -0.00000000000E+00 -0.00000000000E+00  0.00000000000E+00  0.93800000000E+00  0.93800000000E+00 0. -1.
         11    1    1    2    0    0  0.33383164148E-02  0.16487395310E-01  0.43013813522E+00  0.43046725201E+00  0.51100000000E-03 0.  1.
    9000002    1    1    2    0    0  0.12964973079E+00 -0.24996124706E+00  0.53387288622E-01  0.98080776930E+00  0.93800000000E+00 0. -1.
         22    1    1    2    0    0 -0.13298804720E+00  0.23347385175E+00  0.35164745435E+01  0.35267249787E+01  0.00000000000E+00 0.  1.
</event>
<event>
 5    1  0.3368139E+002  0.1599560E+01  0.7818608E-02  0.3353841E+00
         11   -1    0    0    0    0  0.00000000000E+00  0.00000000000E+00  0.39999999674E+01  0.40000000000E+01  0.51100000000E-03 0.  1.
    9000002   -1    0    0    0    0 -0.00000000000E+00 -0.00000000000E+00  0.00000000000E+00  0.93800000000E+00  0.93800000000E+00 0.  1.
         11    1    1    2    0    0 -0.63861515496E-01  0.23913417218E-01  0.88709338636E+00  0.88971067316E+00  0.51100000000E-03 0.  1.
    9000002    1    1    2    0    0  0.31565742987E+00 -0.70581496231E-01  0.70045829071E-01  0.99467169398E+00  0.93800000000E+00 0.  1.
         22    1    1    2    0    0 -0.25179591437E+00  0.46668079014E-01  0.30428607519E+01  0.30536176329E+01  0.00000000000E+00 0.  1.
</event>
<event>
 5    1  0.3368139E+002  0.1562204E+01  0.7818608E-02  0.3395437E+00
         11   -1    0    0    0    0  0.00000000000E+00  0.00000000000E+00  0.39999999674E+01  0.40000000000E+01  0.51100000000E-03 0. -1.
    9000002   -1    0    0    0    0 -0.00000000000E+00 -0.00000000000E+00  0.00000000000E+00  0.93800000000E+00  0.93800000000E+00 0. -1.
         11    1    1    2    0    0 -0.18975462895E+00  0.11075082708E-01  0.12783452504E+01  0.12923994417E+01  0.51100000000E-03 0. -1.
    9000002    1    1    2    0    0 -0.60959869993E-01  0.15181168811E+00  0.45974847497E-01  0.95326836777E+00  0.93800000000E+00 0. -1.
         22    1    1    2    0    0  0.25071449894E+00 -0.16288677082E+00  0.26756798695E+01  0.26923321905E+01  0.00000000000E+00 0. -1.
</event>
<event>
 5    1  0.3368139E+002  0.1593230E+01  0.7818608E-02  0.3360744E+00
         11   -1    0    0    0    0  0.00000000000E+00  0.00000000000E+00  0.39999999674E+01  0.40000000000E+01  0.51100000000E-03 0. -1.
    9000002   -1    0    0    0    0 -0.00000000000E+00 -0.00000000000E+00  0.00000000000E+00  0.93800000000E+00  0.93800000000E+00 0. -1.
         11    1    1    2    0    0  0.84385734340E-01 -0.33371284105E-01  0.93969486721E+00  0.94406636384E+00  0.51100000000E-03 0. -1.
    9000002    1    1    2    0    0 -0.28006464462E+00 -0.19726995731E+00  0.83807434814E-01  0.10021074430E+01  0.93800000000E+00 0. -1.
         22    1    1    2    0    0  0.19567891028E+00  0.23064124142E+00  0.29764976653E+01  0.29918261931E+01  0.00000000000E+00 0. -1.
</event>
<event>
 5    1  0.3368139E+002  0.1597952E+01  0.7818608E-02  0.3355589E+00
         11   -1    0    0    0    0  0.00000000000E+00  0.00000000000E+00  0.39999999674E+01  0.40000000000E+01  0.51100000000E-03 0. -1.
    9000002   -1    0    0    0    0 -0.00000000000E+00 -0.00000000000E+00  0.00000000000E+00  0.93800000000E+00  0.93800000000E+00 0. -1.
         11    1    1    2    0    0 -0.40416438225E-01  0.93028319072E-01  0.12609660149E+01  0.12650388565E+01  0.51100000000E-03 0. -1.
    9000002    1    1    2    0    0 -0.18967404070E-01 -0.30157358705E+00  0.62276447877E-01  0.98743543930E+00  0.93800000000E+00 0. -1.
         22    1    1    2    0    0  0.59383842295E-01  0.20854526798E+00  0.26767575046E+01  0.26855257042E+01  0.00000000000E+00 0. -1.
</event>
<event>
 5    1  0.3368139E+002  0.1597070E+01  0.7818608E-02  0.3356549E+00
         11   -1    0    0    0    0  0.00000000000E+00  0.00000000000E+00  0.39999999674E+01  0.40000000000E+01  0.51100000000E-03 0. -1.
    9000002   -1    0    0    0    0 -0.00000000000E+00 -0.00000000000E+00  0.00000000000E+00  0.93800000000E+00  0.93800000000E+00 0. -1.
         11    1    1    2    0    0 -0.34725724708E-01 -0.27435573393E-01  0.12349942862E+01  0.12357870912E+01  0.51100000000E-03 0. -1.
    9000002    1    1    2    0    0  0.28845041911E+00  0.47226642690E-01  0.58988691600E-01  0.98425487847E+00  0.93800000000E+00 0. -1.
         22    1    1    2    0    0 -0.25372469440E+00 -0.19791069297E-01  0.27060169896E+01  0.27179580304E+01  0.00000000000E+00 0. -1.
</event>
<event>
 5    1  0.3368139E+002  0.1599677E+01  0.7818608E-02  0.3353714E+00
         11   -1    0    0    0    0  0.00000000000E+00  0.00000000000E+00  0.39999999674E+01  0.40000000000E+01  0.51100000000E-03 0.  1.
    9000002   -1    0    0    0    0 -0.00000000000E+00 -0.00000000000E+00  0.00000000000E+00  0.93800000000E+00  0.93800000000E+00 0.  1.
         11    1    1    2    0    0 -0.14846647656E+00 -0.43749402412E-01  0.14866315467E+01  0.14946671608E+01  0.51100000000E-03 0. -1.
    9000002    1    1    2    0    0  0.38834669147E+00  0.11374656718E+00  0.11052022538E+00  0.10275262306E+01  0.93800000000E+00 0.  1.
         22    1    1    2    0    0 -0.23988021491E+00 -0.69997164767E-01  0.24028481953E+01  0.24158066086E+01  0.00000000000E+00 0.  1.
</event>
<event>
 5    1  0.3368139E+002  0.1597238E+01  0.7818608E-02  0.3356367E+00
         11   -1    0    0    0    0  0.00000000000E+00  0.00000000000E+00  0.39999999674E+01  0.40000000000E+01  0.51100000000E-03 0.  1.
    9000002   -1    0    0    0    0 -0.00000000000E+00 -0.00000000000E+00  0.00000000000E+00  0.93800000000E+00  0.93800000000E+00 0.  1.
         11    1    1    2    0    0  0.20992477000E+00 -0.13921185482E+00  0.20677271219E+01  0.20830132168E+01  0.51100000000E-03 0.  1.
    9000002    1    1    2    0    0 -0.30087751334E+00  0.32268797850E+00  0.13413195248E+00  0.10452225553E+01  0.93800000000E+00 0.  1.
         22    1    1    2    0    0  0.90952743338E-01 -0.18347612368E+00  0.17981408930E+01  0.18097642279E+01  0.00000000000E+00 0. -1.
</event>
<event>
 5    1  0.3368139E+002  0.1599673E+01  0.7818608E-02  0.3353719E+00
         11   -1    0    0    0    0  0.00000000000E+00  0.00000000000E+00  0.39999999674E+01  0.40000000000E+01  0.51100000000E-03 0.  1.
    9000002   -1    0    0    0    0 -0.00000000000E+00 -0.00000000000E+00  0.00000000000E+00  0.93800000000E+00  0.93800000000E+00 0.  1.
         11    1    1    2    0    0 -0.72464864593E-01 -0.28459244433E-02  0.90630575399E+00  0.90920274787E+00  0.51100000000E-03 0.  1.
    9000002    1    1    2    0    0  0.30678461822E+00  0.81692668528E-02  0.62875163646E-01  0.98892913048E+00  0.93800000000E+00 0.  1.
         22    1    1    2    0    0 -0.23431975363E+00 -0.53233424096E-02  0.30308190497E+01  0.30398681217E+01  0.00000000000E+00 0.  1.
</event>
<event>
 5    1  0.3963340E+002  0.1571655E+01  0.7818608E-02  0.3384714E+00
         11   -1    0    0    0    0  0.00000000000E+00  0.00000000000E+00  0.39999999674E+01  0.40000000000E+01  0.51100000000E-03 0.  1.
    9000002   -1    0    0    0    0 -0.00000000000E+00 -0.00000000000E+00  0.00000000000E+00  0.93800000000E+00  0.93800000000E+00 0. -1.
         11    1    1    2    0    0 -0.14523133458E+00 -0.68226526449E-01  0.17000048883E+01  0.17075607985E+01  0.51100000000E-03 0.  1.
    9000002    1    1    2    0    0 -0.51550269703E-01 -0.93775677751E-01  0.28319701572E-01  0.94450903306E+00  0.93800000000E+00 0. -1.
         22    1    1    2    0    0  0.19678160428E+00  0.16200220420E+00  0.22716753775E+01  0.22859301684E+01  0.00000000000E+00 0.  1.
</event>
<event>
 5    1  0.3368139E+002  0.1579249E+01  0.7818608E-02  0.3376198E+00
         11   -1    0    0    0    0  0.00000000000E+00  0.00000000000E+00  0.39999999674E+01  0.40000000000E+01  0.51100000000E-03 0.  1.
    9000002   -1    0    0    0    0 -0.00000000000E+00 -0.00000000000E+00  0.00000000000E+00  0.93800000000E+00  0.93800000000E+00 0. -1.
         11    1    1    2    0    0  0.10871162225E+00  0.10498957112E+00  0.88024617569E+00  0.89312631682E+00  0.51100000000E-03 0.  1.
    9000002    1    1    2    0    0 -0.18741479118E+00  0.97478231826E-01  0.45094858732E-01  0.96255070304E+00  0.93800000000E+00 0. -1.
         22    1    1    2    0    0  0.78703168929E-01 -0.20246780294E+00  0.30746589329E+01  0.30823229801E+01  0.00000000000E+00 0.  1.
</event>
<event>
 5    1  0.3368139E+002  0.1599671E+01  0.7818608E-02  0.3353720E+00
         11   -1    0    0    0    0  0.00000000000E+00  0.00000000000E+00  0.39999999674E+01  0.40000000000E+01  0.51100000000E-03 0. -1.
    9000002   -1    0    0    0    0 -0.00000000000E+00 -0.00000000000E+00  0.00000000000E+00  0.93800000000E+00  0.93800000000E+00 0.  1.
         11    1    1    2    0    0 -0.18036406853E-01 -0.32687804732E-01  0.45572641679E+00  0.45725335715E+00  0.51100000000E-03 0. -1.
    9000002    1    1    2    0    0  0.14051308415E+00  0.28558877157E+00  0.67705170609E-01  0.99284080466E+00  0.93800000000E+00 0.  1.
         22    1    1    2    0    0 -0.12247667730E+00 -0.25290096684E+00  0.34765683800E+01  0.34879058382E+01  0.00000000000E+00 0.  1.
</event>
<event>
 5    1  0.3368139E+002  0.1596487E+01  0.7818608E-02  0.3357185E+00
         11   -1    0    0    0    0  0.00000000000E+00  0.00000000000E+00  0.39999999674E+01  0.40000000000E+01  0.51100000000E-03 0.  1.
    9000002   -1    0    0    0    0 -0.00000000000E+00 -0.00000000000E+00  0.00000000000E+00  0.93800000000E+00  0.93800000000E+00 0. -1.
         11    1    1    2    0    0  0.16532765483E+00 -0.17343021194E+00  0.20505493315E+01  0.20645009309E+01  0.51100000000E-03 0.  1.
    9000002    1    1    2    0    0 -0.19931394164E+00  0.38801249767E+00  0.13170741047E+00  0.10428185785E+01  0.93800000000E+00 0. -1.
         22    1    1    2    0    0  0.33986286812E-01 -0.21458228573E+00  0.18177432254E+01  0.18306804906E+01  0.00000000000E+00 0. -1.
</event>
<event>
 5    1  0.3368139E+002  0.1488257E+01  0.7818608E-02  0.3484355E+00
         11   -1    0    0    0    0  0.00000000000E+00  0.00000000000E+00  0.39999999674E+01  0.40000000000E+01  0.51100000000E-03 0.  1.
    9000002   -1    0    0    0    0 -0.00000000000E+00 -0.00000000000E+00  0.00000000000E+00  0.93800000000E+00  0.93800000000E+00 0.  1.
         11    1    1    2    0    0  0.17077228532E+00  0.15963115299E+00  0.30097986469E+01  0.30188629374E+01  0.51100000000E-03 0.  1.
    9000002    1    1    2    0    0 -0.16188075532E+00  0.22543540144E+00  0.14313777226E+00  0.98861464738E+00  0.93800000000E+00 0.  1.
         22    1    1    2    0    0 -0.88915299957E-02 -0.38506655443E+00  0.84706354817E+00  0.93052241525E+00  0.00000000000E+00 0.  1.
</event>
<event>
 5    1  0.3368139E+002  0.1461708E+01  0.7818608E-02  0.3518648E+00
         11   -1    0    0    0    0  0.00000000000E+00  0.00000000000E+00  0.39999999674E+01  0.40000000000E+01  0.51100000000E-03 0.  1.
    9000002   -1    0    0    0    0 -0.00000000000E+00 -0.00000000000E+00  0.00000000000E+00  0.93800000000E+00  0.93800000000E+00 0.  1.
         11    1    1    2    0    0 -0.26677495816E+00 -0.87551653673E-01  0.20351422932E+00  0.34677438345E+00  0.51100000000E-03 0.  1.
    9000002    1    1    2    0    0  0.43197357784E+00 -0.13832931115E+00  0.30094867898E+00  0.10845046232E+01  0.93800000000E+00 0.  1.
         22    1    1    2    0    0 -0.16519861969E+00  0.22588096483E+00  0.34955370591E+01  0.35067209934E+01  0.00000000000E+00 0.  1.
</event>
<event>
 5    1  0.3368139E+002  0.1599658E+01  0.7818608E-02  0.3353734E+00
         11   -1    0    0    0    0  0.00000000000E+00  0.00000000000E+00  0.39999999674E+01  0.40000000000E+01  0.51100000000E-03 0. -1.
    9000002   -1    0    0    0    0 -0.00000000000E+00 -0.00000000000E+00  0.00000000000E+00  0.93800000000E+00  0.93800000000E+00 0.  1.
         11    1    1    2    0    0 -0.37078084589E-01 -0.52171164914E-01  0.94546425472E+00  0.94762837277E+00  0.51100000000E-03 0. -1.
    9000002    1    1    2    0    0  0.16324705238E+00  0.23413568736E+00  0.54291715219E-01  0.98196777470E+00  0.93800000000E+00 0.  1.
         22    1    1    2    0    0 -0.12616896779E+00 -0.18196452245E+00  0.30002439974E+01  0.30084038525E+01  0.00000000000E+00 0. -1.
</event>
<event>
 5    1  0.3368139E+002  0.1594869E+01  0.7818608E-02  0.3358952E+00
         11   -1    0    0    0    0  0.00000000000E+00  0.00000000000E+00  0.39999999674E+01  0.40000000000E+01  0.51100000000E-03 0. -1.
    9000002   -1    0    0    0    0 -0.00000000000E+00 -0.00000000000E+00  0.00000000000E+00  0.93800000000E+00  0.93800000000E+00 0.  1.
         11    1    1    2    0    0  0.18194608759E+00  0.52331896079E-02  0.13780969216E+01  0.13900658803E+01  0.51100000000E-03 0. -1.
    9000002    1    1    2    0    0 -0.39280089250E+00  0.17616014703E+00  0.12961939046E+00  0.10401779295E+01  0.93800000000E+00 0.  1.
         22    1    1    2    0    0  0.21085480491E+00 -0.18139333664E+00  0.24922836553E+01  0.25077561903E+01  0.00000000000E+00 0. -1.
</event>
<event>
 5    1  0.3368139E+002  0.1597567E+01  0.7818608E-02  0.3356008E+00
         11   -1    0    0    0    0  0.00000000000E+00  0.00000000000E+00  0.39999999674E+01  0.40000000000E+01  0.51100000000E-03 0.  1.
    9000002   -1    0    0    0    0 -0.00000000000E+00 -0.00000000000E+00  0.00000000000E+00  0.93800000000E+00  0.93800000000E+00 0. -1.
         11    1    1    2    0    0 -0.18370782362E+00 -0.17691332925E-01  0.15195465903E+01  0.15307134444E+01  0.51100000000E-03 0.  1.
    9000002    1    1    2    0    0  0.36093535177E+00  0.12904014800E+00  0.10063458511E+00  0.10182813991E+01  0.93800000000E+00 0. -1.
         22    1    1    2    0    0 -0.17722752816E+00 -0.11134881507E+00  0.23798187920E+01  0.23890051565E+01  0.00000000000E+00 0. -1.
</event>
<event>
 5    1  0.3368139E+002  0.1546080E+01  0.7818608E-02  0.3414049E+00
         11   -1    0    0    0    0  0.00000000000E+00  0.00000000000E+00  0.39999999674E+01  0.40000000000E+01  0.51100000000E-03 0.  1.
    9000002   -1    0    0    0    0 -0.00000000000E+00 -0.00000000000E+00  0.00000000000E+00  0.93800000000E+00  0.93800000000E+00 0.  1.
         11    1    1    2    0    0  0.15968492323E+00 -0.15467409382E+00  0.13688805932E+01  0.13868156653E+01  0.51100000000E-03 0.  1.
    9000002    1    1    2    0    0  0.16696296054E+00  0.88020314183E-02  0.59326453621E-01  0.95462963187E+00  0.93800000000E+00 0.  1.
         22    1    1    2    0    0 -0.32664788377E+00  0.14587206240E+00  0.25717929206E+01  0.25965547028E+01  0.00000000000E+00 0. -1.
</event>
<event>
 5    1  0.3368139E+002  0.1599670E+01  0.7818608E-02  0.3353721E+00
         11   -1    0    0    0    0  0.00000000000E+00  0.00000000000E+00  0.39999999674E+01  0.40000000000E+01  0.51100000000E-03 0. -1.
    9000002   -1    0    0    0    0 -0.00000000000E+00 -0.00000000000E+00  0.00000000000E+00  0.93800000000E+00  0.93800000000E+00 0. -1.
         11    1    1    2    0    0 -0.12321929695E-01 -0.25270059241E-01  0.51754100239E+00  0.51830430842E+00  0.51100000000E-03 0. -1.
    9000002    1    1    2    0    0  0.96570031502E-01  0.20939699770E+00  0.35277062912E-01  0.96657195531E+00  0.93800000000E+00 0. -1.
         22    1    1    2    0    0 -0.84248101807E-01 -0.18412693846E+00  0.34471819021E+01  0.34531237363E+01  0.00000000000E+00 0. -1.
</event>
<event>
 5    1  0.3368139E+002  0.1598425E+01  0.7818608E-02  0.3355075E+00
         11   -1    0    0    0    0  0.00000000000E+00  0.00000000000E+00  0.39999999674E+01  0.40000000000E+01  0.51100000000E-03 0.  1.
    9000002   -1    0    0    0    0 -0.00000000000E+00 -0.00000000000E+00  0.00000000000E+00  0.93800000000E+00  0.93800000000E+00 0. -1.
         11    1    1    2    0    0  0.14073437092E+00 -0.17498792254E-01  0.12772067575E+01  0.12850563153E+01  0.51100000000E-03 0.  1.
    9000002    1    1    2    0    0 -0.51384384770E+00  0.12721098096E+00  0.19396767594E+00  0.10943882276E+01  0.93800000000E+00 0. -1.
         22    1    1    2    0    0  0.37310947677E+00 -0.10971218870E+00  0.25288255339E+01  0.25585554571E+01  0.00000000000E+00 0.  1.
</event>
<event>
 5    1  0.3368139E+002  0.1599219E+01  0.7818608E-02  0.3354211E+00
         11   -1    0    0    0    0  0.00000000000E+00  0.00000000000E+00  0.39999999674E+01  0.40000000000E+01  0.51100000000E-03 0.  1.
    9000002   -1    0    0    0    0 -0.00000000000E+00 -0.00000000000E+00  0.00000000000E+00  0.93800000000E+00  0.93800000000E+00 0. -1.
         11    1    1    2    0    0  0.14029173005E-01  0.21470813708E-01  0.64104045844E+00  0.64155353948E+00  0.51100000000E-03 0.  1.
    9000002    1    1    2    0    0 -0.91727758610E-01 -0.24943412988E+00  0.47330667555E-01  0.97607149274E+00  0.93800000000E+00 0. -1.
         22    1    1    2    0    0  0.77698585606E-01  0.22796331617E+00  0.33116288414E+01  0.33203749678E+01  0.00000000000E+00 0.  1.
</event>
<event>
 5    1  0.3368139E+002  0.1599037E+01  0.7818608E-02  0.3354410E+00
         11   -1    0    0    0    0  0.00000000000E+00  0.00000000000E+00  0.39999999674E+01  0.40000000000E+01  0.51100000000E-03 0.  1.
    9000002   -1    0    0    0    0 -0.00000000000E+00 -0.00000000000E+00  0.00000000000E+00  0.93800000000E+00  0.93800000000E+00 0.  1.
         11    1    1    2    0    0  0.23018107102E-01 -0.16545450474E-01  0.23722190186E+00  0.23891018611E+00  0.51100000000E-03 0.  1.
    9000002    1    1    2    0    0 -0.16244554158E+00  0.17954325526E+00  0.39408434812E-01  0.96954698660E+00  0.93800000000E+00 0.  1.
         22    1    1    2    0    0  0.13942743448E+00 -0.16299780478E+00  0.37233696307E+01  0.37295428273E+01  0.00000000000E+00 0.  1.
</event>
<event>
 5    1  0.3368139E+002  0.1647744E+01  0.7818608E-02  0.3303121E+00
         11   -1    0    0    0    0  0.00000000000E+00  0.00000000000E+00  0.39999999674E+01  0.40000000000E+01  0.51100000000E-03 0. -1.
    9000002   -1    0    0    0    0 -0.00000000000E+00 -0.00000000000E+00  0.00000000000E+00  0.93800000000E+00  0.93800000000E+00 0. -1.
         11    1    1    2    0    0  0.70963118275E-01  0.23621049321E-01 -0.12528247001E+00  0.14590982331E+00  0.51100000000E-03 0. -1.
    9000002    1    1    2    0    0  0.73757032746E-01  0.33422097204E+00  0.44763546037E+00  0.10942418670E+01  0.93800000000E+00 0. -1.
         22    1    1    2    0    0 -0.14472015102E+00 -0.35784202136E+00  0.36776469770E+01  0.36978483097E+01  0.00000000000E+00 0. -1.
</event>
<event>
 5    1  0.3368139E+002  0.1595360E+01  0.7818608E-02  0.3358415E+00
         11   -1    0    0    0    0  0.00000000000E+00  0.00000000000E+00  0.39999999674E+01  0.40000000000E+01  0.51100000000E-03 0.  1.
    9000002   -1    0    0    0    0 -0.00000000000E+00 -0.00000000000E+00  0.00000000000E+00  0.93800000000E+00  0.93800000000E+00 0. -1.
         11    1    1    2    0    0 -0.16795351157E-01 -0.24586783196E-02  0.16888497505E+00  0.16973663375E+00  0.51100000000E-03 0.  1.
    9000002    1    1    2    0    0 -0.18358040013E+00 -0.41741677049E+00  0.14511065237E+00  0.10530145417E+01  0.93800000000E+00 0. -1.
         22    1    1    2    0    0  0.20037575129E+00  0.41987544881E+00  0.36860043399E+01  0.37152488246E+01  0.00000000000E+00 0.  1.
</event>
<event>
 5    1  0.3368139E+002  0.1599669E+01  0.7818608E-02  0.3353723E+00
         11   -1    0    0    0    0  0.00000000000E+00  0.00000000000E+00  0.39999999674E+01  0.40000000000E+01  0.51100000000E-03 0.  1.
    9000002   -1    0    0    0    0 -0.00000000000E+00 -0.00000000000E+00  0.00000000000E+00  0.93800000000E+00  0.93800000000E+00 0. -1.
         11    1    1    2    0    0 -0.14457177186E-01 -0.94509129455E-01  0.12160603271E+01  0.12198130864E+01  0.51100000000E-03 0.  1.
    9000002    1    1    2    0    0  0.49563824882E-01  0.31550125827E+00  0.68177460446E-01  0.99322192023E+00  0.93800000000E+00 0. -1.
         22    1    1    2    0    0 -0.35106647696E-01 -0.22099212882E+00  0.27157621799E+01  0.27249649934E+01  0.00000000000E+00 0.  1.
</event>
<event>
 5    1  0.3368139E+002  0.1599677E+01  0.7818608E-02  0.3353714E+00
         11   -1    0    0    0    0  0.00000000000E+00  0.00000000000E+00  0.39999999674E+01  0.40000000000E+01  0.51100000000E-03 0. -1.
    9000002   -1    0    0    0    0 -0.00000000000E+00 -0.00000000000E+00  0.00000000000E+00  0.93800000000E+00  0.93800000000E+00 0. -1.
         11    1    1    2    0    0 -0.13432266794E-01 -0.17786074087E+00  0.15338196915E+01  0.15441560725E+01  0.51100000000E-03 0. -1.
    9000002    1    1    2    0    0  0.33856750965E-01  0.44940684993E+00  0.13796509256E+00  0.10497576688E+01  0.93800000000E+00 0. -1.
         22    1    1    2    0    0 -0.20424484171E-01 -0.27154610906E+00  0.23282151833E+01  0.23440862588E+01  0.00000000000E+00 0. -1.
</event>
<event>
 5    1  0.3368139E+002  0.1599653E+01  0.7818608E-02  0.3353740E+00
         11   -1    0    0    0    0  0.00000000000E+00  0.00000000000E+00  0.39999999674E+01  0.40000000000E+01  0.51100000000E-03 0.  1.
    9000002   -1    0    0    0    0 -0.00000000000E+00 -0.00000000000E+00  0.00000000000E+00  0.93800000000E+00  0.93800000000E+00 0. -1.
         11    1    1    2    0    0  0.84834305904E-01 -0.58445194948E-01  0.10142060478E+01  0.10194247735E+01  0.51100000000E-03 0.  1.
    9000002    1    1    2    0    0 -0.34492171863E+00  0.22111763195E+00  0.11339126258E+00  0.10298376462E+01  0.93800000000E+00 0. -1.
         22    1    1    2    0    0  0.26008741273E+00 -0.16267243700E+00  0.28724026570E+01  0.28887375803E+01  0.00000000000E+00 0.  1.
</event>
<event>
 5    1  0.3368139E+002  0.1599367E+01  0.7818608E-02  0.3354051E+00
         11   -1    0    0    0    0  0.00000000000E+00  0.00000000000E+00  0.39999999674E+01  0.40000000000E+01  0.51100000000E-03 0.  1.
    9000002   -1    0    0    0    0 -0.00000000000E+00 -0.00000000000E+00  0.00000000000E+00  0.93800000000E+00  0.93800000000E+00 0. -1.
         11    1    1    2    0    0 -0.45665059529E-01  0.10544340167E+00  0.16963037405E+01  0.17001912392E+01  0.51100000000E-03 0.  1.
    9000002    1    1    2    0    0  0.12215569240E+00 -0.29052100199E+00  0.66601330782E-01  0.99176822042E+00  0.93800000000E+00 0. -1.
         22    1    1    2    0    0 -0.76490632874E-01  0.18507760032E+00  0.22370948960E+01  0.22460405404E+01  0.00000000000E+00 0. -1.
</event>
<event>
 5    1  0.3368139E+002  0.1597042E+01  0.7818608E-02  0.3356580E+00
         11   -1    0    0    0    0  0.00000000000E+00  0.00000000000E+00  0.39999999674E+01  0.40000000000E+01  0.51100000000E-03 0.  1.
    9000002   -1    0    0    0    0 -0.00000000000E+00 -0.00000000000E+00  0.00000000000E+00  0.93800000000E+00  0.93800000000E+00 0. -1.
         11    1    1    2    0    0 -0.14726744055E-01  0.34478920798E-01  0.25583533622E+00  0.25856846936E+00  0.51100000000E-03 0.  1.
    9000002    1    1    2    0    0 -0.11662212945E+00 -0.21234028103E+00  0.40973164676E-01  0.96964525278E+00  0.93800000000E+00 0. -1.
         22    1    1    2    0    0  0.13134887351E+00  0.17786136023E+00  0.37031914665E+01  0.37097862779E+01  0.00000000000E+00 0.  1.
</event>
<event>
 5    1  0.3368139E+002  0.1576341E+01  0.7818608E-02  0.3379450E+00
         11   -1    0    0    0    0  0.00000000000E+00  0.00000000000E+00  0.39999999674E+01  0.40000000000E+01  0.51100000000E-03 0.  1.
    9000002   -1    0    0    0    0 -0.00000000000E+00 -0.00000000000E+00  0.00000000000E+00  0.93800000000E+00  0.93800000000E+00 0.  1.
         11    1    1    2    0    0 -0.21451555403E+00 -0.37188487435E-01  0.27432159542E+01  0.27518419175E+01  0.51100000000E-03 0.  1.
    9000002    1    1    2    0    0  0.14032302497E+00  0.22899369585E+00  0.66190471756E-01  0.97793345511E+00  0.93800000000E+00 0.  1.
         22    1    1    2    0    0  0.74192529059E-01 -0.19180520842E+00  0.11905935414E+01  0.12082246273E+01  0.00000000000E+00 0. -1.
</event>
<event>
 5    1  0.3368139E+002  0.1599676E+01  0.7818608E-02  0.3353715E+00
         11   -1    0    0    0    0  0.00000000000E+00  0.00000000000E+00  0.39999999674E+01  0.40000000000E+01  0.51100000000E-03 0.  1.
    9000002   -1    0    0    0    0 -0.00000000000E+00 -0.00000000000E+00  0.00000000000E+00  0.93800000000E+00  0.93800000000E+00 0. -1.
         11    1    1    2    0    0  0.15560273597E+00 -0.16722049932E+00  0.17022223880E+01  0.17174796145E+01  0.51100000000E-03 0.  1.
    9000002    1    1    2    0    0 -0.34847643650E+00  0.37318023175E+00  0.17878572147E+00  0.10828239221E+01  0.93800000000E+00 0. -1.
         22    1    1    2    0    0  0.19287370053E+00 -0.20595973242E+00  0.21189918578E+01  0.21376964633E+01  0.00000000000E+00 0. -1.
</event>
<event>
 5    1  0.3368139E+002  0.1599676E+01  0.7818608E-02  0.3353715E+00
         11   -1    0    0    0    0  0.00000000000E+00  0.00000000000E+00  0.39999999674E+01  0.40000000000E+01  0.51100000000E-03 0. -1.
    9000002   -1    0    0    0    0 -0.00000000000E+00 -0.00000000000E+00  0.00000000000E+00  0.93800000000E+00  0.93800000000E+00 0. -1.
         11    1    1    2    0    0 -0.75288767491E-01  0.30574921052E-01  0.10274701086E+01  0.10306785675E+01  0.51100000000E-03 0. -1.
    9000002    1    1    2    0    0  0.28574090479E+00 -0.11858092683E+00  0.63905965012E-01  0.98976627203E+00  0.93800000000E+00 0. -1.
         22    1    1    2    0    0 -0.21045213730E+00  0.88006005782E-01  0.29086238938E+01  0.29175551605E+01  0.00000000000E+00 0. -1.
</event>
<event>
 5    1  0.3368139E+002  0.1575251E+01  0.7818608E-02  0.3380671E+00
         11   -1    0    0    0    0  0.00000000000E+00  0.00000000000E+00  0.39999999674E+01  0.40000000000E+01  0.51100000000E-03 0. -1.
    9000002   -1    0    0    0    0 -0.00000000000E+00 -0.00000000000E+00  0.00000000000E+00  0.93800000000E+00  0.93800000000E+00 0.  1.
         11    1    1    2    0    0 -0.81846145990E-01 -0.54139204719E-01  0.21418604915E+00  0.23559662534E+00  0.51100000000E-03 0. -1.
    9000002    1    1    2    0    0 -0.20982699406E-01  0.43379750925E+00  0.14896314364E+00  0.10443440864E+01  0.93800000000E+00 0.  1.
         22    1    1    2    0    0  0.10282884540E+00 -0.37965830453E+00  0.36368507746E+01  0.36580592882E+01  0.00000000000E+00 0. -1.
</event>
<event>
 5    1  0.3368139E+002  0.1599637E+01  0.7818608E-02  0.3353757E+00
         11   -1    0    0    0    0  0.00000000000E+00  0.00000000000E+00  0.39999999674E+01  0.40000000000E+01  0.51100000000E-03 0.  1.
    9000002   -1    0    0    0    0 -0.00000000000E+00 -0.00000000000E+00  0.00000000000E+00  0.93800000000E+00  0.93800000000E+00 0.  1.
         11    1    1    2    0    0 -0.87193297972E-01  0.49975773582E-01  0.13422556399E+01  0.13460128948E+01  0.51100000000E-03 0.  1.
    9000002    1    1    2    0    0  0.27303532336E+00 -0.13429388820E+00  0.61819466356E-01  0.98805302622E+00  0.93800000000E+00 0.  1.
         22    1    1    2    0    0 -0.18584202539E+00  0.84318114617E-01  0.25959248611E+01  0.26039340789E+01  0.00000000000E+00 0. -1.
</event>
<event>
 5    1  0.3368139E+002  0.1599676E+01  0.7818608E-02  0.3353715E+00
         11   -1    0    0    0    0  0.00000000000E+00  0.00000000000E+00  0.39999999674E+01  0.40000000000E+01  0.51100000000E-03 0.  1.
    9000002   -1    0    0    0    0 -0.00000000000E+00 -0.00000000000E+00  0.00000000000E+00  0.93800000000E+00  0.93800000000E+00 0.  1.
         11    1    1    2    0    0  0.50803098071E-01 -0.10113553591E+00  0.13473791048E+01  0.13521242786E+01  0.51100000000E-03 0.  1.
    9000002    1    1    2    0    0 -0.15033686463E+00  0.29312047322E+00  0.72605325658E-01  0.99681308077E+00  0.93800000000E+00 0.  1.
         22    1    1    2    0    0  0.99533766556E-01 -0.19198493731E+00  0.25800155369E+01  0.25890626407E+01  0.00000000000E+00 0. -1.
</event>
<event>
 5    1  0.3368139E+002  0.1589936E+01  0.7818608E-02  0.3364359E+00
         11   -1    0    0    0    0  0.00000000000E+00  0.00000000000E+00  0.39999999674E+01  0.40000000000E+01  0.51100000000E-03 0. -1.
    9000002   -1    0    0    0    0 -0.00000000000E+00 -0.00000000000E+00  0.00000000000E+00  0.93800000000E+00  0.93800000000E+00 0. -1.
         11    1    1    2    0    0  0.68716537341E-02 -0.43089487397E-01  0.16130314369E+00  0.16710143277E+00  0.51100000000E-03 0. -1.
    9000002    1    1    2    0    0 -0.19890009398E+00 -0.10150985204E+00  0.40460296789E-01  0.96506296844E+00  0.93800000000E+00 0. -1.
         22    1    1    2    0    0  0.19202844025E+00  0.14459933944E+00  0.37982365269E+01  0.38058355988E+01  0.00000000000E+00 0. -1.
</event>
<event>
 5    1  0.3368139E+002  0.1599676E+01  0.7818608E-02  0.3353715E+00
         11   -1    0    0    0    0  0.00000000000E+00  0.00000000000E+00  0.39999999674E+01  0.40000000000E+01  0.51100000000E-03 0.  1.
    9000002   -1    0    0    0    0 -0.00000000000E+00 -0.00000000000E+00  0.00000000000E+00  0.93800000000E+00  0.93800000000E+00 0.  1.
         11    1    1    2    0    0  0.15288256016E+00 -0.12477099323E-01  0.13692132230E+01  0.13777785985E+01  0.51100000000E-03 0.  1.
    9000002    1    1    2    0    0 -0.43347730389E+00  0.33226696075E-01  0.12808817100E+00  0.10417567691E+01  0.93800000000E+00 0.  1.
         22    1    1    2    0    0  0.28059474374E+00 -0.20749596752E-01  0.25026985734E+01  0.25184646325E+01  0.00000000000E+00 0. -1.
</event>
<event>
 5    1  0.3368139E+002  0.1541446E+01  0.7818608E-02  0.3419475E+00
         11   -1    0    0    0    0  0.00000000000E+00  0.00000000000E+00  0.39999999674E+01  0.40000000000E+01  0.51100000000E-03 0.  1.
    9000002   -1    0    0    0    0 -0.00000000000E+00 -0.00000000000E+00  0.00000000000E+00  0.93800000000E+00  0.93800000000E+00 0.  1.
         11    1    1    2    0    0 -0.21649365018E+00  0.44435636558E-01  0.72279404069E+00  0.75582770044E+00  0.51100000000E-03 0.  1.
    9000002    1    1    2    0    0 -0.11075719382E-02  0.10682892869E+00  0.51361593729E-01  0.94546055446E+00  0.93800000000E+00 0.  1.
         22    1    1    2    0    0  0.21760122212E+00 -0.15126456525E+00  0.32258443329E+01  0.32367117451E+01  0.00000000000E+00 0.  1.
</event>
<event>
 5    1  0.3368139E+002  0.1539883E+01  0.7818608E-02  0.3421313E+00
         11   -1    0    0    0    0  0.00000000000E+00  0.00000000000E+00  0.39999999674E+01  0.40000000000E+01  0.51100000000E-03 0. -1.
    9000002   -1    0    0    0    0 -0.00000000000E+00 -0.00000000000E+00  0.00000000000E+00  0.93800000000E+00  0.93800000000E+00 0. -1.
         11    1    1    2    0    0 -0.39352257583E-02  0.33485920953E+00  0.30228583770E+01  0.30413515425E+01  0.51100000000E-03 0. -1.
    9000002    1    1    2    0    0 -0.18139252768E+00 -0.17295777170E+00  0.88924145617E-01  0.97497135525E+00  0.93800000000E+00 0. -1.
         22    1    1    2    0    0  0.18532775343E+00 -0.16190143783E+00  0.88821744473E+00  0.92167710229E+00  0.00000000000E+00 0. -1.
</event>
<event>
 5    1  0.3368139E+002  0.1598451E+01  0.7818608E-02  0.3355047E+00
         11   -1    0    0    0    0  0.00000000000E+00  0.00000000000E+00  0.39999999674E+01  0.40000000000E+01  0.51100000000E-03 0. -1.
    9000002   -1    0    0    0    0 -0.00000000000E+00 -0.00000000000E+00  0.00000000000E+00  0.93800000000E+00  0.93800000000E+00 0.  1.
         11    1    1    2    0    0 -0.51769044138E-02  0.54872319649E-01  0.13731318354E+01  0.13742376324E+01  0.51100000000E-03 0. -1.
    9000002    1    1    2    0    0  0.74560459620E-01 -0.25699947595E+00  0.48580157552E-01  0.97663300399E+00  0.93800000000E+00 0.  1.
         22    1    1    2    0    0 -0.69383555206E-01  0.20212715631E+00  0.25782879744E+01  0.25871293636E+01  0.00000000000E+00 0. -1.
</event>
<event>
 5    1  0.3368139E+002  0.1599677E+01  0.7818608E-02  0.3353714E+00
         11   -1    0    0    0    0  0.00000000000E+00  0.00000000000E+00  0.39999999674E+01  0.40000000000E+01  0.51100000000E-03 0.  1.
    9000002   -1    0    0    0    0 -0.00000000000E+00 -0.00000000000E+00  0.00000000000E+00  0.93800000000E+00  0.93800000000E+00 0. -1.
         11    1    1    2    0    0 -0.15823009638E+00  0.26371716739E+00  0.21495313634E+01  0.21714209290E+01  0.51100000000E-03 0.  1.
    9000002    1    1    2    0    0  0.27910576456E+00 -0.46596130739E+00  0.20350817442E+00  0.11028506449E+01  0.93800000000E+00 0. -1.
         22    1    1    2    0    0 -0.12087566818E+00  0.20224414000E+00  0.16469604295E+01  0.16637284261E+01  0.00000000000E+00 0.  1.
</event>
<event>
 5    1  0.3368139E+002  0.1599677E+01  0.7818608E-02  0.3353714E+00
         11   -1    0    0    0    0  0.00000000000E+00  0.00000000000E+00  0.39999999674E+01  0.40000000000E+01  0.51100000000E-03 0.  1.
    9000002   -1    0    0    0    0 -0.00000000000E+00 -0.00000000000E+00  0.00000000000E+00  0.93800000000E+00  0.93800000000E+00 0.  1.
         11    1    1    2    0    0 -0.33876583602E+00  0.88803811166E+00  0.21765722593E+01  0.23750454818E+01  0.51100000000E-03 0.  1.
    9000002    1    1    2    0    0  0.42051281154E+00 -0.11028825740E+01  0.12979465391E+01  0.19893944342E+01  0.93800000000E+00 0.  1.
         22    1    1    2    0    0 -0.81746975510E-01  0.21484446232E+00  0.52548116899E+00  0.57356008399E+00  0.00000000000E+00 0.  1.
</event>
<event>
 5    1  0.3368139E+002  0.1599676E+01  0.7818608E-02  0.3353715E+00
         11   -1    0    0    0    0  0.00000000000E+00  0.00000000000E+00  0.39999999674E+01  0.40000000000E+01  0.51100000000E-03 0.  1.
    9000002   -1    0    0    0    0 -0.00000000000E+00 -0.00000000000E+00  0.00000000000E+00  0.93800000000E+00  0.93800000000E+00 0. -1.
         11    1    1    2    0    0  0.60062718978E-01 -0.74768731394E-01  0.65243741635E+00  0.65944881286E+00  0.51100000000E-03 0.  1.
    9000002    1    1    2    0    0 -0.34419918657E+00  0.43127044172E+00  0.21036842902E+00  0.11084070326E+01  0.93800000000E+00 0. -1.
         22    1    1    2    0    0  0.28413646760E+00 -0.35650171033E+00  0.31371941220E+01  0.31701441546E+01  0.00000000000E+00 0.  1.
</event>
<event>
 5    1  0.3368139E+002  0.1532841E+01  0.7818608E-02  0.3429644E+00
         11   -1    0    0    0    0  0.00000000000E+00  0.00000000000E+00  0.39999999674E+01  0.40000000000E+01  0.51100000000E-03 0. -1.
    9000002   -1    0    0    0    0 -0.00000000000E+00 -0.00000000000E+00  0.00000000000E+00  0.93800000000E+00  0.93800000000E+00 0. -1.
         11    1    1    2    0    0  0.39045491009E+00 -0.47174052817E+00  0.90303234470E+00  0.10910828747E+01  0.51100000000E-03 0. -1.
    9000002    1    1    2    0    0 -0.93803666215E+00  0.54734106310E+00  0.11987488817E+01  0.18698496999E+01  0.93800000000E+00 0. -1.
         22    1    1    2    0    0  0.54758175206E+00 -0.75600534927E-01  0.18982187409E+01  0.19770674254E+01  0.00000000000E+00 0. -1.
</event>
<event>
 5    1  0.3368139E+002  0.1561282E+01  0.7818608E-02  0.3396490E+00
         11   -1    0    0    0    0  0.00000000000E+00  0.00000000000E+00  0.39999999674E+01  0.40000000000E+01  0.51100000000E-03 0.  1.
    9000002   -1    0    0    0    0 -0.00000000000E+00 -0.00000000000E+00  0.00000000000E+00  0.93800000000E+00  0.93800000000E+00 0.  1.
         11    1    1    2    0    0 -0.35060027434E-01 -0.19101869249E-01  0.16005146308E-01  0.43017586657E-01  0.51100000000E-03 0.  1.
    9000002    1    1    2    0    0  0.31992635652E-01 -0.23906417023E+00  0.68444664918E-01  0.97092938898E+00  0.93800000000E+00 0.  1.
         22    1    1    2    0    0  0.30673917827E-02  0.25816603948E+00  0.39155501561E+01  0.39240530244E+01  0.00000000000E+00 0.  1.
</event>
<event>
 5    1  0.3536758E+002  0.1515369E+01  0.7818608E-02  0.3450673E+00
         11   -1    0    0    0    0  0.00000000000E+00  0.00000000000E+00  0.39999999674E+01  0.40000000000E+01  0.51100000000E-03 0.  1.
    9000002   -1    0    0    0    0 -0.00000000000E+00 -0.00000000000E+00  0.00000000000E+00  0.93800000000E+00  0.93800000000E+00 0. -1.
         11    1    1    2    0    0 -0.16510597350E+00 -0.13957230855E+00  0.38519725997E+00  0.44172118130E+00  0.51100000000E-03 0.  1.
    9000002    1    1    2    0    0 -0.24955861836E-01  0.70153216789E-01  0.67671403525E-01  0.94338098758E+00  0.93800000000E+00 0. -1.
         22    1    1    2    0    0  0.19006183533E+00  0.69419091762E-01  0.35471313039E+01  0.35528978311E+01  0.00000000000E+00 0.  1.
</event>
<event>
 5    1  0.3368139E+002  0.1532995E+01  0.7818608E-02  0.3429461E+00
         11   -1    0    0    0    0  0.00000000000E+00  0.00000000000E+00  0.39999999674E+01  0.40000000000E+01  0.51100000000E-03 0. -1.
    9000002   -1    0    0    0    0 -0.00000000000E+00 -0.00000000000E+00  0.00000000000E+00  0.93800000000E+00  0.93800000000E+00 0.  1.
         11    1    1    2    0    0 -0.10144996638E+00  0.20233546897E+00  0.65092440748E+00  0.68915497753E+00  0.51100000000E-03 0. -1.
    9000002    1    1    2    0    0  0.15714259546E+00  0.10933070565E+00  0.75841369410E-01  0.96033479153E+00  0.93800000000E+00 0.  1.
         22    1    1    2    0    0 -0.55692629075E-01 -0.31166617462E+00  0.32732341905E+01  0.32885102309E+01  0.00000000000E+00 0. -1.
</event>
<event>
 5    1  0.3368139E+002  0.1599139E+01  0.7818608E-02  0.3354299E+00
         11   -1    0    0    0    0  0.00000000000E+00  0.00000000000E+00  0.39999999674E+01  0.40000000000E+01  0.51100000000E-03 0.  1.
    9000002   -1    0    0    0    0 -0.00000000000E+00 -0.00000000000E+00  0.00000000000E+00  0.93800000000E+00  0.93800000000E+00 0.  1.
         11    1    1    2    0    0 -0.13812406849E+00  0.25064714471E+00  0.17874733681E+01  0.18102385346E+01  0.51100000000E-03 0.  1.
    9000002    1    1    2    0    0  0.30794649142E+00 -0.47286095456E+00  0.22106245233E+00  0.11167547321E+01  0.93800000000E+00 0.  1.
         22    1    1    2    0    0 -0.16982242293E+00  0.22221380985E+00  0.19914641470E+01  0.20110067333E+01  0.00000000000E+00 0.  1.
</event>
<event>
 5    1  0.3368139E+002  0.1596650E+01  0.7818608E-02  0.3357008E+00
         11   -1    0    0    0    0  0.00000000000E+00  0.00000000000E+00  0.39999999674E+01  0.40000000000E+01  0.51100000000E-03 0.  1.
    9000002   -1    0    0    0    0 -0.00000000000E+00 -0.00000000000E+00  0.00000000000E+00  0.93800000000E+00  0.93800000000E+00 0.  1.
         11    1    1    2    0    0 -0.76049657850E-02 -0.10100355553E+00  0.17825551306E+01  0.17854306507E+01  0.51100000000E-03 0.  1.
    9000002    1    1    2    0    0 -0.98534058524E-01  0.31125711226E+00  0.73699253259E-01  0.99592446026E+00  0.93800000000E+00 0.  1.
         22    1    1    2    0    0  0.10613902431E+00 -0.21025355673E+00  0.21437455835E+01  0.21566448890E+01  0.00000000000E+00 0.  1.
</event>
<event>
 5    1  0.3368139E+002  0.1598826E+01  0.7818608E-02  0.3354638E+00
         11   -1    0    0    0    0  0.00000000000E+00  0.00000000000E+00  0.39999999674E+01  0.40000000000E+01  0.51100000000E-03 0. -1.
    9000002   -1    0    0    0    0 -0.00000000000E+00 -0.00000000000E+00  0.00000000000E+00  0.93800000000E+00  0.93800000000E+00 0.  1.
         11    1    1    2    0    0  0.20104667368E-02  0.65357886946E-01  0.95181743603E+00  0.95406099806E+00  0.51100000000E-03 0. -1.
    9000002    1    1    2    0    0 -0.13233310090E+00 -0.26065379465E+00  0.57629536831E-01  0.98418372968E+00  0.93800000000E+00 0.  1.
         22    1    1    2    0    0  0.13032263416E+00  0.19529590770E+00  0.29905529945E+01  0.29997552723E+01  0.00000000000E+00 0. -1.
</event>
<event>
 5    1  0.3368139E+002  0.1573326E+01  0.7818608E-02  0.3382833E+00
         11   -1    0    0    0    0  0.00000000000E+00  0.00000000000E+00  0.39999999674E+01  0.40000000000E+01  0.51100000000E-03 0.  1.
    9000002   -1    0    0    0    0 -0.00000000000E+00 -0.00000000000E+00  0.00000000000E+00  0.93800000000E+00  0.93800000000E+00 0. -1.
         11    1    1    2    0    0  0.96275205552E-01 -0.68044511979E-01  0.25356595069E+01  0.25383987801E+01  0.51100000000E-03 0.  1.
    9000002    1    1    2    0    0  0.11201849750E+00 -0.26172375160E-01  0.28272387871E-01  0.94545040320E+00  0.93800000000E+00 0. -1.
         22    1    1    2    0    0 -0.20829370305E+00  0.94216887139E-01  0.14360680726E+01  0.14541508167E+01  0.00000000000E+00 0.  1.
</event>
<event>
 5    1  0.3368139E+002  0.1591653E+01  0.7818608E-02  0.3362473E+00
         11   -1    0    0    0    0  0.00000000000E+00  0.00000000000E+00  0.39999999674E+01  0.40000000000E+01  0.51100000000E-03 0.  1.
    9000002   -1    0    0    0    0 -0.00000000000E+00 -0.00000000000E+00  0.00000000000E+00  0.93800000000E+00  0.93800000000E+00 0. -1.
         11    1    1    2    0    0 -0.21708971102E-01 -0.42574238164E-01  0.37167479310E+00  0.37473491715E+00  0.51100000000E-03 0.  1.
    9000002    1    1    2    0    0 -0.23416961829E+00 -0.28530027293E-01  0.43049277502E-01  0.96816662454E+00  0.93800000000E+00 0. -1.
         22    1    1    2    0    0  0.25587858939E+00  0.71104265457E-01  0.35852758968E+01  0.35950984583E+01  0.00000000000E+00 0.  1.
</event>
<event>
 5    1  0.3368139E+002  0.1599677E+01  0.7818608E-02  0.3353714E+00
         11   -1    0    0    0    0  0.00000000000E+00  0.00000000000E+00  0.39999999674E+01  0.40000000000E+01  0.51100000000E-03 0. -1.
    9000002   -1    0    0    0    0 -0.00000000000E+00 -0.00000000000E+00  0.00000000000E+00  0.93800000000E+00  0.93800000000E+00 0.  1.
         11    1    1    2    0    0  0.10966369608E+00 -0.38781037946E-02  0.10073648098E+01  0.10133238806E+01  0.51100000000E-03 0. -1.
    9000002    1    1    2    0    0 -0.42131041491E+00  0.16733250106E-01  0.12026222972E+00  0.10354175348E+01  0.93800000000E+00 0.  1.
         22    1    1    2    0    0  0.31164671884E+00 -0.12855146311E-01  0.28723729279E+01  0.28892585846E+01  0.00000000000E+00 0. -1.
</event>
<event>
 5    1  0.3368139E+002  0.1451340E+01  0.7818608E-02  0.3532410E+00
         11   -1    0    0    0    0  0.00000000000E+00  0.00000000000E+00  0.39999999674E+01  0.40000000000E+01  0.51100000000E-03 0. -1.
    9000002   -1    0    0    0    0 -0.00000000000E+00 -0.00000000000E+00  0.00000000000E+00  0.93800000000E+00  0.93800000000E+00 0. -1.
         11    1    1    2    0    0 -0.24455555361E+00  0.25909044246E+00  0.13687870676E+01  0.14143951264E+01  0.51100000000E-03 0. -1.
    9000002    1    1    2    0    0  0.36315115429E+00  0.49667814436E+00  0.44399820849E+00  0.12064602559E+01  0.93800000000E+00 0. -1.
         22    1    1    2    0    0 -0.11859560068E+00 -0.75576858683E+00  0.21872146913E+01  0.23171446177E+01  0.00000000000E+00 0. -1.
</event>
<event>
 5    1  0.3368139E+002  0.1599677E+01  0.7818608E-02  0.3353714E+00
         11   -1    0    0    0    0  0.00000000000E+00  0.00000000000E+00  0.39999999674E+01  0.40000000000E+01  0.51100000000E-03 0.  1.
    9000002   -1    0    0    0    0 -0.00000000000E+00 -0.00000000000E+00  0.00000000000E+00  0.93800000000E+00  0.93800000000E+00 0.  1.
         11    1    1    2    0    0  0.52739215311E+00  0.11505635549E+00  0.19961267517E+01  0.20678256015E+01  0.51100000000E-03 0.  1.
    9000002    1    1    2    0    0 -0.88965804921E+00 -0.19352152418E+00  0.63741097725E+00  0.14543310417E+01  0.93800000000E+00 0.  1.
         22    1    1    2    0    0  0.36226589611E+00  0.78465168692E-01  0.13664622384E+01  0.14158433568E+01  0.00000000000E+00 0.  1.
</event>
<event>
 5    1  0.3368139E+002  0.1599676E+01  0.7818608E-02  0.3353716E+00
         11   -1    0    0    0    0  0.00000000000E+00  0.00000000000E+00  0.39999999674E+01  0.40000000000E+01  0.51100000000E-03 0.  1.
    9000002   -1    0    0    0    0 -0.00000000000E+00 -0.00000000000E+00  0.00000000000E+00  0.93800000000E+00  0.93800000000E+00 0.  1.
         11    1    1    2    0    0 -0.25707582568E-01  0.32743011495E-02  0.28693899283E+00  0.28810735426E+00  0.51100000000E-03 0.  1.
    9000002    1    1    2    0    0  0.34953077451E+00 -0.52878655621E-01  0.83826043328E-01  0.10059019436E+01  0.93800000000E+00 0.  1.
         22    1    1    2    0    0 -0.32382319194E+00  0.49604354472E-01  0.36292349312E+01  0.36439907022E+01  0.00000000000E+00 0.  1.
</event>
<event>
 5    1  0.3368139E+002  0.1599653E+01  0.7818608E-02  0.3353740E+00
         11   -1    0    0    0    0  0.00000000000E+00  0.00000000000E+00  0.39999999674E+01  0.40000000000E+01  0.51100000000E-03 0. -1.
    9000002   -1    0    0    0    0 -0.00000000000E+00 -0.00000000000E+00  0.00000000000E+00  0.93800000000E+00  0.93800000000E+00 0.  1.
         11    1    1    2    0    0  0.89142774080E-01  0.34811009191E+00  0.22749131431E+01  0.23031190026E+01  0.51100000000E-03 0. -1.
    9000002    1    1    2    0    0 -0.15178095198E+00 -0.56685028755E+00  0.23961543836E+00  0.11320849192E+01  0.93800000000E+00 0.  1.
         22    1    1    2    0    0  0.62638177900E-01  0.21874019564E+00  0.14854713859E+01  0.15027960782E+01  0.00000000000E+00 0.  1.
</event>
<event>
 5    1  0.3368139E+002  0.1530994E+01  0.7818608E-02  0.3431843E+00
         11   -1    0    0    0    0  0.00000000000E+00  0.00000000000E+00  0.39999999674E+01  0.40000000000E+01  0.51100000000E-03 0. -1.
    9000002   -1    0    0    0    0 -0.00000000000E+00 -0.00000000000E+00  0.00000000000E+00  0.93800000000E+00  0.93800000000E+00 0.  1.
         11    1    1    2    0    0  0.25632222368E+00  0.22975761603E+00  0.16387807467E+01  0.16745423976E+01  0.51100000000E-03 0. -1.
    9000002    1    1    2    0    0 -0.18669691356E+00  0.60879938257E-01  0.78815683650E-01  0.96157059876E+00  0.93800000000E+00 0.  1.
         22    1    1    2    0    0 -0.69625310119E-01 -0.29063755429E+00  0.22824035370E+01  0.23018870036E+01  0.00000000000E+00 0.  1.
</event>
<event>
 5    1  0.3368139E+002  0.1587051E+01  0.7818608E-02  0.3367538E+00
         11   -1    0    0    0    0  0.00000000000E+00  0.00000000000E+00  0.39999999674E+01  0.40000000000E+01  0.51100000000E-03 0.  1.
    9000002   -1    0    0    0    0 -0.00000000000E+00 -0.00000000000E+00  0.00000000000E+00  0.93800000000E+00  0.93800000000E+00 0.  1.
         11    1    1    2    0    0  0.51880016628E-01 -0.59705864420E-01  0.82811427199E+00  0.83188330610E+00  0.51100000000E-03 0.  1.
    9000002    1    1    2    0    0  0.13116790934E+00 -0.78541977827E-01  0.24819720959E-01  0.95070178356E+00  0.93800000000E+00 0.  1.
         22    1    1    2    0    0 -0.18304792597E+00  0.13824784225E+00  0.31470659744E+01  0.31554149103E+01  0.00000000000E+00 0.  1.
</event>
<event>
 5    1  0.3368139E+002  0.1590619E+01  0.7818608E-02  0.3363608E+00
         11   -1    0    0    0    0  0.00000000000E+00  0.00000000000E+00  0.39999999674E+01  0.40000000000E+01  0.51100000000E-03 0.  1.
    9000002   -1    0    0    0    0 -0.00000000000E+00 -0.00000000000E+00  0.00000000000E+00  0.93800000000E+00  0.93800000000E+00 0. -1.
         11    1    1    2    0    0  0.20872051438E-01  0.83497066350E-01  0.43281140517E+00  0.44128604804E+00  0.51100000000E-03 0.  1.
    9000002    1    1    2    0    0 -0.31715097478E+00 -0.11617069367E+00  0.83666163669E-01  0.10004620921E+01  0.93800000000E+00 0. -1.
         22    1    1    2    0    0  0.29627892334E+00  0.32673627321E-01  0.34835223985E+01  0.34962518598E+01  0.00000000000E+00 0.  1.
</event>
<event>
 5    1  0.3368139E+002  0.1599676E+01  0.7818608E-02  0.3353715E+00
         11   -1    0    0    0    0  0.00000000000E+00  0.00000000000E+00  0.39999999674E+01  0.40000000000E+01  0.51100000000E-03 0.  1.
    9000002   -1    0    0    0    0 -0.00000000000E+00 -0.00000000000E+00  0.00000000000E+00  0.93800000000E+00  0.93800000000E+00 0.  1.
         11    1    1    2    0    0  0.30922775587E-01 -0.16924745954E+00  0.17416600858E+01  0.17501374335E+01  0.51100000000E-03 0.  1.
    9000002    1    1    2    0    0 -0.66337681363E-01  0.37929697805E+00  0.99822388831E-01  0.10188598504E+01  0.93800000000E+00 0.  1.
         22    1    1    2    0    0  0.35414905776E-01 -0.21004951851E+00  0.21585174928E+01  0.21690027161E+01  0.00000000000E+00 0.  1.
</event>
<event>
 5    1  0.3368139E+002  0.1481158E+01  0.7818608E-02  0.3493395E+00
         11   -1    0    0    0    0  0.00000000000E+00  0.00000000000E+00  0.39999999674E+01  0.40000000000E+01  0.51100000000E-03 0.  1.
    9000002   -1    0    0    0    0 -0.00000000000E+00 -0.00000000000E+00  0.00000000000E+00  0.93800000000E+00  0.93800000000E+00 0. -1.
         11    1    1    2    0    0 -0.25606687331E+00 -0.47915039193E+00  0.18745752073E+01  0.19517140699E+01  0.51100000000E-03 0.  1.
    9000002    1    1    2    0    0  0.40264877900E+00  0.13708688801E+00  0.23082485104E+00  0.10554823381E+01  0.93800000000E+00 0. -1.
         22    1    1    2    0    0 -0.14658190569E+00  0.34206350392E+00  0.18945999090E+01  0.19308035920E+01  0.00000000000E+00 0.  1.
</event>
<event>
 5    1  0.3368139E+002  0.1599583E+01  0.7818608E-02  0.3353816E+00
         11   -1    0    0    0    0  0.00000000000E+00  0.00000000000E+00  0.39999999674E+01  0.40000000000E+01  0.51100000000E-03 0.  1.
    9000002   -1    0    0    0    0 -0.00000000000E+00 -0.00000000000E+00  0.00000000000E+00  0.93800000000E+00  0.93800000000E+00 0.  1.
         11    1    1    2    0    0  0.38032501273E-01  0.78072931985E-01  0.10720342100E+01  0.10755461228E+01  0.51100000000E-03 0.  1.
    9000002    1    1    2    0    0 -0.10295856681E+00 -0.29675984118E+00  0.65984360133E-01  0.99139538308E+00  0.93800000000E+00 0.  1.
         22    1    1    2    0    0  0.64926065540E-01  0.21868690919E+00  0.28619813973E+01  0.28710584941E+01  0.00000000000E+00 0.  1.
</event>
<event>
 5    1  0.3368139E+002  0.1599677E+01  0.7818608E-02  0.3353714E+00
         11   -1    0    0    0    0  0.00000000000E+00  0.00000000000E+00  0.39999999674E+01  0.40000000000E+01  0.51100000000E-03 0.  1.
    9000002   -1    0    0    0    0 -0.00000000000E+00 -0.00000000000E+00  0.00000000000E+00  0.93800000000E+00  0.93800000000E+00 0.  1.
         11    1    1    2    0    0 -0.30491120065E+00 -0.19374792086E-01  0.22809281415E+01  0.23012995613E+01  0.51100000000E-03 0.  1.
    9000002    1    1    2    0    0  0.51102860105E+00  0.31777906686E-01  0.17983127410E+00  0.10836712387E+01  0.93800000000E+00 0.  1.
         22    1    1    2    0    0 -0.20611740040E+00 -0.12403114600E-01  0.15392405517E+01  0.15530292000E+01  0.00000000000E+00 0.  1.
</event>
<event>
 5    1  0.3908823E+002  0.1584809E+01  0.7818608E-02  0.3370018E+00
         11   -1    0    0    0    0  0.00000000000E+00  0.00000000000E+00  0.39999999674E+01  0.40000000000E+01  0.51100000000E-03 0.  1.
    9000002   -1    0    0    0    0 -0.00000000000E+00 -0.00000000000E+00  0.00000000000E+00  0.93800000000E+00  0.93800000000E+00 0. -1.
         11    1    1    2    0    0 -0.44720846628E-01  0.64692019704E-01  0.19977989009E+01  0.19993463234E+01  0.51100000000E-03 0.  1.
    9000002    1    1    2    0    0 -0.53616497445E-01  0.12625652621E+00  0.23436064878E-01  0.94826614848E+00  0.93800000000E+00 0. -1.
         22    1    1    2    0    0  0.98337344073E-01 -0.19094854591E+00  0.19787650016E+01  0.19903875281E+01  0.00000000000E+00 0.  1.
</event>
<event>
 5    1  0.3368139E+002  0.1599662E+01  0.7818608E-02  0.3353730E+00
         11   -1    0    0    0    0  0.00000000000E+00  0.00000000000E+00  0.39999999674E+01  0.40000000000E+01  0.51100000000E-03 0. -1.
    9000002   -1    0    0    0    0 -0.00000000000E+00 -0.00000000000E+00  0.00000000000E+00  0.93800000000E+00  0.93800000000E+00 0. -1.
         11    1    1    2    0    0  0.35901929860E-02  0.95724889899E-01  0.36286775606E+00  0.37529909878E+00  0.51100000000E-03 0. -1.
    9000002    1    1    2    0    0 -0.38137426421E-01 -0.91250489844E+00  0.64222933918E+00  0.14582256948E+01  0.93800000000E+00 0. -1.
         22    1    1    2    0    0  0.34547233435E-01  0.81678000854E+00  0.29949028721E+01  0.31044752064E+01  0.00000000000E+00 0. -1.
</event>
<event>
 5    1  0.3368139E+002  0.1599467E+01  0.7818608E-02  0.3353942E+00
         11   -1    0    0    0    0  0.00000000000E+00  0.00000000000E+00  0.39999999674E+01  0.40000000000E+01  0.51100000000E-03 0. -1.
    9000002   -1    0    0    0    0 -0.00000000000E+00 -0.00000000000E+00  0.00000000000E+00  0.93800000000E+00  0.93800000000E+00 0. -1.
         11    1    1    2    0    0 -0.23808922037E+00 -0.67577645650E-01  0.16237551287E+01  0.16425085065E+01  0.51100000000E-03 0. -1.
    9000002    1    1    2    0    0  0.55373044248E+00  0.11704020110E+00  0.22212841976E+00  0.11178107382E+01  0.93800000000E+00 0. -1.
         22    1    1    2    0    0 -0.31564122211E+00 -0.49462555449E-01  0.21541164189E+01  0.21776807553E+01  0.00000000000E+00 0. -1.
</event>
<event>
 5    1  0.3368139E+002  0.1573334E+01  0.7818608E-02  0.3382824E+00
         11   -1    0    0    0    0  0.00000000000E+00  0.00000000000E+00  0.39999999674E+01  0.40000000000E+01  0.51100000000E-03 0.  1.
    9000002   -1    0    0    0    0 -0.00000000000E+00 -0.00000000000E+00  0.00000000000E+00  0.93800000000E+00  0.93800000000E+00 0. -1.
         11    1    1    2    0    0  0.47278709089E-01  0.73211988635E-01  0.19787742089E+00  0.21621981045E+00  0.51100000000E-03 0.  1.
    9000002    1    1    2    0    0 -0.34747067708E+00  0.17959062794E+00  0.12519361780E+00  0.10239658720E+01  0.93800000000E+00 0. -1.
         22    1    1    2    0    0  0.30019196799E+00 -0.25280261658E+00  0.36769289287E+01  0.36978143176E+01  0.00000000000E+00 0.  1.
</event>
<event>
 5    1  0.3368139E+002  0.1599657E+01  0.7818608E-02  0.3353735E+00
         11   -1    0    0    0    0  0.00000000000E+00  0.00000000000E+00  0.39999999674E+01  0.40000000000E+01  0.51100000000E-03 0.  1.
    9000002   -1    0    0    0    0 -0.00000000000E+00 -0.00000000000E+00  0.00000000000E+00  0.93800000000E+00  0.93800000000E+00 0. -1.
         11    1    1    2    0    0  0.45252089095E-01  0.32049807253E-01  0.86782942902E+00  0.86959940243E+00  0.51100000000E-03 0.  1.
    9000002    1    1    2    0    0 -0.22566423750E+00 -0.15033206605E+00  0.48939266884E-01  0.97763138760E+00  0.93800000000E+00 0. -1.
         22    1    1    2    0    0  0.18041214841E+00  0.11828225880E+00  0.30832312715E+01  0.30907692100E+01  0.00000000000E+00 0.  1.
</event>
<event>
 5    1  0.3368139E+002  0.1599617E+01  0.7818608E-02  0.3353779E+00
         11   -1    0    0    0    0  0.00000000000E+00  0.00000000000E+00  0.39999999674E+01  0.40000000000E+01  0.51100000000E-03 0. -1.
    9000002   -1    0    0    0    0 -0.00000000000E+00 -0.00000000000E+00  0.00000000000E+00  0.93800000000E+00  0.93800000000E+00 0. -1.
         11    1    1    2    0    0 -0.46613990745E-01 -0.25054970914E+00  0.19273083417E+01  0.19440848043E+01  0.51100000000E-03 0. -1.
    9000002    1    1    2    0    0  0.77825031078E-01  0.50794864975E+00  0.18125368063E+00  0.10847882111E+01  0.93800000000E+00 0. -1.
         22    1    1    2    0    0 -0.31211040333E-01 -0.25739894060E+00  0.18914379450E+01  0.19091269846E+01  0.00000000000E+00 0. -1.
</event>
<event>
 5    1  0.3368139E+002  0.1599675E+01  0.7818608E-02  0.3353716E+00
         11   -1    0    0    0    0  0.00000000000E+00  0.00000000000E+00  0.39999999674E+01  0.40000000000E+01  0.51100000000E-03 0. -1.
    9000002   -1    0    0    0    0 -0.00000000000E+00 -0.00000000000E+00  0.00000000000E+00  0.93800000000E+00  0.93800000000E+00 0.  1.
         11    1    1    2    0    0  0.12060820770E-01  0.38036995922E-01  0.38106072858E+00  0.38314464167E+00  0.51100000000E-03 0. -1.
    9000002    1    1    2    0    0 -0.12469272963E+00 -0.37998194719E+00  0.10787936622E+00  0.10253860320E+01  0.93800000000E+00 0.  1.
         22    1    1    2    0    0  0.11263190886E+00  0.34194495127E+00  0.35110598726E+01  0.35294693263E+01  0.00000000000E+00 0. -1.
</event>
<event>
 5    1  0.3368139E+002  0.1591777E+01  0.7818608E-02  0.3362337E+00
         11   -1    0    0    0    0  0.00000000000E+00  0.00000000000E+00  0.39999999674E+01  0.40000000000E+01  0.51100000000E-03 0. -1.
    9000002   -1    0    0    0    0 -0.00000000000E+00 -0.00000000000E+00  0.00000000000E+00  0.93800000000E+00  0.93800000000E+00 0.  1.
         11    1    1    2    0    0 -0.92717007031E-01  0.12048410363E-01  0.11810666023E+01  0.11847616586E+01  0.51100000000E-03 0. -1.
    9000002    1    1    2    0    0  0.10236861315E+00 -0.29309380813E+00  0.70606168303E-01  0.99056173171E+00  0.93800000000E+00 0.  1.
         22    1    1    2    0    0 -0.96516061142E-02  0.28104539777E+00  0.27483271968E+01  0.27626766097E+01  0.00000000000E+00 0. -1.
</event>
<event>
 5    1  0.3368139E+002  0.1599666E+01  0.7818608E-02  0.3353726E+00
         11   -1    0    0    0    0  0.00000000000E+00  0.00000000000E+00  0.39999999674E+01  0.40000000000E+01  0.51100000000E-03 0.  1.
    9000002   -1    0    0    0    0 -0.00000000000E+00 -0.00000000000E+00  0.00000000000E+00  0.93800000000E+00  0.93800000000E+00 0. -1.
         11    1    1    2    0    0  0.18283494276E+00 -0.52020596079E-01  0.10988117811E+01  0.11151333329E+01  0.51100000000E-03 0.  1.
    9000002    1    1    2    0    0 -0.62721061930E+00  0.17925363337E+00  0.30045045145E+00  0.11813718719E+01  0.93800000000E+00 0. -1.
         22    1    1    2    0    0  0.44437567654E+00 -0.12723303729E+00  0.26007377348E+01  0.26414947952E+01  0.00000000000E+00 0.  1.
</event>
<event>
 5    1  0.3854535E+002  0.1567908E+01  0.7818608E-02  0.3388948E+00
         11   -1    0    0    0    0  0.00000000000E+00  0.00000000000E+00  0.39999999674E+01  0.40000000000E+01  0.51100000000E-03 0. -1.
    9000002   -1    0    0    0    0 -0.00000000000E+00 -0.00000000000E+00  0.00000000000E+00  0.93800000000E+00  0.93800000000E+00 0. -1.
         11    1    1    2    0    0  0.80715568810E-01  0.98359216335E-01  0.28893705923E+01  0.28921708489E+01  0.51100000000E-03 0. -1.
    9000002    1    1    2    0    0  0.84217285953E-02  0.99338900402E-01  0.30111755323E-01  0.94376366769E+00  0.93800000000E+00 0. -1.
         22    1    1    2    0    0 -0.89137297405E-01 -0.19769811674E+00  0.10805176198E+01  0.11020654834E+01  0.00000000000E+00 0.  1.
</event>
<event>
 5    1  0.3368139E+002  0.1599514E+01  0.7818608E-02  0.3353891E+00
         11   -1    0    0    0    0  0.00000000000E+00  0.00000000000E+00  0.39999999674E+01  0.40000000000E+01  0.51100000000E-03 0.  1.
    9000002   -1    0    0    0    0 -0.00000000000E+00 -0.00000000000E+00  0.00000000000E+00  0.93800000000E+00  0.93800000000E+00 0.  1.
         11    1    1    2    0    0  0.11149080553E-01 -0.65218322080E-02  0.37893869233E+00  0.37915910903E+00  0.51100000000E-03 0.  1.
    9000002    1    1    2    0    0 -0.19682177092E+00  0.11835553936E+00  0.35110619065E-01  0.96634548624E+00  0.93800000000E+00 0.  1.
         22    1    1    2    0    0  0.18567269037E+00 -0.11183370715E+00  0.35859506560E+01  0.35924954047E+01  0.00000000000E+00 0.  1.
</event>
<event>
 5    1  0.3368139E+002  0.1599041E+01  0.7818608E-02  0.3354405E+00
         11   -1    0    0    0    0  0.00000000000E+00  0.00000000000E+00  0.39999999674E+01  0.40000000000E+01  0.51100000000E-03 0.  1.
    9000002   -1    0    0    0    0 -0.00000000000E+00 -0.00000000000E+00  0.00000000000E+00  0.93800000000E+00  0.93800000000E+00 0. -1.
         11    1    1    2    0    0  0.23746308863E+00 -0.24293797157E+00  0.22193071481E+01  0.22451574678E+01  0.51100000000E-03 0.  1.
    9000002    1    1    2    0    0 -0.37396552429E+00  0.45345633066E+00  0.24103944423E+00  0.11328799013E+01  0.93800000000E+00 0. -1.
         22    1    1    2    0    0  0.13650243566E+00 -0.21051835909E+00  0.15396533750E+01  0.15599626309E+01  0.00000000000E+00 0.  1.
</event>
<event>
 5    1  0.3368139E+002  0.1598876E+01  0.7818608E-02  0.3354585E+00
         11   -1    0    0    0    0  0.00000000000E+00  0.00000000000E+00  0.39999999674E+01  0.40000000000E+01  0.51100000000E-03 0. -1.
    9000002   -1    0    0    0    0 -0.00000000000E+00 -0.00000000000E+00  0.00000000000E+00  0.93800000000E+00  0.93800000000E+00 0.  1.
         11    1    1    2    0    0  0.16027922423E+00  0.44712004354E-01  0.20660033820E+01  0.20726936167E+01  0.51100000000E-03 0. -1.
    9000002    1    1    2    0    0 -0.35007626741E+00 -0.12869009302E+00  0.94178127104E-01  0.10138185502E+01  0.93800000000E+00 0.  1.
         22    1    1    2    0    0  0.18979704318E+00  0.83978088663E-01  0.18398184582E+01  0.18514878331E+01  0.00000000000E+00 0. -1.
</event>
<event>
 5    1  0.3368139E+002  0.1599677E+01  0.7818608E-02  0.3353714E+00
         11   -1    0    0    0    0  0.00000000000E+00  0.00000000000E+00  0.39999999674E+01  0.40000000000E+01  0.51100000000E-03 0. -1.
    9000002   -1    0    0    0    0 -0.00000000000E+00 -0.00000000000E+00  0.00000000000E+00  0.93800000000E+00  0.93800000000E+00 0. -1.
         11    1    1    2    0    0 -0.20619974046E+00  0.21562758761E+00  0.21250261690E+01  0.21458681389E+01  0.51100000000E-03 0. -1.
    9000002    1    1    2    0    0  0.36876310752E+00 -0.38549679724E+00  0.19596570888E+00  0.10967408852E+01  0.93800000000E+00 0. -1.
         22    1    1    2    0    0 -0.16256336706E+00  0.16986920963E+00  0.16790080895E+01  0.16953909759E+01  0.00000000000E+00 0.  1.
</event>
<event>
 5    1  0.3368139E+002  0.1599675E+01  0.7818608E-02  0.3353716E+00
         11   -1    0    0    0    0  0.00000000000E+00  0.00000000000E+00  0.39999999674E+01  0.40000000000E+01  0.51100000000E-03 0.  1.
    9000002   -1    0    0    0    0 -0.00000000000E+00 -0.00000000000E+00  0.00000000000E+00  0.93800000000E+00  0.93800000000E+00 0. -1.
         11    1    1    2    0    0 -0.77272084698E-01 -0.27431231021E-02  0.67909946145E+00  0.68348726357E+00  0.51100000000E-03 0.  1.
    9000002    1    1    2    0    0  0.44390025899E+00  0.20987409285E-01  0.13402222273E+00  0.10465628827E+01  0.93800000000E+00 0. -1.
         22    1    1    2    0    0 -0.36662817430E+00 -0.18244286183E-01  0.31868782832E+01  0.32079498537E+01  0.00000000000E+00 0.  1.
</event>
<event>
 5    1  0.3368139E+002  0.1599676E+01  0.7818608E-02  0.3353715E+00
         11   -1    0    0    0    0  0.00000000000E+00  0.00000000000E+00  0.39999999674E+01  0.40000000000E+01  0.51100000000E-03 0. -1.
    9000002   -1    0    0    0    0 -0.00000000000E+00 -0.00000000000E+00  0.00000000000E+00  0.93800000000E+00  0.93800000000E+00 0. -1.
         11    1    1    2    0    0  0.92433672607E-01  0.30818236405E-01  0.91763130255E+00  0.92278990895E+00  0.51100000000E-03 0. -1.
    9000002    1    1    2    0    0 -0.38899024852E+00 -0.12702247004E+00  0.11308330401E+00  0.10296018429E+01  0.93800000000E+00 0. -1.
         22    1    1    2    0    0  0.29655657592E+00  0.96204233637E-01  0.29692853608E+01  0.29856082481E+01  0.00000000000E+00 0. -1.
</event>
<event>
 5    1  0.3368139E+002  0.1599651E+01  0.7818608E-02  0.3353742E+00
         11   -1    0    0    0    0  0.00000000000E+00  0.00000000000E+00  0.39999999674E+01  0.40000000000E+01  0.51100000000E-03 0. -1.
    9000002   -1    0    0    0    0 -0.00000000000E+00 -0.00000000000E+00  0.00000000000E+00  0.93800000000E+00  0.93800000000E+00 0.  1.
         11    1    1    2    0    0 -0.10435225210E+00  0.11732627362E-01  0.91847398415E+00  0.92445755324E+00  0.51100000000E-03 0. -1.
    9000002    1    1    2    0    0  0.44239182338E+00 -0.27865789266E-01  0.13334157230E+00  0.10459976111E+01  0.93800000000E+00 0.  1.
         22    1    1    2    0    0 -0.33803957128E+00  0.16133161904E-01  0.29481844109E+01  0.29675448356E+01  0.00000000000E+00 0. -1.
</event>
<event>
 5    1  0.3368139E+002  0.1599651E+01  0.7818608E-02  0.3353743E+00
         11   -1    0    0    0    0  0.00000000000E+00  0.00000000000E+00  0.39999999674E+01  0.40000000000E+01  0.51100000000E-03 0. -1.
    9000002   -1    0    0    0    0 -0.00000000000E+00 -0.00000000000E+00  0.00000000000E+00  0.93800000000E+00  0.93800000000E+00 0.  1.
         11    1    1    2    0    0 -0.55232558168E-01  0.25329063480E+00  0.16842020691E+01  0.17040374561E+01  0.51100000000E-03 0. -1.
    9000002    1    1    2    0    0  0.12134249259E+00 -0.57866925530E+00  0.24347806103E+00  0.11352126117E+01  0.93800000000E+00 0.  1.
         22    1    1    2    0    0 -0.66109934425E-01  0.32537862050E+00  0.20723198372E+01  0.20987499322E+01  0.00000000000E+00 0. -1.
</event>
<event>
 5    1  0.3368139E+002  0.1599463E+01  0.7818608E-02  0.3353947E+00
         11   -1    0    0    0    0  0.00000000000E+00  0.00000000000E+00  0.39999999674E+01  0.40000000000E+01  0.51100000000E-03 0. -1.
    9000002   -1    0    0    0    0 -0.00000000000E+00 -0.00000000000E+00  0.00000000000E+00  0.93800000000E+00  0.93800000000E+00 0. -1.
         11    1    1    2    0    0  0.35349022920E+00  0.21213021958E+00  0.21453273036E+01  0.21845786946E+01  0.51100000000E-03 0. -1.
    9000002    1    1    2    0    0 -0.62695143062E+00 -0.35417897035E+00  0.37286699455E+00  0.12399131562E+01  0.93800000000E+00 0. -1.
         22    1    1    2    0    0  0.27346120142E+00  0.14204875078E+00  0.14818056692E+01  0.15135081492E+01  0.00000000000E+00 0. -1.
</event>
<event>
 5    1  0.3368139E+002  0.1426967E+01  0.7818608E-02  0.3565624E+00
         11   -1    0    0    0    0  0.00000000000E+00  0.00000000000E+00  0.39999999674E+01  0.40000000000E+01  0.51100000000E-03 0. -1.
    9000002   -1    0    0    0    0 -0.00000000000E+00 -0.00000000000E+00  0.00000000000E+00  0.93800000000E+00  0.93800000000E+00 0.  1.
         11    1    1    2    0    0 -0.34946206001E+00 -0.28219467678E+00  0.17764722176E+01  0.18323786093E+01  0.51100000000E-03 0. -1.
    9000002    1    1    2    0    0  0.32102093158E+00 -0.36937869205E+00  0.33828636785E+00  0.11107550240E+01  0.93800000000E+00 0.  1.
         22    1    1    2    0    0  0.28441128434E-01  0.65157336883E+00  0.18852413819E+01  0.19948663667E+01  0.00000000000E+00 0. -1.
</event>
<event>
 5    1  0.3368139E+002  0.1599671E+01  0.7818608E-02  0.3353721E+00
         11   -1    0    0    0    0  0.00000000000E+00  0.00000000000E+00  0.39999999674E+01  0.40000000000E+01  0.51100000000E-03 0. -1.
    9000002   -1    0    0    0    0 -0.00000000000E+00 -0.00000000000E+00  0.00000000000E+00  0.93800000000E+00  0.93800000000E+00 0.  1.
         11    1    1    2    0    0  0.34768021683E+00 -0.50281770505E-01  0.20599713595E+01  0.20897109975E+01  0.51100000000E-03 0. -1.
    9000002    1    1    2    0    0 -0.62870208390E+00  0.95792830389E-01  0.28445612147E+00  0.11684185302E+01  0.93800000000E+00 0.  1.
         22    1    1    2    0    0  0.28102186707E+00 -0.45511059883E-01  0.16555724863E+01  0.16798704723E+01  0.00000000000E+00 0. -1.
</event>
<event>
 5    1  0.3368139E+002  0.1599608E+01  0.7818608E-02  0.3353789E+00
         11   -1    0    0    0    0  0.00000000000E+00  0.00000000000E+00  0.39999999674E+01  0.40000000000E+01  0.51100000000E-03 0. -1.
    9000002   -1    0    0    0    0 -0.00000000000E+00 -0.00000000000E+00  0.00000000000E+00  0.93800000000E+00  0.93800000000E+00 0.  1.
         11    1    1    2    0    0  0.35508945083E-02 -0.10859232827E-04  0.33116277457E-01  0.33310027369E-01  0.51100000000E-03 0. -1.
    9000002    1    1    2    0    0 -0.21733220991E+00  0.27189114084E-01  0.31849011390E-01  0.96375873377E+00  0.93800000000E+00 0.  1.
         22    1    1    2    0    0  0.21378131540E+00 -0.27178254851E-01  0.39350346785E+01  0.39409312389E+01  0.00000000000E+00 0. -1.
</event>
<event>
 5    1  0.3368139E+002  0.1597472E+01  0.7818608E-02  0.3356111E+00
         11   -1    0    0    0    0  0.00000000000E+00  0.00000000000E+00  0.39999999674E+01  0.40000000000E+01  0.51100000000E-03 0. -1.
    9000002   -1    0    0    0    0 -0.00000000000E+00 -0.00000000000E+00  0.00000000000E+00  0.93800000000E+00  0.93800000000E+00 0. -1.
         11    1    1    2    0    0 -0.18500253528E+00  0.66033360777E-01  0.18343988982E+01  0.18448864252E+01  0.51100000000E-03 0. -1.
    9000002    1    1    2    0    0  0.45799569162E+00 -0.23057021067E+00  0.18238886076E+00  0.10844502626E+01  0.93800000000E+00 0. -1.
         22    1    1    2    0    0 -0.27299315634E+00  0.16453684989E+00  0.19832122084E+01  0.20086633122E+01  0.00000000000E+00 0. -1.
</event>
<event>
 5    1  0.3368139E+002  0.1596755E+01  0.7818608E-02  0.3356893E+00
         11   -1    0    0    0    0  0.00000000000E+00  0.00000000000E+00  0.39999999674E+01  0.40000000000E+01  0.51100000000E-03 0. -1.
    9000002   -1    0    0    0    0 -0.00000000000E+00 -0.00000000000E+00  0.00000000000E+00  0.93800000000E+00  0.93800000000E+00 0. -1.
         11    1    1    2    0    0 -0.48172756067E-01  0.14464017953E+00  0.18817630970E+01  0.18879284971E+01  0.51100000000E-03 0. -1.
    9000002    1    1    2    0    0  0.23134633776E+00 -0.32703663961E+00  0.11068765832E+00  0.10259482684E+01  0.93800000000E+00 0. -1.
         22    1    1    2    0    0 -0.18317358169E+00  0.18239646008E+00  0.20075492121E+01  0.20241232345E+01  0.00000000000E+00 0. -1.
</event>
<event>
 5    1  0.3368139E+002  0.1599197E+01  0.7818608E-02  0.3354235E+00
         11   -1    0    0    0    0  0.00000000000E+00  0.00000000000E+00  0.39999999674E+01  0.40000000000E+01  0.51100000000E-03 0.  1.
    9000002   -1    0    0    0    0 -0.00000000000E+00 -0.00000000000E+00  0.00000000000E+00  0.93800000000E+00  0.93800000000E+00 0. -1.
         11    1    1    2    0    0  0.15761391736E-02  0.39197093822E-02  0.17376430313E-01  0.17889935376E-01  0.51100000000E-03 0.  1.
    9000002    1    1    2    0    0  0.70025046158E-01 -0.22677746774E+00  0.37749893865E-01  0.96829777520E+00  0.93800000000E+00 0. -1.
         22    1    1    2    0    0 -0.71601185331E-01  0.22285775836E+00  0.39448736432E+01  0.39518122894E+01  0.00000000000E+00 0.  1.
</event>
<event>
 5    1  0.3368139E+002  0.1571150E+01  0.7818608E-02  0.3385284E+00
         11   -1    0    0    0    0  0.00000000000E+00  0.00000000000E+00  0.39999999674E+01  0.40000000000E+01  0.51100000000E-03 0.  1.
    9000002   -1    0    0    0    0 -0.00000000000E+00 -0.00000000000E+00  0.00000000000E+00  0.93800000000E+00  0.93800000000E+00 0.  1.
         11    1    1    2    0    0 -0.49129901521E-01  0.74698440050E-01  0.24221932755E+00  0.25819385727E+00  0.51100000000E-03 0.  1.
    9000002    1    1    2    0    0 -0.21966222609E+00  0.24079520481E-01  0.54232108161E-01  0.96520279653E+00  0.93800000000E+00 0.  1.
         22    1    1    2    0    0  0.26879212761E+00 -0.98777960531E-01  0.37035485316E+01  0.37146033462E+01  0.00000000000E+00 0.  1.
</event>
<event>
 5    1  0.3368139E+002  0.1577568E+01  0.7818608E-02  0.3378076E+00
         11   -1    0    0    0    0  0.00000000000E+00  0.00000000000E+00  0.39999999674E+01  0.40000000000E+01  0.51100000000E-03 0.  1.
    9000002   -1    0    0    0    0 -0.00000000000E+00 -0.00000000000E+00  0.00000000000E+00  0.93800000000E+00  0.93800000000E+00 0.  1.
         11    1    1    2    0    0  0.47789862627E-01 -0.65984132444E-01  0.57725373602E+00  0.58297505399E+00  0.51100000000E-03 0.  1.
    9000002    1    1    2    0    0  0.37605769852E-01 -0.33329067084E+00  0.93174034267E-01  0.10005110024E+01  0.93800000000E+00 0.  1.
         22    1    1    2    0    0 -0.85395632480E-01  0.39927480328E+00  0.33295721971E+01  0.33545139436E+01  0.00000000000E+00 0.  1.
</event>
<event>
 5    1  0.3368139E+002  0.1599659E+01  0.7818608E-02  0.3353734E+00
         11   -1    0    0    0    0  0.00000000000E+00  0.00000000000E+00  0.39999999674E+01  0.40000000000E+01  0.51100000000E-03 0. -1.
    9000002   -1    0    0    0    0 -0.00000000000E+00 -0.00000000000E+00  0.00000000000E+00  0.93800000000E+00  0.93800000000E+00 0. -1.
         11    1    1    2    0    0 -0.13238464190E-01  0.15406762163E+00  0.16059805033E+01  0.16134081092E+01  0.51100000000E-03 0. -1.
    9000002    1    1    2    0    0  0.34713686752E-01 -0.38601724354E+00  0.10117885531E+00  0.10199487797E+01  0.93800000000E+00 0. -1.
         22    1    1    2    0    0 -0.21475222562E-01  0.23194962191E+00  0.22928406088E+01  0.23046431111E+01  0.00000000000E+00 0. -1.
</event>
<event>
 5    1  0.3368139E+002  0.1599664E+01  0.7818608E-02  0.3353728E+00
         11   -1    0    0    0    0  0.00000000000E+00  0.00000000000E+00  0.39999999674E+01  0.40000000000E+01  0.51100000000E-03 0. -1.
    9000002   -1    0    0    0    0 -0.00000000000E+00 -0.00000000000E+00  0.00000000000E+00  0.93800000000E+00  0.93800000000E+00 0. -1.
         11    1    1    2    0    0  0.22833856323E-01 -0.11046894186E+00  0.12165341545E+01  0.12217529956E+01  0.51100000000E-03 0. -1.
    9000002    1    1    2    0    0 -0.65882046343E-01  0.36507783733E+00  0.92508299617E-01  0.10129284559E+01  0.93800000000E+00 0. -1.
         22    1    1    2    0    0  0.43048190021E-01 -0.25460889547E+00  0.26909575132E+01  0.27033185484E+01  0.00000000000E+00 0. -1.
</event>
<event>
 5    1  0.3368139E+002  0.1590042E+01  0.7818608E-02  0.3364243E+00
         11   -1    0    0    0    0  0.00000000000E+00  0.00000000000E+00  0.39999999674E+01  0.40000000000E+01  0.51100000000E-03 0.  1.
    9000002   -1    0    0    0    0 -0.00000000000E+00 -0.00000000000E+00  0.00000000000E+00  0.93800000000E+00  0.93800000000E+00 0. -1.
         11    1    1    2    0    0  0.94351736739E-02 -0.44306197057E-01  0.15320255737E+00  0.15976027762E+00  0.51100000000E-03 0.  1.
    9000002    1    1    2    0    0 -0.36026114680E+00 -0.42327613289E-01  0.96213458578E-01  0.10102874593E+01  0.93800000000E+00 0. -1.
         22    1    1    2    0    0  0.35082597312E+00  0.86633810346E-01  0.37505839514E+01  0.37679522631E+01  0.00000000000E+00 0.  1.
</event>
<event>
 5    1  0.3368139E+002  0.1595664E+01  0.7818608E-02  0.3358083E+00
         11   -1    0    0    0    0  0.00000000000E+00  0.00000000000E+00  0.39999999674E+01  0.40000000000E+01  0.51100000000E-03 0. -1.
    9000002   -1    0    0    0    0 -0.00000000000E+00 -0.00000000000E+00  0.00000000000E+00  0.93800000000E+00  0.93800000000E+00 0.  1.
         11    1    1    2    0    0  0.25516938506E-02 -0.11111184025E-01  0.25681077533E-01  0.28102462814E-01  0.51100000000E-03 0. -1.
    9000002    1    1    2    0    0  0.17524124000E+00 -0.11930452741E+00  0.32801792531E-01  0.96221776124E+00  0.93800000000E+00 0.  1.
         22    1    1    2    0    0 -0.17779293385E+00  0.13041571144E+00  0.39415170973E+01  0.39476797759E+01  0.00000000000E+00 0. -1.
</event>
<event>
 5    1  0.3368139E+002  0.1599637E+01  0.7818608E-02  0.3353757E+00
         11   -1    0    0    0    0  0.00000000000E+00  0.00000000000E+00  0.39999999674E+01  0.40000000000E+01  0.51100000000E-03 0.  1.
    9000002   -1    0    0    0    0 -0.00000000000E+00 -0.00000000000E+00  0.00000000000E+00  0.93800000000E+00  0.93800000000E+00 0.  1.
         11    1    1    2    0    0 -0.56192452952E-02  0.18953309805E-01  0.17742477045E+00  0.17852342748E+00  0.51100000000E-03 0.  1.
    9000002    1    1    2    0    0  0.69698041159E-01 -0.37393087384E+00  0.97384898171E-01  0.10168627900E+01  0.93800000000E+00 0.  1.
         22    1    1    2    0    0 -0.64078795864E-01  0.35497756404E+00  0.37251902987E+01  0.37426137825E+01  0.00000000000E+00 0.  1.
</event>
<event>
 5    1  0.3368139E+002  0.1599582E+01  0.7818608E-02  0.3353817E+00
         11   -1    0    0    0    0  0.00000000000E+00  0.00000000000E+00  0.39999999674E+01  0.40000000000E+01  0.51100000000E-03 0. -1.
    9000002   -1    0    0    0    0 -0.00000000000E+00 -0.00000000000E+00  0.00000000000E+00  0.93800000000E+00  0.93800000000E+00 0.  1.
         11    1    1    2    0    0 -0.19233683456E-01 -0.59479051009E-02  0.26599740190E+00  0.26675867576E+00  0.51100000000E-03 0. -1.
    9000002    1    1    2    0    0  0.23647969736E+00  0.16960815470E-01  0.37376446720E-01  0.96822069555E+00  0.93800000000E+00 0.  1.
         22    1    1    2    0    0 -0.21724601390E+00 -0.11012910370E-01  0.36966261187E+01  0.37030206287E+01  0.00000000000E+00 0. -1.
</event>
<event>
 5    1  0.3368139E+002  0.1589499E+01  0.7818608E-02  0.3364840E+00
         11   -1    0    0    0    0  0.00000000000E+00  0.00000000000E+00  0.39999999674E+01  0.40000000000E+01  0.51100000000E-03 0. -1.
    9000002   -1    0    0    0    0 -0.00000000000E+00 -0.00000000000E+00  0.00000000000E+00  0.93800000000E+00  0.93800000000E+00 0. -1.
         11    1    1    2    0    0 -0.16486103452E-01 -0.24934087567E+00  0.10925377523E+01  0.11207504920E+01  0.51100000000E-03 0. -1.
    9000002    1    1    2    0    0  0.12933005722E+00  0.48984167442E+00  0.18518314819E+00  0.10820387831E+01  0.93800000000E+00 0. -1.
         22    1    1    2    0    0 -0.11284395377E+00 -0.24050079875E+00  0.27222790668E+01  0.27352107249E+01  0.00000000000E+00 0. -1.
</event>
<event>
 5    1  0.3368139E+002  0.1599440E+01  0.7818608E-02  0.3353971E+00
         11   -1    0    0    0    0  0.00000000000E+00  0.00000000000E+00  0.39999999674E+01  0.40000000000E+01  0.51100000000E-03 0.  1.
    9000002   -1    0    0    0    0 -0.00000000000E+00 -0.00000000000E+00  0.00000000000E+00  0.93800000000E+00  0.93800000000E+00 0.  1.
         11    1    1    2    0    0  0.12718508375E-01  0.23173565399E-02  0.43186475016E+00  0.43205850779E+00  0.51100000000E-03 0.  1.
    9000002    1    1    2    0    0 -0.19002211694E+00 -0.97999887269E-01  0.30466859456E-01  0.96254070686E+00  0.93800000000E+00 0.  1.
         22    1    1    2    0    0  0.17730360857E+00  0.95682530729E-01  0.35376683577E+01  0.35434007854E+01  0.00000000000E+00 0.  1.
</event>
<event>
 5    1  0.3368139E+002  0.1574468E+01  0.7818608E-02  0.3381550E+00
         11   -1    0    0    0    0  0.00000000000E+00  0.00000000000E+00  0.39999999674E+01  0.40000000000E+01  0.51100000000E-03 0. -1.
    9000002   -1    0    0    0    0 -0.00000000000E+00 -0.00000000000E+00  0.00000000000E+00  0.93800000000E+00  0.93800000000E+00 0.  1.
         11    1    1    2    0    0 -0.30138039080E-01  0.15366475896E+00  0.26993373324E+01  0.27038756360E+01  0.51100000000E-03 0. -1.
    9000002    1    1    2    0    0 -0.20207197305E+00 -0.14098184779E+00  0.59805911778E-01  0.97166337318E+00  0.93800000000E+00 0.  1.
         22    1    1    2    0    0  0.23221001213E+00 -0.12682911170E-01  0.12408567231E+01  0.12624609908E+01  0.00000000000E+00 0. -1.
</event>
<event>
 5    1  0.3368139E+002  0.1577759E+01  0.7818608E-02  0.3377862E+00
         11   -1    0    0    0    0  0.00000000000E+00  0.00000000000E+00  0.39999999674E+01  0.40000000000E+01  0.51100000000E-03 0. -1.
    9000002   -1    0    0    0    0 -0.00000000000E+00 -0.00000000000E+00  0.00000000000E+00  0.93800000000E+00  0.93800000000E+00 0.  1.
         11    1    1    2    0    0  0.10183592001E+00  0.75194632650E-02  0.54973805709E+00  0.55914156478E+00  0.51100000000E-03 0. -1.
    9000002    1    1    2    0    0  0.15458260873E+00 -0.76108962632E-01  0.36082315076E-01  0.95437638832E+00  0.93800000000E+00 0.  1.
         22    1    1    2    0    0 -0.25641852875E+00  0.68589499367E-01  0.34141795952E+01  0.34244820469E+01  0.00000000000E+00 0. -1.
</event>
<event>
 5    1  0.3368139E+002  0.1593544E+01  0.7818608E-02  0.3360401E+00
         11   -1    0    0    0    0  0.00000000000E+00  0.00000000000E+00  0.39999999674E+01  0.40000000000E+01  0.51100000000E-03 0.  1.
    9000002   -1    0    0    0    0 -0.00000000000E+00 -0.00000000000E+00  0.00000000000E+00  0.93800000000E+00  0.93800000000E+00 0.  1.
         11    1    1    2    0    0  0.18160083017E-01 -0.93878318442E-01  0.24227338534E+01  0.24246200760E+01  0.51100000000E-03 0.  1.
    9000002    1    1    2    0    0 -0.65706274326E-01  0.29734996661E+00  0.66717939739E-01  0.98844807684E+00  0.93800000000E+00 0.  1.
         22    1    1    2    0    0  0.47546191309E-01 -0.20347164817E+00  0.15105481742E+01  0.15249318472E+01  0.00000000000E+00 0.  1.
</event>
<event>
 5    1  0.3368139E+002  0.1599665E+01  0.7818608E-02  0.3353727E+00
         11   -1    0    0    0    0  0.00000000000E+00  0.00000000000E+00  0.39999999674E+01  0.40000000000E+01  0.51100000000E-03 0. -1.
    9000002   -1    0    0    0    0 -0.00000000000E+00 -0.00000000000E+00  0.00000000000E+00  0.93800000000E+00  0.93800000000E+00 0.  1.
         11    1    1    2    0    0  0.24369489696E-02  0.28900507742E-02  0.51392502158E-01  0.51533887033E-01  0.51100000000E-03 0. -1.
    9000002    1    1    2    0    0 -0.20331698818E+00 -0.16218519090E+00  0.44978567930E-01  0.97442747570E+00  0.93800000000E+00 0.  1.
         22    1    1    2    0    0  0.20088003921E+00  0.15929514013E+00  0.39036288973E+01  0.39120386373E+01  0.00000000000E+00 0. -1.
</event>
<event>
 5    1  0.3368139E+002  0.1599001E+01  0.7818608E-02  0.3354448E+00
         11   -1    0    0    0    0  0.00000000000E+00  0.00000000000E+00  0.39999999674E+01  0.40000000000E+01  0.51100000000E-03 0. -1.
    9000002   -1    0    0    0    0 -0.00000000000E+00 -0.00000000000E+00  0.00000000000E+00  0.93800000000E+00  0.93800000000E+00 0. -1.
         11    1    1    2    0    0 -0.17727614293E+00 -0.69286041033E-01  0.15944452961E+01  0.16057656895E+01  0.51100000000E-03 0. -1.
    9000002    1    1    2    0    0  0.36770082203E+00  0.20838060705E+00  0.12142111469E+00  0.10359601628E+01  0.93800000000E+00 0. -1.
         22    1    1    2    0    0 -0.19042467910E+00 -0.13909456602E+00  0.22841335566E+01  0.22962741476E+01  0.00000000000E+00 0.  1.
</event>
<event>
 5    1  0.3368139E+002  0.1599674E+01  0.7818608E-02  0.3353718E+00
         11   -1    0    0    0    0  0.00000000000E+00  0.00000000000E+00  0.39999999674E+01  0.40000000000E+01  0.51100000000E-03 0. -1.
    9000002   -1    0    0    0    0 -0.00000000000E+00 -0.00000000000E+00  0.00000000000E+00  0.93800000000E+00  0.93800000000E+00 0.  1.
         11    1    1    2    0    0 -0.20932945142E-01  0.40568171400E-01  0.52355828038E+00  0.52554495412E+00  0.51100000000E-03 0. -1.
    9000002    1    1    2    0    0  0.16428139022E+00 -0.31116765762E+00  0.83038228126E-01  0.10052626690E+01  0.93800000000E+00 0.  1.
         22    1    1    2    0    0 -0.14334844508E+00  0.27059948622E+00  0.33934034589E+01  0.34071923769E+01  0.00000000000E+00 0. -1.
</event>
<event>
 5    1  0.3368139E+002  0.1599670E+01  0.7818608E-02  0.3353721E+00
         11   -1    0    0    0    0  0.00000000000E+00  0.00000000000E+00  0.39999999674E+01  0.40000000000E+01  0.51100000000E-03 0.  1.
    9000002   -1    0    0    0    0 -0.00000000000E+00 -0.00000000000E+00  0.00000000000E+00  0.93800000000E+00  0.93800000000E+00 0. -1.
         11    1    1    2    0    0  0.21619978554E-01 -0.36850979019E-02  0.25725878702E+00  0.25819246318E+00  0.51100000000E-03 0.  1.
    9000002    1    1    2    0    0 -0.31684627406E+00  0.74344832053E-01  0.70840318314E-01  0.99537986022E+00  0.93800000000E+00 0. -1.
         22    1    1    2    0    0  0.29522629550E+00 -0.70659734152E-01  0.36719008620E+01  0.36844276766E+01  0.00000000000E+00 0.  1.
</event>
<event>
 5    1  0.3368139E+002  0.1599662E+01  0.7818608E-02  0.3353730E+00
         11   -1    0    0    0    0  0.00000000000E+00  0.00000000000E+00  0.39999999674E+01  0.40000000000E+01  0.51100000000E-03 0. -1.
    9000002   -1    0    0    0    0 -0.00000000000E+00 -0.00000000000E+00  0.00000000000E+00  0.93800000000E+00  0.93800000000E+00 0. -1.
         11    1    1    2    0    0 -0.12667761226E+00  0.86189433566E-01  0.12061204808E+01  0.12158136006E+01  0.51100000000E-03 0. -1.
    9000002    1    1    2    0    0  0.41606632531E+00 -0.27263615131E+00  0.16932842922E+00  0.10751547679E+01  0.93800000000E+00 0. -1.
         22    1    1    2    0    0 -0.28938871305E+00  0.18644671775E+00  0.26245510573E+01  0.26470316315E+01  0.00000000000E+00 0. -1.
</event>
<event>
 5    1  0.3368139E+002  0.1599677E+01  0.7818608E-02  0.3353714E+00
         11   -1    0    0    0    0  0.00000000000E+00  0.00000000000E+00  0.39999999674E+01  0.40000000000E+01  0.51100000000E-03 0.  1.
    9000002   -1    0    0    0    0 -0.00000000000E+00 -0.00000000000E+00  0.00000000000E+00  0.93800000000E+00  0.93800000000E+00 0. -1.
         11    1    1    2    0    0 -0.89906446343E-01  0.51527235990E-01  0.11192125297E+01  0.11239996321E+01  0.51100000000E-03 0.  1.
    9000002    1    1    2    0    0  0.31430853013E+00 -0.17833297596E+00  0.87675766486E-01  0.10090210813E+01  0.93800000000E+00 0. -1.
         22    1    1    2    0    0 -0.22440208379E+00  0.12680573997E+00  0.27931116711E+01  0.28049792866E+01  0.00000000000E+00 0.  1.
</event>
<event>
 5    1  0.3368139E+002  0.1599240E+01  0.7818608E-02  0.3354189E+00
         11   -1    0    0    0    0  0.00000000000E+00  0.00000000000E+00  0.39999999674E+01  0.40000000000E+01  0.51100000000E-03 0. -1.
    9000002   -1    0    0    0    0 -0.00000000000E+00 -0.00000000000E+00  0.00000000000E+00  0.93800000000E+00  0.93800000000E+00 0. -1.
         11    1    1    2    0    0 -0.40552280063E-01  0.37040961333E-01  0.38639006217E+00  0.39027434133E+00  0.51100000000E-03 0. -1.
    9000002    1    1    2    0    0  0.28825643937E+00 -0.27896774974E+00  0.10892023491E+00  0.10259738777E+01  0.93800000000E+00 0. -1.
         22    1    1    2    0    0 -0.24770415931E+00  0.24192678841E+00  0.35046896703E+01  0.35217517809E+01  0.00000000000E+00 0. -1.
</event>
<event>
 5    1  0.3368139E+002  0.1599668E+01  0.7818608E-02  0.3353724E+00
         11   -1    0    0    0    0  0.00000000000E+00  0.00000000000E+00  0.39999999674E+01  0.40000000000E+01  0.51100000000E-03 0. -1.
    9000002   -1    0    0    0    0 -0.00000000000E+00 -0.00000000000E+00  0.00000000000E+00  0.93800000000E+00  0.93800000000E+00 0.  1.
         11    1    1    2    0    0  0.20587979543E+00 -0.42460770359E-01  0.16270342451E+01  0.16405578634E+01  0.51100000000E-03 0. -1.
    9000002    1    1    2    0    0 -0.48138449408E+00  0.92523953693E-01  0.16423420209E+00  0.10710315524E+01  0.93800000000E+00 0.  1.
         22    1    1    2    0    0  0.27550469866E+00 -0.50063183334E-01  0.22087315202E+01  0.22264105842E+01  0.00000000000E+00 0. -1.
</event>
<event>
 5    1  0.3368139E+002  0.1598627E+01  0.7818608E-02  0.3354855E+00
         11   -1    0    0    0    0  0.00000000000E+00  0.00000000000E+00  0.39999999674E+01  0.40000000000E+01  0.51100000000E-03 0. -1.
    9000002   -1    0    0    0    0 -0.00000000000E+00 -0.00000000000E+00  0.00000000000E+00  0.93800000000E+00  0.93800000000E+00 0. -1.
         11    1    1    2    0    0  0.19177088787E+00 -0.96342455087E-01  0.15907226408E+01  0.16051344876E+01  0.51100000000E-03 0. -1.
    9000002    1    1    2    0    0 -0.46744511127E+00  0.13977916219E+00  0.16356448322E+00  0.10698787251E+01  0.93800000000E+00 0. -1.
         22    1    1    2    0    0  0.27567422339E+00 -0.43436707099E-01  0.22457128433E+01  0.22629867873E+01  0.00000000000E+00 0. -1.
</event>
<event>
 5    1  0.3368139E+002  0.1578330E+01  0.7818608E-02  0.3377225E+00
         11   -1    0    0    0    0  0.00000000000E+00  0.00000000000E+00  0.39999999674E+01  0.40000000000E+01  0.51100000000E-03 0.  1.
    9000002   -1    0    0    0    0 -0.00000000000E+00 -0.00000000000E+00  0.00000000000E+00  0.93800000000E+00  0.93800000000E+00 0.  1.
         11    1    1    2    0    0  0.84232377996E-01 -0.48795878327E-01  0.26934391665E+00  0.28639577127E+00  0.51100000000E-03 0.  1.
    9000002    1    1    2    0    0 -0.24365821488E+00 -0.15985920610E+00  0.73434188711E-01  0.98496744694E+00  0.93800000000E+00 0.  1.
         22    1    1    2    0    0  0.15942583688E+00  0.20865508442E+00  0.36572218620E+01  0.36666367818E+01  0.00000000000E+00 0.  1.
</event>
<event>
 5    1  0.3368139E+002  0.1580608E+01  0.7818608E-02  0.3374683E+00
         11   -1    0    0    0    0  0.00000000000E+00  0.00000000000E+00  0.39999999674E+01  0.40000000000E+01  0.51100000000E-03 0.  1.
    9000002   -1    0    0    0    0 -0.00000000000E+00 -0.00000000000E+00  0.00000000000E+00  0.93800000000E+00  0.93800000000E+00 0. -1.
         11    1    1    2    0    0 -0.51051284787E-02 -0.11685095456E+00  0.16862575587E+01  0.16903091502E+01  0.51100000000E-03 0.  1.
    9000002    1    1    2    0    0 -0.68057156783E-01 -0.10338409494E+00  0.24224125188E-01  0.94644115291E+00  0.93800000000E+00 0. -1.
         22    1    1    2    0    0  0.73162285262E-01  0.22023504949E+00  0.22895182834E+01  0.23012496968E+01  0.00000000000E+00 0.  1.
</event>
<event>
 5    1  0.3368139E+002  0.1599222E+01  0.7818608E-02  0.3354208E+00
         11   -1    0    0    0    0  0.00000000000E+00  0.00000000000E+00  0.39999999674E+01  0.40000000000E+01  0.51100000000E-03 0.  1.
    9000002   -1    0    0    0    0 -0.00000000000E+00 -0.00000000000E+00  0.00000000000E+00  0.93800000000E+00  0.93800000000E+00 0. -1.
         11    1    1    2    0    0 -0.35216615325E-02  0.18708458362E-01  0.20557981474E+00  0.20645999580E+00  0.51100000000E-03 0.  1.
    9000002    1    1    2    0    0 -0.12419632208E+00 -0.25362645572E+00  0.53471721251E-01  0.98104756787E+00  0.93800000000E+00 0. -1.
         22    1    1    2    0    0  0.12771798361E+00  0.23491799735E+00  0.37409484314E+01  0.37504924363E+01  0.00000000000E+00 0.  1.
</event>
<event>
 5    1  0.3368139E+002  0.1599673E+01  0.7818608E-02  0.3353719E+00
         11   -1    0    0    0    0  0.00000000000E+00  0.00000000000E+00  0.39999999674E+01  0.40000000000E+01  0.51100000000E-03 0.  1.
    9000002   -1    0    0    0    0 -0.00000000000E+00 -0.00000000000E+00  0.00000000000E+00  0.93800000000E+00  0.93800000000E+00 0.  1.
         11    1    1    2    0    0 -0.31959235900E-01  0.28688455017E+00  0.14477084990E+01  0.14762060483E+01  0.51100000000E-03 0.  1.
    9000002    1    1    2    0    0  0.73835335516E-01 -0.71767639158E+00  0.37420933519E+00  0.12411235580E+01  0.93800000000E+00 0.  1.
         22    1    1    2    0    0 -0.41876099616E-01  0.43079184141E+00  0.21780821332E+01  0.22206703936E+01  0.00000000000E+00 0.  1.
</event>
<event>
 5    1  0.3368139E+002  0.1599676E+01  0.7818608E-02  0.3353715E+00
         11   -1    0    0    0    0  0.00000000000E+00  0.00000000000E+00  0.39999999674E+01  0.40000000000E+01  0.51100000000E-03 0. -1.
    9000002   -1    0    0    0    0 -0.00000000000E+00 -0.00000000000E+00  0.00000000000E+00  0.93800000000E+00  0.93800000000E+00 0.  1.
         11    1    1    2    0    0  0.41746430502E-01 -0.21981864135E+00  0.17150513249E+01  0.17295850102E+01  0.51100000000E-03 0. -1.
    9000002    1    1    2    0    0 -0.93351934778E-01  0.49279463728E+00  0.17225345361E+00  0.10775325473E+01  0.93800000000E+00 0.  1.
         22    1    1    2    0    0  0.51605504276E-01 -0.27297599593E+00  0.21126951889E+01  0.21308824425E+01  0.00000000000E+00 0.  1.
</event>
<event>
 5    1  0.3368139E+002  0.1346435E+01  0.7818608E-02  0.3696780E+00
         11   -1    0    0    0    0  0.00000000000E+00  0.00000000000E+00  0.39999999674E+01  0.40000000000E+01  0.51100000000E-03 0.  1.
    9000002   -1    0    0    0    0 -0.00000000000E+00 -0.00000000000E+00  0.00000000000E+00  0.93800000000E+00  0.93800000000E+00 0.  1.
         11    1    1    2    0    0 -0.48945289898E+00  0.28256918906E+00  0.20783003058E+01  0.21537738760E+01  0.51100000000E-03 0.  1.
    9000002    1    1    2    0    0  0.37463273131E+00  0.42395032395E+00  0.52484979150E+00  0.12146583323E+01  0.93800000000E+00 0.  1.
         22    1    1    2    0    0  0.11482016767E+00 -0.70651951301E+00  0.13968498701E+01  0.15695677917E+01  0.00000000000E+00 0.  1.
</event>
<event>
 5    1  0.3368139E+002  0.1595197E+01  0.7818608E-02  0.3358593E+00
         11   -1    0    0    0    0  0.00000000000E+00  0.00000000000E+00  0.39999999674E+01  0.40000000000E+01  0.51100000000E-03 0. -1.
    9000002   -1    0    0    0    0 -0.00000000000E+00 -0.00000000000E+00  0.00000000000E+00  0.93800000000E+00  0.93800000000E+00 0.  1.
         11    1    1    2    0    0  0.25223215929E-01 -0.14467442583E-01  0.25427884768E+00  0.25593653708E+00  0.51100000000E-03 0. -1.
    9000002    1    1    2    0    0  0.19590319437E+00  0.48084272726E-01  0.30307194866E-01  0.95992327032E+00  0.93800000000E+00 0.  1.
         22    1    1    2    0    0 -0.22112641030E+00 -0.33616830143E-01  0.37154139248E+01  0.37221401926E+01  0.00000000000E+00 0. -1.
</event>
<event>
 5    1  0.3368139E+002  0.1599109E+01  0.7818608E-02  0.3354331E+00
         11   -1    0    0    0    0  0.00000000000E+00  0.00000000000E+00  0.39999999674E+01  0.40000000000E+01  0.51100000000E-03 0.  1.
    9000002   -1    0    0    0    0 -0.00000000000E+00 -0.00000000000E+00  0.00000000000E+00  0.93800000000E+00  0.93800000000E+00 0.  1.
         11    1    1    2    0    0  0.37622817920E+00 -0.33052007377E+00  0.23832200143E+01  0.24352677593E+01  0.51100000000E-03 0.  1.
    9000002    1    1    2    0    0 -0.53162456908E+00  0.49071911071E+00  0.37717457060E+00  0.12431953124E+01  0.93800000000E+00 0.  1.
         22    1    1    2    0    0  0.15539638988E+00 -0.16019903694E+00  0.12396053825E+01  0.12595369283E+01  0.00000000000E+00 0.  1.
</event>
<event>
 5    1  0.3368139E+002  0.1599667E+01  0.7818608E-02  0.3353725E+00
         11   -1    0    0    0    0  0.00000000000E+00  0.00000000000E+00  0.39999999674E+01  0.40000000000E+01  0.51100000000E-03 0. -1.
    9000002   -1    0    0    0    0 -0.00000000000E+00 -0.00000000000E+00  0.00000000000E+00  0.93800000000E+00  0.93800000000E+00 0. -1.
         11    1    1    2    0    0 -0.67502838289E-02  0.71872231308E-03  0.10091146991E+00  0.10114083633E+00  0.51100000000E-03 0. -1.
    9000002    1    1    2    0    0  0.30598707916E+00 -0.25235103224E-01  0.62934679563E-01  0.98897405271E+00  0.93800000000E+00 0. -1.
         22    1    1    2    0    0 -0.29923679533E+00  0.24516380911E-01  0.38361538179E+01  0.38478851110E+01  0.00000000000E+00 0. -1.
</event>
<event>
 5    1  0.3368139E+002  0.1597117E+01  0.7818608E-02  0.3356499E+00
         11   -1    0    0    0    0  0.00000000000E+00  0.00000000000E+00  0.39999999674E+01  0.40000000000E+01  0.51100000000E-03 0. -1.
    9000002   -1    0    0    0    0 -0.00000000000E+00 -0.00000000000E+00  0.00000000000E+00  0.93800000000E+00  0.93800000000E+00 0.  1.
         11    1    1    2    0    0 -0.14562272370E-01 -0.33578071969E-03  0.14875256393E+00  0.14946490866E+00  0.51100000000E-03 0. -1.
    9000002    1    1    2    0    0 -0.15423655547E+00 -0.28488510281E+00  0.72208503442E-01  0.99499070590E+00  0.93800000000E+00 0.  1.
         22    1    1    2    0    0  0.16879882784E+00  0.28522088353E+00  0.37790389000E+01  0.37935443854E+01  0.00000000000E+00 0. -1.
</event>
<event>
 5    1  0.3368139E+002  0.1599491E+01  0.7818608E-02  0.3353916E+00
         11   -1    0    0    0    0  0.00000000000E+00  0.00000000000E+00  0.39999999674E+01  0.40000000000E+01  0.51100000000E-03 0. -1.
    9000002   -1    0    0    0    0 -0.00000000000E+00 -0.00000000000E+00  0.00000000000E+00  0.93800000000E+00  0.93800000000E+00 0. -1.
         11    1    1    2    0    0 -0.48718781370E+00  0.81103309745E-01  0.26362528970E+01  0.26821184371E+01  0.51100000000E-03 0. -1.
    9000002    1    1    2    0    0  0.69144676375E+00 -0.12322412027E+00  0.35296831020E+00  0.12238110307E+01  0.93800000000E+00 0. -1.
         22    1    1    2    0    0 -0.20425895005E+00  0.42120810522E-01  0.10107787602E+01  0.10320705322E+01  0.00000000000E+00 0. -1.
</event>
<event>
 5    1  0.3368139E+002  0.1596856E+01  0.7818608E-02  0.3356783E+00
         11   -1    0    0    0    0  0.00000000000E+00  0.00000000000E+00  0.39999999674E+01  0.40000000000E+01  0.51100000000E-03 0.  1.
    9000002   -1    0    0    0    0 -0.00000000000E+00 -0.00000000000E+00  0.00000000000E+00  0.93800000000E+00  0.93800000000E+00 0.  1.
         11    1    1    2    0    0 -0.31406696663E-01 -0.26805868253E-01  0.35653883731E+00  0.35892219045E+00  0.51100000000E-03 0.  1.
    9000002    1    1    2    0    0  0.39912081762E+00 -0.10594810179E+00  0.11758831185E+00  0.10315975176E+01  0.93800000000E+00 0.  1.
         22    1    1    2    0    0 -0.36771412096E+00  0.13275397004E+00  0.35258728182E+01  0.35474802919E+01  0.00000000000E+00 0.  1.
</event>
<event>
 5    1  0.3368139E+002  0.1583862E+01  0.7818608E-02  0.3371068E+00
         11   -1    0    0    0    0  0.00000000000E+00  0.00000000000E+00  0.39999999674E+01  0.40000000000E+01  0.51100000000E-03 0.  1.
    9000002   -1    0    0    0    0 -0.00000000000E+00 -0.00000000000E+00  0.00000000000E+00  0.93800000000E+00  0.93800000000E+00 0. -1.
         11    1    1    2    0    0 -0.30309752313E+00  0.43983600960E-01  0.31061333548E+01  0.31211964605E+01  0.51100000000E-03 0.  1.
    9000002    1    1    2    0    0  0.46738349025E+00 -0.16636096600E+00  0.18271245203E+00  0.10767316927E+01  0.93800000000E+00 0. -1.
         22    1    1    2    0    0 -0.16428596712E+00  0.12237736504E+00  0.71115416050E+00  0.74007184683E+00  0.00000000000E+00 0.  1.
</event>
<event>
 5    1  0.3368139E+002  0.1599624E+01  0.7818608E-02  0.3353772E+00
         11   -1    0    0    0    0  0.00000000000E+00  0.00000000000E+00  0.39999999674E+01  0.40000000000E+01  0.51100000000E-03 0.  1.
    9000002   -1    0    0    0    0 -0.00000000000E+00 -0.00000000000E+00  0.00000000000E+00  0.93800000000E+00  0.93800000000E+00 0.  1.
         11    1    1    2    0    0  0.65286242365E-01  0.92185284113E-01  0.10868057390E+01  0.10926606955E+01  0.51100000000E-03 0.  1.
    9000002    1    1    2    0    0 -0.23296992195E+00 -0.35713134239E+00  0.12311742097E+00  0.10376992240E+01  0.93800000000E+00 0.  1.
         22    1    1    2    0    0  0.16768367958E+00  0.26494605827E+00  0.27900768074E+01  0.28076400804E+01  0.00000000000E+00 0.  1.
</event>
<event>
 5    1  0.3368139E+002  0.1599272E+01  0.7818608E-02  0.3354154E+00
         11   -1    0    0    0    0  0.00000000000E+00  0.00000000000E+00  0.39999999674E+01  0.40000000000E+01  0.51100000000E-03 0. -1.
    9000002   -1    0    0    0    0 -0.00000000000E+00 -0.00000000000E+00  0.00000000000E+00  0.93800000000E+00  0.93800000000E+00 0.  1.
         11    1    1    2    0    0 -0.99932887192E-03 -0.29664036535E-03  0.75402423983E-01  0.75411360664E-01  0.51100000000E-03 0. -1.
    9000002    1    1    2    0    0 -0.24126707125E+00  0.19830500972E+00  0.65461909212E-01  0.99078955288E+00  0.93800000000E+00 0.  1.
         22    1    1    2    0    0  0.24226640012E+00 -0.19800836935E+00  0.38591356342E+01  0.38717990865E+01  0.00000000000E+00 0. -1.
</event>
<event>
 5    1  0.3368139E+002  0.1566074E+01  0.7818608E-02  0.3391029E+00
         11   -1    0    0    0    0  0.00000000000E+00  0.00000000000E+00  0.39999999674E+01  0.40000000000E+01  0.51100000000E-03 0.  1.
    9000002   -1    0    0    0    0 -0.00000000000E+00 -0.00000000000E+00  0.00000000000E+00  0.93800000000E+00  0.93800000000E+00 0.  1.
         11    1    1    2    0    0 -0.56635646992E-01  0.23343403409E+00  0.12313745305E+01  0.12545846086E+01  0.51100000000E-03 0.  1.
    9000002    1    1    2    0    0  0.25356740078E+00 -0.94495486040E-01  0.75109104257E-01  0.97913798883E+00  0.93800000000E+00 0.  1.
         22    1    1    2    0    0 -0.19693175379E+00 -0.13893854805E+00  0.26935163326E+01  0.27042774026E+01  0.00000000000E+00 0.  1.
</event>
<event>
 5    1  0.3368139E+002  0.1599663E+01  0.7818608E-02  0.3353730E+00
         11   -1    0    0    0    0  0.00000000000E+00  0.00000000000E+00  0.39999999674E+01  0.40000000000E+01  0.51100000000E-03 0. -1.
    9000002   -1    0    0    0    0 -0.00000000000E+00 -0.00000000000E+00  0.00000000000E+00  0.93800000000E+00  0.93800000000E+00 0. -1.
         11    1    1    2    0    0  0.90165216657E-02 -0.13768940679E-02  0.18505037217E+00  0.18527572658E+00  0.51100000000E-03 0. -1.
    9000002    1    1    2    0    0 -0.21804146092E+00 -0.21503390438E-02  0.31523706724E-01  0.96352708666E+00  0.93800000000E+00 0. -1.
         22    1    1    2    0    0  0.20902493926E+00  0.35272331117E-02  0.37834258885E+01  0.37891971868E+01  0.00000000000E+00 0. -1.
</event>
<event>
 5    1  0.3368139E+002  0.1599223E+01  0.7818608E-02  0.3354207E+00
         11   -1    0    0    0    0  0.00000000000E+00  0.00000000000E+00  0.39999999674E+01  0.40000000000E+01  0.51100000000E-03 0.  1.
    9000002   -1    0    0    0    0 -0.00000000000E+00 -0.00000000000E+00  0.00000000000E+00  0.93800000000E+00  0.93800000000E+00 0. -1.
         11    1    1    2    0    0  0.51960447896E-01  0.55133405578E-01  0.90274563069E+00  0.90591915501E+00  0.51100000000E-03 0.  1.
    9000002    1    1    2    0    0 -0.23422046809E+00 -0.14716916094E+00  0.51290941374E-01  0.97928175224E+00  0.93800000000E+00 0. -1.
         22    1    1    2    0    0  0.18226002020E+00  0.92035755361E-01  0.30459633953E+01  0.30527990928E+01  0.00000000000E+00 0.  1.
</event>
<event>
 5    1  0.3368139E+002  0.1454706E+01  0.7818608E-02  0.3527919E+00
         11   -1    0    0    0    0  0.00000000000E+00  0.00000000000E+00  0.39999999674E+01  0.40000000000E+01  0.51100000000E-03 0.  1.
    9000002   -1    0    0    0    0 -0.00000000000E+00 -0.00000000000E+00  0.00000000000E+00  0.93800000000E+00  0.93800000000E+00 0.  1.
         11    1    1    2    0    0 -0.82995714423E-01  0.92069236046E-01 -0.10934069615E-02  0.12396164527E+00  0.51100000000E-03 0.  1.
    9000002    1    1    2    0    0 -0.83243879979E-01 -0.37040817992E+00  0.24129499072E+00  0.10402879581E+01  0.93800000000E+00 0.  1.
         22    1    1    2    0    0  0.16623959440E+00  0.27833894388E+00  0.37597983836E+01  0.37737503966E+01  0.00000000000E+00 0.  1.
</event>
<event>
 5    1  0.3368139E+002  0.1593726E+01  0.7818608E-02  0.3360202E+00
         11   -1    0    0    0    0  0.00000000000E+00  0.00000000000E+00  0.39999999674E+01  0.40000000000E+01  0.51100000000E-03 0.  1.
    9000002   -1    0    0    0    0 -0.00000000000E+00 -0.00000000000E+00  0.00000000000E+00  0.93800000000E+00  0.93800000000E+00 0. -1.
         11    1    1    2    0    0 -0.95854310441E-01 -0.87654692146E-01  0.66104578897E+00  0.67368626980E+00  0.51100000000E-03 0.  1.
    9000002    1    1    2    0    0  0.21618531767E+00  0.29554518364E+00  0.94925137160E-01  0.10114038901E+01  0.93800000000E+00 0. -1.
         22    1    1    2    0    0 -0.12033100723E+00 -0.20789049150E+00  0.32440290412E+01  0.32529098401E+01  0.00000000000E+00 0.  1.
</event>
<event>
 5    1  0.3368139E+002  0.1598880E+01  0.7818608E-02  0.3354580E+00
         11   -1    0    0    0    0  0.00000000000E+00  0.00000000000E+00  0.39999999674E+01  0.40000000000E+01  0.51100000000E-03 0. -1.
    9000002   -1    0    0    0    0 -0.00000000000E+00 -0.00000000000E+00  0.00000000000E+00  0.93800000000E+00  0.93800000000E+00 0. -1.
         11    1    1    2    0    0  0.75877605355E-01 -0.33830763576E-01  0.69822840844E+00  0.70315368379E+00  0.51100000000E-03 0. -1.
    9000002    1    1    2    0    0 -0.37994903573E+00  0.50032004149E-01  0.99511160081E-01  0.10181409245E+01  0.93800000000E+00 0. -1.
         22    1    1    2    0    0  0.30407143038E+00 -0.16201240573E-01  0.32022603988E+01  0.32167053917E+01  0.00000000000E+00 0. -1.
</event>
<event>
 5    1  0.3368139E+002  0.1599558E+01  0.7818608E-02  0.3353843E+00
         11   -1    0    0    0    0  0.00000000000E+00  0.00000000000E+00  0.39999999674E+01  0.40000000000E+01  0.51100000000E-03 0. -1.
    9000002   -1    0    0    0    0 -0.00000000000E+00 -0.00000000000E+00  0.00000000000E+00  0.93800000000E+00  0.93800000000E+00 0. -1.
         11    1    1    2    0    0 -0.99014686660E-01 -0.81332096878E-01  0.11618282783E+01  0.11688729732E+01  0.51100000000E-03 0. -1.
    9000002    1    1    2    0    0  0.29141031145E+00  0.27532917018E+00  0.10852469699E+00  0.10258400126E+01  0.93800000000E+00 0. -1.
         22    1    1    2    0    0 -0.19239562479E+00 -0.19399707330E+00  0.27296469921E+01  0.27432870142E+01  0.00000000000E+00 0. -1.
</event>
<event>
 5    1  0.3368139E+002  0.1599672E+01  0.7818608E-02  0.3353720E+00
         11   -1    0    0    0    0  0.00000000000E+00  0.00000000000E+00  0.39999999674E+01  0.40000000000E+01  0.51100000000E-03 0.  1.
    9000002   -1    0    0    0    0 -0.00000000000E+00 -0.00000000000E+00  0.00000000000E+00  0.93800000000E+00  0.93800000000E+00 0.  1.
         11    1    1    2    0    0  0.18403736399E-01  0.11194647420E-01  0.34510779976E+00  0.34577980308E+00  0.51100000000E-03 0. -1.
    9000002    1    1    2    0    0 -0.22794548293E+00 -0.13076954252E+00  0.45926011385E-01  0.97519896173E+00  0.93800000000E+00 0.  1.
         22    1    1    2    0    0  0.20954174653E+00  0.11957489511E+00  0.36089661562E+01  0.36170212352E+01  0.00000000000E+00 0.  1.
</event>
<event>
 5    1  0.3368139E+002  0.1480733E+01  0.7818608E-02  0.3493938E+00
         11   -1    0    0    0    0  0.00000000000E+00  0.00000000000E+00  0.39999999674E+01  0.40000000000E+01  0.51100000000E-03 0.  1.
    9000002   -1    0    0    0    0 -0.00000000000E+00 -0.00000000000E+00  0.00000000000E+00  0.93800000000E+00  0.93800000000E+00 0.  1.
         11    1    1    2    0    0 -0.16814730750E+00  0.18463683248E+00  0.64530609125E+00  0.69194254779E+00  0.51100000000E-03 0.  1.
    9000002    1    1    2    0    0 -0.16597663348E+00  0.34800699852E+00  0.20556941442E+00  0.10347752887E+01  0.93800000000E+00 0.  1.
         22    1    1    2    0    0  0.33412394098E+00 -0.53264383100E+00  0.31491244617E+01  0.32112821635E+01  0.00000000000E+00 0.  1.
</event>
<event>
 5    1  0.3368139E+002  0.1599674E+01  0.7818608E-02  0.3353717E+00
         11   -1    0    0    0    0  0.00000000000E+00  0.00000000000E+00  0.39999999674E+01  0.40000000000E+01  0.51100000000E-03 0. -1.
    9000002   -1    0    0    0    0 -0.00000000000E+00 -0.00000000000E+00  0.00000000000E+00  0.93800000000E+00  0.93800000000E+00 0.  1.
         11    1    1    2    0    0 -0.13428355405E+00  0.54033512174E-01  0.15966538135E+01  0.16032015952E+01  0.51100000000E-03 0. -1.
    9000002    1    1    2    0    0  0.32483430286E+00 -0.13223354681E+00  0.82483393455E-01  0.10048136869E+01  0.93800000000E+00 0. -1.
         22    1    1    2    0    0 -0.19055074881E+00  0.78200034634E-01  0.23208627604E+01  0.23299847179E+01  0.00000000000E+00 0. -1.
</event>
<event>
 5    1  0.3368139E+002  0.1537493E+01  0.7818608E-02  0.3424132E+00
         11   -1    0    0    0    0  0.00000000000E+00  0.00000000000E+00  0.39999999674E+01  0.40000000000E+01  0.51100000000E-03 0. -1.
    9000002   -1    0    0    0    0 -0.00000000000E+00 -0.00000000000E+00  0.00000000000E+00  0.93800000000E+00  0.93800000000E+00 0.  1.
         11    1    1    2    0    0  0.19819732787E+00 -0.13864002461E+00  0.66667199295E+00  0.70919323496E+00  0.51100000000E-03 0. -1.
    9000002    1    1    2    0    0  0.26391679770E-01  0.20284228780E+00  0.75927926331E-01  0.96304234823E+00  0.93800000000E+00 0.  1.
         22    1    1    2    0    0 -0.22458900764E+00 -0.64202263183E-01  0.32574000481E+01  0.32657644168E+01  0.00000000000E+00 0. -1.
</event>
<event>
 5    1  0.3368139E+002  0.1595341E+01  0.7818608E-02  0.3358435E+00
         11   -1    0    0    0    0  0.00000000000E+00  0.00000000000E+00  0.39999999674E+01  0.40000000000E+01  0.51100000000E-03 0. -1.
    9000002   -1    0    0    0    0 -0.00000000000E+00 -0.00000000000E+00  0.00000000000E+00  0.93800000000E+00  0.93800000000E+00 0. -1.
         11    1    1    2    0    0  0.23308835009E+00 -0.17681751254E+00  0.21984033619E+01  0.22177854302E+01  0.51100000000E-03 0. -1.
    9000002    1    1    2    0    0 -0.34759939948E+00  0.42830760010E+00  0.21433564047E+00  0.11090791268E+01  0.93800000000E+00 0. -1.
         22    1    1    2    0    0  0.11451104939E+00 -0.25149008755E+00  0.15872609650E+01  0.16111354430E+01  0.00000000000E+00 0.  1.
</event>
<event>
 5    1  0.3368139E+002  0.1599677E+01  0.7818608E-02  0.3353714E+00
         11   -1    0    0    0    0  0.00000000000E+00  0.00000000000E+00  0.39999999674E+01  0.40000000000E+01  0.51100000000E-03 0.  1.
    9000002   -1    0    0    0    0 -0.00000000000E+00 -0.00000000000E+00  0.00000000000E+00  0.93800000000E+00  0.93800000000E+00 0. -1.
         11    1    1    2    0    0  0.38022600858E-01 -0.36487128685E-01  0.43421819063E+00  0.43740453465E+00  0.51100000000E-03 0. -1.
    9000002    1    1    2    0    0 -0.33646814914E+00  0.32608213673E+00  0.14952747521E+00  0.10591236194E+01  0.93800000000E+00 0. -1.
         22    1    1    2    0    0  0.29844554828E+00 -0.28959500805E+00  0.34162543015E+01  0.34414718460E+01  0.00000000000E+00 0.  1.
</event>
<event>
 5    1  0.3368139E+002  0.1599559E+01  0.7818608E-02  0.3353842E+00
         11   -1    0    0    0    0  0.00000000000E+00  0.00000000000E+00  0.39999999674E+01  0.40000000000E+01  0.51100000000E-03 0. -1.
    9000002   -1    0    0    0    0 -0.00000000000E+00 -0.00000000000E+00  0.00000000000E+00  0.93800000000E+00  0.93800000000E+00 0. -1.
         11    1    1    2    0    0  0.26129190725E-02 -0.21424932672E-01  0.25131866862E+00  0.25224430500E+00  0.51100000000E-03 0. -1.
    9000002    1    1    2    0    0  0.79989845748E-02  0.25004054005E+00  0.41664677053E-01  0.97168112091E+00  0.93800000000E+00 0. -1.
         22    1    1    2    0    0 -0.10611903647E-01 -0.22861560738E+00  0.37070166217E+01  0.37140745741E+01  0.00000000000E+00 0. -1.
</event>
<event>
 5    1  0.3368139E+002  0.1541957E+01  0.7818608E-02  0.3418875E+00
         11   -1    0    0    0    0  0.00000000000E+00  0.00000000000E+00  0.39999999674E+01  0.40000000000E+01  0.51100000000E-03 0.  1.
    9000002   -1    0    0    0    0 -0.00000000000E+00 -0.00000000000E+00  0.00000000000E+00  0.93800000000E+00  0.93800000000E+00 0.  1.
         11    1    1    2    0    0 -0.13083829485E+00 -0.26448471357E+00  0.13055376935E+01  0.13384691829E+01  0.51100000000E-03 0.  1.
    9000002    1    1    2    0    0  0.14668966849E+00  0.13541557286E-01  0.58173098203E-01  0.95127774176E+00  0.93800000000E+00 0.  1.
         22    1    1    2    0    0 -0.15851373643E-01  0.25094315629E+00  0.26362891756E+01  0.26482530754E+01  0.00000000000E+00 0.  1.
</event>
<event>
 5    1  0.3368139E+002  0.1599672E+01  0.7818608E-02  0.3353719E+00
         11   -1    0    0    0    0  0.00000000000E+00  0.00000000000E+00  0.39999999674E+01  0.40000000000E+01  0.51100000000E-03 0. -1.
    9000002   -1    0    0    0    0 -0.00000000000E+00 -0.00000000000E+00  0.00000000000E+00  0.93800000000E+00  0.93800000000E+00 0. -1.
         11    1    1    2    0    0  0.98072968609E-01  0.15413966605E+00  0.16854740389E+01  0.16953466727E+01  0.51100000000E-03 0. -1.
    9000002    1    1    2    0    0 -0.22426233018E+00 -0.34923339638E+00  0.11642477375E+00  0.10323062946E+01  0.93800000000E+00 0.  1.
         22    1    1    2    0    0  0.12618936157E+00  0.19509373033E+00  0.21981011547E+01  0.22103470327E+01  0.00000000000E+00 0. -1.
</event>
<event>
 5    1  0.3368139E+002  0.1531207E+01  0.7818608E-02  0.3431589E+00
         11   -1    0    0    0    0  0.00000000000E+00  0.00000000000E+00  0.39999999674E+01  0.40000000000E+01  0.51100000000E-03 0. -1.
    9000002   -1    0    0    0    0 -0.00000000000E+00 -0.00000000000E+00  0.00000000000E+00  0.93800000000E+00  0.93800000000E+00 0.  1.
         11    1    1    2    0    0 -0.14658376690E+00 -0.75080560468E-01  0.28028103662E+00  0.32508708355E+00  0.51100000000E-03 0. -1.
    9000002    1    1    2    0    0  0.50588780335E-01 -0.16220234021E+00  0.71734603626E-01  0.95595955836E+00  0.93800000000E+00 0.  1.
         22    1    1    2    0    0  0.95994986562E-01  0.23728290068E+00  0.36479843271E+01  0.36569533581E+01  0.00000000000E+00 0. -1.
</event>
<event>
 5    1  0.3368139E+002  0.1599676E+01  0.7818608E-02  0.3353715E+00
         11   -1    0    0    0    0  0.00000000000E+00  0.00000000000E+00  0.39999999674E+01  0.40000000000E+01  0.51100000000E-03 0.  1.
    9000002   -1    0    0    0    0 -0.00000000000E+00 -0.00000000000E+00  0.00000000000E+00  0.93800000000E+00  0.93800000000E+00 0. -1.
         11    1    1    2    0    0  0.16526828834E+00 -0.35398035999E+00  0.20323930336E+01  0.20695983684E+01  0.51100000000E-03 0.  1.
    9000002    1    1    2    0    0 -0.29661576502E+00  0.63379152480E+00  0.34993546656E+00  0.12214628278E+01  0.93800000000E+00 0. -1.
         22    1    1    2    0    0  0.13134747668E+00 -0.27981116481E+00  0.16176714672E+01  0.16469388038E+01  0.00000000000E+00 0.  1.
</event>
<event>
 5    1  0.3368139E+002  0.1503772E+01  0.7818608E-02  0.3464921E+00
         11   -1    0    0    0    0  0.00000000000E+00  0.00000000000E+00  0.39999999674E+01  0.40000000000E+01  0.51100000000E-03 0. -1.
    9000002   -1    0    0    0    0 -0.00000000000E+00 -0.00000000000E+00  0.00000000000E+00  0.93800000000E+00  0.93800000000E+00 0. -1.
         11    1    1    2    0    0 -0.41752389021E+00  0.39046972370E-03  0.25760551991E+01  0.26096718187E+01  0.51100000000E-03 0. -1.
    9000002    1    1    2    0    0  0.13881432554E+00  0.20407941358E+00  0.11760975558E+00  0.97703320242E+00  0.93800000000E+00 0. -1.
         22    1    1    2    0    0  0.27870956466E+00 -0.20446988330E+00  0.13063350127E+01  0.13512949789E+01  0.00000000000E+00 0.  1.
</event>
<event>
 5    1  0.3368139E+002  0.1599673E+01  0.7818608E-02  0.3353718E+00
         11   -1    0    0    0    0  0.00000000000E+00  0.00000000000E+00  0.39999999674E+01  0.40000000000E+01  0.51100000000E-03 0.  1.
    9000002   -1    0    0    0    0 -0.00000000000E+00 -0.00000000000E+00  0.00000000000E+00  0.93800000000E+00  0.93800000000E+00 0.  1.
         11    1    1    2    0    0 -0.32940385717E-02 -0.10659536434E-01  0.21380671604E+00  0.21409822361E+00  0.51100000000E-03 0.  1.
    9000002    1    1    2    0    0  0.66649589488E-01  0.21401151116E+00  0.33316300797E-01  0.96498552869E+00  0.93800000000E+00 0.  1.
         22    1    1    2    0    0 -0.63355550916E-01 -0.20335197473E+00  0.37528769505E+01  0.37589162477E+01  0.00000000000E+00 0.  1.
</event>
<event>
 5    1  0.3368139E+002  0.1599676E+01  0.7818608E-02  0.3353715E+00
         11   -1    0    0    0    0  0.00000000000E+00  0.00000000000E+00  0.39999999674E+01  0.40000000000E+01  0.51100000000E-03 0. -1.
    9000002   -1    0    0    0    0 -0.00000000000E+00 -0.00000000000E+00  0.00000000000E+00  0.93800000000E+00  0.93800000000E+00 0.  1.
         11    1    1    2    0    0 -0.68154460131E-01  0.12289354198E+00  0.14087883119E+01  0.14157798635E+01  0.51100000000E-03 0. -1.
    9000002    1    1    2    0    0  0.18628385901E+00 -0.34198226374E+00  0.10215746783E+00  0.10207515335E+01  0.93800000000E+00 0.  1.
         22    1    1    2    0    0 -0.11812939888E+00  0.21908872176E+00  0.24890541876E+01  0.25014686030E+01  0.00000000000E+00 0. -1.
</event>
<event>
 5    1  0.3368139E+002  0.1599634E+01  0.7818608E-02  0.3353761E+00
         11   -1    0    0    0    0  0.00000000000E+00  0.00000000000E+00  0.39999999674E+01  0.40000000000E+01  0.51100000000E-03 0.  1.
    9000002   -1    0    0    0    0 -0.00000000000E+00 -0.00000000000E+00  0.00000000000E+00  0.93800000000E+00  0.93800000000E+00 0. -1.
         11    1    1    2    0    0  0.10229796541E+00  0.18919940673E+00  0.17777448950E+01  0.17907089272E+01  0.51100000000E-03 0.  1.
    9000002    1    1    2    0    0 -0.23294623791E+00 -0.39729318609E+00  0.14432404745E+00  0.10548835273E+01  0.93800000000E+00 0. -1.
         22    1    1    2    0    0  0.13064827250E+00  0.20809377935E+00  0.20779310250E+01  0.20924075455E+01  0.00000000000E+00 0.  1.
</event>
<event>
 5    1  0.3368139E+002  0.1599675E+01  0.7818608E-02  0.3353716E+00
         11   -1    0    0    0    0  0.00000000000E+00  0.00000000000E+00  0.39999999674E+01  0.40000000000E+01  0.51100000000E-03 0. -1.
    9000002   -1    0    0    0    0 -0.00000000000E+00 -0.00000000000E+00  0.00000000000E+00  0.93800000000E+00  0.93800000000E+00 0. -1.
         11    1    1    2    0    0 -0.15200452434E+00 -0.11628383100E+00  0.16546450352E+01  0.16656763666E+01  0.51100000000E-03 0. -1.
    9000002    1    1    2    0    0  0.35538721412E+00  0.27489485830E+00  0.13709215433E+00  0.10490498148E+01  0.93800000000E+00 0. -1.
         22    1    1    2    0    0 -0.20338268978E+00 -0.15861102730E+00  0.22082627778E+01  0.22232738186E+01  0.00000000000E+00 0. -1.
</event>
<event>
 5    1  0.3368139E+002  0.1599677E+01  0.7818608E-02  0.3353714E+00
         11   -1    0    0    0    0  0.00000000000E+00  0.00000000000E+00  0.39999999674E+01  0.40000000000E+01  0.51100000000E-03 0.  1.
    9000002   -1    0    0    0    0 -0.00000000000E+00 -0.00000000000E+00  0.00000000000E+00  0.93800000000E+00  0.93800000000E+00 0. -1.
         11    1    1    2    0    0  0.29100166172E+00  0.21347004920E+00  0.23624943163E+01  0.23899018985E+01  0.51100000000E-03 0.  1.
    9000002    1    1    2    0    0 -0.46426986533E+00 -0.34040749810E+00  0.23006926684E+00  0.11243663283E+01  0.93800000000E+00 0. -1.
         22    1    1    2    0    0  0.17326820362E+00  0.12693744890E+00  0.14074363842E+01  0.14237317732E+01  0.00000000000E+00 0.  1.
</event>
<event>
 5    1  0.3368139E+002  0.1525937E+01  0.7818608E-02  0.3437892E+00
         11   -1    0    0    0    0  0.00000000000E+00  0.00000000000E+00  0.39999999674E+01  0.40000000000E+01  0.51100000000E-03 0.  1.
    9000002   -1    0    0    0    0 -0.00000000000E+00 -0.00000000000E+00  0.00000000000E+00  0.93800000000E+00  0.93800000000E+00 0. -1.
         11    1    1    2    0    0 -0.65779126090E-01  0.31075844467E+00  0.34385993017E+01  0.34532395115E+01  0.51100000000E-03 0.  1.
    9000002    1    1    2    0    0  0.75623407814E-01 -0.10459902514E+00  0.67232780206E-01  0.94922289406E+00  0.93800000000E+00 0. -1.
         22    1    1    2    0    0 -0.98442817249E-02 -0.20615941953E+00  0.49416788541E+00  0.53553759449E+00  0.00000000000E+00 0.  1.
</event>
<event>
 5    1  0.3368139E+002  0.1599668E+01  0.7818608E-02  0.3353724E+00
         11   -1    0    0    0    0  0.00000000000E+00  0.00000000000E+00  0.39999999674E+01  0.40000000000E+01  0.51100000000E-03 0. -1.
    9000002   -1    0    0    0    0 -0.00000000000E+00 -0.00000000000E+00  0.00000000000E+00  0.93800000000E+00  0.93800000000E+00 0. -1.
         11    1    1    2    0    0 -0.21510847278E+00 -0.27505129713E+00  0.23317324469E+01  0.23577322444E+01  0.51100000000E-03 0. -1.
    9000002    1    1    2    0    0  0.35413247060E+00  0.44550637479E+00  0.22454920311E+00  0.11198893166E+01  0.93800000000E+00 0. -1.
         22    1    1    2    0    0 -0.13902399781E+00 -0.17045507766E+00  0.14437183173E+01  0.14603784390E+01  0.00000000000E+00 0. -1.
</event>
<event>
 5    1  0.3368139E+002  0.1599157E+01  0.7818608E-02  0.3354279E+00
         11   -1    0    0    0    0  0.00000000000E+00  0.00000000000E+00  0.39999999674E+01  0.40000000000E+01  0.51100000000E-03 0.  1.
    9000002   -1    0    0    0    0 -0.00000000000E+00 -0.00000000000E+00  0.00000000000E+00  0.93800000000E+00  0.93800000000E+00 0.  1.
         11    1    1    2    0    0 -0.18864529194E+00 -0.25502777584E-01  0.15212051354E+01  0.15330697189E+01  0.51100000000E-03 0.  1.
    9000002    1    1    2    0    0  0.41783865390E+00  0.92575591592E-01  0.12444904099E+00  0.10385041862E+01  0.93800000000E+00 0.  1.
         22    1    1    2    0    0 -0.22919336195E+00 -0.67072814008E-01  0.23543457909E+01  0.23664260949E+01  0.00000000000E+00 0.  1.
</event>
<event>
 5    1  0.3368139E+002  0.1581975E+01  0.7818608E-02  0.3373162E+00
         11   -1    0    0    0    0  0.00000000000E+00  0.00000000000E+00  0.39999999674E+01  0.40000000000E+01  0.51100000000E-03 0.  1.
    9000002   -1    0    0    0    0 -0.00000000000E+00 -0.00000000000E+00  0.00000000000E+00  0.93800000000E+00  0.93800000000E+00 0.  1.
         11    1    1    2    0    0  0.31315024599E+00 -0.19594283941E+00  0.25635755604E+01  0.25900533948E+01  0.51100000000E-03 0.  1.
    9000002    1    1    2    0    0 -0.36213225576E+00  0.48105781842E+00  0.27092877768E+00  0.11470844772E+01  0.93800000000E+00 0.  1.
         22    1    1    2    0    0  0.48982009770E-01 -0.28511497901E+00  0.11654956292E+01  0.12008621279E+01  0.00000000000E+00 0.  1.
</event>
<event>
 5    1  0.3368139E+002  0.1598976E+01  0.7818608E-02  0.3354476E+00
         11   -1    0    0    0    0  0.00000000000E+00  0.00000000000E+00  0.39999999674E+01  0.40000000000E+01  0.51100000000E-03 0.  1.
    9000002   -1    0    0    0    0 -0.00000000000E+00 -0.00000000000E+00  0.00000000000E+00  0.93800000000E+00  0.93800000000E+00 0. -1.
         11    1    1    2    0    0 -0.30778678570E-01  0.22727491297E-01  0.31226195397E+00  0.31459760796E+00  0.51100000000E-03 0.  1.
    9000002    1    1    2    0    0  0.21913360571E+00 -0.15105867888E+00  0.47657352411E-01  0.97619336448E+00  0.93800000000E+00 0. -1.
         22    1    1    2    0    0 -0.18835492714E+00  0.12833118758E+00  0.36400806610E+01  0.36472090276E+01  0.00000000000E+00 0.  1.
</event>
<event>
 5    1  0.3368139E+002  0.1599676E+01  0.7818608E-02  0.3353715E+00
         11   -1    0    0    0    0  0.00000000000E+00  0.00000000000E+00  0.39999999674E+01  0.40000000000E+01  0.51100000000E-03 0.  1.
    9000002   -1    0    0    0    0 -0.00000000000E+00 -0.00000000000E+00  0.00000000000E+00  0.93800000000E+00  0.93800000000E+00 0.  1.
         11    1    1    2    0    0  0.20553156733E+00 -0.46571783013E-01  0.16172866663E+01  0.16309594042E+01  0.51100000000E-03 0.  1.
    9000002    1    1    2    0    0 -0.48787881351E+00  0.10803793548E+00  0.17092430667E+00  0.10764557821E+01  0.93800000000E+00 0.  1.
         22    1    1    2    0    0  0.28234724618E+00 -0.61466152467E-01  0.22117889944E+01  0.22305848137E+01  0.00000000000E+00 0.  1.
</event>
<event>
 5    1  0.3368139E+002  0.1599676E+01  0.7818608E-02  0.3353715E+00
         11   -1    0    0    0    0  0.00000000000E+00  0.00000000000E+00  0.39999999674E+01  0.40000000000E+01  0.51100000000E-03 0.  1.
    9000002   -1    0    0    0    0 -0.00000000000E+00 -0.00000000000E+00  0.00000000000E+00  0.93800000000E+00  0.93800000000E+00 0.  1.
         11    1    1    2    0    0  0.95307092700E-01 -0.20849696647E+00  0.20373401068E+01  0.20501974049E+01  0.51100000000E-03 0.  1.
    9000002    1    1    2    0    0 -0.18303825611E+00  0.39600469786E+00  0.12900789003E+00  0.10425016833E+01  0.93800000000E+00 0.  1.
         22    1    1    2    0    0  0.87731163412E-01 -0.18750773139E+00  0.18336519705E+01  0.18453009119E+01  0.00000000000E+00 0.  1.
</event>
<event>
 5    1  0.3485448E+002  0.1551392E+01  0.7818608E-02  0.3407872E+00
         11   -1    0    0    0    0  0.00000000000E+00  0.00000000000E+00  0.39999999674E+01  0.40000000000E+01  0.51100000000E-03 0.  1.
    9000002   -1    0    0    0    0 -0.00000000000E+00 -0.00000000000E+00  0.00000000000E+00  0.93800000000E+00  0.93800000000E+00 0. -1.
         11    1    1    2    0    0  0.55696087394E-01  0.26401372313E+00  0.14294971137E+01  0.14547396879E+01  0.51100000000E-03 0.  1.
    9000002    1    1    2    0    0  0.65205706976E-01 -0.62015986592E-01  0.41390609029E-01  0.94321521899E+00  0.93800000000E+00 0. -1.
         22    1    1    2    0    0 -0.12090179437E+00 -0.20199773654E+00  0.25291122446E+01  0.25400450931E+01  0.00000000000E+00 0.  1.
</event>
<event>
 5    1  0.3368139E+002  0.1599339E+01  0.7818608E-02  0.3354081E+00
         11   -1    0    0    0    0  0.00000000000E+00  0.00000000000E+00  0.39999999674E+01  0.40000000000E+01  0.51100000000E-03 0. -1.
    9000002   -1    0    0    0    0 -0.00000000000E+00 -0.00000000000E+00  0.00000000000E+00  0.93800000000E+00  0.93800000000E+00 0. -1.
         11    1    1    2    0    0  0.29745858367E-01  0.14539619478E-01  0.17396201971E+00  0.17708546537E+00  0.51100000000E-03 0. -1.
    9000002    1    1    2    0    0 -0.53059655249E+00 -0.15065666203E+00  0.21051435065E+00  0.11083277598E+01  0.93800000000E+00 0. -1.
         22    1    1    2    0    0  0.50085069412E+00  0.13611704256E+00  0.36155235970E+01  0.36525867748E+01  0.00000000000E+00 0. -1.
</event>
<event>
 5    1  0.3368139E+002  0.1599577E+01  0.7818608E-02  0.3353823E+00
         11   -1    0    0    0    0  0.00000000000E+00  0.00000000000E+00  0.39999999674E+01  0.40000000000E+01  0.51100000000E-03 0.  1.
    9000002   -1    0    0    0    0 -0.00000000000E+00 -0.00000000000E+00  0.00000000000E+00  0.93800000000E+00  0.93800000000E+00 0.  1.
         11    1    1    2    0    0 -0.12722303756E+00  0.13899675769E-01  0.14023892391E+01  0.14082168659E+01  0.51100000000E-03 0.  1.
    9000002    1    1    2    0    0  0.36917182461E+00 -0.67270008890E-01  0.94772546911E-01  0.10147112524E+01  0.93800000000E+00 0.  1.
         22    1    1    2    0    0 -0.24194878706E+00  0.53370333121E-01  0.25028381813E+01  0.25150718817E+01  0.00000000000E+00 0.  1.
</event>
<event>
 5    1  0.3368139E+002  0.1599674E+01  0.7818608E-02  0.3353718E+00
         11   -1    0    0    0    0  0.00000000000E+00  0.00000000000E+00  0.39999999674E+01  0.40000000000E+01  0.51100000000E-03 0.  1.
    9000002   -1    0    0    0    0 -0.00000000000E+00 -0.00000000000E+00  0.00000000000E+00  0.93800000000E+00  0.93800000000E+00 0. -1.
         11    1    1    2    0    0 -0.15343061527E+00  0.12992583289E+00  0.13185876968E+01  0.13338273693E+01  0.51100000000E-03 0.  1.
    9000002    1    1    2    0    0  0.44101968349E+00 -0.36616303320E+00  0.22798011041E+00  0.11226721066E+01  0.93800000000E+00 0. -1.
         22    1    1    2    0    0 -0.28758906822E+00  0.23623720032E+00  0.24534321602E+01  0.24815005242E+01  0.00000000000E+00 0.  1.
</event>
<event>
 5    1  0.3368139E+002  0.1599638E+01  0.7818608E-02  0.3353756E+00
         11   -1    0    0    0    0  0.00000000000E+00  0.00000000000E+00  0.39999999674E+01  0.40000000000E+01  0.51100000000E-03 0.  1.
    9000002   -1    0    0    0    0 -0.00000000000E+00 -0.00000000000E+00  0.00000000000E+00  0.93800000000E+00  0.93800000000E+00 0. -1.
         11    1    1    2    0    0  0.98678056513E-01  0.45845467512E+00  0.20237169335E+01  0.20773416994E+01  0.51100000000E-03 0.  1.
    9000002    1    1    2    0    0 -0.17101856967E+00 -0.80525419130E+00  0.50330134276E+00  0.13456737738E+01  0.93800000000E+00 0. -1.
         22    1    1    2    0    0  0.72340513158E-01  0.34679951618E+00  0.14729816911E+01  0.15149845268E+01  0.00000000000E+00 0.  1.
</event>
<event>
 5    1  0.3368139E+002  0.1599670E+01  0.7818608E-02  0.3353722E+00
         11   -1    0    0    0    0  0.00000000000E+00  0.00000000000E+00  0.39999999674E+01  0.40000000000E+01  0.51100000000E-03 0.  1.
    9000002   -1    0    0    0    0 -0.00000000000E+00 -0.00000000000E+00  0.00000000000E+00  0.93800000000E+00  0.93800000000E+00 0.  1.
         11    1    1    2    0    0 -0.23556112274E-01  0.41253068632E-02  0.40839364347E+00  0.40909355620E+00  0.51100000000E-03 0.  1.
    9000002    1    1    2    0    0  0.23970642605E+00 -0.25154743006E-01  0.38569350838E-01  0.96923863244E+00  0.93800000000E+00 0.  1.
         22    1    1    2    0    0 -0.21615031378E+00  0.21029436142E-01  0.35530369731E+01  0.35596678114E+01  0.00000000000E+00 0.  1.
</event>
<event>
 5    1  0.3368139E+002  0.1599633E+01  0.7818608E-02  0.3353762E+00
         11   -1    0    0    0    0  0.00000000000E+00  0.00000000000E+00  0.39999999674E+01  0.40000000000E+01  0.51100000000E-03 0.  1.
    9000002   -1    0    0    0    0 -0.00000000000E+00 -0.00000000000E+00  0.00000000000E+00  0.93800000000E+00  0.93800000000E+00 0. -1.
         11    1    1    2    0    0 -0.52517542071E-01  0.13514377477E+00  0.11451164053E+01  0.11542589722E+01  0.51100000000E-03 0.  1.
    9000002    1    1    2    0    0  0.15198114617E+00 -0.45070563030E+00  0.15429577436E+00  0.10629604978E+01  0.93800000000E+00 0. -1.
         22    1    1    2    0    0 -0.99463604100E-01  0.31556185553E+00  0.27005877877E+01  0.27207805300E+01  0.00000000000E+00 0. -1.
</event>
<event>
 5    1  0.3368139E+002  0.1599675E+01  0.7818608E-02  0.3353716E+00
         11   -1    0    0    0    0  0.00000000000E+00  0.00000000000E+00  0.39999999674E+01  0.40000000000E+01  0.51100000000E-03 0.  1.
    9000002   -1    0    0    0    0 -0.00000000000E+00 -0.00000000000E+00  0.00000000000E+00  0.93800000000E+00  0.93800000000E+00 0. -1.
         11    1    1    2    0    0 -0.16935788710E+00 -0.16429365511E+00  0.17444765319E+01  0.17603616476E+01  0.51100000000E-03 0.  1.
    9000002    1    1    2    0    0  0.36976355809E+00  0.36297285967E+00  0.18436121528E+00  0.10873396173E+01  0.93800000000E+00 0. -1.
         22    1    1    2    0    0 -0.20040567099E+00 -0.19867920456E+00  0.20711622202E+01  0.20902987350E+01  0.00000000000E+00 0.  1.
</event>
<event>
 5    1  0.3368139E+002  0.1599675E+01  0.7818608E-02  0.3353716E+00
         11   -1    0    0    0    0  0.00000000000E+00  0.00000000000E+00  0.39999999674E+01  0.40000000000E+01  0.51100000000E-03 0.  1.
    9000002   -1    0    0    0    0 -0.00000000000E+00 -0.00000000000E+00  0.00000000000E+00  0.93800000000E+00  0.93800000000E+00 0. -1.
         11    1    1    2    0    0  0.29469790970E-01 -0.12930655072E-01  0.37396861380E+00  0.37535110982E+00  0.51100000000E-03 0. -1.
    9000002    1    1    2    0    0 -0.30193474150E+00  0.14019146420E+00  0.74169882350E-01  0.99807985963E+00  0.93800000000E+00 0. -1.
         22    1    1    2    0    0  0.27246495053E+00 -0.12726080913E+00  0.35518614712E+01  0.35645690305E+01  0.00000000000E+00 0.  1.
</event>
<event>
 5    1  0.3368139E+002  0.1599199E+01  0.7818608E-02  0.3354234E+00
         11   -1    0    0    0    0  0.00000000000E+00  0.00000000000E+00  0.39999999674E+01  0.40000000000E+01  0.51100000000E-03 0. -1.
    9000002   -1    0    0    0    0 -0.00000000000E+00 -0.00000000000E+00  0.00000000000E+00  0.93800000000E+00  0.93800000000E+00 0. -1.
         11    1    1    2    0    0  0.14555906978E+00 -0.12773608648E+00  0.14638426269E+01  0.14765972532E+01  0.51100000000E-03 0. -1.
    9000002    1    1    2    0    0 -0.31688890282E+00  0.32628707210E+00  0.14102676889E+00  0.10519574039E+01  0.93800000000E+00 0. -1.
         22    1    1    2    0    0  0.17132983303E+00 -0.19855098561E+00  0.23951305715E+01  0.24094453429E+01  0.00000000000E+00 0. -1.
</event>
<event>
 5    1  0.3368139E+002  0.1514162E+01  0.7818608E-02  0.3452145E+00
         11   -1    0    0    0    0  0.00000000000E+00  0.00000000000E+00  0.39999999674E+01  0.40000000000E+01  0.51100000000E-03 0.  1.
    9000002   -1    0    0    0    0 -0.00000000000E+00 -0.00000000000E+00  0.00000000000E+00  0.93800000000E+00  0.93800000000E+00 0. -1.
         11    1    1    2    0    0  0.88895117615E-02  0.45443788935E+00  0.26947398305E+01  0.27328036581E+01  0.51100000000E-03 0.  1.
    9000002    1    1    2    0    0  0.96167988289E-01 -0.19965590346E+00  0.10019192298E+00  0.96901660625E+00  0.93800000000E+00 0. -1.
         22    1    1    2    0    0 -0.10505750005E+00 -0.25478198589E+00  0.12050682139E+01  0.12361797356E+01  0.00000000000E+00 0. -1.
</event>
<event>
 5    1  0.3368139E+002  0.1599663E+01  0.7818608E-02  0.3353729E+00
         11   -1    0    0    0    0  0.00000000000E+00  0.00000000000E+00  0.39999999674E+01  0.40000000000E+01  0.51100000000E-03 0.  1.
    9000002   -1    0    0    0    0 -0.00000000000E+00 -0.00000000000E+00  0.00000000000E+00  0.93800000000E+00  0.93800000000E+00 0.  1.
         11    1    1    2    0    0  0.25401944720E-01  0.19970331297E-01  0.52446570837E+00  0.52546038225E+00  0.51100000000E-03 0.  1.
    9000002    1    1    2    0    0 -0.21374013145E+00 -0.15633837198E+00  0.46649787897E-01  0.97578006388E+00  0.93800000000E+00 0.  1.
         22    1    1    2    0    0  0.18833818673E+00  0.13636804069E+00  0.34288844711E+01  0.34367595539E+01  0.00000000000E+00 0.  1.
</event>
<event>
 5    1  0.3368139E+002  0.1599658E+01  0.7818608E-02  0.3353734E+00
         11   -1    0    0    0    0  0.00000000000E+00  0.00000000000E+00  0.39999999674E+01  0.40000000000E+01  0.51100000000E-03 0.  1.
    9000002   -1    0    0    0    0 -0.00000000000E+00 -0.00000000000E+00  0.00000000000E+00  0.93800000000E+00  0.93800000000E+00 0. -1.
         11    1    1    2    0    0  0.28592329798E+00  0.23340160389E+00  0.24104422039E+01  0.24385365120E+01  0.51100000000E-03 0.  1.
    9000002    1    1    2    0    0 -0.44125730110E+00 -0.36088586754E+00  0.22533556435E+00  0.11205207413E+01  0.93800000000E+00 0. -1.
         22    1    1    2    0    0  0.15533400312E+00  0.12748426365E+00  0.13642221992E+01  0.13789427467E+01  0.00000000000E+00 0. -1.
</event>
<event>
 5    1  0.3368139E+002  0.1592827E+01  0.7818608E-02  0.3361186E+00
         11   -1    0    0    0    0  0.00000000000E+00  0.00000000000E+00  0.39999999674E+01  0.40000000000E+01  0.51100000000E-03 0. -1.
    9000002   -1    0    0    0    0 -0.00000000000E+00 -0.00000000000E+00  0.00000000000E+00  0.93800000000E+00  0.93800000000E+00 0. -1.
         11    1    1    2    0    0 -0.18125115215E+00 -0.24059051964E-01  0.12914795469E+01  0.13043582711E+01  0.51100000000E-03 0. -1.
    9000002    1    1    2    0    0  0.63500193678E+00 -0.17707902316E+00  0.31467766463E+00  0.11888862321E+01  0.93800000000E+00 0. -1.
         22    1    1    2    0    0 -0.45375078463E+00  0.20113807513E+00  0.23938427558E+01  0.24447554968E+01  0.00000000000E+00 0. -1.
</event>
<event>
 5    1  0.3368139E+002  0.1599636E+01  0.7818608E-02  0.3353758E+00
         11   -1    0    0    0    0  0.00000000000E+00  0.00000000000E+00  0.39999999674E+01  0.40000000000E+01  0.51100000000E-03 0.  1.
    9000002   -1    0    0    0    0 -0.00000000000E+00 -0.00000000000E+00  0.00000000000E+00  0.93800000000E+00  0.93800000000E+00 0. -1.
         11    1    1    2    0    0  0.19047264463E-01 -0.16887924353E-01  0.46683699141E+00  0.46753078823E+00  0.51100000000E-03 0.  1.
    9000002    1    1    2    0    0 -0.18834222416E+00  0.17528738552E+00  0.44031203103E-01  0.97364326515E+00  0.93800000000E+00 0. -1.
         22    1    1    2    0    0  0.16929495970E+00 -0.15839946116E+00  0.34891317729E+01  0.34968259466E+01  0.00000000000E+00 0.  1.
</event>
<event>
 5    1  0.3368139E+002  0.1599673E+01  0.7818608E-02  0.3353718E+00
         11   -1    0    0    0    0  0.00000000000E+00  0.00000000000E+00  0.39999999674E+01  0.40000000000E+01  0.51100000000E-03 0. -1.
    9000002   -1    0    0    0    0 -0.00000000000E+00 -0.00000000000E+00  0.00000000000E+00  0.93800000000E+00  0.93800000000E+00 0. -1.
         11    1    1    2    0    0 -0.28442603939E-01  0.69702021224E-02  0.46545330548E+00  0.46637389093E+00  0.51100000000E-03 0. -1.
    9000002    1    1    2    0    0  0.23123391093E+00 -0.52983950789E-01  0.37351281117E-01  0.96825386072E+00  0.93800000000E+00 0. -1.
         22    1    1    2    0    0 -0.20279130700E+00  0.46013748666E-01  0.34971953808E+01  0.35033722483E+01  0.00000000000E+00 0.  1.
</event>
<event>
 5    1  0.3368139E+002  0.1594543E+01  0.7818608E-02  0.3359308E+00
         11   -1    0    0    0    0  0.00000000000E+00  0.00000000000E+00  0.39999999674E+01  0.40000000000E+01  0.51100000000E-03 0.  1.
    9000002   -1    0    0    0    0 -0.00000000000E+00 -0.00000000000E+00  0.00000000000E+00  0.93800000000E+00  0.93800000000E+00 0.  1.
         11    1    1    2    0    0 -0.10115414830E-01 -0.17690838127E-01  0.94647605437E-01  0.96817961695E-01  0.51100000000E-03 0.  1.
    9000002    1    1    2    0    0 -0.23987455609E+00 -0.14444095624E+00  0.56198478867E-01  0.98051275439E+00  0.93800000000E+00 0.  1.
         22    1    1    2    0    0  0.24998997092E+00  0.16213179437E+00  0.38491538831E+01  0.38606692839E+01  0.00000000000E+00 0.  1.
</event>
<event>
 5    1  0.3368139E+002  0.1599673E+01  0.7818608E-02  0.3353719E+00
         11   -1    0    0    0    0  0.00000000000E+00  0.00000000000E+00  0.39999999674E+01  0.40000000000E+01  0.51100000000E-03 0. -1.
    9000002   -1    0    0    0    0 -0.00000000000E+00 -0.00000000000E+00  0.00000000000E+00  0.93800000000E+00  0.93800000000E+00 0. -1.
         11    1    1    2    0    0 -0.70993133102E-01  0.47984022290E-01  0.10292227390E+01  0.10327837135E+01  0.51100000000E-03 0. -1.
    9000002    1    1    2    0    0  0.26540698903E+00 -0.18936822051E+00  0.71098501178E-01  0.99559037241E+00  0.93800000000E+00 0. -1.
         22    1    1    2    0    0 -0.19441385593E+00  0.14138419822E+00  0.28996787272E+01  0.29096259141E+01  0.00000000000E+00 0. -1.
</event>
<event>
 5    1  0.3368139E+002  0.1590954E+01  0.7818608E-02  0.3363240E+00
         11   -1    0    0    0    0  0.00000000000E+00  0.00000000000E+00  0.39999999674E+01  0.40000000000E+01  0.51100000000E-03 0.  1.
    9000002   -1    0    0    0    0 -0.00000000000E+00 -0.00000000000E+00  0.00000000000E+00  0.93800000000E+00  0.93800000000E+00 0.  1.
         11    1    1    2    0    0 -0.81701288677E-02  0.26867926161E-01  0.69581361304E-01  0.75036413986E-01  0.51100000000E-03 0.  1.
    9000002    1    1    2    0    0 -0.21769525918E+00  0.34707469611E-01  0.38828181088E-01  0.96433783601E+00  0.93800000000E+00 0.  1.
         22    1    1    2    0    0  0.22586538805E+00 -0.61575395772E-01  0.38915904250E+01  0.38986257500E+01  0.00000000000E+00 0.  1.
</event>
<event>
 5    1  0.3368139E+002  0.1598056E+01  0.7818608E-02  0.3355476E+00
         11   -1    0    0    0    0  0.00000000000E+00  0.00000000000E+00  0.39999999674E+01  0.40000000000E+01  0.51100000000E-03 0. -1.
    9000002   -1    0    0    0    0 -0.00000000000E+00 -0.00000000000E+00  0.00000000000E+00  0.93800000000E+00  0.93800000000E+00 0. -1.
         11    1    1    2    0    0  0.55392455990E-01 -0.63932794087E-01  0.70329561036E+00  0.70836480927E+00  0.51100000000E-03 0. -1.
    9000002    1    1    2    0    0 -0.12812575350E+00  0.25739191168E+00  0.56346938324E-01  0.98269312726E+00  0.93800000000E+00 0. -1.
         22    1    1    2    0    0  0.72733297505E-01 -0.19345911760E+00  0.32403574187E+01  0.32469420635E+01  0.00000000000E+00 0. -1.
</event>
<event>
 5    1  0.3368139E+002  0.1501133E+01  0.7818608E-02  0.3468195E+00
         11   -1    0    0    0    0  0.00000000000E+00  0.00000000000E+00  0.39999999674E+01  0.40000000000E+01  0.51100000000E-03 0. -1.
    9000002   -1    0    0    0    0 -0.00000000000E+00 -0.00000000000E+00  0.00000000000E+00  0.93800000000E+00  0.93800000000E+00 0. -1.
         11    1    1    2    0    0  0.30836154976E+00 -0.29477564526E+00  0.19557984748E+01  0.20017810723E+01  0.51100000000E-03 0. -1.
    9000002    1    1    2    0    0 -0.53515877992E-01  0.85977673323E-01  0.82507887842E-01  0.94705208994E+00  0.93800000000E+00 0. -1.
         22    1    1    2    0    0 -0.25484567177E+00  0.20879797194E+00  0.19616936047E+01  0.19891668378E+01  0.00000000000E+00 0. -1.
</event>
<event>
 5    1  0.3368139E+002  0.1598975E+01  0.7818608E-02  0.3354476E+00
         11   -1    0    0    0    0  0.00000000000E+00  0.00000000000E+00  0.39999999674E+01  0.40000000000E+01  0.51100000000E-03 0. -1.
    9000002   -1    0    0    0    0 -0.00000000000E+00 -0.00000000000E+00  0.00000000000E+00  0.93800000000E+00  0.93800000000E+00 0. -1.
         11    1    1    2    0    0 -0.96759527261E-02  0.13534563101E-01  0.36968695781E+00  0.37006150347E+00  0.51100000000E-03 0. -1.
    9000002    1    1    2    0    0  0.17227949818E+00 -0.32786755456E+00  0.92764990123E-01  0.10127322954E+01  0.93800000000E+00 0. -1.
         22    1    1    2    0    0 -0.16260354545E+00  0.31433299145E+00  0.35375480194E+01  0.35552062011E+01  0.00000000000E+00 0. -1.
</event>
<event>
 5    1  0.3368139E+002  0.1599654E+01  0.7818608E-02  0.3353739E+00
         11   -1    0    0    0    0  0.00000000000E+00  0.00000000000E+00  0.39999999674E+01  0.40000000000E+01  0.51100000000E-03 0. -1.
    9000002   -1    0    0    0    0 -0.00000000000E+00 -0.00000000000E+00  0.00000000000E+00  0.93800000000E+00  0.93800000000E+00 0. -1.
         11    1    1    2    0    0 -0.34601588282E+00 -0.44967921230E-01  0.18645980303E+01  0.18969647284E+01  0.51100000000E-03 0. -1.
    9000002    1    1    2    0    0  0.67554117446E+00  0.78649366538E-01  0.32886674268E+00  0.12043832180E+01  0.93800000000E+00 0. -1.
         22    1    1    2    0    0 -0.32952529164E+00 -0.33681445308E-01  0.18065351944E+01  0.18366520537E+01  0.00000000000E+00 0.  1.
</event>
<event>
 5    1  0.3368139E+002  0.1588995E+01  0.7818608E-02  0.3365395E+00
         11   -1    0    0    0    0  0.00000000000E+00  0.00000000000E+00  0.39999999674E+01  0.40000000000E+01  0.51100000000E-03 0.  1.
    9000002   -1    0    0    0    0 -0.00000000000E+00 -0.00000000000E+00  0.00000000000E+00  0.93800000000E+00  0.93800000000E+00 0.  1.
         11    1    1    2    0    0  0.31788942955E-01  0.29766859664E-01  0.30815486564E+00  0.31121742426E+00  0.51100000000E-03 0.  1.
    9000002    1    1    2    0    0  0.32237752007E+00  0.65338154289E-01  0.80926991423E-01  0.99729108980E+00  0.93800000000E+00 0.  1.
         22    1    1    2    0    0 -0.35416646302E+00 -0.95105013954E-01  0.36109181103E+01  0.36294914859E+01  0.00000000000E+00 0.  1.
</event>
<event>
 5    1  0.3368139E+002  0.1599676E+01  0.7818608E-02  0.3353715E+00
         11   -1    0    0    0    0  0.00000000000E+00  0.00000000000E+00  0.39999999674E+01  0.40000000000E+01  0.51100000000E-03 0.  1.
    9000002   -1    0    0    0    0 -0.00000000000E+00 -0.00000000000E+00  0.00000000000E+00  0.93800000000E+00  0.93800000000E+00 0.  1.
         11    1    1    2    0    0 -0.26717133478E+00  0.77022075988E-01  0.21662272005E+01  0.21839994202E+01  0.51100000000E-03 0.  1.
    9000002    1    1    2    0    0  0.47380108031E+00 -0.13487513112E+00  0.16592410529E+00  0.10724055079E+01  0.93800000000E+00 0.  1.
         22    1    1    2    0    0 -0.20662974553E+00  0.57853055134E-01  0.16678486616E+01  0.16815950719E+01  0.00000000000E+00 0.  1.
</event>
<event>
 5    1  0.3368139E+002  0.1575362E+01  0.7818608E-02  0.3380546E+00
         11   -1    0    0    0    0  0.00000000000E+00  0.00000000000E+00  0.39999999674E+01  0.40000000000E+01  0.51100000000E-03 0.  1.
    9000002   -1    0    0    0    0 -0.00000000000E+00 -0.00000000000E+00  0.00000000000E+00  0.93800000000E+00  0.93800000000E+00 0. -1.
         11    1    1    2    0    0 -0.96618793924E-01  0.13042144626E+00  0.17680302072E+01  0.17754650151E+01  0.51100000000E-03 0.  1.
    9000002    1    1    2    0    0  0.23787920648E+00  0.12460602969E+00  0.66952862522E-01  0.97797743599E+00  0.93800000000E+00 0. -1.
         22    1    1    2    0    0 -0.14126041255E+00 -0.25502747595E+00  0.21650168976E+01  0.21845575489E+01  0.00000000000E+00 0.  1.
</event>
<event>
 5    1  0.3368139E+002  0.1599621E+01  0.7818608E-02  0.3353775E+00
         11   -1    0    0    0    0  0.00000000000E+00  0.00000000000E+00  0.39999999674E+01  0.40000000000E+01  0.51100000000E-03 0. -1.
    9000002   -1    0    0    0    0 -0.00000000000E+00 -0.00000000000E+00  0.00000000000E+00  0.93800000000E+00  0.93800000000E+00 0. -1.
         11    1    1    2    0    0 -0.20058093660E+00  0.24069971064E+00  0.22093572145E+01  0.22314633371E+01  0.51100000000E-03 0. -1.
    9000002    1    1    2    0    0  0.34623740737E+00 -0.39941627160E+00  0.19228049350E+00  0.10937227658E+01  0.93800000000E+00 0. -1.
         22    1    1    2    0    0 -0.14565647077E+00  0.15871656096E+00  0.15983622594E+01  0.16128138970E+01  0.00000000000E+00 0. -1.
</event>
<event>
 5    1  0.3368139E+002  0.1599649E+01  0.7818608E-02  0.3353745E+00
         11   -1    0    0    0    0  0.00000000000E+00  0.00000000000E+00  0.39999999674E+01  0.40000000000E+01  0.51100000000E-03 0.  1.
    9000002   -1    0    0    0    0 -0.00000000000E+00 -0.00000000000E+00  0.00000000000E+00  0.93800000000E+00  0.93800000000E+00 0. -1.
         11    1    1    2    0    0  0.63260048659E-02 -0.34437486756E-01  0.30779664337E+00  0.30978217124E+00  0.51100000000E-03 0.  1.
    9000002    1    1    2    0    0 -0.36864761600E-01  0.42699680380E+00  0.12439798217E+00  0.10387512402E+01  0.93800000000E+00 0. -1.
         22    1    1    2    0    0  0.30538756734E-01 -0.39255931704E+00  0.35678053418E+01  0.35894665885E+01  0.00000000000E+00 0.  1.
</event>
<event>
 5    1  0.3368139E+002  0.1598762E+01  0.7818608E-02  0.3354708E+00
         11   -1    0    0    0    0  0.00000000000E+00  0.00000000000E+00  0.39999999674E+01  0.40000000000E+01  0.51100000000E-03 0.  1.
    9000002   -1    0    0    0    0 -0.00000000000E+00 -0.00000000000E+00  0.00000000000E+00  0.93800000000E+00  0.93800000000E+00 0.  1.
         11    1    1    2    0    0 -0.49937430906E-02  0.75771011587E-03  0.57963317756E-01  0.58185212219E-01  0.51100000000E-03 0.  1.
    9000002    1    1    2    0    0 -0.46100104545E-01  0.40081284807E+00  0.11060846942E+00  0.10270610461E+01  0.93800000000E+00 0.  1.
         22    1    1    2    0    0  0.51093847636E-01 -0.40157055819E+00  0.38314281802E+01  0.38527537417E+01  0.00000000000E+00 0.  1.
</event>
<event>
 5    1  0.3368139E+002  0.1489575E+01  0.7818608E-02  0.3482687E+00
         11   -1    0    0    0    0  0.00000000000E+00  0.00000000000E+00  0.39999999674E+01  0.40000000000E+01  0.51100000000E-03 0. -1.
    9000002   -1    0    0    0    0 -0.00000000000E+00 -0.00000000000E+00  0.00000000000E+00  0.93800000000E+00  0.93800000000E+00 0.  1.
         11    1    1    2    0    0 -0.79570280656E-01 -0.78897787873E-01  0.37606417883E-01  0.11819811454E+00  0.51100000000E-03 0. -1.
    9000002    1    1    2    0    0 -0.18604591395E+00  0.22126142668E+00  0.14695047300E+00  0.99247576421E+00  0.93800000000E+00 0.  1.
         22    1    1    2    0    0  0.26561619460E+00 -0.14236363881E+00  0.38154430765E+01  0.38273261212E+01  0.00000000000E+00 0. -1.
</event>
<event>
 5    1  0.3368139E+002  0.1588821E+01  0.7818608E-02  0.3365587E+00
         11   -1    0    0    0    0  0.00000000000E+00  0.00000000000E+00  0.39999999674E+01  0.40000000000E+01  0.51100000000E-03 0.  1.
    9000002   -1    0    0    0    0 -0.00000000000E+00 -0.00000000000E+00  0.00000000000E+00  0.93800000000E+00  0.93800000000E+00 0.  1.
         11    1    1    2    0    0  0.19995392615E+00  0.17645653195E+00  0.13237634990E+01  0.13503586718E+01  0.51100000000E-03 0.  1.
    9000002    1    1    2    0    0 -0.53586011779E+00 -0.16254212362E+00  0.22741883007E+00  0.11158536338E+01  0.93800000000E+00 0.  1.
         22    1    1    2    0    0  0.33590619164E+00 -0.13914408334E-01  0.24488176383E+01  0.24717876944E+01  0.00000000000E+00 0.  1.
</event>
<event>
 5    1  0.3368139E+002  0.1457355E+01  0.7818608E-02  0.3524400E+00
         11   -1    0    0    0    0  0.00000000000E+00  0.00000000000E+00  0.39999999674E+01  0.40000000000E+01  0.51100000000E-03 0.  1.
    9000002   -1    0    0    0    0 -0.00000000000E+00 -0.00000000000E+00  0.00000000000E+00  0.93800000000E+00  0.93800000000E+00 0.  1.
         11    1    1    2    0    0  0.37113719374E+00  0.32069196612E+00  0.21741172928E+01  0.22287602871E+01  0.51100000000E-03 0.  1.
    9000002    1    1    2    0    0  0.22143043970E-01 -0.15031605404E+00  0.12885183842E+00  0.95892232572E+00  0.93800000000E+00 0.  1.
         22    1    1    2    0    0 -0.39328023771E+00 -0.17037591209E+00  0.16970308362E+01  0.17503173871E+01  0.00000000000E+00 0.  1.
</event>
<event>
 5    1  0.3368139E+002  0.1599415E+01  0.7818608E-02  0.3353999E+00
         11   -1    0    0    0    0  0.00000000000E+00  0.00000000000E+00  0.39999999674E+01  0.40000000000E+01  0.51100000000E-03 0. -1.
    9000002   -1    0    0    0    0 -0.00000000000E+00 -0.00000000000E+00  0.00000000000E+00  0.93800000000E+00  0.93800000000E+00 0. -1.
         11    1    1    2    0    0  0.64262050767E-02 -0.35973408915E-02  0.47182694932E-01  0.47756725130E-01  0.51100000000E-03 0. -1.
    9000002    1    1    2    0    0 -0.29663786564E+00  0.41003894833E-01  0.60025699447E-01  0.98646967886E+00  0.93800000000E+00 0. -1.
         22    1    1    2    0    0  0.29021166056E+00 -0.37406553941E-01  0.38927915730E+01  0.39037735960E+01  0.00000000000E+00 0. -1.
</event>
<event>
 5    1  0.3368139E+002  0.1583673E+01  0.7818608E-02  0.3371277E+00
         11   -1    0    0    0    0  0.00000000000E+00  0.00000000000E+00  0.39999999674E+01  0.40000000000E+01  0.51100000000E-03 0.  1.
    9000002   -1    0    0    0    0 -0.00000000000E+00 -0.00000000000E+00  0.00000000000E+00  0.93800000000E+00  0.93800000000E+00 0.  1.
         11    1    1    2    0    0  0.39863414750E-01  0.10809239682E+00  0.17447426313E+01  0.17485422982E+01  0.51100000000E-03 0.  1.
    9000002    1    1    2    0    0 -0.37165009498E+00 -0.55174034539E-01  0.10815049468E+00  0.10162226610E+01  0.93800000000E+00 0.  1.
         22    1    1    2    0    0  0.33178668023E+00 -0.52918362280E-01  0.21471068414E+01  0.21732350408E+01  0.00000000000E+00 0.  1.
</event>
<event>
 5    1  0.3368139E+002  0.1599676E+01  0.7818608E-02  0.3353715E+00
         11   -1    0    0    0    0  0.00000000000E+00  0.00000000000E+00  0.39999999674E+01  0.40000000000E+01  0.51100000000E-03 0.  1.
    9000002   -1    0    0    0    0 -0.00000000000E+00 -0.00000000000E+00  0.00000000000E+00  0.93800000000E+00  0.93800000000E+00 0.  1.
         11    1    1    2    0    0 -0.37096481902E-01  0.42043452282E-01  0.75926097541E+00  0.76132863519E+00  0.51100000000E-03 0.  1.
    9000002    1    1    2    0    0  0.18881213343E+00 -0.21647235702E+00  0.54980510880E-01  0.98253608568E+00  0.93800000000E+00 0.  1.
         22    1    1    2    0    0 -0.15171565152E+00  0.17442890474E+00  0.31857584811E+01  0.31941352791E+01  0.00000000000E+00 0.  1.
</event>
<event>
 5    1  0.4412821E+002  0.1563186E+01  0.7818608E-02  0.3394316E+00
         11   -1    0    0    0    0  0.00000000000E+00  0.00000000000E+00  0.39999999674E+01  0.40000000000E+01  0.51100000000E-03 0. -1.
    9000002   -1    0    0    0    0 -0.00000000000E+00 -0.00000000000E+00  0.00000000000E+00  0.93800000000E+00  0.93800000000E+00 0. -1.
         11    1    1    2    0    0 -0.10856215913E+00  0.65602146233E-01  0.33823881442E+00  0.36124111157E+00  0.51100000000E-03 0. -1.
    9000002    1    1    2    0    0 -0.10311216872E+00 -0.10988775564E+00  0.42431433808E-01  0.95097416619E+00  0.93800000000E+00 0. -1.
         22    1    1    2    0    0  0.21167432785E+00  0.44285609410E-01  0.36193297191E+01  0.36257847222E+01  0.00000000000E+00 0. -1.
</event>
<event>
 5    1  0.3368139E+002  0.1544476E+01  0.7818608E-02  0.3415924E+00
         11   -1    0    0    0    0  0.00000000000E+00  0.00000000000E+00  0.39999999674E+01  0.40000000000E+01  0.51100000000E-03 0. -1.
    9000002   -1    0    0    0    0 -0.00000000000E+00 -0.00000000000E+00  0.00000000000E+00  0.93800000000E+00  0.93800000000E+00 0. -1.
         11    1    1    2    0    0 -0.15866353632E+00 -0.48390323732E-01  0.11147849580E+01  0.11270587851E+01  0.51100000000E-03 0. -1.
    9000002    1    1    2    0    0 -0.21697162255E+00 -0.28010963271E+00  0.13020858415E+00  0.10111065061E+01  0.93800000000E+00 0. -1.
         22    1    1    2    0    0  0.37563515888E+00  0.32849995645E+00  0.27550064252E+01  0.27998347088E+01  0.00000000000E+00 0. -1.
</event>
<event>
 5    1  0.3368139E+002  0.1599677E+01  0.7818608E-02  0.3353714E+00
         11   -1    0    0    0    0  0.00000000000E+00  0.00000000000E+00  0.39999999674E+01  0.40000000000E+01  0.51100000000E-03 0. -1.
    9000002   -1    0    0    0    0 -0.00000000000E+00 -0.00000000000E+00  0.00000000000E+00  0.93800000000E+00  0.93800000000E+00 0. -1.
         11    1    1    2    0    0 -0.47980916764E-01  0.12069627890E-01  0.67329294643E+00  0.67510850767E+00  0.51100000000E-03 0.  1.
    9000002    1    1    2    0    0  0.28112321690E+00 -0.70833257148E-01  0.56017602226E-01  0.98337662427E+00  0.93800000000E+00 0. -1.
         22    1    1    2    0    0 -0.23314230013E+00  0.58763629258E-01  0.32706894187E+01  0.32795148681E+01  0.00000000000E+00 0. -1.
</event>
<event>
 5    1  0.3368139E+002  0.1599668E+01  0.7818608E-02  0.3353724E+00
         11   -1    0    0    0    0  0.00000000000E+00  0.00000000000E+00  0.39999999674E+01  0.40000000000E+01  0.51100000000E-03 0.  1.
    9000002   -1    0    0    0    0 -0.00000000000E+00 -0.00000000000E+00  0.00000000000E+00  0.93800000000E+00  0.93800000000E+00 0.  1.
         11    1    1    2    0    0 -0.95747941485E-02  0.48107343480E-02  0.21204499426E+00  0.21231618064E+00  0.51100000000E-03 0.  1.
    9000002    1    1    2    0    0  0.18335770569E+00 -0.11861952068E+00  0.31615569527E-01  0.96360478577E+00  0.93800000000E+00 0.  1.
         22    1    1    2    0    0 -0.17378291154E+00  0.11380878633E+00  0.37563394036E+01  0.37620790336E+01  0.00000000000E+00 0.  1.
</event>
<event>
 5    1  0.3368139E+002  0.1566536E+01  0.7818608E-02  0.3390504E+00
         11   -1    0    0    0    0  0.00000000000E+00  0.00000000000E+00  0.39999999674E+01  0.40000000000E+01  0.51100000000E-03 0. -1.
    9000002   -1    0    0    0    0 -0.00000000000E+00 -0.00000000000E+00  0.00000000000E+00  0.93800000000E+00  0.93800000000E+00 0. -1.
         11    1    1    2    0    0 -0.65208111898E-01 -0.17291468953E+00  0.12533282347E+01  0.12668794389E+01  0.51100000000E-03 0. -1.
    9000002    1    1    2    0    0 -0.11191535998E+00 -0.13507042412E-01  0.33034731098E-01  0.94532681198E+00  0.93800000000E+00 0. -1.
         22    1    1    2    0    0  0.17712347188E+00  0.18642173194E+00  0.27136370015E+01  0.27257937491E+01  0.00000000000E+00 0. -1.
</event>
<event>
 5    1  0.3368139E+002  0.1599674E+01  0.7818608E-02  0.3353718E+00
         11   -1    0    0    0    0  0.00000000000E+00  0.00000000000E+00  0.39999999674E+01  0.40000000000E+01  0.51100000000E-03 0. -1.
    9000002   -1    0    0    0    0 -0.00000000000E+00 -0.00000000000E+00  0.00000000000E+00  0.93800000000E+00  0.93800000000E+00 0. -1.
         11    1    1    2    0    0 -0.90203611516E-02  0.54021621791E-01  0.51328537576E+00  0.51619941944E+00  0.51100000000E-03 0. -1.
    9000002    1    1    2    0    0  0.78799729267E-01 -0.40633410200E+00  0.11576997830E+00  0.10317768594E+01  0.93800000000E+00 0. -1.
         22    1    1    2    0    0 -0.69779368115E-01  0.35231248021E+00  0.33709446133E+01  0.33900237211E+01  0.00000000000E+00 0. -1.
</event>
<event>
 5    1  0.3368139E+002  0.1559114E+01  0.7818608E-02  0.3398971E+00
         11   -1    0    0    0    0  0.00000000000E+00  0.00000000000E+00  0.39999999674E+01  0.40000000000E+01  0.51100000000E-03 0. -1.
    9000002   -1    0    0    0    0 -0.00000000000E+00 -0.00000000000E+00  0.00000000000E+00  0.93800000000E+00  0.93800000000E+00 0.  1.
         11    1    1    2    0    0 -0.81541022488E-01 -0.67652281357E-01  0.29973461622E+01  0.29992182392E+01  0.51100000000E-03 0. -1.
    9000002    1    1    2    0    0 -0.43505863795E-01 -0.14119592093E+00  0.44951632081E-01  0.95062805423E+00  0.93800000000E+00 0.  1.
         22    1    1    2    0    0  0.12504688628E+00  0.20884820229E+00  0.95770217313E+00  0.98815370656E+00  0.00000000000E+00 0.  1.
</event>
<event>
 5    1  0.3368139E+002  0.1599580E+01  0.7818608E-02  0.3353820E+00
         11   -1    0    0    0    0  0.00000000000E+00  0.00000000000E+00  0.39999999674E+01  0.40000000000E+01  0.51100000000E-03 0.  1.
    9000002   -1    0    0    0    0 -0.00000000000E+00 -0.00000000000E+00  0.00000000000E+00  0.93800000000E+00  0.93800000000E+00 0.  1.
         11    1    1    2    0    0  0.32365292945E-01  0.14255834984E+00  0.14732658111E+01  0.14805008634E+01  0.51100000000E-03 0.  1.
    9000002    1    1    2    0    0 -0.11297213017E+00 -0.38933099906E+00  0.11101007117E+00  0.10278660248E+01  0.93800000000E+00 0.  1.
         22    1    1    2    0    0  0.80606837221E-01  0.24677264922E+00  0.24157240851E+01  0.24296331118E+01  0.00000000000E+00 0.  1.
</event>
<event>
 5    1  0.3368139E+002  0.1599666E+01  0.7818608E-02  0.3353726E+00
         11   -1    0    0    0    0  0.00000000000E+00  0.00000000000E+00  0.39999999674E+01  0.40000000000E+01  0.51100000000E-03 0. -1.
    9000002   -1    0    0    0    0 -0.00000000000E+00 -0.00000000000E+00  0.00000000000E+00  0.93800000000E+00  0.93800000000E+00 0. -1.
         11    1    1    2    0    0 -0.11139099323E+00  0.23951956985E-01  0.13541605500E+01  0.13589454389E+01  0.51100000000E-03 0. -1.
    9000002    1    1    2    0    0  0.31669516866E+00 -0.78422153863E-01  0.71202214772E-01  0.99567043717E+00  0.93800000000E+00 0. -1.
         22    1    1    2    0    0 -0.20530417543E+00  0.54470196877E-01  0.25746372026E+01  0.25833841239E+01  0.00000000000E+00 0.  1.
</event>
<event>
 5    1  0.3368139E+002  0.1404550E+01  0.7818608E-02  0.3599609E+00
         11   -1    0    0    0    0  0.00000000000E+00  0.00000000000E+00  0.39999999674E+01  0.40000000000E+01  0.51100000000E-03 0.  1.
    9000002   -1    0    0    0    0 -0.00000000000E+00 -0.00000000000E+00  0.00000000000E+00  0.93800000000E+00  0.93800000000E+00 0. -1.
         11    1    1    2    0    0  0.23007253216E+00 -0.77784825403E-02  0.33247577619E+01  0.33327178566E+01  0.51100000000E-03 0.  1.
    9000002    1    1    2    0    0 -0.35073056757E+00  0.35915225452E+00  0.37644285227E+00  0.11285191598E+01  0.93800000000E+00 0. -1.
         22    1    1    2    0    0  0.12065803541E+00 -0.35137377198E+00  0.29879935317E+00  0.47676298367E+00  0.00000000000E+00 0.  1.
</event>
<event>
 5    1  0.3368139E+002  0.1588068E+01  0.7818608E-02  0.3366417E+00
         11   -1    0    0    0    0  0.00000000000E+00  0.00000000000E+00  0.39999999674E+01  0.40000000000E+01  0.51100000000E-03 0.  1.
    9000002   -1    0    0    0    0 -0.00000000000E+00 -0.00000000000E+00  0.00000000000E+00  0.93800000000E+00  0.93800000000E+00 0. -1.
         11    1    1    2    0    0  0.26489541720E+00 -0.34206794774E-01  0.23072506981E+01  0.23226591941E+01  0.51100000000E-03 0.  1.
    9000002    1    1    2    0    0 -0.42829640539E+00 -0.15467408595E+00  0.15108893120E+00  0.10535813917E+01  0.93800000000E+00 0. -1.
         22    1    1    2    0    0  0.16340098819E+00  0.18888088073E+00  0.15416603380E+01  0.15617594142E+01  0.00000000000E+00 0.  1.
</event>
<event>
 5    1  0.3368139E+002  0.1599586E+01  0.7818608E-02  0.3353813E+00
         11   -1    0    0    0    0  0.00000000000E+00  0.00000000000E+00  0.39999999674E+01  0.40000000000E+01  0.51100000000E-03 0.  1.
    9000002   -1    0    0    0    0 -0.00000000000E+00 -0.00000000000E+00  0.00000000000E+00  0.93800000000E+00  0.93800000000E+00 0.  1.
         11    1    1    2    0    0  0.89601251506E-03 -0.46461319689E-01  0.85630590736E+00  0.85756604712E+00  0.51100000000E-03 0.  1.
    9000002    1    1    2    0    0 -0.26429581047E-01  0.25238551339E+00  0.42860527712E-01  0.97266540751E+00  0.93800000000E+00 0.  1.
         22    1    1    2    0    0  0.25533568532E-01 -0.20592419370E+00  0.31008335323E+01  0.31077685454E+01  0.00000000000E+00 0.  1.
</event>
<event>
 5    1  0.3368139E+002  0.1599673E+01  0.7818608E-02  0.3353718E+00
         11   -1    0    0    0    0  0.00000000000E+00  0.00000000000E+00  0.39999999674E+01  0.40000000000E+01  0.51100000000E-03 0.  1.
    9000002   -1    0    0    0    0 -0.00000000000E+00 -0.00000000000E+00  0.00000000000E+00  0.93800000000E+00  0.93800000000E+00 0. -1.
         11    1    1    2    0    0  0.21781573818E-01 -0.26300365310E-01  0.57861986540E+00  0.57962691098E+00  0.51100000000E-03 0.  1.
    9000002    1    1    2    0    0 -0.14730269272E+00  0.19056323779E+00  0.38513326304E-01  0.96919539164E+00  0.93800000000E+00 0. -1.
         22    1    1    2    0    0  0.12552111890E+00 -0.16426287248E+00  0.33828667757E+01  0.33891776974E+01  0.00000000000E+00 0.  1.
</event>
<event>
 5    1  0.3368139E+002  0.1582282E+01  0.7818608E-02  0.3372821E+00
         11   -1    0    0    0    0  0.00000000000E+00  0.00000000000E+00  0.39999999674E+01  0.40000000000E+01  0.51100000000E-03 0.  1.
    9000002   -1    0    0    0    0 -0.00000000000E+00 -0.00000000000E+00  0.00000000000E+00  0.93800000000E+00  0.93800000000E+00 0.  1.
         11    1    1    2    0    0  0.72945226355E-01 -0.92846575412E-01  0.15476393387E+01  0.15521370031E+01  0.51100000000E-03 0.  1.
    9000002    1    1    2    0    0 -0.86887175341E-01 -0.14604575317E+00  0.32109136262E-01  0.95381011731E+00  0.93800000000E+00 0.  1.
         22    1    1    2    0    0  0.13941948986E-01  0.23889232858E+00  0.24202514924E+01  0.24320528796E+01  0.00000000000E+00 0.  1.
</event>
<event>
 5    1  0.3368139E+002  0.1580186E+01  0.7818608E-02  0.3375154E+00
         11   -1    0    0    0    0  0.00000000000E+00  0.00000000000E+00  0.39999999674E+01  0.40000000000E+01  0.51100000000E-03 0. -1.
    9000002   -1    0    0    0    0 -0.00000000000E+00 -0.00000000000E+00  0.00000000000E+00  0.93800000000E+00  0.93800000000E+00 0.  1.
         11    1    1    2    0    0  0.32783874924E+00  0.20483490090E+00  0.10797863670E+01  0.11468977468E+01  0.51100000000E-03 0. -1.
    9000002    1    1    2    0    0 -0.75266557991E+00 -0.25483075010E+00  0.48978979301E+00  0.13233224202E+01  0.93800000000E+00 0.  1.
         22    1    1    2    0    0  0.42482683067E+00  0.49995849203E-01  0.24304238074E+01  0.24677798331E+01  0.00000000000E+00 0. -1.
</event>
<event>
 5    1  0.4197513E+002  0.1581940E+01  0.7818608E-02  0.3373201E+00
         11   -1    0    0    0    0  0.00000000000E+00  0.00000000000E+00  0.39999999674E+01  0.40000000000E+01  0.51100000000E-03 0.  1.
    9000002   -1    0    0    0    0 -0.00000000000E+00 -0.00000000000E+00  0.00000000000E+00  0.93800000000E+00  0.93800000000E+00 0. -1.
         11    1    1    2    0    0  0.10488465978E+00 -0.57043268431E-01  0.18603825082E+01  0.18642097694E+01  0.51100000000E-03 0.  1.
    9000002    1    1    2    0    0  0.56398200265E-01 -0.73502937718E-01  0.18702861652E-01  0.94274982677E+00  0.93800000000E+00 0. -1.
         22    1    1    2    0    0 -0.16128286005E+00  0.13054620615E+00  0.21209145975E+01  0.21310404038E+01  0.00000000000E+00 0.  1.
</event>
<event>
 5    1  0.3368139E+002  0.1535483E+01  0.7818608E-02  0.3426509E+00
         11   -1    0    0    0    0  0.00000000000E+00  0.00000000000E+00  0.39999999674E+01  0.40000000000E+01  0.51100000000E-03 0. -1.
    9000002   -1    0    0    0    0 -0.00000000000E+00 -0.00000000000E+00  0.00000000000E+00  0.93800000000E+00  0.93800000000E+00 0.  1.
         11    1    1    2    0    0  0.27596745316E+00  0.49901990486E-01  0.32292970775E+01  0.32414515452E+01  0.51100000000E-03 0. -1.
    9000002    1    1    2    0    0 -0.11316379827E+00  0.11968007844E+00  0.67099547230E-01  0.95471237326E+00  0.93800000000E+00 0.  1.
         22    1    1    2    0    0 -0.16280365489E+00 -0.16958206893E+00  0.70360334260E+00  0.74183608153E+00  0.00000000000E+00 0. -1.
</event>
<event>
 5    1  0.3368139E+002  0.1599676E+01  0.7818608E-02  0.3353715E+00
         11   -1    0    0    0    0  0.00000000000E+00  0.00000000000E+00  0.39999999674E+01  0.40000000000E+01  0.51100000000E-03 0.  1.
    9000002   -1    0    0    0    0 -0.00000000000E+00 -0.00000000000E+00  0.00000000000E+00  0.93800000000E+00  0.93800000000E+00 0.  1.
         11    1    1    2    0    0 -0.99820596540E-01 -0.13506602019E+00  0.17516500594E+01  0.17596832593E+01  0.51100000000E-03 0.  1.
    9000002    1    1    2    0    0  0.22058113680E+00  0.30114894073E+00  0.93683213232E-01  0.10138872062E+01  0.93800000000E+00 0.  1.
         22    1    1    2    0    0 -0.12076054026E+00 -0.16608292054E+00  0.21546666947E+01  0.21644295345E+01  0.00000000000E+00 0.  1.
</event>
<event>
 5    1  0.3368139E+002  0.1599676E+01  0.7818608E-02  0.3353715E+00
         11   -1    0    0    0    0  0.00000000000E+00  0.00000000000E+00  0.39999999674E+01  0.40000000000E+01  0.51100000000E-03 0. -1.
    9000002   -1    0    0    0    0 -0.00000000000E+00 -0.00000000000E+00  0.00000000000E+00  0.93800000000E+00  0.93800000000E+00 0. -1.
         11    1    1    2    0    0 -0.31122232225E-01 -0.21587080205E+00  0.72229166243E+00  0.75450268605E+00  0.51100000000E-03 0. -1.
    9000002    1    1    2    0    0  0.13873806582E+00  0.96550946793E+00  0.75511819757E+00  0.15496787654E+01  0.93800000000E+00 0. -1.
         22    1    1    2    0    0 -0.10761583360E+00 -0.74963866589E+00  0.25225901074E+01  0.26338185486E+01  0.00000000000E+00 0. -1.
</event>
<event>
 5    1  0.3368139E+002  0.1599677E+01  0.7818608E-02  0.3353714E+00
         11   -1    0    0    0    0  0.00000000000E+00  0.00000000000E+00  0.39999999674E+01  0.40000000000E+01  0.51100000000E-03 0. -1.
    9000002   -1    0    0    0    0 -0.00000000000E+00 -0.00000000000E+00  0.00000000000E+00  0.93800000000E+00  0.93800000000E+00 0. -1.
         11    1    1    2    0    0  0.11693319250E+00  0.28652872740E+00  0.19113944146E+01  0.19362853489E+01  0.51100000000E-03 0. -1.
    9000002    1    1    2    0    0 -0.22984344736E+00 -0.56041553920E+00  0.25629646552E+00  0.11456113936E+01  0.93800000000E+00 0. -1.
         22    1    1    2    0    0  0.11291025485E+00  0.27388681180E+00  0.18323090873E+01  0.18561032575E+01  0.00000000000E+00 0.  1.
</event>
<event>
 5    1  0.3368139E+002  0.1598456E+01  0.7818608E-02  0.3355041E+00
         11   -1    0    0    0    0  0.00000000000E+00  0.00000000000E+00  0.39999999674E+01  0.40000000000E+01  0.51100000000E-03 0. -1.
    9000002   -1    0    0    0    0 -0.00000000000E+00 -0.00000000000E+00  0.00000000000E+00  0.93800000000E+00  0.93800000000E+00 0.  1.
         11    1    1    2    0    0 -0.86824594126E-02  0.21764938964E-02  0.41757727235E-01  0.42709379906E-01  0.51100000000E-03 0. -1.
    9000002    1    1    2    0    0  0.13765243275E+00  0.24006815080E+00  0.51927425151E-01  0.97934741882E+00  0.93800000000E+00 0.  1.
         22    1    1    2    0    0 -0.12896997334E+00 -0.24224464470E+00  0.39063148150E+01  0.39159432013E+01  0.00000000000E+00 0. -1.
</event>
<event>
 5    1  0.3368139E+002  0.1564897E+01  0.7818608E-02  0.3392366E+00
         11   -1    0    0    0    0  0.00000000000E+00  0.00000000000E+00  0.39999999674E+01  0.40000000000E+01  0.51100000000E-03 0.  1.
    9000002   -1    0    0    0    0 -0.00000000000E+00 -0.00000000000E+00  0.00000000000E+00  0.93800000000E+00  0.93800000000E+00 0. -1.
         11    1    1    2    0    0  0.11742728282E+00 -0.24570632110E-01  0.37501974629E+00  0.39374224302E+00  0.51100000000E-03 0.  1.
    9000002    1    1    2    0    0  0.99806653328E-01 -0.14155068739E+00  0.46126711429E-01  0.95497101456E+00  0.93800000000E+00 0. -1.
         22    1    1    2    0    0 -0.21723393615E+00  0.16612131950E+00  0.35788535096E+01  0.35892867424E+01  0.00000000000E+00 0.  1.
</event>
<event>
 5    1  0.3368139E+002  0.1591106E+01  0.7818608E-02  0.3363073E+00
         11   -1    0    0    0    0  0.00000000000E+00  0.00000000000E+00  0.39999999674E+01  0.40000000000E+01  0.51100000000E-03 0. -1.
    9000002   -1    0    0    0    0 -0.00000000000E+00 -0.00000000000E+00  0.00000000000E+00  0.93800000000E+00  0.93800000000E+00 0. -1.
         11    1    1    2    0    0 -0.82416539308E-01  0.98518732579E-01  0.17699966320E+01  0.17746511671E+01  0.51100000000E-03 0. -1.
    9000002    1    1    2    0    0 -0.40417566542E-01 -0.32175805727E+00  0.77149310683E-01  0.99546865508E+00  0.93800000000E+00 0. -1.
         22    1    1    2    0    0  0.12283410585E+00  0.22323932469E+00  0.21528540247E+01  0.21678801778E+01  0.00000000000E+00 0. -1.
</event>
<event>
 5    1  0.3368139E+002  0.1596982E+01  0.7818608E-02  0.3356646E+00
         11   -1    0    0    0    0  0.00000000000E+00  0.00000000000E+00  0.39999999674E+01  0.40000000000E+01  0.51100000000E-03 0.  1.
    9000002   -1    0    0    0    0 -0.00000000000E+00 -0.00000000000E+00  0.00000000000E+00  0.93800000000E+00  0.93800000000E+00 0.  1.
         11    1    1    2    0    0  0.72155738697E-01  0.49017628754E-01  0.62399055599E+00  0.63005845256E+00  0.51100000000E-03 0.  1.
    9000002    1    1    2    0    0 -0.16507672196E+00 -0.31750537865E+00  0.88124943774E-01  0.10078045422E+01  0.93800000000E+00 0.  1.
         22    1    1    2    0    0  0.92920983267E-01  0.26848774989E+00  0.32878844676E+01  0.33001370052E+01  0.00000000000E+00 0.  1.
</event>
<event>
 5    1  0.3368139E+002  0.1599625E+01  0.7818608E-02  0.3353771E+00
         11   -1    0    0    0    0  0.00000000000E+00  0.00000000000E+00  0.39999999674E+01  0.40000000000E+01  0.51100000000E-03 0.  1.
    9000002   -1    0    0    0    0 -0.00000000000E+00 -0.00000000000E+00  0.00000000000E+00  0.93800000000E+00  0.93800000000E+00 0.  1.
         11    1    1    2    0    0 -0.16298950106E+00  0.16132501016E-02  0.13505309373E+01  0.13603316705E+01  0.51100000000E-03 0.  1.
    9000002    1    1    2    0    0  0.48411114900E+00 -0.16250131604E-01  0.16024992322E+00  0.10677788672E+01  0.93800000000E+00 0.  1.
         22    1    1    2    0    0 -0.32112164794E+00  0.14636881502E-01  0.24892191069E+01  0.25098894623E+01  0.00000000000E+00 0.  1.
</event>
<event>
 5    1  0.3368139E+002  0.1599597E+01  0.7818608E-02  0.3353801E+00
         11   -1    0    0    0    0  0.00000000000E+00  0.00000000000E+00  0.39999999674E+01  0.40000000000E+01  0.51100000000E-03 0.  1.
    9000002   -1    0    0    0    0 -0.00000000000E+00 -0.00000000000E+00  0.00000000000E+00  0.93800000000E+00  0.93800000000E+00 0. -1.
         11    1    1    2    0    0 -0.46672127286E-01 -0.14857423604E+00  0.17512086307E+01  0.17581195979E+01  0.51100000000E-03 0.  1.
    9000002    1    1    2    0    0  0.11802268037E+00  0.35111768939E+00  0.92282340257E-01  0.10127057891E+01  0.93800000000E+00 0. -1.
         22    1    1    2    0    0 -0.71350553080E-01 -0.20254345334E+00  0.21565089964E+01  0.21671746130E+01  0.00000000000E+00 0.  1.
</event>
<event>
 5    1  0.3368139E+002  0.1599675E+01  0.7818608E-02  0.3353716E+00
         11   -1    0    0    0    0  0.00000000000E+00  0.00000000000E+00  0.39999999674E+01  0.40000000000E+01  0.51100000000E-03 0. -1.
    9000002   -1    0    0    0    0 -0.00000000000E+00 -0.00000000000E+00  0.00000000000E+00  0.93800000000E+00  0.93800000000E+00 0. -1.
         11    1    1    2    0    0  0.35113701363E-01  0.19816349260E-01  0.58088844513E+00  0.58228627541E+00  0.51100000000E-03 0. -1.
    9000002    1    1    2    0    0 -0.23164160133E+00 -0.13083370913E+00  0.47076793163E-01  0.97613293939E+00  0.93800000000E+00 0. -1.
         22    1    1    2    0    0  0.19652789997E+00  0.11101735987E+00  0.33720347291E+01  0.33795807852E+01  0.00000000000E+00 0. -1.
</event>
<event>
 5    1  0.3368139E+002  0.1597969E+01  0.7818608E-02  0.3355570E+00
         11   -1    0    0    0    0  0.00000000000E+00  0.00000000000E+00  0.39999999674E+01  0.40000000000E+01  0.51100000000E-03 0.  1.
    9000002   -1    0    0    0    0 -0.00000000000E+00 -0.00000000000E+00  0.00000000000E+00  0.93800000000E+00  0.93800000000E+00 0. -1.
         11    1    1    2    0    0  0.86524155326E-01 -0.60052410519E-01  0.86271360336E+00  0.86911894699E+00  0.51100000000E-03 0.  1.
    9000002    1    1    2    0    0 -0.21406804185E+00  0.33162007472E+00  0.10643428756E+00  0.10232151573E+01  0.93800000000E+00 0. -1.
         22    1    1    2    0    0  0.12754388652E+00 -0.27156766420E+00  0.30308520764E+01  0.30456658957E+01  0.00000000000E+00 0.  1.
</event>
<event>
 5    1  0.3368139E+002  0.1599666E+01  0.7818608E-02  0.3353726E+00
         11   -1    0    0    0    0  0.00000000000E+00  0.00000000000E+00  0.39999999674E+01  0.40000000000E+01  0.51100000000E-03 0.  1.
    9000002   -1    0    0    0    0 -0.00000000000E+00 -0.00000000000E+00  0.00000000000E+00  0.93800000000E+00  0.93800000000E+00 0. -1.
         11    1    1    2    0    0 -0.47512535830E-01  0.12360633303E-02  0.58101609098E+00  0.58295705504E+00  0.51100000000E-03 0.  1.
    9000002    1    1    2    0    0  0.32420353527E+00 -0.26977255223E-01  0.70787179852E-01  0.99533438071E+00  0.93800000000E+00 0. -1.
         22    1    1    2    0    0 -0.27669099944E+00  0.25741191893E-01  0.33481966965E+01  0.33597085643E+01  0.00000000000E+00 0.  1.
</event>
<event>
 5    1  0.3368139E+002  0.1599265E+01  0.7818608E-02  0.3354162E+00
         11   -1    0    0    0    0  0.00000000000E+00  0.00000000000E+00  0.39999999674E+01  0.40000000000E+01  0.51100000000E-03 0. -1.
    9000002   -1    0    0    0    0 -0.00000000000E+00 -0.00000000000E+00  0.00000000000E+00  0.93800000000E+00  0.93800000000E+00 0. -1.
         11    1    1    2    0    0 -0.22381294994E+00  0.36140166836E+00  0.21406829284E+01  0.21824818587E+01  0.51100000000E-03 0. -1.
    9000002    1    1    2    0    0  0.34480827844E+00 -0.63405244072E+00  0.37500002769E+00  0.12415249765E+01  0.93800000000E+00 0. -1.
         22    1    1    2    0    0 -0.12099532850E+00  0.27265077236E+00  0.14843170113E+01  0.15139931649E+01  0.00000000000E+00 0.  1.
</event>
<event>
 5    1  0.3368139E+002  0.1401047E+01  0.7818608E-02  0.3605198E+00
         11   -1    0    0    0    0  0.00000000000E+00  0.00000000000E+00  0.39999999674E+01  0.40000000000E+01  0.51100000000E-03 0.  1.
    9000002   -1    0    0    0    0 -0.00000000000E+00 -0.00000000000E+00  0.00000000000E+00  0.93800000000E+00  0.93800000000E+00 0.  1.
         11    1    1    2    0    0 -0.48340852047E+00 -0.15579245087E+00  0.24319252374E+01  0.24843944346E+01  0.51100000000E-03 0.  1.
    9000002    1    1    2    0    0  0.13118546805E-01 -0.80617284628E-01  0.16611611651E+00  0.95609089893E+00  0.93800000000E+00 0.  1.
         22    1    1    2    0    0  0.47028997367E+00  0.23640973550E+00  0.14019586135E+01  0.14975146665E+01  0.00000000000E+00 0.  1.
</event>
<event>
 5    1  0.3368139E+002  0.1599653E+01  0.7818608E-02  0.3353740E+00
         11   -1    0    0    0    0  0.00000000000E+00  0.00000000000E+00  0.39999999674E+01  0.40000000000E+01  0.51100000000E-03 0.  1.
    9000002   -1    0    0    0    0 -0.00000000000E+00 -0.00000000000E+00  0.00000000000E+00  0.93800000000E+00  0.93800000000E+00 0.  1.
         11    1    1    2    0    0  0.44376481742E-01  0.36201087667E-01  0.59537523096E+00  0.59812349698E+00  0.51100000000E-03 0.  1.
    9000002    1    1    2    0    0 -0.30367448523E+00 -0.26065301542E+00  0.10805236365E+00  0.10255132865E+01  0.93800000000E+00 0.  1.
         22    1    1    2    0    0  0.25929800348E+00  0.22445192776E+00  0.32965723727E+01  0.33143632166E+01  0.00000000000E+00 0.  1.
</event>
<event>
 5    1  0.3368139E+002  0.1589065E+01  0.7818608E-02  0.3365318E+00
         11   -1    0    0    0    0  0.00000000000E+00  0.00000000000E+00  0.39999999674E+01  0.40000000000E+01  0.51100000000E-03 0.  1.
    9000002   -1    0    0    0    0 -0.00000000000E+00 -0.00000000000E+00  0.00000000000E+00  0.93800000000E+00  0.93800000000E+00 0. -1.
         11    1    1    2    0    0  0.44898014609E+00 -0.20901111501E-01  0.12671544180E+01  0.13445075709E+01  0.51100000000E-03 0.  1.
    9000002    1    1    2    0    0 -0.89743472906E+00  0.21560508591E+00  0.67615971592E+00  0.14794967413E+01  0.93800000000E+00 0. -1.
         22    1    1    2    0    0  0.44845458297E+00 -0.19470397441E+00  0.20566858335E+01  0.21139956879E+01  0.00000000000E+00 0.  1.
</event>
<event>
 5    1  0.3368139E+002  0.1596776E+01  0.7818608E-02  0.3356870E+00
         11   -1    0    0    0    0  0.00000000000E+00  0.00000000000E+00  0.39999999674E+01  0.40000000000E+01  0.51100000000E-03 0.  1.
    9000002   -1    0    0    0    0 -0.00000000000E+00 -0.00000000000E+00  0.00000000000E+00  0.93800000000E+00  0.93800000000E+00 0. -1.
         11    1    1    2    0    0  0.22875102829E-01 -0.47582778167E+00  0.17852482202E+01  0.18477139435E+01  0.51100000000E-03 0.  1.
    9000002    1    1    2    0    0 -0.15905230675E+00  0.86402805870E+00  0.58977822211E+00  0.14140454285E+01  0.93800000000E+00 0. -1.
         22    1    1    2    0    0  0.13617720392E+00 -0.38820027704E+00  0.16249735251E+01  0.16762406280E+01  0.00000000000E+00 0. -1.
</event>
<event>
 5    1  0.3368139E+002  0.1599666E+01  0.7818608E-02  0.3353726E+00
         11   -1    0    0    0    0  0.00000000000E+00  0.00000000000E+00  0.39999999674E+01  0.40000000000E+01  0.51100000000E-03 0. -1.
    9000002   -1    0    0    0    0 -0.00000000000E+00 -0.00000000000E+00  0.00000000000E+00  0.93800000000E+00  0.93800000000E+00 0.  1.
         11    1    1    2    0    0 -0.20351271562E-01 -0.44823238290E-01  0.76628778338E+00  0.76786751789E+00  0.51100000000E-03 0. -1.
    9000002    1    1    2    0    0  0.12006348992E+00  0.22532733276E+00  0.43329752973E-01  0.97309255264E+00  0.93800000000E+00 0.  1.
         22    1    1    2    0    0 -0.99712218356E-01 -0.18050409447E+00  0.31903824310E+01  0.31970399295E+01  0.00000000000E+00 0. -1.
</event>
<event>
 5    1  0.3368139E+002  0.1599667E+01  0.7818608E-02  0.3353725E+00
         11   -1    0    0    0    0  0.00000000000E+00  0.00000000000E+00  0.39999999674E+01  0.40000000000E+01  0.51100000000E-03 0. -1.
    9000002   -1    0    0    0    0 -0.00000000000E+00 -0.00000000000E+00  0.00000000000E+00  0.93800000000E+00  0.93800000000E+00 0. -1.
         11    1    1    2    0    0  0.88635748212E-02 -0.58070716065E-01  0.42871716028E+00  0.43272327839E+00  0.51100000000E-03 0. -1.
    9000002    1    1    2    0    0 -0.57945481281E-01  0.51698746341E+00  0.18591934086E+00  0.10885971327E+01  0.93800000000E+00 0. -1.
         22    1    1    2    0    0  0.49081906460E-01 -0.45891674734E+00  0.33853634662E+01  0.34166795889E+01  0.00000000000E+00 0. -1.
</event>
<event>
 5    1  0.3368139E+002  0.1581957E+01  0.7818608E-02  0.3373182E+00
         11   -1    0    0    0    0  0.00000000000E+00  0.00000000000E+00  0.39999999674E+01  0.40000000000E+01  0.51100000000E-03 0. -1.
    9000002   -1    0    0    0    0 -0.00000000000E+00 -0.00000000000E+00  0.00000000000E+00  0.93800000000E+00  0.93800000000E+00 0. -1.
         11    1    1    2    0    0  0.35114457733E-02 -0.16582762833E-01  0.50347990293E-02  0.17689787926E-01  0.51100000000E-03 0. -1.
    9000002    1    1    2    0    0 -0.20720132697E+00 -0.10167580559E+00  0.48892809861E-01  0.96721500515E+00  0.93800000000E+00 0. -1.
         22    1    1    2    0    0  0.20368988119E+00  0.11825856842E+00  0.39460723585E+01  0.39530952069E+01  0.00000000000E+00 0. -1.
</event>
<event>
 5    1  0.3368139E+002  0.1599676E+01  0.7818608E-02  0.3353715E+00
         11   -1    0    0    0    0  0.00000000000E+00  0.00000000000E+00  0.39999999674E+01  0.40000000000E+01  0.51100000000E-03 0. -1.
    9000002   -1    0    0    0    0 -0.00000000000E+00 -0.00000000000E+00  0.00000000000E+00  0.93800000000E+00  0.93800000000E+00 0.  1.
         11    1    1    2    0    0 -0.15189726755E+00  0.50593046205E-01  0.15908068468E+01  0.15988430571E+01  0.51100000000E-03 0. -1.
    9000002    1    1    2    0    0  0.37076668357E+00 -0.12140760136E+00  0.10253994210E+00  0.10210613003E+01  0.93800000000E+00 0.  1.
         22    1    1    2    0    0 -0.21886941602E+00  0.70814555157E-01  0.23066531785E+01  0.23180956426E+01  0.00000000000E+00 0. -1.
</event>
<event>
 5    1  0.3368139E+002  0.1599634E+01  0.7818608E-02  0.3353761E+00
         11   -1    0    0    0    0  0.00000000000E+00  0.00000000000E+00  0.39999999674E+01  0.40000000000E+01  0.51100000000E-03 0.  1.
    9000002   -1    0    0    0    0 -0.00000000000E+00 -0.00000000000E+00  0.00000000000E+00  0.93800000000E+00  0.93800000000E+00 0.  1.
         11    1    1    2    0    0  0.24616897616E-01  0.33453419394E-01  0.54618472077E+00  0.54776193117E+00  0.51100000000E-03 0.  1.
    9000002    1    1    2    0    0 -0.18911001199E+00 -0.27771501346E+00  0.75612829449E-01  0.99922446193E+00  0.93800000000E+00 0.  1.
         22    1    1    2    0    0  0.16449311438E+00  0.24426159406E+00  0.33782024171E+01  0.33910136069E+01  0.00000000000E+00 0.  1.
</event>
<event>
 5    1  0.3368139E+002  0.1599670E+01  0.7818608E-02  0.3353722E+00
         11   -1    0    0    0    0  0.00000000000E+00  0.00000000000E+00  0.39999999674E+01  0.40000000000E+01  0.51100000000E-03 0. -1.
    9000002   -1    0    0    0    0 -0.00000000000E+00 -0.00000000000E+00  0.00000000000E+00  0.93800000000E+00  0.93800000000E+00 0.  1.
         11    1    1    2    0    0 -0.19319006217E+00  0.35178909955E-02  0.18075090971E+01  0.18178075181E+01  0.51100000000E-03 0. -1.
    9000002    1    1    2    0    0  0.41454623148E+00 -0.50847636982E-03  0.11614300005E+00  0.10320765636E+01  0.93800000000E+00 0.  1.
         22    1    1    2    0    0 -0.22135616932E+00 -0.30094146257E-02  0.20763478702E+01  0.20881159183E+01  0.00000000000E+00 0. -1.
</event>
<event>
 5    1  0.3368139E+002  0.1596752E+01  0.7818608E-02  0.3356896E+00
         11   -1    0    0    0    0  0.00000000000E+00  0.00000000000E+00  0.39999999674E+01  0.40000000000E+01  0.51100000000E-03 0. -1.
    9000002   -1    0    0    0    0 -0.00000000000E+00 -0.00000000000E+00  0.00000000000E+00  0.93800000000E+00  0.93800000000E+00 0. -1.
         11    1    1    2    0    0  0.23834362068E+00 -0.25220973699E+00  0.23296702467E+01  0.23553728266E+01  0.51100000000E-03 0. -1.
    9000002    1    1    2    0    0 -0.47166780566E+00  0.35405520816E+00  0.24503435255E+00  0.11347737410E+01  0.93800000000E+00 0. -1.
         22    1    1    2    0    0  0.23332418498E+00 -0.10184547116E+00  0.14252953681E+01  0.14478534324E+01  0.00000000000E+00 0. -1.
</event>
<event>
 5    1  0.3368139E+002  0.1599623E+01  0.7818608E-02  0.3353772E+00
         11   -1    0    0    0    0  0.00000000000E+00  0.00000000000E+00  0.39999999674E+01  0.40000000000E+01  0.51100000000E-03 0. -1.
    9000002   -1    0    0    0    0 -0.00000000000E+00 -0.00000000000E+00  0.00000000000E+00  0.93800000000E+00  0.93800000000E+00 0. -1.
         11    1    1    2    0    0  0.11812054652E+00 -0.26629519806E+00  0.21579874873E+01  0.21775619056E+01  0.51100000000E-03 0. -1.
    9000002    1    1    2    0    0 -0.19368582496E+00  0.47290813360E+00  0.17916124835E+00  0.10830969737E+01  0.93800000000E+00 0. -1.
         22    1    1    2    0    0  0.75565278441E-01 -0.20661293553E+00  0.16628512317E+01  0.16773411207E+01  0.00000000000E+00 0. -1.
</event>
<event>
 5    1  0.3368139E+002  0.1599675E+01  0.7818608E-02  0.3353716E+00
         11   -1    0    0    0    0  0.00000000000E+00  0.00000000000E+00  0.39999999674E+01  0.40000000000E+01  0.51100000000E-03 0.  1.
    9000002   -1    0    0    0    0 -0.00000000000E+00 -0.00000000000E+00  0.00000000000E+00  0.93800000000E+00  0.93800000000E+00 0.  1.
         11    1    1    2    0    0 -0.55778501685E-01  0.64951585931E-01  0.96644223919E+00  0.97022719637E+00  0.51100000000E-03 0.  1.
    9000002    1    1    2    0    0  0.22118065572E+00 -0.26245143818E+00  0.78930118897E-01  0.10019359279E+01  0.93800000000E+00 0.  1.
         22    1    1    2    0    0 -0.16540215403E+00  0.19749985225E+00  0.29546276093E+01  0.29658368758E+01  0.00000000000E+00 0.  1.
</event>
<event>
 5    1  0.3368139E+002  0.1599585E+01  0.7818608E-02  0.3353813E+00
         11   -1    0    0    0    0  0.00000000000E+00  0.00000000000E+00  0.39999999674E+01  0.40000000000E+01  0.51100000000E-03 0.  1.
    9000002   -1    0    0    0    0 -0.00000000000E+00 -0.00000000000E+00  0.00000000000E+00  0.93800000000E+00  0.93800000000E+00 0.  1.
         11    1    1    2    0    0 -0.14803331814E-01  0.42835790077E-01  0.30849168265E+00  0.31180350051E+00  0.51100000000E-03 0.  1.
    9000002    1    1    2    0    0  0.25765004989E+00 -0.51874626327E+00  0.23314082868E+00  0.11268007277E+01  0.93800000000E+00 0.  1.
         22    1    1    2    0    0 -0.24284671808E+00  0.47591047319E+00  0.34583674560E+01  0.34993957718E+01  0.00000000000E+00 0.  1.
</event>
<event>
 5    1  0.3368139E+002  0.1599392E+01  0.7818608E-02  0.3354024E+00
         11   -1    0    0    0    0  0.00000000000E+00  0.00000000000E+00  0.39999999674E+01  0.40000000000E+01  0.51100000000E-03 0. -1.
    9000002   -1    0    0    0    0 -0.00000000000E+00 -0.00000000000E+00  0.00000000000E+00  0.93800000000E+00  0.93800000000E+00 0. -1.
         11    1    1    2    0    0  0.40214949680E-02  0.72086698613E-02  0.85775777451E-01  0.86173560106E-01  0.51100000000E-03 0. -1.
    9000002    1    1    2    0    0 -0.25428298805E+00 -0.68911298436E-01  0.46375791820E-01  0.97539905635E+00  0.93800000000E+00 0. -1.
         22    1    1    2    0    0  0.25026149308E+00  0.61702628575E-01  0.38678483981E+01  0.38764273835E+01  0.00000000000E+00 0. -1.
</event>
<event>
 5    1  0.3368139E+002  0.1598462E+01  0.7818608E-02  0.3355034E+00
         11   -1    0    0    0    0  0.00000000000E+00  0.00000000000E+00  0.39999999674E+01  0.40000000000E+01  0.51100000000E-03 0. -1.
    9000002   -1    0    0    0    0 -0.00000000000E+00 -0.00000000000E+00  0.00000000000E+00  0.93800000000E+00  0.93800000000E+00 0.  1.
         11    1    1    2    0    0  0.13611045246E+00 -0.47125357979E-01  0.12905913939E+01  0.12986043515E+01  0.51100000000E-03 0. -1.
    9000002    1    1    2    0    0 -0.41253647395E+00  0.22956371795E-01  0.11636901941E+00  0.10315517854E+01  0.93800000000E+00 0.  1.
         22    1    1    2    0    0  0.27642602149E+00  0.24168986185E-01  0.25930395540E+01  0.26078438630E+01  0.00000000000E+00 0. -1.
</event>
<event>
 5    1  0.3368139E+002  0.1599400E+01  0.7818608E-02  0.3354015E+00
         11   -1    0    0    0    0  0.00000000000E+00  0.00000000000E+00  0.39999999674E+01  0.40000000000E+01  0.51100000000E-03 0. -1.
    9000002   -1    0    0    0    0 -0.00000000000E+00 -0.00000000000E+00  0.00000000000E+00  0.93800000000E+00  0.93800000000E+00 0.  1.
         11    1    1    2    0    0  0.17147508519E+00 -0.17154592206E-02  0.16791621736E+01  0.16878958837E+01  0.51100000000E-03 0. -1.
    9000002    1    1    2    0    0 -0.37207794362E+00 -0.33661918546E-01  0.94066448484E-01  0.10140353138E+01  0.93800000000E+00 0.  1.
         22    1    1    2    0    0  0.20060285843E+00  0.35377377766E-01  0.22267713453E+01  0.22360688025E+01  0.00000000000E+00 0.  1.
</event>
<event>
 5    1  0.3368139E+002  0.1599668E+01  0.7818608E-02  0.3353723E+00
         11   -1    0    0    0    0  0.00000000000E+00  0.00000000000E+00  0.39999999674E+01  0.40000000000E+01  0.51100000000E-03 0.  1.
    9000002   -1    0    0    0    0 -0.00000000000E+00 -0.00000000000E+00  0.00000000000E+00  0.93800000000E+00  0.93800000000E+00 0. -1.
         11    1    1    2    0    0  0.68710445371E-01 -0.29276256176E-01  0.52470270780E+00  0.52999190293E+00  0.51100000000E-03 0.  1.
    9000002    1    1    2    0    0 -0.49114389306E+00  0.22819790119E+00  0.20226754605E+00  0.11018406264E+01  0.93800000000E+00 0. -1.
         22    1    1    2    0    0  0.42243344769E+00 -0.19892164501E+00  0.32730297135E+01  0.33061674707E+01  0.00000000000E+00 0.  1.
</event>
<event>
 5    1  0.3368139E+002  0.1597891E+01  0.7818608E-02  0.3355655E+00
         11   -1    0    0    0    0  0.00000000000E+00  0.00000000000E+00  0.39999999674E+01  0.40000000000E+01  0.51100000000E-03 0.  1.
    9000002   -1    0    0    0    0 -0.00000000000E+00 -0.00000000000E+00  0.00000000000E+00  0.93800000000E+00  0.93800000000E+00 0. -1.
         11    1    1    2    0    0 -0.24565990353E+00 -0.64761461383E-01  0.12674148762E+01  0.12926266146E+01  0.51100000000E-03 0.  1.
    9000002    1    1    2    0    0  0.80597542303E+00  0.12560479609E+00  0.49516872607E+00  0.13380616632E+01  0.93800000000E+00 0. -1.
         22    1    1    2    0    0 -0.56031551950E+00 -0.60843334703E-01  0.22374163650E+01  0.23073117222E+01  0.00000000000E+00 0.  1.
</event>
<event>
 5    1  0.3368139E+002  0.1599646E+01  0.7818608E-02  0.3353748E+00
         11   -1    0    0    0    0  0.00000000000E+00  0.00000000000E+00  0.39999999674E+01  0.40000000000E+01  0.51100000000E-03 0.  1.
    9000002   -1    0    0    0    0 -0.00000000000E+00 -0.00000000000E+00  0.00000000000E+00  0.93800000000E+00  0.93800000000E+00 0.  1.
         11    1    1    2    0    0 -0.97146170709E-02 -0.12815270899E-01  0.17384537991E+00  0.17458832203E+00  0.51100000000E-03 0.  1.
    9000002    1    1    2    0    0  0.16157620516E+00  0.26919781964E+00  0.65872528685E-01  0.99134127636E+00  0.93800000000E+00 0.  1.
         22    1    1    2    0    0 -0.15186158809E+00 -0.25638254874E+00  0.37602820588E+01  0.37720704016E+01  0.00000000000E+00 0.  1.
</event>
<event>
 5    1  0.3368139E+002  0.1541534E+01  0.7818608E-02  0.3419373E+00
         11   -1    0    0    0    0  0.00000000000E+00  0.00000000000E+00  0.39999999674E+01  0.40000000000E+01  0.51100000000E-03 0. -1.
    9000002   -1    0    0    0    0 -0.00000000000E+00 -0.00000000000E+00  0.00000000000E+00  0.93800000000E+00  0.93800000000E+00 0. -1.
         11    1    1    2    0    0  0.11562846713E+00 -0.27405328940E+00  0.32676945827E+01  0.32812045493E+01  0.51100000000E-03 0. -1.
    9000002    1    1    2    0    0  0.77838372263E-01  0.18079705279E+00  0.70508103910E-01  0.96102121684E+00  0.93800000000E+00 0. -1.
         22    1    1    2    0    0 -0.19346683939E+00  0.93256236605E-01  0.66179728077E+00  0.69577423382E+00  0.00000000000E+00 0. -1.
</event>
<event>
 5    1  0.3368139E+002  0.1595176E+01  0.7818608E-02  0.3358616E+00
         11   -1    0    0    0    0  0.00000000000E+00  0.00000000000E+00  0.39999999674E+01  0.40000000000E+01  0.51100000000E-03 0.  1.
    9000002   -1    0    0    0    0 -0.00000000000E+00 -0.00000000000E+00  0.00000000000E+00  0.93800000000E+00  0.93800000000E+00 0. -1.
         11    1    1    2    0    0  0.13696532594E+00  0.42148855770E-01  0.80848093919E+00  0.82108325809E+00  0.51100000000E-03 0.  1.
    9000002    1    1    2    0    0 -0.55231512499E+00  0.10010188093E+00  0.22240380271E+00  0.11155177432E+01  0.93800000000E+00 0. -1.
         22    1    1    2    0    0  0.41534979904E+00 -0.14225073670E+00  0.29691152255E+01  0.30013989987E+01  0.00000000000E+00 0.  1.
</event>
<event>
 5    1  0.3368139E+002  0.1578755E+01  0.7818608E-02  0.3376750E+00
         11   -1    0    0    0    0  0.00000000000E+00  0.00000000000E+00  0.39999999674E+01  0.40000000000E+01  0.51100000000E-03 0.  1.
    9000002   -1    0    0    0    0 -0.00000000000E+00 -0.00000000000E+00  0.00000000000E+00  0.93800000000E+00  0.93800000000E+00 0. -1.
         11    1    1    2    0    0 -0.13355296639E+00 -0.15992877846E+00  0.15918667963E+01  0.16054450371E+01  0.51100000000E-03 0.  1.
    9000002    1    1    2    0    0  0.33542318682E+00 -0.27193555527E-01  0.92727057596E-01  0.10008448985E+01  0.93800000000E+00 0. -1.
         22    1    1    2    0    0 -0.20187022043E+00  0.18712233398E+00  0.23154061135E+01  0.23317100643E+01  0.00000000000E+00 0.  1.
</event>
<event>
 5    1  0.3368139E+002  0.1599673E+01  0.7818608E-02  0.3353718E+00
         11   -1    0    0    0    0  0.00000000000E+00  0.00000000000E+00  0.39999999674E+01  0.40000000000E+01  0.51100000000E-03 0.  1.
    9000002   -1    0    0    0    0 -0.00000000000E+00 -0.00000000000E+00  0.00000000000E+00  0.93800000000E+00  0.93800000000E+00 0.  1.
         11    1    1    2    0    0  0.13482356398E-02 -0.10836242684E-01  0.14570824271E+00  0.14611774365E+00  0.51100000000E-03 0.  1.
    9000002    1    1    2    0    0 -0.47987805754E-01  0.27577086991E+00  0.52178865966E-01  0.98026477864E+00  0.93800000000E+00 0.  1.
         22    1    1    2    0    0  0.46639570114E-01 -0.26493462722E+00  0.38021128587E+01  0.38116174777E+01  0.00000000000E+00 0.  1.
</event>
<event>
 5    1  0.3368139E+002  0.1599647E+01  0.7818608E-02  0.3353746E+00
         11   -1    0    0    0    0  0.00000000000E+00  0.00000000000E+00  0.39999999674E+01  0.40000000000E+01  0.51100000000E-03 0.  1.
    9000002   -1    0    0    0    0 -0.00000000000E+00 -0.00000000000E+00  0.00000000000E+00  0.93800000000E+00  0.93800000000E+00 0.  1.
         11    1    1    2    0    0 -0.29551105814E-01  0.84541139764E-01  0.97151825260E+00  0.97563745747E+00  0.51100000000E-03 0.  1.
    9000002    1    1    2    0    0  0.12426297207E+00 -0.31886957786E+00  0.78486971694E-01  0.10015604318E+01  0.93800000000E+00 0.  1.
         22    1    1    2    0    0 -0.94711866251E-01  0.23432843810E+00  0.29499947431E+01  0.29608021107E+01  0.00000000000E+00 0.  1.
</event>
<event>
 5    1  0.3368139E+002  0.1596455E+01  0.7818608E-02  0.3357220E+00
         11   -1    0    0    0    0  0.00000000000E+00  0.00000000000E+00  0.39999999674E+01  0.40000000000E+01  0.51100000000E-03 0. -1.
    9000002   -1    0    0    0    0 -0.00000000000E+00 -0.00000000000E+00  0.00000000000E+00  0.93800000000E+00  0.93800000000E+00 0. -1.
         11    1    1    2    0    0 -0.43901159879E-01 -0.11441219752E-01  0.68182686514E+00  0.68333472654E+00  0.51100000000E-03 0. -1.
    9000002    1    1    2    0    0  0.96369613422E-01  0.31949968240E+00  0.77115962904E-01  0.99857799955E+00  0.93800000000E+00 0. -1.
         22    1    1    2    0    0 -0.52468453544E-01 -0.30805846265E+00  0.32410571393E+01  0.32560872739E+01  0.00000000000E+00 0. -1.
</event>
<event>
 5    1  0.3368139E+002  0.1501457E+01  0.7818608E-02  0.3467792E+00
         11   -1    0    0    0    0  0.00000000000E+00  0.00000000000E+00  0.39999999674E+01  0.40000000000E+01  0.51100000000E-03 0. -1.
    9000002   -1    0    0    0    0 -0.00000000000E+00 -0.00000000000E+00  0.00000000000E+00  0.93800000000E+00  0.93800000000E+00 0. -1.
         11    1    1    2    0    0 -0.18473583421E+00  0.63630655265E-01  0.27799065673E+00  0.33978707316E+00  0.51100000000E-03 0. -1.
    9000002    1    1    2    0    0 -0.99222734280E-01 -0.14389486814E-01  0.82096456282E-01  0.94690867377E+00  0.93800000000E+00 0. -1.
         22    1    1    2    0    0  0.28395856849E+00 -0.49241168451E-01  0.36399128543E+01  0.36513042531E+01  0.00000000000E+00 0. -1.
</event>
<event>
 5    1  0.3368139E+002  0.1599672E+01  0.7818608E-02  0.3353719E+00
         11   -1    0    0    0    0  0.00000000000E+00  0.00000000000E+00  0.39999999674E+01  0.40000000000E+01  0.51100000000E-03 0. -1.
    9000002   -1    0    0    0    0 -0.00000000000E+00 -0.00000000000E+00  0.00000000000E+00  0.93800000000E+00  0.93800000000E+00 0.  1.
         11    1    1    2    0    0 -0.32797461672E-01  0.18464170135E-02  0.54937589843E+00  0.55035735812E+00  0.51100000000E-03 0. -1.
    9000002    1    1    2    0    0  0.24944642496E+00 -0.14473755934E-01  0.41477038033E-01  0.97159526204E+00  0.93800000000E+00 0.  1.
         22    1    1    2    0    0 -0.21664896329E+00  0.12627338921E-01  0.34091470309E+01  0.34160473798E+01  0.00000000000E+00 0. -1.
</event>
<event>
 5    1  0.3368139E+002  0.1590919E+01  0.7818608E-02  0.3363279E+00
         11   -1    0    0    0    0  0.00000000000E+00  0.00000000000E+00  0.39999999674E+01  0.40000000000E+01  0.51100000000E-03 0. -1.
    9000002   -1    0    0    0    0 -0.00000000000E+00 -0.00000000000E+00  0.00000000000E+00  0.93800000000E+00  0.93800000000E+00 0.  1.
         11    1    1    2    0    0 -0.54768936146E-02 -0.59428668394E-01  0.10333902516E+01  0.10351122820E+01  0.51100000000E-03 0. -1.
    9000002    1    1    2    0    0 -0.29961717623E+00  0.26843864576E-01  0.67261775715E-01  0.98734957934E+00  0.93800000000E+00 0.  1.
         22    1    1    2    0    0  0.30509406984E+00  0.32584803818E-01  0.28993479400E+01  0.29155381387E+01  0.00000000000E+00 0. -1.
</event>
<event>
 5    1  0.3368139E+002  0.1594740E+01  0.7818608E-02  0.3359092E+00
         11   -1    0    0    0    0  0.00000000000E+00  0.00000000000E+00  0.39999999674E+01  0.40000000000E+01  0.51100000000E-03 0.  1.
    9000002   -1    0    0    0    0 -0.00000000000E+00 -0.00000000000E+00  0.00000000000E+00  0.93800000000E+00  0.93800000000E+00 0. -1.
         11    1    1    2    0    0 -0.62103615413E-01  0.30541504720E-01  0.64817788315E+00  0.65186231052E+00  0.51100000000E-03 0.  1.
    9000002    1    1    2    0    0  0.38756340492E-02 -0.25962833753E+00  0.48620254489E-01  0.97448951936E+00  0.93800000000E+00 0. -1.
         22    1    1    2    0    0  0.58227981364E-01  0.22908683281E+00  0.33032018297E+01  0.33116481701E+01  0.00000000000E+00 0.  1.
</event>
<event>
 5    1  0.3368139E+002  0.1599672E+01  0.7818608E-02  0.3353720E+00
         11   -1    0    0    0    0  0.00000000000E+00  0.00000000000E+00  0.39999999674E+01  0.40000000000E+01  0.51100000000E-03 0.  1.
    9000002   -1    0    0    0    0 -0.00000000000E+00 -0.00000000000E+00  0.00000000000E+00  0.93800000000E+00  0.93800000000E+00 0.  1.
         11    1    1    2    0    0 -0.25577010533E-02  0.16707875869E-02  0.32503830978E-01  0.32651087503E-01  0.51100000000E-03 0. -1.
    9000002    1    1    2    0    0  0.31616148051E+00 -0.20149329553E+00  0.94519461352E-01  0.10145617569E+01  0.93800000000E+00 0.  1.
         22    1    1    2    0    0 -0.31360377946E+00  0.19982250794E+00  0.38729766750E+01  0.38907871556E+01  0.00000000000E+00 0.  1.
</event>
<event>
 5    1  0.3368139E+002  0.1599677E+01  0.7818608E-02  0.3353714E+00
         11   -1    0    0    0    0  0.00000000000E+00  0.00000000000E+00  0.39999999674E+01  0.40000000000E+01  0.51100000000E-03 0. -1.
    9000002   -1    0    0    0    0 -0.00000000000E+00 -0.00000000000E+00  0.00000000000E+00  0.93800000000E+00  0.93800000000E+00 0. -1.
         11    1    1    2    0    0 -0.30354396799E-01  0.20524728215E+00  0.15944060158E+01  0.16078490727E+01  0.51100000000E-03 0. -1.
    9000002    1    1    2    0    0  0.74067382618E-01 -0.49377835575E+00  0.17064216756E+00  0.10762275740E+01  0.93800000000E+00 0. -1.
         22    1    1    2    0    0 -0.43712985819E-01  0.28853107360E+00  0.22349517840E+01  0.22539233533E+01  0.00000000000E+00 0. -1.
</event>
<event>
 5    1  0.3368139E+002  0.1598898E+01  0.7818608E-02  0.3354560E+00
         11   -1    0    0    0    0  0.00000000000E+00  0.00000000000E+00  0.39999999674E+01  0.40000000000E+01  0.51100000000E-03 0.  1.
    9000002   -1    0    0    0    0 -0.00000000000E+00 -0.00000000000E+00  0.00000000000E+00  0.93800000000E+00  0.93800000000E+00 0. -1.
         11    1    1    2    0    0 -0.52952815872E-02  0.39013706839E-02  0.39594895639E+00  0.39600391146E+00  0.51100000000E-03 0.  1.
    9000002    1    1    2    0    0  0.15049458384E+00  0.13763679820E+00  0.28126107437E-01  0.96032681203E+00  0.93800000000E+00 0. -1.
         22    1    1    2    0    0 -0.14519930225E+00 -0.14153816889E+00  0.35759249035E+01  0.35816692765E+01  0.00000000000E+00 0.  1.
</event>
<event>
 5    1  0.3368139E+002  0.1599588E+01  0.7818608E-02  0.3353811E+00
         11   -1    0    0    0    0  0.00000000000E+00  0.00000000000E+00  0.39999999674E+01  0.40000000000E+01  0.51100000000E-03 0.  1.
    9000002   -1    0    0    0    0 -0.00000000000E+00 -0.00000000000E+00  0.00000000000E+00  0.93800000000E+00  0.93800000000E+00 0. -1.
         11    1    1    2    0    0 -0.41912415043E-01 -0.52022880330E-01  0.67916328332E+00  0.68244124813E+00  0.51100000000E-03 0.  1.
    9000002    1    1    2    0    0  0.23677050034E+00  0.25085149172E+00  0.79809179264E-01  0.10025967514E+01  0.93800000000E+00 0. -1.
         22    1    1    2    0    0 -0.19485808530E+00 -0.19882861139E+00  0.32410275048E+01  0.32529620005E+01  0.00000000000E+00 0.  1.
</event>
<event>
 5    1  0.3368139E+002  0.1599420E+01  0.7818608E-02  0.3353993E+00
         11   -1    0    0    0    0  0.00000000000E+00  0.00000000000E+00  0.39999999674E+01  0.40000000000E+01  0.51100000000E-03 0.  1.
    9000002   -1    0    0    0    0 -0.00000000000E+00 -0.00000000000E+00  0.00000000000E+00  0.93800000000E+00  0.93800000000E+00 0. -1.
         11    1    1    2    0    0 -0.41391621813E-01 -0.23798661442E+00  0.15772744521E+01  0.15956647058E+01  0.51100000000E-03 0.  1.
    9000002    1    1    2    0    0  0.60847949132E-01  0.59174952732E+00  0.24687989735E+00  0.11378328786E+01  0.93800000000E+00 0. -1.
         22    1    1    2    0    0 -0.19456327318E-01 -0.35376291290E+00  0.21758456179E+01  0.22045024156E+01  0.00000000000E+00 0.  1.
</event>
<event>
 5    1  0.3368139E+002  0.1599674E+01  0.7818608E-02  0.3353717E+00
         11   -1    0    0    0    0  0.00000000000E+00  0.00000000000E+00  0.39999999674E+01  0.40000000000E+01  0.51100000000E-03 0. -1.
    9000002   -1    0    0    0    0 -0.00000000000E+00 -0.00000000000E+00  0.00000000000E+00  0.93800000000E+00  0.93800000000E+00 0. -1.
         11    1    1    2    0    0  0.35317058102E-02 -0.11083867965E+00  0.50181103839E+00  0.51391853948E+00  0.51100000000E-03 0. -1.
    9000002    1    1    2    0    0 -0.17176613179E-01  0.78911487051E+00  0.45727643032E+00  0.13084124153E+01  0.93800000000E+00 0. -1.
         22    1    1    2    0    0  0.13644907369E-01 -0.67827619086E+00  0.30409124987E+01  0.31156690452E+01  0.00000000000E+00 0. -1.
</event>
<event>
 5    1  0.3368139E+002  0.1599672E+01  0.7818608E-02  0.3353720E+00
         11   -1    0    0    0    0  0.00000000000E+00  0.00000000000E+00  0.39999999674E+01  0.40000000000E+01  0.51100000000E-03 0. -1.
    9000002   -1    0    0    0    0 -0.00000000000E+00 -0.00000000000E+00  0.00000000000E+00  0.93800000000E+00  0.93800000000E+00 0. -1.
         11    1    1    2    0    0  0.14829640011E+00 -0.20360274285E+00  0.18943560783E+01  0.19110288097E+01  0.51100000000E-03 0. -1.
    9000002    1    1    2    0    0 -0.29963588352E+00  0.41623079779E+00  0.18045927674E+00  0.10841767800E+01  0.93800000000E+00 0. -1.
         22    1    1    2    0    0  0.15133948341E+00 -0.21262805494E+00  0.19251846124E+01  0.19427944103E+01  0.00000000000E+00 0. -1.
</event>
<event>
 5    1  0.3368139E+002  0.1599396E+01  0.7818608E-02  0.3354019E+00
         11   -1    0    0    0    0  0.00000000000E+00  0.00000000000E+00  0.39999999674E+01  0.40000000000E+01  0.51100000000E-03 0.  1.
    9000002   -1    0    0    0    0 -0.00000000000E+00 -0.00000000000E+00  0.00000000000E+00  0.93800000000E+00  0.93800000000E+00 0. -1.
         11    1    1    2    0    0 -0.21238865115E-01  0.13283393469E-01  0.43794649464E+00  0.43866266222E+00  0.51100000000E-03 0.  1.
    9000002    1    1    2    0    0  0.28228016564E+00 -0.50595565355E-01  0.55017375786E-01  0.98240160565E+00  0.93800000000E+00 0. -1.
         22    1    1    2    0    0 -0.26104130053E+00  0.37312171885E-01  0.35070360969E+01  0.35169357321E+01  0.00000000000E+00 0.  1.
</event>
<event>
 5    1  0.3368139E+002  0.1599631E+01  0.7818608E-02  0.3353764E+00
         11   -1    0    0    0    0  0.00000000000E+00  0.00000000000E+00  0.39999999674E+01  0.40000000000E+01  0.51100000000E-03 0. -1.
    9000002   -1    0    0    0    0 -0.00000000000E+00 -0.00000000000E+00  0.00000000000E+00  0.93800000000E+00  0.93800000000E+00 0.  1.
         11    1    1    2    0    0 -0.13370381671E-01 -0.11136056177E-01  0.36265957655E+00  0.36307713841E+00  0.51100000000E-03 0. -1.
    9000002    1    1    2    0    0  0.19148665060E+00  0.14552915307E+00  0.38434163611E-01  0.96910631857E+00  0.93800000000E+00 0.  1.
         22    1    1    2    0    0 -0.17811626893E+00 -0.13439309690E+00  0.35989062272E+01  0.36058165430E+01  0.00000000000E+00 0. -1.
</event>
<event>
 5    1  0.3368139E+002  0.1599599E+01  0.7818608E-02  0.3353798E+00
         11   -1    0    0    0    0  0.00000000000E+00  0.00000000000E+00  0.39999999674E+01  0.40000000000E+01  0.51100000000E-03 0. -1.
    9000002   -1    0    0    0    0 -0.00000000000E+00 -0.00000000000E+00  0.00000000000E+00  0.93800000000E+00  0.93800000000E+00 0. -1.
         11    1    1    2    0    0 -0.10168000591E-02  0.30975945772E-01  0.29154558250E+00  0.29318872914E+00  0.51100000000E-03 0. -1.
    9000002    1    1    2    0    0 -0.19380740327E-01 -0.47514172148E+00  0.15425550456E+00  0.10629082883E+01  0.93800000000E+00 0. -1.
         22    1    1    2    0    0  0.20397540386E-01  0.44416577571E+00  0.35541988803E+01  0.35819029826E+01  0.00000000000E+00 0. -1.
</event>
<event>
 5    1  0.3368139E+002  0.1587836E+01  0.7818608E-02  0.3366673E+00
         11   -1    0    0    0    0  0.00000000000E+00  0.00000000000E+00  0.39999999674E+01  0.40000000000E+01  0.51100000000E-03 0. -1.
    9000002   -1    0    0    0    0 -0.00000000000E+00 -0.00000000000E+00  0.00000000000E+00  0.93800000000E+00  0.93800000000E+00 0.  1.
         11    1    1    2    0    0  0.73427910553E-01  0.14416078264E-01  0.43513260915E+00  0.44152024872E+00  0.51100000000E-03 0. -1.
    9000002    1    1    2    0    0  0.75676456235E-01 -0.19251565519E+00  0.37287903788E-01  0.96126145834E+00  0.93800000000E+00 0.  1.
         22    1    1    2    0    0 -0.14910436679E+00  0.17809957693E+00  0.35275794544E+01  0.35352182929E+01  0.00000000000E+00 0. -1.
</event>
<event>
 5    1  0.3368139E+002  0.1594149E+01  0.7818608E-02  0.3359738E+00
         11   -1    0    0    0    0  0.00000000000E+00  0.00000000000E+00  0.39999999674E+01  0.40000000000E+01  0.51100000000E-03 0.  1.
    9000002   -1    0    0    0    0 -0.00000000000E+00 -0.00000000000E+00  0.00000000000E+00  0.93800000000E+00  0.93800000000E+00 0. -1.
         11    1    1    2    0    0  0.33534967178E-01  0.77815050775E-01  0.94935924444E+00  0.95313326050E+00  0.51100000000E-03 0.  1.
    9000002    1    1    2    0    0 -0.23371325648E+00 -0.20045816974E-01  0.40718894796E-01  0.96774260495E+00  0.93800000000E+00 0. -1.
         22    1    1    2    0    0  0.20017828930E+00 -0.57769233801E-01  0.30099218281E+01  0.30171241346E+01  0.00000000000E+00 0.  1.
</event>
<event>
 5    1  0.3368139E+002  0.1599315E+01  0.7818608E-02  0.3354108E+00
         11   -1    0    0    0    0  0.00000000000E+00  0.00000000000E+00  0.39999999674E+01  0.40000000000E+01  0.51100000000E-03 0. -1.
    9000002   -1    0    0    0    0 -0.00000000000E+00 -0.00000000000E+00  0.00000000000E+00  0.93800000000E+00  0.93800000000E+00 0. -1.
         11    1    1    2    0    0 -0.28632631279E+00 -0.16500962670E+00  0.17256060576E+01  0.17569654127E+01  0.51100000000E-03 0. -1.
    9000002    1    1    2    0    0  0.63246465831E+00  0.37975736616E+00  0.39351662543E+00  0.12565534353E+01  0.93800000000E+00 0. -1.
         22    1    1    2    0    0 -0.34613834552E+00 -0.21474773946E+00  0.18808772844E+01  0.19244811521E+01  0.00000000000E+00 0. -1.
</event>
<event>
 5    1  0.3368139E+002  0.1599636E+01  0.7818608E-02  0.3353758E+00
         11   -1    0    0    0    0  0.00000000000E+00  0.00000000000E+00  0.39999999674E+01  0.40000000000E+01  0.51100000000E-03 0. -1.
    9000002   -1    0    0    0    0 -0.00000000000E+00 -0.00000000000E+00  0.00000000000E+00  0.93800000000E+00  0.93800000000E+00 0.  1.
         11    1    1    2    0    0 -0.38166219718E-02 -0.63136928307E-01  0.69892570601E+00  0.70178218983E+00  0.51100000000E-03 0. -1.
    9000002    1    1    2    0    0  0.97931839815E-03  0.32895266935E+00  0.72426116016E-01  0.99664455049E+00  0.93800000000E+00 0.  1.
         22    1    1    2    0    0  0.28373035736E-02 -0.26581574104E+00  0.32286481453E+01  0.32395732597E+01  0.00000000000E+00 0. -1.
</event>
<event>
 5    1  0.3368139E+002  0.1596046E+01  0.7818608E-02  0.3357666E+00
         11   -1    0    0    0    0  0.00000000000E+00  0.00000000000E+00  0.39999999674E+01  0.40000000000E+01  0.51100000000E-03 0.  1.
    9000002   -1    0    0    0    0 -0.00000000000E+00 -0.00000000000E+00  0.00000000000E+00  0.93800000000E+00  0.93800000000E+00 0.  1.
         11    1    1    2    0    0  0.67636757139E-02 -0.33621796769E+00  0.16942849708E+01  0.17273361260E+01  0.51100000000E-03 0.  1.
    9000002    1    1    2    0    0  0.10430078321E+00  0.63088596031E+00  0.29159914717E+00  0.11720792682E+01  0.93800000000E+00 0.  1.
         22    1    1    2    0    0 -0.11106445892E+00 -0.29466799262E+00  0.20141158494E+01  0.20385846058E+01  0.00000000000E+00 0.  1.
</event>
<event>
 5    1  0.3368139E+002  0.1599318E+01  0.7818608E-02  0.3354104E+00
         11   -1    0    0    0    0  0.00000000000E+00  0.00000000000E+00  0.39999999674E+01  0.40000000000E+01  0.51100000000E-03 0. -1.
    9000002   -1    0    0    0    0 -0.00000000000E+00 -0.00000000000E+00  0.00000000000E+00  0.93800000000E+00  0.93800000000E+00 0. -1.
         11    1    1    2    0    0  0.15581487403E+00 -0.22408195041E-01  0.16779770873E+01  0.16853450000E+01  0.51100000000E-03 0. -1.
    9000002    1    1    2    0    0 -0.41113625867E+00  0.66009689097E-01  0.11750993981E+00  0.10329776804E+01  0.93800000000E+00 0. -1.
         22    1    1    2    0    0  0.25532138464E+00 -0.43601494056E-01  0.22045129402E+01  0.22196773196E+01  0.00000000000E+00 0. -1.
</event>
<event>
 5    1  0.3368139E+002  0.1598444E+01  0.7818608E-02  0.3355054E+00
         11   -1    0    0    0    0  0.00000000000E+00  0.00000000000E+00  0.39999999674E+01  0.40000000000E+01  0.51100000000E-03 0.  1.
    9000002   -1    0    0    0    0 -0.00000000000E+00 -0.00000000000E+00  0.00000000000E+00  0.93800000000E+00  0.93800000000E+00 0.  1.
         11    1    1    2    0    0 -0.89778897679E-03 -0.32451526892E-02  0.22734947449E+00  0.22737498041E+00  0.51100000000E-03 0.  1.
    9000002    1    1    2    0    0  0.29956888705E+00 -0.13265161736E+00  0.72780164469E-01  0.99623236347E+00  0.93800000000E+00 0.  1.
         22    1    1    2    0    0 -0.29867109807E+00  0.13589677005E+00  0.36998703284E+01  0.37143926561E+01  0.00000000000E+00 0.  1.
</event>
<event>
 5    1  0.3368139E+002  0.1599409E+01  0.7818608E-02  0.3354005E+00
         11   -1    0    0    0    0  0.00000000000E+00  0.00000000000E+00  0.39999999674E+01  0.40000000000E+01  0.51100000000E-03 0. -1.
    9000002   -1    0    0    0    0 -0.00000000000E+00 -0.00000000000E+00  0.00000000000E+00  0.93800000000E+00  0.93800000000E+00 0. -1.
         11    1    1    2    0    0  0.11448301995E+00 -0.18449629811E-01  0.11150278983E+01  0.11210415807E+01  0.51100000000E-03 0. -1.
    9000002    1    1    2    0    0 -0.41170241810E+00  0.34838380988E-02  0.11473871660E+00  0.10307861036E+01  0.93800000000E+00 0. -1.
         22    1    1    2    0    0  0.29721939815E+00  0.14965791712E-01  0.27702333525E+01  0.27861723157E+01  0.00000000000E+00 0. -1.
</event>
<event>
 5    1  0.3368139E+002  0.1519400E+01  0.7818608E-02  0.3445775E+00
         11   -1    0    0    0    0  0.00000000000E+00  0.00000000000E+00  0.39999999674E+01  0.40000000000E+01  0.51100000000E-03 0.  1.
    9000002   -1    0    0    0    0 -0.00000000000E+00 -0.00000000000E+00  0.00000000000E+00  0.93800000000E+00  0.93800000000E+00 0. -1.
         11    1    1    2    0    0 -0.14713014086E+00  0.15359674838E+00  0.23627046139E+00  0.31790443770E+00  0.51100000000E-03 0.  1.
    9000002    1    1    2    0    0  0.24003542571E+00 -0.44524149045E+00  0.25203941078E+00  0.10950912542E+01  0.93800000000E+00 0. -1.
         22    1    1    2    0    0 -0.92905284847E-01  0.29164474207E+00  0.35116900952E+01  0.35250043081E+01  0.00000000000E+00 0.  1.
</event>
<event>
 5    1  0.3368139E+002  0.1302401E+01  0.7818608E-02  0.3777352E+00
         11   -1    0    0    0    0  0.00000000000E+00  0.00000000000E+00  0.39999999674E+01  0.40000000000E+01  0.51100000000E-03 0.  1.
    9000002   -1    0    0    0    0 -0.00000000000E+00 -0.00000000000E+00  0.00000000000E+00  0.93800000000E+00  0.93800000000E+00 0.  1.
         11    1    1    2    0    0 -0.35253839986E+00 -0.49546379181E+00  0.10083939898E+01  0.11775510146E+01  0.51100000000E-03 0.  1.
    9000002    1    1    2    0    0  0.50258265528E+00 -0.24984716398E+00  0.59163031627E+00  0.12429333698E+01  0.93800000000E+00 0.  1.
         22    1    1    2    0    0 -0.15004425543E+00  0.74531095579E+00  0.23999756613E+01  0.25175156155E+01  0.00000000000E+00 0.  1.
</event>
<event>
 5    1  0.3368139E+002  0.1599193E+01  0.7818608E-02  0.3354240E+00
         11   -1    0    0    0    0  0.00000000000E+00  0.00000000000E+00  0.39999999674E+01  0.40000000000E+01  0.51100000000E-03 0. -1.
    9000002   -1    0    0    0    0 -0.00000000000E+00 -0.00000000000E+00  0.00000000000E+00  0.93800000000E+00  0.93800000000E+00 0. -1.
         11    1    1    2    0    0 -0.15491033225E-01  0.10035021442E+01  0.16305101082E+01  0.19146331241E+01  0.51100000000E-03 0. -1.
    9000002    1    1    2    0    0  0.29494455987E-01 -0.12864504640E+01  0.19577124341E+01  0.25235504144E+01  0.93800000000E+00 0. -1.
         22    1    1    2    0    0 -0.14003422763E-01  0.28294831978E+00  0.41177742498E+00  0.49981646155E+00  0.00000000000E+00 0.  1.
</event>
<event>
 5    1  0.3368139E+002  0.1597790E+01  0.7818608E-02  0.3355765E+00
         11   -1    0    0    0    0  0.00000000000E+00  0.00000000000E+00  0.39999999674E+01  0.40000000000E+01  0.51100000000E-03 0. -1.
    9000002   -1    0    0    0    0 -0.00000000000E+00 -0.00000000000E+00  0.00000000000E+00  0.93800000000E+00  0.93800000000E+00 0.  1.
         11    1    1    2    0    0  0.17760279606E+00 -0.22004465867E+00  0.11018593211E+01  0.11375660990E+01  0.51100000000E-03 0. -1.
    9000002    1    1    2    0    0 -0.41449793953E+00  0.67869841709E+00  0.46755390522E+00  0.13156332078E+01  0.93800000000E+00 0.  1.
         22    1    1    2    0    0  0.23689514347E+00 -0.45865375842E+00  0.24305867410E+01  0.24848006932E+01  0.00000000000E+00 0. -1.
</event>
<event>
 5    1  0.3368139E+002  0.1599662E+01  0.7818608E-02  0.3353730E+00
         11   -1    0    0    0    0  0.00000000000E+00  0.00000000000E+00  0.39999999674E+01  0.40000000000E+01  0.51100000000E-03 0.  1.
    9000002   -1    0    0    0    0 -0.00000000000E+00 -0.00000000000E+00  0.00000000000E+00  0.93800000000E+00  0.93800000000E+00 0. -1.
         11    1    1    2    0    0  0.20545145231E+00 -0.12575755882E+00  0.13991954305E+01  0.14197793408E+01  0.51100000000E-03 0.  1.
    9000002    1    1    2    0    0 -0.53510617027E+00  0.33064483490E+00  0.27784672056E+00  0.11630595085E+01  0.93800000000E+00 0. -1.
         22    1    1    2    0    0  0.32965471796E+00 -0.20488727608E+00  0.23229578164E+01  0.23551611506E+01  0.00000000000E+00 0.  1.
</event>
<event>
 5    1  0.3368139E+002  0.1599677E+01  0.7818608E-02  0.3353714E+00
         11   -1    0    0    0    0  0.00000000000E+00  0.00000000000E+00  0.39999999674E+01  0.40000000000E+01  0.51100000000E-03 0.  1.
    9000002   -1    0    0    0    0 -0.00000000000E+00 -0.00000000000E+00  0.00000000000E+00  0.93800000000E+00  0.93800000000E+00 0. -1.
         11    1    1    2    0    0  0.30454600929E+00 -0.24138787679E+00  0.14855424521E+01  0.15355302071E+01  0.51100000000E-03 0.  1.
    9000002    1    1    2    0    0 -0.69604269679E+00  0.55274006498E+00  0.60179780204E+00  0.14254829391E+01  0.93800000000E+00 0. -1.
         22    1    1    2    0    0  0.39149668750E+00 -0.31135218818E+00  0.19126597132E+01  0.19769868538E+01  0.00000000000E+00 0.  1.
</event>
<event>
 5    1  0.3368139E+002  0.1599332E+01  0.7818608E-02  0.3354089E+00
         11   -1    0    0    0    0  0.00000000000E+00  0.00000000000E+00  0.39999999674E+01  0.40000000000E+01  0.51100000000E-03 0.  1.
    9000002   -1    0    0    0    0 -0.00000000000E+00 -0.00000000000E+00  0.00000000000E+00  0.93800000000E+00  0.93800000000E+00 0. -1.
         11    1    1    2    0    0  0.10191164938E+00  0.48633834609E-01  0.14875672948E+01  0.14918471610E+01  0.51100000000E-03 0.  1.
    9000002    1    1    2    0    0 -0.28076428579E+00 -0.18436071677E+00  0.75805875632E-01  0.99920367736E+00  0.93800000000E+00 0. -1.
         22    1    1    2    0    0  0.17885263641E+00  0.13572688216E+00  0.24366267969E+01  0.24469491616E+01  0.00000000000E+00 0.  1.
</event>
<event>
 5    1  0.3368139E+002  0.1599675E+01  0.7818608E-02  0.3353716E+00
         11   -1    0    0    0    0  0.00000000000E+00  0.00000000000E+00  0.39999999674E+01  0.40000000000E+01  0.51100000000E-03 0. -1.
    9000002   -1    0    0    0    0 -0.00000000000E+00 -0.00000000000E+00  0.00000000000E+00  0.93800000000E+00  0.93800000000E+00 0.  1.
         11    1    1    2    0    0  0.65478349126E-02  0.44166967112E-02  0.11381525056E+00  0.11409011234E+00  0.51100000000E-03 0.  1.
    9000002    1    1    2    0    0 -0.22860126206E+00 -0.14959318191E+00  0.49674077108E-01  0.97823727747E+00  0.93800000000E+00 0.  1.
         22    1    1    2    0    0  0.22205342714E+00  0.14517648520E+00  0.38365106397E+01  0.38456726102E+01  0.00000000000E+00 0. -1.
</event>
<event>
 5    1  0.3368139E+002  0.1599484E+01  0.7818608E-02  0.3353924E+00
         11   -1    0    0    0    0  0.00000000000E+00  0.00000000000E+00  0.39999999674E+01  0.40000000000E+01  0.51100000000E-03 0. -1.
    9000002   -1    0    0    0    0 -0.00000000000E+00 -0.00000000000E+00  0.00000000000E+00  0.93800000000E+00  0.93800000000E+00 0.  1.
         11    1    1    2    0    0 -0.14578824437E+00  0.33544639731E+00  0.23282739023E+01  0.23568279791E+01  0.51100000000E-03 0. -1.
    9000002    1    1    2    0    0  0.23770960534E+00 -0.51734198731E+00  0.22491850615E+00  0.11200807662E+01  0.93800000000E+00 0.  1.
         22    1    1    2    0    0 -0.91921360967E-01  0.18189558999E+00  0.14468075589E+01  0.14610912547E+01  0.00000000000E+00 0. -1.
</event>
<event>
 5    1  0.3368139E+002  0.1455359E+01  0.7818608E-02  0.3527050E+00
         11   -1    0    0    0    0  0.00000000000E+00  0.00000000000E+00  0.39999999674E+01  0.40000000000E+01  0.51100000000E-03 0. -1.
    9000002   -1    0    0    0    0 -0.00000000000E+00 -0.00000000000E+00  0.00000000000E+00  0.93800000000E+00  0.93800000000E+00 0. -1.
         11    1    1    2    0    0 -0.17837231812E+00 -0.16193056087E+00  0.26732393564E+00  0.35986183196E+00  0.51100000000E-03 0. -1.
    9000002    1    1    2    0    0 -0.33732553771E-01 -0.87329463440E-01  0.11954075159E+00  0.95020961459E+00  0.93800000000E+00 0. -1.
         22    1    1    2    0    0  0.21210487189E+00  0.24926002431E+00  0.36131352801E+01  0.36279285535E+01  0.00000000000E+00 0. -1.
</event>
<event>
 5    1  0.3368139E+002  0.1598125E+01  0.7818608E-02  0.3355401E+00
         11   -1    0    0    0    0  0.00000000000E+00  0.00000000000E+00  0.39999999674E+01  0.40000000000E+01  0.51100000000E-03 0.  1.
    9000002   -1    0    0    0    0 -0.00000000000E+00 -0.00000000000E+00  0.00000000000E+00  0.93800000000E+00  0.93800000000E+00 0.  1.
         11    1    1    2    0    0  0.83745640826E-02  0.13322942069E+00  0.11378575373E+01  0.11456614894E+01  0.51100000000E-03 0.  1.
    9000002    1    1    2    0    0 -0.50664125698E-01 -0.58378785078E+00  0.24038872032E+00  0.11318152876E+01  0.93800000000E+00 0.  1.
         22    1    1    2    0    0  0.42289561615E-01  0.45055843009E+00  0.26217537097E+01  0.26605232231E+01  0.00000000000E+00 0.  1.
</event>
<event>
 5    1  0.3368139E+002  0.1599659E+01  0.7818608E-02  0.3353733E+00
         11   -1    0    0    0    0  0.00000000000E+00  0.00000000000E+00  0.39999999674E+01  0.40000000000E+01  0.51100000000E-03 0. -1.
    9000002   -1    0    0    0    0 -0.00000000000E+00 -0.00000000000E+00  0.00000000000E+00  0.93800000000E+00  0.93800000000E+00 0. -1.
         11    1    1    2    0    0  0.24286393298E-01  0.82225195736E-01  0.10831170006E+01  0.10865051817E+01  0.51100000000E-03 0. -1.
    9000002    1    1    2    0    0 -0.92879555544E-01 -0.28323882331E+00  0.59276896071E-01  0.98600638602E+00  0.93800000000E+00 0. -1.
         22    1    1    2    0    0  0.68593162246E-01  0.20101362758E+00  0.28576060707E+01  0.28654884323E+01  0.00000000000E+00 0. -1.
</event>
<event>
 5    1  0.3368139E+002  0.1599664E+01  0.7818608E-02  0.3353728E+00
         11   -1    0    0    0    0  0.00000000000E+00  0.00000000000E+00  0.39999999674E+01  0.40000000000E+01  0.51100000000E-03 0. -1.
    9000002   -1    0    0    0    0 -0.00000000000E+00 -0.00000000000E+00  0.00000000000E+00  0.93800000000E+00  0.93800000000E+00 0.  1.
         11    1    1    2    0    0 -0.42401453175E-01  0.24555903262E+00  0.12963531996E+01  0.13200867400E+01  0.51100000000E-03 0. -1.
    9000002    1    1    2    0    0  0.10796447661E+00 -0.69272519861E+00  0.35139721017E+00  0.12226399831E+01  0.93800000000E+00 0.  1.
         22    1    1    2    0    0 -0.65563023433E-01  0.44716616599E+00  0.23522495576E+01  0.23952732769E+01  0.00000000000E+00 0. -1.
</event>
<event>
 5    1  0.3368139E+002  0.1586602E+01  0.7818608E-02  0.3368034E+00
         11   -1    0    0    0    0  0.00000000000E+00  0.00000000000E+00  0.39999999674E+01  0.40000000000E+01  0.51100000000E-03 0.  1.
    9000002   -1    0    0    0    0 -0.00000000000E+00 -0.00000000000E+00  0.00000000000E+00  0.93800000000E+00  0.93800000000E+00 0.  1.
         11    1    1    2    0    0 -0.19068560063E+00 -0.13270956941E+00  0.11734792639E+01  0.11962552704E+01  0.51100000000E-03 0.  1.
    9000002    1    1    2    0    0  0.42378215732E+00  0.71361010808E-01  0.13627205126E+00  0.10407198387E+01  0.93800000000E+00 0.  1.
         22    1    1    2    0    0 -0.23309655669E+00  0.61348558601E-01  0.26902486522E+01  0.27010248909E+01  0.00000000000E+00 0.  1.
</event>
<event>
 5    1  0.3368139E+002  0.1599668E+01  0.7818608E-02  0.3353724E+00
         11   -1    0    0    0    0  0.00000000000E+00  0.00000000000E+00  0.39999999674E+01  0.40000000000E+01  0.51100000000E-03 0.  1.
    9000002   -1    0    0    0    0 -0.00000000000E+00 -0.00000000000E+00  0.00000000000E+00  0.93800000000E+00  0.93800000000E+00 0.  1.
         11    1    1    2    0    0  0.98601071798E-01 -0.44374365510E-01  0.13947701820E+01  0.13989551020E+01  0.51100000000E-03 0.  1.
    9000002    1    1    2    0    0 -0.28440958750E+00  0.13277881201E+00  0.65817582450E-01  0.99130972987E+00  0.93800000000E+00 0.  1.
         22    1    1    2    0    0  0.18580851570E+00 -0.88404446501E-01  0.25394122029E+01  0.25477351681E+01  0.00000000000E+00 0.  1.
</event>
<event>
 5    1  0.3368139E+002  0.1593957E+01  0.7818608E-02  0.3359949E+00
         11   -1    0    0    0    0  0.00000000000E+00  0.00000000000E+00  0.39999999674E+01  0.40000000000E+01  0.51100000000E-03 0. -1.
    9000002   -1    0    0    0    0 -0.00000000000E+00 -0.00000000000E+00  0.00000000000E+00  0.93800000000E+00  0.93800000000E+00 0. -1.
         11    1    1    2    0    0 -0.13613516381E-01 -0.13118546589E+00  0.14565694430E+01  0.14625285494E+01  0.51100000000E-03 0. -1.
    9000002    1    1    2    0    0 -0.19065859485E+00  0.28714315569E+00  0.84216745717E-01  0.10028650716E+01  0.93800000000E+00 0. -1.
         22    1    1    2    0    0  0.20427211123E+00 -0.15595768980E+00  0.24592137786E+01  0.24726063790E+01  0.00000000000E+00 0. -1.
</event>
<event>
 5    1  0.3368139E+002  0.1599607E+01  0.7818608E-02  0.3353790E+00
         11   -1    0    0    0    0  0.00000000000E+00  0.00000000000E+00  0.39999999674E+01  0.40000000000E+01  0.51100000000E-03 0.  1.
    9000002   -1    0    0    0    0 -0.00000000000E+00 -0.00000000000E+00  0.00000000000E+00  0.93800000000E+00  0.93800000000E+00 0.  1.
         11    1    1    2    0    0 -0.16063314494E+00 -0.45170528079E-01  0.14246615792E+01  0.14344003138E+01  0.51100000000E-03 0.  1.
    9000002    1    1    2    0    0  0.44214688948E+00  0.96981471341E-01  0.13927971442E+00  0.10507816693E+01  0.93800000000E+00 0.  1.
         22    1    1    2    0    0 -0.28151374454E+00 -0.51810943262E-01  0.24360586737E+01  0.24528180169E+01  0.00000000000E+00 0.  1.
</event>
<event>
 5    1  0.3368139E+002  0.1454150E+01  0.7818608E-02  0.3528660E+00
         11   -1    0    0    0    0  0.00000000000E+00  0.00000000000E+00  0.39999999674E+01  0.40000000000E+01  0.51100000000E-03 0.  1.
    9000002   -1    0    0    0    0 -0.00000000000E+00 -0.00000000000E+00  0.00000000000E+00  0.93800000000E+00  0.93800000000E+00 0.  1.
         11    1    1    2    0    0 -0.31124229933E-01  0.88217405034E-01 -0.20282311556E-01  0.95721792310E-01  0.51100000000E-03 0.  1.
    9000002    1    1    2    0    0  0.13367243120E+00 -0.30564818780E+00  0.20125892145E+00  0.10156959619E+01  0.93800000000E+00 0.  1.
         22    1    1    2    0    0 -0.10254820126E+00  0.21743078277E+00  0.38190233575E+01  0.38265822458E+01  0.00000000000E+00 0.  1.
</event>
<event>
 5    1  0.3368139E+002  0.1567489E+01  0.7818608E-02  0.3389423E+00
         11   -1    0    0    0    0  0.00000000000E+00  0.00000000000E+00  0.39999999674E+01  0.40000000000E+01  0.51100000000E-03 0.  1.
    9000002   -1    0    0    0    0 -0.00000000000E+00 -0.00000000000E+00  0.00000000000E+00  0.93800000000E+00  0.93800000000E+00 0.  1.
         11    1    1    2    0    0 -0.80133953533E-01 -0.76589139425E-03  0.17927654823E+01  0.17945557592E+01  0.51100000000E-03 0.  1.
    9000002    1    1    2    0    0 -0.27678360930E+00  0.13329572383E+00  0.88737121445E-01  0.99100716097E+00  0.93800000000E+00 0.  1.
         22    1    1    2    0    0  0.35691756284E+00 -0.13252983244E+00  0.21184973636E+01  0.21524370799E+01  0.00000000000E+00 0.  1.
</event>
<event>
 5    1  0.3368139E+002  0.1571429E+01  0.7818608E-02  0.3384969E+00
         11   -1    0    0    0    0  0.00000000000E+00  0.00000000000E+00  0.39999999674E+01  0.40000000000E+01  0.51100000000E-03 0. -1.
    9000002   -1    0    0    0    0 -0.00000000000E+00 -0.00000000000E+00  0.00000000000E+00  0.93800000000E+00  0.93800000000E+00 0. -1.
         11    1    1    2    0    0 -0.22966979779E+00 -0.87810512140E-01  0.26607400728E+01  0.26720772628E+01  0.51100000000E-03 0. -1.
    9000002    1    1    2    0    0  0.44414461202E+00 -0.11878497088E+00  0.16878830547E+00  0.10581624628E+01  0.93800000000E+00 0. -1.
         22    1    1    2    0    0 -0.21447481423E+00  0.20659548302E+00  0.11704715891E+01  0.12077602744E+01  0.00000000000E+00 0. -1.
</event>
<event>
 5    1  0.3368139E+002  0.1599675E+01  0.7818608E-02  0.3353716E+00
         11   -1    0    0    0    0  0.00000000000E+00  0.00000000000E+00  0.39999999674E+01  0.40000000000E+01  0.51100000000E-03 0. -1.
    9000002   -1    0    0    0    0 -0.00000000000E+00 -0.00000000000E+00  0.00000000000E+00  0.93800000000E+00  0.93800000000E+00 0. -1.
         11    1    1    2    0    0  0.20215059817E-03 -0.58056943976E-01  0.75588607445E+00  0.75811256966E+00  0.51100000000E-03 0. -1.
    9000002    1    1    2    0    0 -0.77958528982E-02  0.30402620792E+00  0.61728506335E-01  0.98800157840E+00  0.93800000000E+00 0. -1.
         22    1    1    2    0    0  0.75937023001E-02 -0.24596926395E+00  0.31823853866E+01  0.31918858519E+01  0.00000000000E+00 0. -1.
</event>
<event>
 5    1  0.3368139E+002  0.1591339E+01  0.7818608E-02  0.3362817E+00
         11   -1    0    0    0    0  0.00000000000E+00  0.00000000000E+00  0.39999999674E+01  0.40000000000E+01  0.51100000000E-03 0.  1.
    9000002   -1    0    0    0    0 -0.00000000000E+00 -0.00000000000E+00  0.00000000000E+00  0.93800000000E+00  0.93800000000E+00 0. -1.
         11    1    1    2    0    0 -0.35030064471E-01 -0.13453780239E+00  0.11401460335E+01  0.11485907733E+01  0.51100000000E-03 0.  1.
    9000002    1    1    2    0    0 -0.17311497850E+00  0.28468518452E+00  0.80978339441E-01  0.99870713501E+00  0.93800000000E+00 0. -1.
         22    1    1    2    0    0  0.20814504297E+00 -0.15014738213E+00  0.27788755944E+01  0.27907020916E+01  0.00000000000E+00 0.  1.
</event>
<event>
 5    1  0.3368139E+002  0.1599675E+01  0.7818608E-02  0.3353716E+00
         11   -1    0    0    0    0  0.00000000000E+00  0.00000000000E+00  0.39999999674E+01  0.40000000000E+01  0.51100000000E-03 0. -1.
    9000002   -1    0    0    0    0 -0.00000000000E+00 -0.00000000000E+00  0.00000000000E+00  0.93800000000E+00  0.93800000000E+00 0. -1.
         11    1    1    2    0    0 -0.32773597123E+00 -0.45526545844E+00  0.18998744973E+01  0.19809595834E+01  0.51100000000E-03 0. -1.
    9000002    1    1    2    0    0  0.56240011823E+00  0.78094785567E+00  0.73006229049E+00  0.15293817033E+01  0.93800000000E+00 0. -1.
         22    1    1    2    0    0 -0.23466414699E+00 -0.32568239723E+00  0.13700631796E+01  0.14276587133E+01  0.00000000000E+00 0. -1.
</event>
<event>
 5    1  0.3368139E+002  0.1543412E+01  0.7818608E-02  0.3417169E+00
         11   -1    0    0    0    0  0.00000000000E+00  0.00000000000E+00  0.39999999674E+01  0.40000000000E+01  0.51100000000E-03 0. -1.
    9000002   -1    0    0    0    0 -0.00000000000E+00 -0.00000000000E+00  0.00000000000E+00  0.93800000000E+00  0.93800000000E+00 0.  1.
         11    1    1    2    0    0 -0.99957485653E-01 -0.24641568712E+00  0.12499039290E+01  0.12778780390E+01  0.51100000000E-03 0. -1.
    9000002    1    1    2    0    0 -0.76071264887E-01  0.35700864958E-01  0.46800512996E-01  0.94291870122E+00  0.93800000000E+00 0.  1.
         22    1    1    2    0    0  0.17602875054E+00  0.21071482216E+00  0.27032955254E+01  0.27172032598E+01  0.00000000000E+00 0. -1.
</event>
<event>
 5    1  0.3368139E+002  0.1596646E+01  0.7818608E-02  0.3357012E+00
         11   -1    0    0    0    0  0.00000000000E+00  0.00000000000E+00  0.39999999674E+01  0.40000000000E+01  0.51100000000E-03 0.  1.
    9000002   -1    0    0    0    0 -0.00000000000E+00 -0.00000000000E+00  0.00000000000E+00  0.93800000000E+00  0.93800000000E+00 0. -1.
         11    1    1    2    0    0  0.65517109448E-01 -0.37421074683E-01  0.94407762195E+00  0.94708798211E+00  0.51100000000E-03 0.  1.
    9000002    1    1    2    0    0 -0.10569723530E+00  0.32178505727E+00  0.79253427942E-01  0.10004212285E+01  0.93800000000E+00 0. -1.
         22    1    1    2    0    0  0.40180125854E-01 -0.28436398259E+00  0.29766689175E+01  0.29904907894E+01  0.00000000000E+00 0.  1.
</event>
<event>
 5    1  0.3368139E+002  0.1599039E+01  0.7818608E-02  0.3354408E+00
         11   -1    0    0    0    0  0.00000000000E+00  0.00000000000E+00  0.39999999674E+01  0.40000000000E+01  0.51100000000E-03 0. -1.
    9000002   -1    0    0    0    0 -0.00000000000E+00 -0.00000000000E+00  0.00000000000E+00  0.93800000000E+00  0.93800000000E+00 0. -1.
         11    1    1    2    0    0 -0.78312914221E-01 -0.38265830055E-02  0.14771114639E+01  0.14791910266E+01  0.51100000000E-03 0. -1.
    9000002    1    1    2    0    0  0.28770082330E+00  0.15543251851E-01  0.55816153931E-01  0.98283915238E+00  0.93800000000E+00 0. -1.
         22    1    1    2    0    0 -0.20938790908E+00 -0.11716668845E-01  0.24670723495E+01  0.24759698210E+01  0.00000000000E+00 0.  1.
</event>
<event>
 5    1  0.3368139E+002  0.1599673E+01  0.7818608E-02  0.3353718E+00
         11   -1    0    0    0    0  0.00000000000E+00  0.00000000000E+00  0.39999999674E+01  0.40000000000E+01  0.51100000000E-03 0. -1.
    9000002   -1    0    0    0    0 -0.00000000000E+00 -0.00000000000E+00  0.00000000000E+00  0.93800000000E+00  0.93800000000E+00 0. -1.
         11    1    1    2    0    0  0.15768354508E+00 -0.98664305967E-01  0.15649405461E+01  0.15759561922E+01  0.51100000000E-03 0. -1.
    9000002    1    1    2    0    0 -0.39369792499E+00  0.24466530257E+00  0.14622896033E+00  0.10564497505E+01  0.93800000000E+00 0. -1.
         22    1    1    2    0    0  0.23601437991E+00 -0.14600099660E+00  0.22888304609E+01  0.23055940574E+01  0.00000000000E+00 0. -1.
</event>
<event>
 5    1  0.3368139E+002  0.1599641E+01  0.7818608E-02  0.3353753E+00
         11   -1    0    0    0    0  0.00000000000E+00  0.00000000000E+00  0.39999999674E+01  0.40000000000E+01  0.51100000000E-03 0. -1.
    9000002   -1    0    0    0    0 -0.00000000000E+00 -0.00000000000E+00  0.00000000000E+00  0.93800000000E+00  0.93800000000E+00 0.  1.
         11    1    1    2    0    0 -0.69729982392E-01  0.95431571117E-01  0.90366391342E+00  0.91136062278E+00  0.51100000000E-03 0. -1.
    9000002    1    1    2    0    0  0.27883813110E+00 -0.42388522656E+00  0.17647753062E+00  0.10809337202E+01  0.93800000000E+00 0.  1.
         22    1    1    2    0    0 -0.20910814870E+00  0.32845365545E+00  0.29198585233E+01  0.29457056570E+01  0.00000000000E+00 0. -1.
</event>
<event>
 5    1  0.3368139E+002  0.1599630E+01  0.7818608E-02  0.3353765E+00
         11   -1    0    0    0    0  0.00000000000E+00  0.00000000000E+00  0.39999999674E+01  0.40000000000E+01  0.51100000000E-03 0. -1.
    9000002   -1    0    0    0    0 -0.00000000000E+00 -0.00000000000E+00  0.00000000000E+00  0.93800000000E+00  0.93800000000E+00 0. -1.
         11    1    1    2    0    0  0.53382251115E-01  0.60208089711E-02  0.62614940780E+00  0.62844988415E+00  0.51100000000E-03 0. -1.
    9000002    1    1    2    0    0 -0.35348852043E+00 -0.69776565925E-01  0.87186384997E-01  0.10085972283E+01  0.93800000000E+00 0. -1.
         22    1    1    2    0    0  0.30010626931E+00  0.63755756954E-01  0.32866641746E+01  0.33009528875E+01  0.00000000000E+00 0. -1.
</event>
<event>
 5    1  0.3368139E+002  0.1592614E+01  0.7818608E-02  0.3361419E+00
         11   -1    0    0    0    0  0.00000000000E+00  0.00000000000E+00  0.39999999674E+01  0.40000000000E+01  0.51100000000E-03 0.  1.
    9000002   -1    0    0    0    0 -0.00000000000E+00 -0.00000000000E+00  0.00000000000E+00  0.93800000000E+00  0.93800000000E+00 0. -1.
         11    1    1    2    0    0  0.34047262968E-01 -0.44783143360E-01  0.61841355592E+00  0.62096725623E+00  0.51100000000E-03 0.  1.
    9000002    1    1    2    0    0  0.16689810488E+00  0.17210791811E-01  0.23860660359E-01  0.95318650845E+00  0.93800000000E+00 0. -1.
         22    1    1    2    0    0 -0.20094536785E+00  0.27572351550E-01  0.33577257511E+01  0.33638462353E+01  0.00000000000E+00 0.  1.
</event>
<event>
 5    1  0.3368139E+002  0.1337109E+01  0.7818608E-02  0.3713311E+00
         11   -1    0    0    0    0  0.00000000000E+00  0.00000000000E+00  0.39999999674E+01  0.40000000000E+01  0.51100000000E-03 0.  1.
    9000002   -1    0    0    0    0 -0.00000000000E+00 -0.00000000000E+00  0.00000000000E+00  0.93800000000E+00  0.93800000000E+00 0.  1.
         11    1    1    2    0    0  0.52694081559E+00  0.33503607155E+00  0.15099250245E+01  0.16339490913E+01  0.51100000000E-03 0.  1.
    9000002    1    1    2    0    0 -0.55407159513E-01 -0.29932354688E-03  0.22482628218E+00  0.96615780289E+00  0.93800000000E+00 0.  1.
         22    1    1    2    0    0 -0.47153365607E+00 -0.33473674800E+00  0.22652486607E+01  0.23378931058E+01  0.00000000000E+00 0.  1.
</event>
<event>
 5    1  0.3368139E+002  0.1599675E+01  0.7818608E-02  0.3353717E+00
         11   -1    0    0    0    0  0.00000000000E+00  0.00000000000E+00  0.39999999674E+01  0.40000000000E+01  0.51100000000E-03 0.  1.
    9000002   -1    0    0    0    0 -0.00000000000E+00 -0.00000000000E+00  0.00000000000E+00  0.93800000000E+00  0.93800000000E+00 0. -1.
         11    1    1    2    0    0  0.26704744568E+00 -0.82686739853E-01  0.21482820011E+01  0.21663949900E+01  0.51100000000E-03 0.  1.
    9000002    1    1    2    0    0 -0.47592735304E+00  0.14406318565E+00  0.16918854041E+00  0.10750487473E+01  0.93800000000E+00 0. -1.
         22    1    1    2    0    0  0.20887990737E+00 -0.61376445799E-01  0.16825294258E+01  0.16965562627E+01  0.00000000000E+00 0.  1.
</event>
<event>
 5    1  0.3368139E+002  0.1598803E+01  0.7818608E-02  0.3354664E+00
         11   -1    0    0    0    0  0.00000000000E+00  0.00000000000E+00  0.39999999674E+01  0.40000000000E+01  0.51100000000E-03 0.  1.
    9000002   -1    0    0    0    0 -0.00000000000E+00 -0.00000000000E+00  0.00000000000E+00  0.93800000000E+00  0.93800000000E+00 0. -1.
         11    1    1    2    0    0  0.14189154172E-01 -0.29391629624E-01  0.33330899034E+00  0.33490348482E+00  0.51100000000E-03 0.  1.
    9000002    1    1    2    0    0 -0.28351126301E+00  0.14384058916E+00  0.68231321365E-01  0.99275790833E+00  0.93800000000E+00 0. -1.
         22    1    1    2    0    0  0.26932210884E+00 -0.11444895953E+00  0.35984596557E+01  0.36103386068E+01  0.00000000000E+00 0.  1.
</event>
<event>
 5    1  0.3368139E+002  0.1585156E+01  0.7818608E-02  0.3369634E+00
         11   -1    0    0    0    0  0.00000000000E+00  0.00000000000E+00  0.39999999674E+01  0.40000000000E+01  0.51100000000E-03 0.  1.
    9000002   -1    0    0    0    0 -0.00000000000E+00 -0.00000000000E+00  0.00000000000E+00  0.93800000000E+00  0.93800000000E+00 0.  1.
         11    1    1    2    0    0 -0.90687136862E-02  0.44476743031E-01  0.12446100479E+00  0.13248103665E+00  0.51100000000E-03 0.  1.
    9000002    1    1    2    0    0  0.16625655162E+00  0.20989696129E+00  0.58966754803E-01  0.97725076285E+00  0.93800000000E+00 0.  1.
         22    1    1    2    0    0 -0.15718783793E+00 -0.25437370432E+00  0.38165722078E+01  0.38282682005E+01  0.00000000000E+00 0.  1.
</event>
<event>
 5    1  0.3368139E+002  0.1590536E+01  0.7818608E-02  0.3363700E+00
         11   -1    0    0    0    0  0.00000000000E+00  0.00000000000E+00  0.39999999674E+01  0.40000000000E+01  0.51100000000E-03 0. -1.
    9000002   -1    0    0    0    0 -0.00000000000E+00 -0.00000000000E+00  0.00000000000E+00  0.93800000000E+00  0.93800000000E+00 0.  1.
         11    1    1    2    0    0 -0.37449697690E-01  0.53064526554E-01  0.16786380233E+01  0.16798941033E+01  0.51100000000E-03 0. -1.
    9000002    1    1    2    0    0 -0.10597866374E+00 -0.30731027356E+00  0.77955298703E-01  0.99578718108E+00  0.93800000000E+00 0.  1.
         22    1    1    2    0    0  0.14342836143E+00  0.25424574700E+00  0.22434066454E+01  0.22623187157E+01  0.00000000000E+00 0. -1.
</event>
<event>
 5    1  0.3368139E+002  0.1599674E+01  0.7818608E-02  0.3353718E+00
         11   -1    0    0    0    0  0.00000000000E+00  0.00000000000E+00  0.39999999674E+01  0.40000000000E+01  0.51100000000E-03 0. -1.
    9000002   -1    0    0    0    0 -0.00000000000E+00 -0.00000000000E+00  0.00000000000E+00  0.93800000000E+00  0.93800000000E+00 0. -1.
         11    1    1    2    0    0  0.18212064397E-01 -0.76838209475E-01  0.84928022519E+00  0.85294369788E+00  0.51100000000E-03 0. -1.
    9000002    1    1    2    0    0 -0.77518668533E-01  0.35924518764E+00  0.90746168175E-01  0.10115063598E+01  0.93800000000E+00 0. -1.
         22    1    1    2    0    0  0.59306604136E-01 -0.28240697817E+00  0.30599735740E+01  0.30735499424E+01  0.00000000000E+00 0. -1.
</event>
<event>
 5    1  0.3368139E+002  0.1599604E+01  0.7818608E-02  0.3353793E+00
         11   -1    0    0    0    0  0.00000000000E+00  0.00000000000E+00  0.39999999674E+01  0.40000000000E+01  0.51100000000E-03 0. -1.
    9000002   -1    0    0    0    0 -0.00000000000E+00 -0.00000000000E+00  0.00000000000E+00  0.93800000000E+00  0.93800000000E+00 0.  1.
         11    1    1    2    0    0  0.14191241803E+00  0.31494099216E-01  0.13289908671E+01  0.13369173492E+01  0.51100000000E-03 0. -1.
    9000002    1    1    2    0    0 -0.38875087499E+00 -0.82415598968E-01  0.10654513873E+00  0.10242633647E+01  0.93800000000E+00 0.  1.
         22    1    1    2    0    0  0.24683845695E+00  0.50921499752E-01  0.25644639616E+01  0.25768192861E+01  0.00000000000E+00 0. -1.
</event>
<event>
 5    1  0.3368139E+002  0.1390611E+01  0.7818608E-02  0.3622041E+00
         11   -1    0    0    0    0  0.00000000000E+00  0.00000000000E+00  0.39999999674E+01  0.40000000000E+01  0.51100000000E-03 0.  1.
    9000002   -1    0    0    0    0 -0.00000000000E+00 -0.00000000000E+00  0.00000000000E+00  0.93800000000E+00  0.93800000000E+00 0.  1.
         11    1    1    2    0    0  0.65408747025E+00  0.56629306302E-01  0.10733553077E+01  0.12582246122E+01  0.51100000000E-03 0.  1.
    9000002    1    1    2    0    0 -0.45554722848E+00 -0.20481503634E+00  0.39143860681E+00  0.11324931167E+01  0.93800000000E+00 0.  1.
         22    1    1    2    0    0 -0.19854024177E+00  0.14818573004E+00  0.25352060529E+01  0.25472822711E+01  0.00000000000E+00 0.  1.
</event>
<event>
 5    1  0.3368139E+002  0.1599676E+01  0.7818608E-02  0.3353715E+00
         11   -1    0    0    0    0  0.00000000000E+00  0.00000000000E+00  0.39999999674E+01  0.40000000000E+01  0.51100000000E-03 0. -1.
    9000002   -1    0    0    0    0 -0.00000000000E+00 -0.00000000000E+00  0.00000000000E+00  0.93800000000E+00  0.93800000000E+00 0.  1.
         11    1    1    2    0    0  0.23268267647E-01 -0.32884825958E-01  0.57013899659E+00  0.57156063599E+00  0.51100000000E-03 0. -1.
    9000002    1    1    2    0    0 -0.15651742536E+00  0.22436656871E+00  0.49809398798E-01  0.97834709475E+00  0.93800000000E+00 0.  1.
         22    1    1    2    0    0  0.13324915772E+00 -0.19148174275E+00  0.33800515720E+01  0.33880922693E+01  0.00000000000E+00 0. -1.
</event>
<event>
 5    1  0.3368139E+002  0.1591964E+01  0.7818608E-02  0.3362132E+00
         11   -1    0    0    0    0  0.00000000000E+00  0.00000000000E+00  0.39999999674E+01  0.40000000000E+01  0.51100000000E-03 0.  1.
    9000002   -1    0    0    0    0 -0.00000000000E+00 -0.00000000000E+00  0.00000000000E+00  0.93800000000E+00  0.93800000000E+00 0. -1.
         11    1    1    2    0    0 -0.85651367413E-01 -0.18209485130E+00  0.17528912590E+01  0.17644043524E+01  0.51100000000E-03 0.  1.
    9000002    1    1    2    0    0  0.29489969084E+00  0.19594354774E+00  0.90344900293E-01  0.10066607684E+01  0.93800000000E+00 0. -1.
         22    1    1    2    0    0 -0.20924832342E+00 -0.13848696443E-01  0.21567638080E+01  0.21669348792E+01  0.00000000000E+00 0.  1.
</event>
<event>
 5    1  0.3368139E+002  0.1599617E+01  0.7818608E-02  0.3353779E+00
         11   -1    0    0    0    0  0.00000000000E+00  0.00000000000E+00  0.39999999674E+01  0.40000000000E+01  0.51100000000E-03 0. -1.
    9000002   -1    0    0    0    0 -0.00000000000E+00 -0.00000000000E+00  0.00000000000E+00  0.93800000000E+00  0.93800000000E+00 0. -1.
         11    1    1    2    0    0 -0.18946047990E+00  0.12235713974E+00  0.14162022045E+01  0.14340486353E+01  0.51100000000E-03 0. -1.
    9000002    1    1    2    0    0  0.48860147870E+00 -0.34397169601E+00  0.24904025624E+00  0.11396986364E+01  0.93800000000E+00 0. -1.
         22    1    1    2    0    0 -0.29914099880E+00  0.22161455627E+00  0.23347575066E+01  0.23642527283E+01  0.00000000000E+00 0. -1.
</event>
<event>
 5    1  0.3402551E+002  0.1547982E+01  0.7818608E-02  0.3411832E+00
         11   -1    0    0    0    0  0.00000000000E+00  0.00000000000E+00  0.39999999674E+01  0.40000000000E+01  0.51100000000E-03 0.  1.
    9000002   -1    0    0    0    0 -0.00000000000E+00 -0.00000000000E+00  0.00000000000E+00  0.93800000000E+00  0.93800000000E+00 0. -1.
         11    1    1    2    0    0 -0.24465758663E+00 -0.19786768317E+00  0.21776418070E+01  0.22002574975E+01  0.51100000000E-03 0.  1.
    9000002    1    1    2    0    0  0.29844210508E-01  0.90048009562E-01  0.44631003122E-01  0.94384068961E+00  0.93800000000E+00 0. -1.
         22    1    1    2    0    0  0.21481337612E+00  0.10781967361E+00  0.17777271573E+01  0.17939018129E+01  0.00000000000E+00 0.  1.
</event>
<event>
 5    1  0.3368139E+002  0.1575260E+01  0.7818608E-02  0.3380661E+00
         11   -1    0    0    0    0  0.00000000000E+00  0.00000000000E+00  0.39999999674E+01  0.40000000000E+01  0.51100000000E-03 0. -1.
    9000002   -1    0    0    0    0 -0.00000000000E+00 -0.00000000000E+00  0.00000000000E+00  0.93800000000E+00  0.93800000000E+00 0.  1.
         11    1    1    2    0    0  0.64980180764E-01 -0.41276280124E-01  0.16343769246E+00  0.18066071967E+00  0.51100000000E-03 0. -1.
    9000002    1    1    2    0    0 -0.13988952791E+00 -0.17938747154E+00  0.53039414973E-01  0.96664684581E+00  0.93800000000E+00 0.  1.
         22    1    1    2    0    0  0.74909347145E-01  0.22066375167E+00  0.37835228599E+01  0.37906924345E+01  0.00000000000E+00 0. -1.
</event>
<event>
 5    1  0.3368139E+002  0.1577683E+01  0.7818608E-02  0.3377947E+00
         11   -1    0    0    0    0  0.00000000000E+00  0.00000000000E+00  0.39999999674E+01  0.40000000000E+01  0.51100000000E-03 0.  1.
    9000002   -1    0    0    0    0 -0.00000000000E+00 -0.00000000000E+00  0.00000000000E+00  0.93800000000E+00  0.93800000000E+00 0. -1.
         11    1    1    2    0    0 -0.11515129208E+00  0.22259845503E+00  0.29635243708E+01  0.29741026965E+01  0.51100000000E-03 0.  1.
    9000002    1    1    2    0    0  0.80958825959E-01 -0.47033377498E+00  0.17503195635E+00  0.10668872373E+01  0.93800000000E+00 0. -1.
         22    1    1    2    0    0  0.34192466121E-01  0.24773531994E+00  0.86144364022E+00  0.89701006614E+00  0.00000000000E+00 0.  1.
</event>
<event>
 5    1  0.3368139E+002  0.1595900E+01  0.7818608E-02  0.3357826E+00
         11   -1    0    0    0    0  0.00000000000E+00  0.00000000000E+00  0.39999999674E+01  0.40000000000E+01  0.51100000000E-03 0. -1.
    9000002   -1    0    0    0    0 -0.00000000000E+00 -0.00000000000E+00  0.00000000000E+00  0.93800000000E+00  0.93800000000E+00 0.  1.
         11    1    1    2    0    0 -0.24773830289E-01 -0.43927437012E-01  0.16361951645E+01  0.16369722782E+01  0.51100000000E-03 0. -1.
    9000002    1    1    2    0    0  0.68344302444E-01  0.28151821633E+00  0.58880450862E-01  0.98348073560E+00  0.93800000000E+00 0.  1.
         22    1    1    2    0    0 -0.43570472155E-01 -0.23759077932E+00  0.23049243520E+01  0.23175469862E+01  0.00000000000E+00 0. -1.
</event>
<event>
 5    1  0.3368139E+002  0.1484203E+01  0.7818608E-02  0.3489505E+00
         11   -1    0    0    0    0  0.00000000000E+00  0.00000000000E+00  0.39999999674E+01  0.40000000000E+01  0.51100000000E-03 0. -1.
    9000002   -1    0    0    0    0 -0.00000000000E+00 -0.00000000000E+00  0.00000000000E+00  0.93800000000E+00  0.93800000000E+00 0.  1.
         11    1    1    2    0    0 -0.33819938470E+00 -0.22732636747E+00  0.73121655874E+00  0.83709857129E+00  0.51100000000E-03 0. -1.
    9000002    1    1    2    0    0  0.51707201004E+00 -0.57330844171E-01  0.30087264433E+00  0.11140101604E+01  0.93800000000E+00 0.  1.
         22    1    1    2    0    0 -0.17887262534E+00  0.28465721164E+00  0.29679107643E+01  0.29868912684E+01  0.00000000000E+00 0. -1.
</event>
<event>
 5    1  0.3368139E+002  0.1598525E+01  0.7818608E-02  0.3354966E+00
         11   -1    0    0    0    0  0.00000000000E+00  0.00000000000E+00  0.39999999674E+01  0.40000000000E+01  0.51100000000E-03 0. -1.
    9000002   -1    0    0    0    0 -0.00000000000E+00 -0.00000000000E+00  0.00000000000E+00  0.93800000000E+00  0.93800000000E+00 0.  1.
         11    1    1    2    0    0 -0.30383130339E-02 -0.26593386173E-01  0.55086561741E+00  0.55151575598E+00  0.51100000000E-03 0. -1.
    9000002    1    1    2    0    0 -0.17533717541E+00  0.14176273440E+00  0.34584418763E-01  0.96533925641E+00  0.93800000000E+00 0.  1.
         22    1    1    2    0    0  0.17837548844E+00 -0.11516934822E+00  0.34145499312E+01  0.34211449876E+01  0.00000000000E+00 0. -1.
</event>
<event>
 5    1  0.3368139E+002  0.1599352E+01  0.7818608E-02  0.3354067E+00
         11   -1    0    0    0    0  0.00000000000E+00  0.00000000000E+00  0.39999999674E+01  0.40000000000E+01  0.51100000000E-03 0.  1.
    9000002   -1    0    0    0    0 -0.00000000000E+00 -0.00000000000E+00  0.00000000000E+00  0.93800000000E+00  0.93800000000E+00 0. -1.
         11    1    1    2    0    0  0.89775079495E-01  0.42704095827E-02  0.13509287904E+01  0.13539153073E+01  0.51100000000E-03 0.  1.
    9000002    1    1    2    0    0 -0.31249984171E+00 -0.44145760785E-01  0.66803853624E-01  0.99192326020E+00  0.93800000000E+00 0. -1.
         22    1    1    2    0    0  0.22272476222E+00  0.39875351203E-01  0.25822673233E+01  0.25921614325E+01  0.00000000000E+00 0.  1.
</event>
<event>
 5    1  0.3368139E+002  0.1599076E+01  0.7818608E-02  0.3354367E+00
         11   -1    0    0    0    0  0.00000000000E+00  0.00000000000E+00  0.39999999674E+01  0.40000000000E+01  0.51100000000E-03 0. -1.
    9000002   -1    0    0    0    0 -0.00000000000E+00 -0.00000000000E+00  0.00000000000E+00  0.93800000000E+00  0.93800000000E+00 0. -1.
         11    1    1    2    0    0  0.29378352481E-02  0.90083323405E-02  0.41147945675E+00  0.41158885477E+00  0.51100000000E-03 0. -1.
    9000002    1    1    2    0    0  0.96962033039E-01 -0.20671898769E+00  0.35032792780E-01  0.96602570995E+00  0.93800000000E+00 0. -1.
         22    1    1    2    0    0 -0.99899868287E-01  0.19771065535E+00  0.35534877178E+01  0.35603854353E+01  0.00000000000E+00 0. -1.
</event>
<event>
 5    1  0.3368139E+002  0.1596297E+01  0.7818608E-02  0.3357392E+00
         11   -1    0    0    0    0  0.00000000000E+00  0.00000000000E+00  0.39999999674E+01  0.40000000000E+01  0.51100000000E-03 0. -1.
    9000002   -1    0    0    0    0 -0.00000000000E+00 -0.00000000000E+00  0.00000000000E+00  0.93800000000E+00  0.93800000000E+00 0. -1.
         11    1    1    2    0    0 -0.11726553515E-01  0.60854407751E-02  0.99566504184E+00  0.99575282140E+00  0.51100000000E-03 0. -1.
    9000002    1    1    2    0    0  0.28703738201E+00 -0.37118478822E-01  0.58464314667E-01  0.98337699598E+00  0.93800000000E+00 0. -1.
         22    1    1    2    0    0 -0.27531082849E+00  0.31033038047E-01  0.29458706108E+01  0.29588701826E+01  0.00000000000E+00 0. -1.
</event>
<event>
 5    1  0.3368139E+002  0.1598209E+01  0.7818608E-02  0.3355309E+00
         11   -1    0    0    0    0  0.00000000000E+00  0.00000000000E+00  0.39999999674E+01  0.40000000000E+01  0.51100000000E-03 0. -1.
    9000002   -1    0    0    0    0 -0.00000000000E+00 -0.00000000000E+00  0.00000000000E+00  0.93800000000E+00  0.93800000000E+00 0. -1.
         11    1    1    2    0    0 -0.26400988567E-02  0.10398626867E-02  0.37504072710E-02  0.47305509276E-02  0.51100000000E-03 0. -1.
    9000002    1    1    2    0    0 -0.42384062602E-01  0.20821396931E+00  0.31018801194E-01  0.96226588415E+00  0.93800000000E+00 0. -1.
         22    1    1    2    0    0  0.45024161458E-01 -0.20925383199E+00  0.39652307589E+01  0.39710035649E+01  0.00000000000E+00 0. -1.
</event>
<event>
 5    1  0.3368139E+002  0.1599676E+01  0.7818608E-02  0.3353715E+00
         11   -1    0    0    0    0  0.00000000000E+00  0.00000000000E+00  0.39999999674E+01  0.40000000000E+01  0.51100000000E-03 0. -1.
    9000002   -1    0    0    0    0 -0.00000000000E+00 -0.00000000000E+00  0.00000000000E+00  0.93800000000E+00  0.93800000000E+00 0. -1.
         11    1    1    2    0    0 -0.81600224200E-01 -0.59513979819E-01  0.12745569470E+01  0.12785523777E+01  0.51100000000E-03 0. -1.
    9000002    1    1    2    0    0  0.24942978091E+00  0.18153150783E+00  0.63540096830E-01  0.98946968010E+00  0.93800000000E+00 0. -1.
         22    1    1    2    0    0 -0.16782955671E+00 -0.12201752801E+00  0.26619029236E+01  0.26699779422E+01  0.00000000000E+00 0.  1.
</event>
<event>
 5    1  0.3368139E+002  0.1599677E+01  0.7818608E-02  0.3353714E+00
         11   -1    0    0    0    0  0.00000000000E+00  0.00000000000E+00  0.39999999674E+01  0.40000000000E+01  0.51100000000E-03 0.  1.
    9000002   -1    0    0    0    0 -0.00000000000E+00 -0.00000000000E+00  0.00000000000E+00  0.93800000000E+00  0.93800000000E+00 0.  1.
         11    1    1    2    0    0  0.12075285582E-01  0.15835597013E+00  0.86043845164E+00  0.87497258013E+00  0.51100000000E-03 0. -1.
    9000002    1    1    2    0    0 -0.53861556639E-01 -0.67697437186E+00  0.32780168999E+00  0.12035336786E+01  0.93800000000E+00 0.  1.
         22    1    1    2    0    0  0.41786271056E-01  0.51861840173E+00  0.28117598257E+01  0.28594937413E+01  0.00000000000E+00 0.  1.
</event>
<event>
 5    1  0.3368139E+002  0.1546801E+01  0.7818608E-02  0.3413209E+00
         11   -1    0    0    0    0  0.00000000000E+00  0.00000000000E+00  0.39999999674E+01  0.40000000000E+01  0.51100000000E-03 0.  1.
    9000002   -1    0    0    0    0 -0.00000000000E+00 -0.00000000000E+00  0.00000000000E+00  0.93800000000E+00  0.93800000000E+00 0.  1.
         11    1    1    2    0    0 -0.19156853596E+00  0.80163155022E-03  0.23739788899E+01  0.23816958617E+01  0.51100000000E-03 0.  1.
    9000002    1    1    2    0    0 -0.17271143324E-01  0.29526716872E+00  0.10084418824E+00  0.98868323725E+00  0.93800000000E+00 0.  1.
         22    1    1    2    0    0  0.20883967929E+00 -0.29606880027E+00  0.15251768892E+01  0.15676209011E+01  0.00000000000E+00 0.  1.
</event>
<event>
 5    1  0.3368139E+002  0.1599677E+01  0.7818608E-02  0.3353714E+00
         11   -1    0    0    0    0  0.00000000000E+00  0.00000000000E+00  0.39999999674E+01  0.40000000000E+01  0.51100000000E-03 0.  1.
    9000002   -1    0    0    0    0 -0.00000000000E+00 -0.00000000000E+00  0.00000000000E+00  0.93800000000E+00  0.93800000000E+00 0.  1.
         11    1    1    2    0    0 -0.12314931237E+00  0.18081157545E+00  0.20268809211E+01  0.20386527679E+01  0.51100000000E-03 0.  1.
    9000002    1    1    2    0    0  0.23703908428E+00 -0.34659179706E+00  0.11924010466E+00  0.10345895823E+01  0.93800000000E+00 0.  1.
         22    1    1    2    0    0 -0.11388977191E+00  0.16578022162E+00  0.18538789416E+01  0.18647576497E+01  0.00000000000E+00 0.  1.
</event>
<event>
 5    1  0.3368139E+002  0.1599567E+01  0.7818608E-02  0.3353833E+00
         11   -1    0    0    0    0  0.00000000000E+00  0.00000000000E+00  0.39999999674E+01  0.40000000000E+01  0.51100000000E-03 0. -1.
    9000002   -1    0    0    0    0 -0.00000000000E+00 -0.00000000000E+00  0.00000000000E+00  0.93800000000E+00  0.93800000000E+00 0.  1.
         11    1    1    2    0    0 -0.57693446388E-01 -0.48667788097E-01  0.50544273193E+00  0.51104765309E+00  0.51100000000E-03 0. -1.
    9000002    1    1    2    0    0  0.47837938849E+00  0.39609419136E+00  0.27048550882E+00  0.11570409925E+01  0.93800000000E+00 0.  1.
         22    1    1    2    0    0 -0.42068594210E+00 -0.34742640327E+00  0.32240717266E+01  0.32699113544E+01  0.00000000000E+00 0. -1.
</event>
<event>
 5    1  0.3368139E+002  0.1531637E+01  0.7818608E-02  0.3431077E+00
         11   -1    0    0    0    0  0.00000000000E+00  0.00000000000E+00  0.39999999674E+01  0.40000000000E+01  0.51100000000E-03 0. -1.
    9000002   -1    0    0    0    0 -0.00000000000E+00 -0.00000000000E+00  0.00000000000E+00  0.93800000000E+00  0.93800000000E+00 0.  1.
         11    1    1    2    0    0  0.16291278909E+00  0.16997290187E+00  0.14733163002E+01  0.14920095662E+01  0.51100000000E-03 0. -1.
    9000002    1    1    2    0    0  0.13137847871E+00  0.12685851979E+00  0.74583723214E-01  0.95851975487E+00  0.93800000000E+00 0.  1.
         22    1    1    2    0    0 -0.29429126780E+00 -0.29683142166E+00  0.24520999440E+01  0.24874706789E+01  0.00000000000E+00 0. -1.
</event>
<event>
 5    1  0.3368139E+002  0.1575921E+01  0.7818608E-02  0.3379920E+00
         11   -1    0    0    0    0  0.00000000000E+00  0.00000000000E+00  0.39999999674E+01  0.40000000000E+01  0.51100000000E-03 0.  1.
    9000002   -1    0    0    0    0 -0.00000000000E+00 -0.00000000000E+00  0.00000000000E+00  0.93800000000E+00  0.93800000000E+00 0.  1.
         11    1    1    2    0    0  0.34505759525E+00  0.30066633683E+00  0.26627357554E+01  0.27017821811E+01  0.51100000000E-03 0.  1.
    9000002    1    1    2    0    0 -0.27902716830E+00 -0.53652375559E+00  0.27956109614E+00  0.11505269695E+01  0.93800000000E+00 0.  1.
         22    1    1    2    0    0 -0.66030426954E-01  0.23585741876E+00  0.10577031159E+01  0.10856908494E+01  0.00000000000E+00 0.  1.
</event>
<event>
 5    1  0.3368139E+002  0.1599667E+01  0.7818608E-02  0.3353725E+00
         11   -1    0    0    0    0  0.00000000000E+00  0.00000000000E+00  0.39999999674E+01  0.40000000000E+01  0.51100000000E-03 0. -1.
    9000002   -1    0    0    0    0 -0.00000000000E+00 -0.00000000000E+00  0.00000000000E+00  0.93800000000E+00  0.93800000000E+00 0. -1.
         11    1    1    2    0    0 -0.14386769345E-01 -0.18359143002E-01  0.29299298349E+00  0.29392037486E+00  0.51100000000E-03 0. -1.
    9000002    1    1    2    0    0  0.17179664123E+00  0.23249531474E+00  0.55701622298E-01  0.98311486004E+00  0.93800000000E+00 0. -1.
         22    1    1    2    0    0 -0.15740987189E+00 -0.21413617174E+00  0.36513053616E+01  0.36609647651E+01  0.00000000000E+00 0. -1.
</event>
<event>
 5    1  0.3368139E+002  0.1599674E+01  0.7818608E-02  0.3353717E+00
         11   -1    0    0    0    0  0.00000000000E+00  0.00000000000E+00  0.39999999674E+01  0.40000000000E+01  0.51100000000E-03 0.  1.
    9000002   -1    0    0    0    0 -0.00000000000E+00 -0.00000000000E+00  0.00000000000E+00  0.93800000000E+00  0.93800000000E+00 0. -1.
         11    1    1    2    0    0 -0.54775860494E-01  0.21635109291E+00  0.16925240639E+01  0.17071749056E+01  0.51100000000E-03 0.  1.
    9000002    1    1    2    0    0  0.12474253415E+00 -0.49320449814E+00  0.17743646601E+00  0.10817296688E+01  0.93800000000E+00 0. -1.
         22    1    1    2    0    0 -0.69966673656E-01  0.27685340523E+00  0.21300394374E+01  0.21490954256E+01  0.00000000000E+00 0.  1.
</event>
<event>
 5    1  0.3368139E+002  0.1598918E+01  0.7818608E-02  0.3354539E+00
         11   -1    0    0    0    0  0.00000000000E+00  0.00000000000E+00  0.39999999674E+01  0.40000000000E+01  0.51100000000E-03 0.  1.
    9000002   -1    0    0    0    0 -0.00000000000E+00 -0.00000000000E+00  0.00000000000E+00  0.93800000000E+00  0.93800000000E+00 0.  1.
         11    1    1    2    0    0  0.52974921202E-01 -0.25108835014E-01  0.88730408740E+00  0.88923877587E+00  0.51100000000E-03 0.  1.
    9000002    1    1    2    0    0 -0.21098670433E+00  0.23191716037E+00  0.66261224266E-01  0.99122929160E+00  0.93800000000E+00 0.  1.
         22    1    1    2    0    0  0.15801178313E+00 -0.20680832536E+00  0.30464346557E+01  0.30575319325E+01  0.00000000000E+00 0.  1.
</event>
<event>
 5    1  0.3368139E+002  0.1599669E+01  0.7818608E-02  0.3353723E+00
         11   -1    0    0    0    0  0.00000000000E+00  0.00000000000E+00  0.39999999674E+01  0.40000000000E+01  0.51100000000E-03 0.  1.
    9000002   -1    0    0    0    0 -0.00000000000E+00 -0.00000000000E+00  0.00000000000E+00  0.93800000000E+00  0.93800000000E+00 0. -1.
         11    1    1    2    0    0  0.43252789194E-01 -0.75883320904E-01  0.10487390785E+01  0.10523701811E+01  0.51100000000E-03 0.  1.
    9000002    1    1    2    0    0 -0.15950517539E+00  0.27344807611E+00  0.66967936388E-01  0.99224213567E+00  0.93800000000E+00 0. -1.
         22    1    1    2    0    0  0.11625238619E+00 -0.19756475521E+00  0.28842929525E+01  0.28933876832E+01  0.00000000000E+00 0.  1.
</event>
<event>
 5    1  0.3368139E+002  0.1599670E+01  0.7818608E-02  0.3353721E+00
         11   -1    0    0    0    0  0.00000000000E+00  0.00000000000E+00  0.39999999674E+01  0.40000000000E+01  0.51100000000E-03 0. -1.
    9000002   -1    0    0    0    0 -0.00000000000E+00 -0.00000000000E+00  0.00000000000E+00  0.93800000000E+00  0.93800000000E+00 0. -1.
         11    1    1    2    0    0 -0.17815890305E-01 -0.30624933772E-01  0.42014207237E+00  0.42163362604E+00  0.51100000000E-03 0. -1.
    9000002    1    1    2    0    0  0.16001463353E+00  0.27039004411E+00  0.65948877809E-01  0.99141752727E+00  0.93800000000E+00 0. -1.
         22    1    1    2    0    0 -0.14219874322E+00 -0.23976511033E+00  0.35139090172E+01  0.35249488467E+01  0.00000000000E+00 0. -1.
</event>
<event>
 5    1  0.3368139E+002  0.1580713E+01  0.7818608E-02  0.3374567E+00
         11   -1    0    0    0    0  0.00000000000E+00  0.00000000000E+00  0.39999999674E+01  0.40000000000E+01  0.51100000000E-03 0. -1.
    9000002   -1    0    0    0    0 -0.00000000000E+00 -0.00000000000E+00  0.00000000000E+00  0.93800000000E+00  0.93800000000E+00 0.  1.
         11    1    1    2    0    0  0.15276259058E+00  0.48463499538E-01  0.64725298058E+00  0.66679967146E+00  0.51100000000E-03 0. -1.
    9000002    1    1    2    0    0 -0.18803097398E+00 -0.47544158849E+00  0.19675174656E+00  0.10862576126E+01  0.93800000000E+00 0.  1.
         22    1    1    2    0    0  0.35268383400E-01  0.42697808895E+00  0.31559952402E+01  0.31849427159E+01  0.00000000000E+00 0. -1.
</event>
