<event>
 5    1  0.9349318E-034  0.2000603E+01  0.7818608E-02  0.3998334E+00
         11   -1    0    0    0    0  0.00000000000E+00  0.00000000000E+00  0.39999999633E+01  0.39999999959E+01  0.51100000000E-03 0.  1.
         -4   -1    0    0    0  501 -0.00000000000E+00 -0.00000000000E+00  0.23827377785E+00  0.14398522123E+01  0.14200000000E+01 0. -1.
         11    1    1    2    0    0 -0.97805788068E+00  0.67586721117E+00  0.15041435531E+01  0.19172484958E+01  0.51100000000E-03 0.  1.
         22    1    1    2    0    0 -0.18119193473E+00  0.12547799634E+00  0.28115034960E+00  0.35724048463E+00  0.00000000000E+00 0. -1.
         -4    1    1    2    0  501  0.11592498154E+01 -0.80134520752E+00  0.24529798384E+01  0.31653632278E+01  0.14200000000E+01 0. -1.
<mgrwt>
<rscale>  0 0.20006035E+01</rscale>
<asrwt>0</asrwt>
<pdfrwt beam="1">  1       11 0.10000000E+01 0.14092643E+01</pdfrwt>
<pdfrwt beam="2">  1       -4 0.99794914E+00 0.20006035E+01</pdfrwt>
<totfact> 0.50211504E-10</totfact>
</mgrwt>
</event>
<event>
 5    1  0.9349318E-034  0.2001339E+01  0.7818608E-02  0.3997402E+00
         11   -1    0    0    0    0  0.00000000000E+00  0.00000000000E+00  0.39999999501E+01  0.39999999828E+01  0.51100000000E-03 0. -1.
         -4   -1    0    0    0  501 -0.00000000000E+00 -0.00000000000E+00  0.23646489509E+00  0.14395539749E+01  0.14200000000E+01 0.  1.
         11    1    1    2    0    0  0.81722634854E+00 -0.45607499025E+00  0.11451808569E+01  0.14789532642E+01  0.51100000000E-03 0. -1.
         22    1    1    2    0    0  0.41308416565E+00 -0.23333950446E+00  0.57383953493E+00  0.74456541962E+00  0.00000000000E+00 0. -1.
         -4    1    1    2    0  501 -0.12303105142E+01  0.68941449471E+00  0.25174444534E+01  0.32160352739E+01  0.14200000000E+01 0.  1.
<mgrwt>
<rscale>  0 0.20013386E+01</rscale>
<asrwt>0</asrwt>
<pdfrwt beam="1">  1       11 0.10000000E+01 0.14103213E+01</pdfrwt>
<pdfrwt beam="2">  1       -4 0.99898623E+00 0.20013386E+01</pdfrwt>
<totfact> 0.26121198E-10</totfact>
</mgrwt>
</event>
<event>
 5    1  0.9349318E-034  0.2000792E+01  0.7818608E-02  0.3998095E+00
         11   -1    0    0    0    0  0.00000000000E+00  0.00000000000E+00  0.39999999641E+01  0.39999999967E+01  0.51100000000E-03 0.  1.
         -4   -1    0    0    0  501 -0.00000000000E+00 -0.00000000000E+00  0.23760891836E+00  0.14397423374E+01  0.14200000000E+01 0.  1.
         11    1    1    2    0    0  0.12356564143E+01 -0.51974242439E+00  0.16666414454E+01  0.21388485058E+01  0.51100000000E-03 0.  1.
         22    1    1    2    0    0  0.60408397445E-01 -0.34319250607E-01  0.87399664742E-01  0.11164984031E+00  0.00000000000E+00 0.  1.
         -4    1    1    2    0  501 -0.12960648117E+01  0.55406167500E+00  0.24835677722E+01  0.31892439880E+01  0.14200000000E+01 0.  1.
<mgrwt>
<rscale>  0 0.20007919E+01</rscale>
<asrwt>0</asrwt>
<pdfrwt beam="1">  1       11 0.10000000E+01 0.14099938E+01</pdfrwt>
<pdfrwt beam="2">  1       -4 0.99833015E+00 0.20007919E+01</pdfrwt>
<totfact> 0.41654320E-10</totfact>
</mgrwt>
</event>
<event>
 5    1  0.9349318E-034  0.2001552E+01  0.7818608E-02  0.3997133E+00
         11   -1    0    0    0    0  0.00000000000E+00  0.00000000000E+00  0.39999999592E+01  0.39999999918E+01  0.51100000000E-03 0. -1.
          4   -1    0    0  501    0 -0.00000000000E+00 -0.00000000000E+00  0.23617906969E+00  0.14395070521E+01  0.14200000000E+01 0.  1.
         11    1    1    2    0    0  0.48494582358E-01 -0.10620166798E+00  0.14335498595E+00  0.18488221093E+00  0.51100000000E-03 0.  1.
         22    1    1    2    0    0  0.53593597580E+00 -0.11776403188E+01  0.15971135479E+01  0.20554405308E+01  0.00000000000E+00 0. -1.
          4    1    1    2  501    0 -0.58443055816E+00  0.12838419868E+01  0.24957104950E+01  0.31991843022E+01  0.14200000000E+01 0.  1.
<mgrwt>
<rscale>  0 0.20015517E+01</rscale>
<asrwt>0</asrwt>
<pdfrwt beam="1">  1       11 0.10000000E+01 0.14106088E+01</pdfrwt>
<pdfrwt beam="2">  1        4 0.99915024E+00 0.20015517E+01</pdfrwt>
<totfact> 0.22075036E-10</totfact>
</mgrwt>
</event>
<event>
 5    1  0.1138051E-033  0.2000200E+01  0.7818608E-02  0.3998846E+00
         11   -1    0    0    0    0  0.00000000000E+00  0.00000000000E+00  0.39999999508E+01  0.39999999834E+01  0.51100000000E-03 0. -1.
          4   -1    0    0  501    0 -0.00000000000E+00 -0.00000000000E+00  0.23693322644E+00  0.14396309783E+01  0.14200000000E+01 0. -1.
         11    1    1    2    0    0  0.13523539308E+01 -0.26191907562E+00  0.16104777150E+01  0.21192219062E+01  0.51100000000E-03 0. -1.
         22    1    1    2    0    0  0.30284447010E-01 -0.77290139964E-02  0.39165353144E-01  0.50107986140E-01  0.00000000000E+00 0. -1.
          4    1    1    2  501    0 -0.13826383778E+01  0.26964808962E+00  0.25872901091E+01  0.32703010694E+01  0.14200000000E+01 0. -1.
<mgrwt>
<rscale>  0 0.20001997E+01</rscale>
<asrwt>0</asrwt>
<pdfrwt beam="1">  1       11 0.10000000E+01 0.14087838E+01</pdfrwt>
<pdfrwt beam="2">  1        4 0.99871757E+00 0.20001997E+01</pdfrwt>
<totfact> 0.32572744E-10</totfact>
</mgrwt>
</event>
<event>
 5    1  0.9349318E-034  0.2000175E+01  0.7818608E-02  0.3998877E+00
         11   -1    0    0    0    0  0.00000000000E+00  0.00000000000E+00  0.39999999655E+01  0.39999999981E+01  0.51100000000E-03 0.  1.
          4   -1    0    0  501    0 -0.00000000000E+00 -0.00000000000E+00  0.23949772116E+00  0.14400552623E+01  0.14200000000E+01 0.  1.
         11    1    1    2    0    0  0.58104256980E+00 -0.12080059311E+01  0.16868190100E+01  0.21545875316E+01  0.51100000000E-03 0.  1.
         22    1    1    2    0    0  0.29575137120E-01 -0.61421217629E-01  0.86632597150E-01  0.11023820390E+00  0.00000000000E+00 0. -1.
          4    1    1    2  501    0 -0.61061770692E+00  0.12694271487E+01  0.24660460794E+01  0.31752295249E+01  0.14200000000E+01 0.  1.
<mgrwt>
<rscale>  0 0.20001748E+01</rscale>
<asrwt>0</asrwt>
<pdfrwt beam="1">  1       11 0.10000000E+01 0.14086536E+01</pdfrwt>
<pdfrwt beam="2">  1        4 0.99724827E+00 0.20001748E+01</pdfrwt>
<totfact> 0.65086846E-10</totfact>
</mgrwt>
</event>
<event>
 5    1  0.9349318E-034  0.2000394E+01  0.7818608E-02  0.3998599E+00
         11   -1    0    0    0    0  0.00000000000E+00  0.00000000000E+00  0.39999999569E+01  0.39999999895E+01  0.51100000000E-03 0. -1.
         -4   -1    0    0    0  501 -0.00000000000E+00 -0.00000000000E+00  0.23601609121E+00  0.14394803213E+01  0.14200000000E+01 0. -1.
         11    1    1    2    0    0 -0.12226423916E+01  0.65602424306E+00  0.17236740227E+01  0.22127527252E+01  0.51100000000E-03 0. -1.
         22    1    1    2    0    0 -0.17501291347E-01  0.12721711116E-01  0.48235144235E-01  0.52865549008E-01  0.00000000000E+00 0.  1.
         -4    1    1    2    0  501  0.12401436829E+01 -0.66874595418E+00  0.24641068811E+01  0.31738620366E+01  0.14200000000E+01 0. -1.
<mgrwt>
<rscale>  0 0.20003943E+01</rscale>
<asrwt>0</asrwt>
<pdfrwt beam="1">  1       11 0.10000000E+01 0.14118655E+01</pdfrwt>
<pdfrwt beam="2">  1       -4 0.99924378E+00 0.20003943E+01</pdfrwt>
<totfact> 0.19706523E-10</totfact>
</mgrwt>
</event>
<event>
 5    1  0.9349318E-034  0.2000304E+01  0.7818608E-02  0.3998714E+00
         11   -1    0    0    0    0  0.00000000000E+00  0.00000000000E+00  0.39999999495E+01  0.39999999821E+01  0.51100000000E-03 0.  1.
          4   -1    0    0  501    0 -0.00000000000E+00 -0.00000000000E+00  0.23925935342E+00  0.14400156382E+01  0.14200000000E+01 0.  1.
         11    1    1    2    0    0  0.58136088341E+00 -0.91445600075E+00  0.13363887760E+01  0.17205073309E+01  0.51100000000E-03 0.  1.
         22    1    1    2    0    0  0.17492836053E+00 -0.27417392039E+00  0.40665667881E+00  0.52071193990E+00  0.00000000000E+00 0. -1.
          4    1    1    2  501    0 -0.75628924393E+00  0.11886299211E+01  0.24962138481E+01  0.31987963495E+01  0.14200000000E+01 0.  1.
<mgrwt>
<rscale>  0 0.20003036E+01</rscale>
<asrwt>0</asrwt>
<pdfrwt beam="1">  1       11 0.10000000E+01 0.14088500E+01</pdfrwt>
<pdfrwt beam="2">  1        4 0.99738471E+00 0.20003036E+01</pdfrwt>
<totfact> 0.62279651E-10</totfact>
</mgrwt>
</event>
<event>
 5    1  0.9349318E-034  0.2000034E+01  0.7818608E-02  0.3999056E+00
         11   -1    0    0    0    0  0.00000000000E+00  0.00000000000E+00  0.39999999480E+01  0.39999999807E+01  0.51100000000E-03 0. -1.
         -4   -1    0    0    0  501 -0.00000000000E+00 -0.00000000000E+00  0.23968205969E+00  0.14400859314E+01  0.14200000000E+01 0. -1.
         11    1    1    2    0    0  0.36726038120E+00 -0.12854114389E+01  0.16760056519E+01  0.21438651919E+01  0.51100000000E-03 0. -1.
         22    1    1    2    0    0  0.22507373025E-01 -0.68035424584E-01  0.96628545931E-01  0.12030160734E+00  0.00000000000E+00 0. -1.
         -4    1    1    2    0  501 -0.38976775422E+00  0.13534468635E+01  0.24670478099E+01  0.31759191128E+01  0.14200000000E+01 0. -1.
<mgrwt>
<rscale>  0 0.20000343E+01</rscale>
<asrwt>0</asrwt>
<pdfrwt beam="1">  1       11 0.10000000E+01 0.14086232E+01</pdfrwt>
<pdfrwt beam="2">  1       -4 0.99714277E+00 0.20000343E+01</pdfrwt>
<totfact> 0.67226526E-10</totfact>
</mgrwt>
</event>
<event>
 5    1  0.9349318E-034  0.2000776E+01  0.7818608E-02  0.3998115E+00
         11   -1    0    0    0    0  0.00000000000E+00  0.00000000000E+00  0.39999999560E+01  0.39999999886E+01  0.51100000000E-03 0. -1.
         -4   -1    0    0    0  501 -0.00000000000E+00 -0.00000000000E+00  0.23710200163E+00  0.14396587648E+01  0.14200000000E+01 0.  1.
         11    1    1    2    0    0 -0.46936536120E+00  0.13076080153E+01  0.17907083914E+01  0.22664464186E+01  0.51100000000E-03 0. -1.
         22    1    1    2    0    0 -0.68074788225E-02  0.19028417156E-01  0.25612097800E-01  0.32625174040E-01  0.00000000000E+00 0. -1.
         -4    1    1    2    0  501  0.47617284002E+00 -0.13266364324E+01  0.24207814684E+01  0.31405871609E+01  0.14200000000E+01 0.  1.
<mgrwt>
<rscale>  0 0.20007760E+01</rscale>
<asrwt>0</asrwt>
<pdfrwt beam="1">  1       11 0.10000000E+01 0.14095070E+01</pdfrwt>
<pdfrwt beam="2">  1       -4 0.99862078E+00 0.20007760E+01</pdfrwt>
<totfact> 0.34891395E-10</totfact>
</mgrwt>
</event>
<event>
 5    1  0.9349318E-034  0.2000206E+01  0.7818608E-02  0.3998838E+00
         11   -1    0    0    0    0  0.00000000000E+00  0.00000000000E+00  0.39999999592E+01  0.39999999918E+01  0.51100000000E-03 0.  1.
          4   -1    0    0  501    0 -0.00000000000E+00 -0.00000000000E+00  0.23846031260E+00  0.14398830927E+01  0.14200000000E+01 0.  1.
         11    1    1    2    0    0  0.78265125285E+00 -0.11537392555E+01  0.16678950766E+01  0.21738287654E+01  0.51100000000E-03 0.  1.
         22    1    1    2    0    0  0.81985487143E-02 -0.12014021760E-01  0.19844164824E-01  0.24603735437E-01  0.00000000000E+00 0.  1.
          4    1    1    2  501    0 -0.79084980157E+00  0.11657532773E+01  0.25507210303E+01  0.32414505837E+01  0.14200000000E+01 0.  1.
<mgrwt>
<rscale>  0 0.20002060E+01</rscale>
<asrwt>0</asrwt>
<pdfrwt beam="1">  1       11 0.10000000E+01 0.14087738E+01</pdfrwt>
<pdfrwt beam="2">  1        4 0.99784228E+00 0.20002060E+01</pdfrwt>
<totfact> 0.52530637E-10</totfact>
</mgrwt>
</event>
<event>
 5    1  0.9349318E-034  0.2000434E+01  0.7818608E-02  0.3998549E+00
         11   -1    0    0    0    0  0.00000000000E+00  0.00000000000E+00  0.39999999510E+01  0.39999999837E+01  0.51100000000E-03 0.  1.
          4   -1    0    0  501    0 -0.00000000000E+00 -0.00000000000E+00  0.23873318072E+00  0.14399283078E+01  0.14200000000E+01 0.  1.
         11    1    1    2    0    0  0.84490640778E+00 -0.10830046741E+01  0.17386472472E+01  0.22157753662E+01  0.51100000000E-03 0.  1.
         22    1    1    2    0    0  0.21655413758E-01 -0.28033841035E-01  0.44320131907E-01  0.56737353485E-01  0.00000000000E+00 0.  1.
          4    1    1    2  501    0 -0.86656182154E+00  0.11110385151E+01  0.24557657527E+01  0.31674155718E+01  0.14200000000E+01 0.  1.
<mgrwt>
<rscale>  0 0.20004339E+01</rscale>
<asrwt>0</asrwt>
<pdfrwt beam="1">  1       11 0.10000000E+01 0.14090214E+01</pdfrwt>
<pdfrwt beam="2">  1        4 0.99768599E+00 0.20004339E+01</pdfrwt>
<totfact> 0.55924889E-10</totfact>
</mgrwt>
</event>
<event>
 5    1  0.9349318E-034  0.2000769E+01  0.7818608E-02  0.3998124E+00
         11   -1    0    0    0    0  0.00000000000E+00  0.00000000000E+00  0.39999999629E+01  0.39999999955E+01  0.51100000000E-03 0. -1.
         -4   -1    0    0    0  501 -0.00000000000E+00 -0.00000000000E+00  0.23649814702E+00  0.14395594373E+01  0.14200000000E+01 0. -1.
         11    1    1    2    0    0 -0.13593025042E+01 -0.21271465931E+00  0.16298919848E+01  0.21329554537E+01  0.51100000000E-03 0. -1.
         22    1    1    2    0    0 -0.33168458798E-01 -0.56940325965E-02  0.39304796930E-01  0.51743943877E-01  0.00000000000E+00 0.  1.
         -4    1    1    2    0  501  0.13924709630E+01  0.21840869191E+00  0.25673013282E+01  0.32548600353E+01  0.14200000000E+01 0. -1.
<mgrwt>
<rscale>  0 0.20007693E+01</rscale>
<asrwt>0</asrwt>
<pdfrwt beam="1">  1       11 0.10000000E+01 0.14095019E+01</pdfrwt>
<pdfrwt beam="2">  1       -4 0.99896715E+00 0.20007693E+01</pdfrwt>
<totfact> 0.26570055E-10</totfact>
</mgrwt>
</event>
<event>
 5    1  0.9349318E-034  0.2000168E+01  0.7818608E-02  0.3998886E+00
         11   -1    0    0    0    0  0.00000000000E+00  0.00000000000E+00  0.39999999576E+01  0.39999999903E+01  0.51100000000E-03 0. -1.
         -4   -1    0    0    0  501 -0.00000000000E+00 -0.00000000000E+00  0.23929040005E+00  0.14400207969E+01  0.14200000000E+01 0. -1.
         11    1    1    2    0    0  0.15876488061E+00  0.12487384464E+01  0.15642783454E+01  0.20078647858E+01  0.51100000000E-03 0. -1.
         22    1    1    2    0    0  0.15530482721E-01  0.14907843877E+00  0.17226339759E+00  0.22834240725E+00  0.00000000000E+00 0.  1.
         -4    1    1    2    0  501 -0.17429536333E+00 -0.13978168852E+01  0.25027486147E+01  0.32038135942E+01  0.14200000000E+01 0. -1.
<mgrwt>
<rscale>  0 0.20001677E+01</rscale>
<asrwt>0</asrwt>
<pdfrwt beam="1">  1       11 0.10000000E+01 0.14089171E+01</pdfrwt>
<pdfrwt beam="2">  1       -4 0.99736694E+00 0.20001677E+01</pdfrwt>
<totfact> 0.62639136E-10</totfact>
</mgrwt>
</event>
<event>
 5    1  0.9349318E-034  0.2001094E+01  0.7818608E-02  0.3997712E+00
         11   -1    0    0    0    0  0.00000000000E+00  0.00000000000E+00  0.39999999673E+01  0.39999999999E+01  0.51100000000E-03 0. -1.
         -4   -1    0    0    0  501 -0.00000000000E+00 -0.00000000000E+00  0.23714951777E+00  0.14396665912E+01  0.14200000000E+01 0. -1.
         11    1    1    2    0    0 -0.90293808674E+00  0.94461299715E+00  0.15987719850E+01  0.20648639239E+01  0.51100000000E-03 0. -1.
         22    1    1    2    0    0 -0.71532153599E-01  0.74399046456E-01  0.12498402065E+00  0.16208970519E+00  0.00000000000E+00 0.  1.
         -4    1    1    2    0  501  0.97447024034E+00 -0.10190120436E+01  0.25133934794E+01  0.32127129621E+01  0.14200000000E+01 0. -1.
<mgrwt>
<rscale>  0 0.20010941E+01</rscale>
<asrwt>0</asrwt>
<pdfrwt beam="1">  1       11 0.10000000E+01 0.14099609E+01</pdfrwt>
<pdfrwt beam="2">  1       -4 0.99859354E+00 0.20010941E+01</pdfrwt>
<totfact> 0.35547147E-10</totfact>
</mgrwt>
</event>
<event>
 5    1  0.9349318E-034  0.2001568E+01  0.7818608E-02  0.3997111E+00
         11   -1    0    0    0    0  0.00000000000E+00  0.00000000000E+00  0.39999999655E+01  0.39999999981E+01  0.51100000000E-03 0. -1.
         -4   -1    0    0    0  501 -0.00000000000E+00 -0.00000000000E+00  0.23613593729E+00  0.14394999760E+01  0.14200000000E+01 0. -1.
         11    1    1    2    0    0 -0.17915484753E+00 -0.13527415601E+01  0.16831293586E+01  0.21667789197E+01  0.51100000000E-03 0. -1.
         22    1    1    2    0    0 -0.56308415864E-02 -0.45732730380E-01  0.56945001567E-01  0.73252455307E-01  0.00000000000E+00 0.  1.
         -4    1    1    2    0  501  0.18478568912E+00  0.13984742905E+01  0.24960615425E+01  0.31994685991E+01  0.14200000000E+01 0. -1.
<mgrwt>
<rscale>  0 0.20015684E+01</rscale>
<asrwt>0</asrwt>
<pdfrwt beam="1">  1       11 0.10000000E+01 0.14106324E+01</pdfrwt>
<pdfrwt beam="2">  1       -4 0.99917500E+00 0.20015684E+01</pdfrwt>
<totfact> 0.21458031E-10</totfact>
</mgrwt>
</event>
<event>
 5    1  0.9349318E-034  0.2000393E+01  0.7818608E-02  0.3998601E+00
         11   -1    0    0    0    0  0.00000000000E+00  0.00000000000E+00  0.39999999502E+01  0.39999999828E+01  0.51100000000E-03 0. -1.
          4   -1    0    0  501    0 -0.00000000000E+00 -0.00000000000E+00  0.23901254365E+00  0.14399746512E+01  0.14200000000E+01 0. -1.
         11    1    1    2    0    0 -0.66963600726E+00  0.27062724039E+00  0.88841777541E+00  0.11449619602E+01  0.51100000000E-03 0. -1.
         22    1    1    2    0    0 -0.63389138615E+00  0.26415165910E+00  0.85226096769E+00  0.10945058910E+01  0.00000000000E+00 0. -1.
          4    1    1    2  501    0  0.13035273934E+01 -0.53477889949E+00  0.24983337507E+01  0.32005067828E+01  0.14200000000E+01 0. -1.
<mgrwt>
<rscale>  0 0.20003930E+01</rscale>
<asrwt>0</asrwt>
<pdfrwt beam="1">  1       11 0.10000000E+01 0.14089910E+01</pdfrwt>
<pdfrwt beam="2">  1        4 0.99752601E+00 0.20003930E+01</pdfrwt>
<totfact> 0.59326090E-10</totfact>
</mgrwt>
</event>
<event>
 5    1  0.9349318E-034  0.2001321E+01  0.7818608E-02  0.3997425E+00
         11   -1    0    0    0    0  0.00000000000E+00  0.00000000000E+00  0.39999999520E+01  0.39999999846E+01  0.51100000000E-03 0.  1.
         -4   -1    0    0    0  501 -0.00000000000E+00 -0.00000000000E+00  0.23663860916E+00  0.14395825198E+01  0.14200000000E+01 0.  1.
         11    1    1    2    0    0  0.27043484859E+00 -0.76503621127E+00  0.99060616652E+00  0.12805140570E+01  0.51100000000E-03 0.  1.
         22    1    1    2    0    0  0.20013629834E+00 -0.56441827954E+00  0.73744666771E+00  0.94997374695E+00  0.00000000000E+00 0.  1.
         -4    1    1    2    0  501 -0.47057114693E+00  0.13294544908E+01  0.25085857269E+01  0.32090947005E+01  0.14200000000E+01 0.  1.
<mgrwt>
<rscale>  0 0.20013212E+01</rscale>
<asrwt>0</asrwt>
<pdfrwt beam="1">  1       11 0.10000000E+01 0.14102876E+01</pdfrwt>
<pdfrwt beam="2">  1       -4 0.99888657E+00 0.20013212E+01</pdfrwt>
<totfact> 0.28550605E-10</totfact>
</mgrwt>
</event>
<event>
 5    1  0.9349318E-034  0.2000144E+01  0.7818608E-02  0.3998916E+00
         11   -1    0    0    0    0  0.00000000000E+00  0.00000000000E+00  0.39999999544E+01  0.39999999871E+01  0.51100000000E-03 0.  1.
         -4   -1    0    0    0  501 -0.00000000000E+00 -0.00000000000E+00  0.23693627853E+00  0.14396314807E+01  0.14200000000E+01 0.  1.
         11    1    1    2    0    0  0.59540289195E+00  0.98650028777E-01  0.69944594813E+00  0.92382970693E+00  0.51100000000E-03 0.  1.
         22    1    1    2    0    0  0.79140271521E+00  0.14822354759E+00  0.94758215151E+00  0.12434630721E+01  0.00000000000E+00 0.  1.
         -4    1    1    2    0  501 -0.13868056072E+01 -0.24687357636E+00  0.25899081333E+01  0.32723386887E+01  0.14200000000E+01 0.  1.
<mgrwt>
<rscale>  0 0.20001441E+01</rscale>
<asrwt>0</asrwt>
<pdfrwt beam="1">  1       11 0.10000000E+01 0.14087081E+01</pdfrwt>
<pdfrwt beam="2">  1       -4 0.99871582E+00 0.20001441E+01</pdfrwt>
<totfact> 0.32612267E-10</totfact>
</mgrwt>
</event>
<event>
 5    1  0.9349318E-034  0.2000297E+01  0.7818608E-02  0.3998722E+00
         11   -1    0    0    0    0  0.00000000000E+00  0.00000000000E+00  0.39999999634E+01  0.39999999960E+01  0.51100000000E-03 0.  1.
         -4   -1    0    0    0  501 -0.00000000000E+00 -0.00000000000E+00  0.23813431828E+00  0.14398291404E+01  0.14200000000E+01 0. -1.
         11    1    1    2    0    0 -0.11789946473E+01  0.27552547402E+00  0.14622489246E+01  0.18984506429E+01  0.51100000000E-03 0.  1.
         22    1    1    2    0    0 -0.19018847656E+00  0.56328521858E-01  0.27015894136E+00  0.33515729529E+00  0.00000000000E+00 0.  1.
         -4    1    1    2    0  501  0.13691831238E+01 -0.33185399588E+00  0.25057264157E+01  0.32062211982E+01  0.14200000000E+01 0. -1.
<mgrwt>
<rscale>  0 0.20002974E+01</rscale>
<asrwt>0</asrwt>
<pdfrwt beam="1">  1       11 0.10000000E+01 0.14098828E+01</pdfrwt>
<pdfrwt beam="2">  1       -4 0.99802904E+00 0.20002974E+01</pdfrwt>
<totfact> 0.48425306E-10</totfact>
</mgrwt>
</event>
<event>
 5    1  0.9349318E-034  0.2000029E+01  0.7818608E-02  0.3999063E+00
         11   -1    0    0    0    0  0.00000000000E+00  0.00000000000E+00  0.39999999575E+01  0.39999999902E+01  0.51100000000E-03 0. -1.
          4   -1    0    0  501    0 -0.00000000000E+00 -0.00000000000E+00  0.23544847076E+00  0.14393873636E+01  0.14200000000E+01 0.  1.
         11    1    1    2    0    0 -0.11255039629E+01 -0.20829520450E+00  0.13063252082E+01  0.17368453798E+01  0.51100000000E-03 0. -1.
         22    1    1    2    0    0 -0.26268447607E+00 -0.29712665943E-01  0.32131160911E+00  0.41608547997E+00  0.00000000000E+00 0.  1.
          4    1    1    2  501    0  0.13881884389E+01  0.23800787044E+00  0.26078116109E+01  0.32864564939E+01  0.14200000000E+01 0.  1.
<mgrwt>
<rscale>  0 0.20000287E+01</rscale>
<asrwt>0</asrwt>
<pdfrwt beam="1">  1       11 0.10000000E+01 0.14092238E+01</pdfrwt>
<pdfrwt beam="2">  1        4 0.99956965E+00 0.20000287E+01</pdfrwt>
<totfact> 0.11387160E-10</totfact>
</mgrwt>
</event>
<event>
 5    1  0.9349318E-034  0.2001741E+01  0.7818608E-02  0.3996893E+00
         11   -1    0    0    0    0  0.00000000000E+00  0.00000000000E+00  0.39999999710E+01  0.40000000036E+01  0.51100000000E-03 0.  1.
          4   -1    0    0  501    0 -0.00000000000E+00 -0.00000000000E+00  0.23570605588E+00  0.14394295206E+01  0.14200000000E+01 0.  1.
         11    1    1    2    0    0 -0.11182241477E+01 -0.16639157336E+00  0.13975244919E+01  0.17975501014E+01  0.51100000000E-03 0.  1.
         22    1    1    2    0    0 -0.27737069782E+00 -0.40685791369E-01  0.34283742165E+00  0.44286265965E+00  0.00000000000E+00 0. -1.
          4    1    1    2  501    0  0.13955948455E+01  0.20707736473E+00  0.24953441133E+01  0.31990167632E+01  0.14200000000E+01 0.  1.
<mgrwt>
<rscale>  0 0.20017407E+01</rscale>
<asrwt>0</asrwt>
<pdfrwt beam="1">  1       11 0.10000000E+01 0.14108833E+01</pdfrwt>
<pdfrwt beam="2">  1        4 0.99942175E+00 0.20017407E+01</pdfrwt>
<totfact> 0.15223427E-10</totfact>
</mgrwt>
</event>
<event>
 5    1  0.9349318E-034  0.2000325E+01  0.7818608E-02  0.3998687E+00
         11   -1    0    0    0    0  0.00000000000E+00  0.00000000000E+00  0.39999999636E+01  0.39999999962E+01  0.51100000000E-03 0.  1.
          4   -1    0    0  501    0 -0.00000000000E+00 -0.00000000000E+00  0.23899006557E+00  0.14399709203E+01  0.14200000000E+01 0.  1.
         11    1    1    2    0    0  0.12548155876E+01 -0.37624492606E+00  0.16134116846E+01  0.20782733046E+01  0.51100000000E-03 0.  1.
         22    1    1    2    0    0  0.92861023778E-01 -0.34445904907E-01  0.12409484876E+00  0.15877412129E+00  0.00000000000E+00 0.  1.
          4    1    1    2  501    0 -0.13476766114E+01  0.41069083097E+00  0.25014834958E+01  0.32029234907E+01  0.14200000000E+01 0.  1.
<mgrwt>
<rscale>  0 0.20003248E+01</rscale>
<asrwt>0</asrwt>
<pdfrwt beam="1">  1       11 0.10000000E+01 0.14090615E+01</pdfrwt>
<pdfrwt beam="2">  1        4 0.99753889E+00 0.20003248E+01</pdfrwt>
<totfact> 0.59049666E-10</totfact>
</mgrwt>
</event>
<event>
 5    1  0.9349318E-034  0.2001205E+01  0.7818608E-02  0.3997571E+00
         11   -1    0    0    0    0  0.00000000000E+00  0.00000000000E+00  0.39999999629E+01  0.39999999955E+01  0.51100000000E-03 0.  1.
          4   -1    0    0  501    0 -0.00000000000E+00 -0.00000000000E+00  0.23653119711E+00  0.14395648673E+01  0.14200000000E+01 0.  1.
         11    1    1    2    0    0 -0.76452127358E+00 -0.91728170367E+00  0.14493030774E+01  0.18778653234E+01  0.51100000000E-03 0.  1.
         22    1    1    2    0    0 -0.13336715341E+00 -0.17001730851E+00  0.28427470490E+00  0.35707812961E+00  0.00000000000E+00 0.  1.
          4    1    1    2  501    0  0.89788842700E+00  0.10872990122E+01  0.25029533777E+01  0.32046214098E+01  0.14200000000E+01 0.  1.
<mgrwt>
<rscale>  0 0.20012053E+01</rscale>
<asrwt>0</asrwt>
<pdfrwt beam="1">  1       11 0.10000000E+01 0.14105610E+01</pdfrwt>
<pdfrwt beam="2">  1        4 0.99894819E+00 0.20012053E+01</pdfrwt>
<totfact> 0.27047177E-10</totfact>
</mgrwt>
</event>
<event>
 5    1  0.9349318E-034  0.2000453E+01  0.7818608E-02  0.3998525E+00
         11   -1    0    0    0    0  0.00000000000E+00  0.00000000000E+00  0.39999999529E+01  0.39999999856E+01  0.51100000000E-03 0.  1.
         -4   -1    0    0    0  501 -0.00000000000E+00 -0.00000000000E+00  0.23880450266E+00  0.14399401343E+01  0.14200000000E+01 0.  1.
         11    1    1    2    0    0 -0.19642750548E-01  0.10157995361E+01  0.12516562747E+01  0.16121036649E+01  0.51100000000E-03 0.  1.
         22    1    1    2    0    0  0.10609042239E-02  0.39312402645E+00  0.49526832125E+00  0.63232771229E+00  0.00000000000E+00 0.  1.
         -4    1    1    2    0  501  0.18581846324E-01 -0.14089235626E+01  0.24918798597E+01  0.31955087428E+01  0.14200000000E+01 0.  1.
<mgrwt>
<rscale>  0 0.20004527E+01</rscale>
<asrwt>0</asrwt>
<pdfrwt beam="1">  1       11 0.10000000E+01 0.14091588E+01</pdfrwt>
<pdfrwt beam="2">  1       -4 0.99764514E+00 0.20004527E+01</pdfrwt>
<totfact> 0.56800583E-10</totfact>
</mgrwt>
</event>
<event>
 5    1  0.9349318E-034  0.2000558E+01  0.7818608E-02  0.3998391E+00
         11   -1    0    0    0    0  0.00000000000E+00  0.00000000000E+00  0.39999999546E+01  0.39999999872E+01  0.51100000000E-03 0. -1.
         -4   -1    0    0    0  501 -0.00000000000E+00 -0.00000000000E+00  0.23817535245E+00  0.14398359276E+01  0.14200000000E+01 0. -1.
         11    1    1    2    0    0 -0.92722320010E+00 -0.84086716097E+00  0.15499761050E+01  0.19922918040E+01  0.51100000000E-03 0. -1.
         22    1    1    2    0    0 -0.11117653109E+00 -0.11179169508E+00  0.18211646287E+00  0.24088173489E+00  0.00000000000E+00 0.  1.
         -4    1    1    2    0  501  0.10383997312E+01  0.95265885605E+00  0.25060827391E+01  0.32066623759E+01  0.14200000000E+01 0. -1.
<mgrwt>
<rscale>  0 0.20005581E+01</rscale>
<asrwt>0</asrwt>
<pdfrwt beam="1">  1       11 0.10000000E+01 0.14095820E+01</pdfrwt>
<pdfrwt beam="2">  1       -4 0.99800553E+00 0.20005581E+01</pdfrwt>
<totfact> 0.48962019E-10</totfact>
</mgrwt>
</event>
<event>
 5    1  0.9349318E-034  0.2001504E+01  0.7818608E-02  0.3997194E+00
         11   -1    0    0    0    0  0.00000000000E+00  0.00000000000E+00  0.39999999575E+01  0.39999999902E+01  0.51100000000E-03 0. -1.
          4   -1    0    0  501    0 -0.00000000000E+00 -0.00000000000E+00  0.23628522707E+00  0.14395244731E+01  0.14200000000E+01 0. -1.
         11    1    1    2    0    0  0.13418494931E+01 -0.34492915302E-01  0.16795766151E+01  0.21500529507E+01  0.51100000000E-03 0. -1.
         22    1    1    2    0    0  0.68218385042E-01 -0.19103267876E-02  0.83709196489E-01  0.10800290266E+00  0.00000000000E+00 0.  1.
          4    1    1    2  501    0 -0.14100678782E+01  0.36403242090E-01  0.24729993730E+01  0.31814686099E+01  0.14200000000E+01 0. -1.
<mgrwt>
<rscale>  0 0.20015036E+01</rscale>
<asrwt>0</asrwt>
<pdfrwt beam="1">  1       11 0.10000000E+01 0.14105458E+01</pdfrwt>
<pdfrwt beam="2">  1        4 0.99908932E+00 0.20015036E+01</pdfrwt>
<totfact> 0.23586717E-10</totfact>
</mgrwt>
</event>
<event>
 5    1  0.9349318E-034  0.2000276E+01  0.7818608E-02  0.3998748E+00
         11   -1    0    0    0    0  0.00000000000E+00  0.00000000000E+00  0.39999999651E+01  0.39999999978E+01  0.51100000000E-03 0.  1.
          4   -1    0    0  501    0 -0.00000000000E+00 -0.00000000000E+00  0.23869418838E+00  0.14399218436E+01  0.14200000000E+01 0. -1.
         11    1    1    2    0    0 -0.52753778377E+00 -0.61567662711E+00  0.97498696725E+00  0.12680511306E+01  0.51100000000E-03 0.  1.
         22    1    1    2    0    0 -0.38453922105E+00 -0.45801861936E+00  0.72543660370E+00  0.94016473779E+00  0.00000000000E+00 0.  1.
          4    1    1    2  501    0  0.91207700482E+00  0.10736952465E+01  0.25382705826E+01  0.32317059729E+01  0.14200000000E+01 0. -1.
<mgrwt>
<rscale>  0 0.20002765E+01</rscale>
<asrwt>0</asrwt>
<pdfrwt beam="1">  1       11 0.10000000E+01 0.14088218E+01</pdfrwt>
<pdfrwt beam="2">  1        4 0.99770832E+00 0.20002765E+01</pdfrwt>
<totfact> 0.55435122E-10</totfact>
</mgrwt>
</event>
<event>
 5    1  0.9349318E-034  0.2000007E+01  0.7818608E-02  0.3999090E+00
         11   -1    0    0    0    0  0.00000000000E+00  0.00000000000E+00  0.39999999630E+01  0.39999999956E+01  0.51100000000E-03 0. -1.
         -4   -1    0    0    0  501 -0.00000000000E+00 -0.00000000000E+00  0.23919013986E+00  0.14400041399E+01  0.14200000000E+01 0. -1.
         11    1    1    2    0    0  0.10867938185E+01  0.79686105979E+00  0.16358437748E+01  0.21194559370E+01  0.51100000000E-03 0. -1.
         22    1    1    2    0    0  0.48347341266E-01  0.36855485624E-01  0.65939278090E-01  0.89687126296E-01  0.00000000000E+00 0.  1.
         -4    1    1    2    0  501 -0.11351411597E+01 -0.83371654541E+00  0.25374070500E+01  0.32308610722E+01  0.14200000000E+01 0. -1.
<mgrwt>
<rscale>  0 0.20000072E+01</rscale>
<asrwt>0</asrwt>
<pdfrwt beam="1">  1       11 0.10000000E+01 0.14086339E+01</pdfrwt>
<pdfrwt beam="2">  1       -4 0.99742434E+00 0.20000072E+01</pdfrwt>
<totfact> 0.61433354E-10</totfact>
</mgrwt>
</event>
<event>
 5    1  0.9349318E-034  0.2000642E+01  0.7818608E-02  0.3998286E+00
         11   -1    0    0    0    0  0.00000000000E+00  0.00000000000E+00  0.39999999516E+01  0.39999999842E+01  0.51100000000E-03 0. -1.
         -4   -1    0    0    0  501 -0.00000000000E+00 -0.00000000000E+00  0.23830686205E+00  0.14398576876E+01  0.14200000000E+01 0. -1.
         11    1    1    2    0    0 -0.25461068114E+00 -0.12044426509E+01  0.15473376422E+01  0.19773119982E+01  0.51100000000E-03 0. -1.
         22    1    1    2    0    0 -0.37024825406E-01 -0.17436667309E+00  0.22802397239E+00  0.28942962248E+00  0.00000000000E+00 0.  1.
         -4    1    1    2    0  501  0.29163550655E+00  0.13788093239E+01  0.24629451991E+01  0.31731160512E+01  0.14200000000E+01 0. -1.
<mgrwt>
<rscale>  0 0.20006415E+01</rscale>
<asrwt>0</asrwt>
<pdfrwt beam="1">  1       11 0.10000000E+01 0.14093292E+01</pdfrwt>
<pdfrwt beam="2">  1       -4 0.99793018E+00 0.20006415E+01</pdfrwt>
<totfact> 0.50631289E-10</totfact>
</mgrwt>
</event>
<event>
 5    1  0.9349318E-034  0.2000800E+01  0.7818608E-02  0.3998084E+00
         11   -1    0    0    0    0  0.00000000000E+00  0.00000000000E+00  0.39999999607E+01  0.39999999934E+01  0.51100000000E-03 0.  1.
         -4   -1    0    0    0  501 -0.00000000000E+00 -0.00000000000E+00  0.23516633940E+00  0.14393412407E+01  0.14200000000E+01 0. -1.
         11    1    1    2    0    0 -0.72672723037E+00 -0.18412868711E+00  0.87452443612E+00  0.11518806758E+01  0.51100000000E-03 0.  1.
         22    1    1    2    0    0 -0.63972741601E+00 -0.16170954789E+00  0.76731532033E+00  0.10120147951E+01  0.00000000000E+00 0.  1.
         -4    1    1    2    0  501  0.13664546464E+01  0.34583823500E+00  0.25933265437E+01  0.32754457632E+01  0.14200000000E+01 0. -1.
<mgrwt>
<rscale>  0 0.20008004E+01</rscale>
<asrwt>0</asrwt>
<pdfrwt beam="1">  1       11 0.10000000E+01 0.14095417E+01</pdfrwt>
<pdfrwt beam="2">  1       -4 0.99973167E+00 0.20008004E+01</pdfrwt>
<totfact> 0.71623167E-11</totfact>
</mgrwt>
</event>
<event>
 5    1  0.9349318E-034  0.2000026E+01  0.7818608E-02  0.3999066E+00
         11   -1    0    0    0    0  0.00000000000E+00  0.00000000000E+00  0.39999999609E+01  0.39999999936E+01  0.51100000000E-03 0.  1.
         -4   -1    0    0    0  501 -0.00000000000E+00 -0.00000000000E+00  0.23880094132E+00  0.14399395437E+01  0.14200000000E+01 0.  1.
         11    1    1    2    0    0  0.62874493825E+00 -0.12460675310E+01  0.17651839088E+01  0.22503064197E+01  0.51100000000E-03 0.  1.
         22    1    1    2    0    0  0.62480009590E-02 -0.11106892572E-01  0.89705106876E-02  0.15584307511E-01  0.00000000000E+00 0. -1.
         -4    1    1    2    0  501 -0.63499293921E+00  0.12571744236E+01  0.24646464827E+01  0.31740488101E+01  0.14200000000E+01 0.  1.
<mgrwt>
<rscale>  0 0.20000259E+01</rscale>
<asrwt>0</asrwt>
<pdfrwt beam="1">  1       11 0.10000000E+01 0.14094811E+01</pdfrwt>
<pdfrwt beam="2">  1       -4 0.99764718E+00 0.20000259E+01</pdfrwt>
<totfact> 0.56729203E-10</totfact>
</mgrwt>
</event>
<event>
 5    1  0.9349318E-034  0.2001781E+01  0.7818608E-02  0.3996842E+00
         11   -1    0    0    0    0  0.00000000000E+00  0.00000000000E+00  0.39999999661E+01  0.39999999987E+01  0.51100000000E-03 0. -1.
         -4   -1    0    0    0  501 -0.00000000000E+00 -0.00000000000E+00  0.23521526064E+00  0.14393492345E+01  0.14200000000E+01 0. -1.
         11    1    1    2    0    0 -0.12760835752E+01 -0.49958255309E+00  0.17295161673E+01  0.22066260336E+01  0.51100000000E-03 0. -1.
         22    1    1    2    0    0 -0.39299558840E-01 -0.10804257202E-01  0.49416643256E-01  0.64056162306E-01  0.00000000000E+00 0. -1.
         -4    1    1    2    0  501  0.13153831340E+01  0.51038681029E+00  0.24562824161E+01  0.31686670373E+01  0.14200000000E+01 0. -1.
<mgrwt>
<rscale>  0 0.20017811E+01</rscale>
<asrwt>0</asrwt>
<pdfrwt beam="1">  1       11 0.10000000E+01 0.14111682E+01</pdfrwt>
<pdfrwt beam="2">  1       -4 0.99970358E+00 0.20017811E+01</pdfrwt>
<totfact> 0.79110739E-11</totfact>
</mgrwt>
</event>
<event>
 5    1  0.1228113E-033  0.2001069E+01  0.7818608E-02  0.3997744E+00
         11   -1    0    0    0    0  0.00000000000E+00  0.00000000000E+00  0.39999999629E+01  0.39999999955E+01  0.51100000000E-03 0. -1.
          4   -1    0    0  501    0 -0.00000000000E+00 -0.00000000000E+00  0.23685804903E+00  0.14396186076E+01  0.14200000000E+01 0. -1.
         11    1    1    2    0    0  0.11437068146E+01 -0.79788037248E+00  0.17398822133E+01  0.22297687646E+01  0.51100000000E-03 0. -1.
         22    1    1    2    0    0  0.14129240051E-01 -0.66651515105E-02  0.24567988845E-01  0.29114356337E-01  0.00000000000E+00 0.  1.
          4    1    1    2  501    0 -0.11578360546E+01  0.80454552399E+00  0.24724078098E+01  0.31807354822E+01  0.14200000000E+01 0. -1.
<mgrwt>
<rscale>  0 0.20010692E+01</rscale>
<asrwt>0</asrwt>
<pdfrwt beam="1">  1       11 0.10000000E+01 0.14104143E+01</pdfrwt>
<pdfrwt beam="2">  1        4 0.99876069E+00 0.20010692E+01</pdfrwt>
<totfact> 0.31575864E-10</totfact>
</mgrwt>
</event>
<event>
 5    1  0.9349318E-034  0.2000182E+01  0.7818608E-02  0.3998868E+00
         11   -1    0    0    0    0  0.00000000000E+00  0.00000000000E+00  0.39999999537E+01  0.39999999864E+01  0.51100000000E-03 0.  1.
         -4   -1    0    0    0  501 -0.00000000000E+00 -0.00000000000E+00  0.23808197353E+00  0.14398204840E+01  0.14200000000E+01 0.  1.
         11    1    1    2    0    0  0.94769728345E+00 -0.10123977852E+01  0.18026074656E+01  0.22743072248E+01  0.51100000000E-03 0.  1.
         22    1    1    2    0    0  0.15644280758E-01 -0.15367984783E-01  0.26300978843E-01  0.34244123069E-01  0.00000000000E+00 0.  1.
         -4    1    1    2    0  501 -0.96334156421E+00  0.10277657700E+01  0.24091734828E+01  0.31312691225E+01  0.14200000000E+01 0.  1.
<mgrwt>
<rscale>  0 0.20001824E+01</rscale>
<asrwt>0</asrwt>
<pdfrwt beam="1">  1       11 0.10000000E+01 0.14087240E+01</pdfrwt>
<pdfrwt beam="2">  1       -4 0.99805903E+00 0.20001824E+01</pdfrwt>
<totfact> 0.47751418E-10</totfact>
</mgrwt>
</event>
<event>
 5    1  0.9349318E-034  0.2000028E+01  0.7818608E-02  0.3999064E+00
         11   -1    0    0    0    0  0.00000000000E+00  0.00000000000E+00  0.39999999720E+01  0.40000000046E+01  0.51100000000E-03 0. -1.
          4   -1    0    0  501    0 -0.00000000000E+00 -0.00000000000E+00  0.23957337916E+00  0.14400678470E+01  0.14200000000E+01 0. -1.
         11    1    1    2    0    0  0.22350953464E+00  0.11522687453E+01  0.14943132371E+01  0.19001715936E+01  0.51100000000E-03 0. -1.
         22    1    1    2    0    0  0.43973476064E-01  0.23054167122E+00  0.29826977727E+00  0.37953654475E+00  0.00000000000E+00 0. -1.
          4    1    1    2  501    0 -0.26748301070E+00 -0.13828104165E+01  0.24469903367E+01  0.31603597133E+01  0.14200000000E+01 0. -1.
<mgrwt>
<rscale>  0 0.20000280E+01</rscale>
<asrwt>0</asrwt>
<pdfrwt beam="1">  1       11 0.10000000E+01 0.14084443E+01</pdfrwt>
<pdfrwt beam="2">  1        4 0.99720497E+00 0.20000280E+01</pdfrwt>
<totfact> 0.65961328E-10</totfact>
</mgrwt>
</event>
<event>
 5    1  0.9349318E-034  0.2000199E+01  0.7818608E-02  0.3998846E+00
         11   -1    0    0    0    0  0.00000000000E+00  0.00000000000E+00  0.39999999585E+01  0.39999999911E+01  0.51100000000E-03 0. -1.
          4   -1    0    0  501    0 -0.00000000000E+00 -0.00000000000E+00  0.23953444004E+00  0.14400613695E+01  0.14200000000E+01 0. -1.
         11    1    1    2    0    0  0.10268871622E+01  0.90433172019E+00  0.17063259388E+01  0.21872040542E+01  0.51100000000E-03 0. -1.
         22    1    1    2    0    0  0.30253015502E-01  0.26716790926E-01  0.48570826486E-01  0.63151857058E-01  0.00000000000E+00 0. -1.
          4    1    1    2  501    0 -0.10571401777E+01 -0.93104851112E+00  0.24846376332E+01  0.31897054494E+01  0.14200000000E+01 0. -1.
<mgrwt>
<rscale>  0 0.20001992E+01</rscale>
<asrwt>0</asrwt>
<pdfrwt beam="1">  1       11 0.10000000E+01 0.14087012E+01</pdfrwt>
<pdfrwt beam="2">  1        4 0.99722726E+00 0.20001992E+01</pdfrwt>
<totfact> 0.65518911E-10</totfact>
</mgrwt>
</event>
<event>
 5    1  0.9349318E-034  0.2001481E+01  0.7818608E-02  0.3997222E+00
         11   -1    0    0    0    0  0.00000000000E+00  0.00000000000E+00  0.39999999555E+01  0.39999999882E+01  0.51100000000E-03 0. -1.
          4   -1    0    0  501    0 -0.00000000000E+00 -0.00000000000E+00  0.23637910362E+00  0.14395398850E+01  0.14200000000E+01 0.  1.
         11    1    1    2    0    0 -0.12713553360E+01 -0.18804294877E+00  0.15946165142E+01  0.20480494695E+01  0.51100000000E-03 0. -1.
         22    1    1    2    0    0 -0.12400625452E+00 -0.18097171323E-01  0.15424011694E+00  0.19873367214E+00  0.00000000000E+00 0.  1.
          4    1    1    2  501    0  0.13953615905E+01  0.20614012010E+00  0.24875224280E+01  0.31927567316E+01  0.14200000000E+01 0.  1.
<mgrwt>
<rscale>  0 0.20014814E+01</rscale>
<asrwt>0</asrwt>
<pdfrwt beam="1">  1       11 0.10000000E+01 0.14105095E+01</pdfrwt>
<pdfrwt beam="2">  1        4 0.99903545E+00 0.20014814E+01</pdfrwt>
<totfact> 0.24916294E-10</totfact>
</mgrwt>
</event>
<event>
 5    1  0.9349318E-034  0.2000578E+01  0.7818608E-02  0.3998367E+00
         11   -1    0    0    0    0  0.00000000000E+00  0.00000000000E+00  0.39999999612E+01  0.39999999938E+01  0.51100000000E-03 0. -1.
          4   -1    0    0  501    0 -0.00000000000E+00 -0.00000000000E+00  0.23810049399E+00  0.14398235466E+01  0.14200000000E+01 0.  1.
         11    1    1    2    0    0  0.93221047880E+00 -0.10093199013E+01  0.17119304368E+01  0.21950966087E+01  0.51100000000E-03 0. -1.
         22    1    1    2    0    0  0.20948023560E-01 -0.28658725715E-01  0.37402703803E-01  0.51566505626E-01  0.00000000000E+00 0. -1.
          4    1    1    2  501    0 -0.95315850236E+00  0.10379786270E+01  0.24887673146E+01  0.31931604261E+01  0.14200000000E+01 0. -1.
<mgrwt>
<rscale>  0 0.20005776E+01</rscale>
<asrwt>0</asrwt>
<pdfrwt beam="1">  1       11 0.10000000E+01 0.14097272E+01</pdfrwt>
<pdfrwt beam="2">  1        4 0.99804842E+00 0.20005776E+01</pdfrwt>
<totfact> 0.48009840E-10</totfact>
</mgrwt>
</event>
<event>
 5    1  0.1094045E-033  0.2000146E+01  0.7818608E-02  0.3998914E+00
         11   -1    0    0    0    0  0.00000000000E+00  0.00000000000E+00  0.39999999602E+01  0.39999999928E+01  0.51100000000E-03 0. -1.
          4   -1    0    0  501    0 -0.00000000000E+00 -0.00000000000E+00  0.23773051424E+00  0.14397624101E+01  0.14200000000E+01 0. -1.
         11    1    1    2    0    0  0.13839606783E+01  0.14613908452E+00  0.16420633456E+01  0.21524581490E+01  0.51100000000E-03 0. -1.
         22    1    1    2    0    0  0.16823898639E-01  0.21363272334E-02  0.19936078523E-01  0.26173549365E-01  0.00000000000E+00 0.  1.
          4    1    1    2  501    0 -0.14007845769E+01 -0.14827541176E+00  0.25757310503E+01  0.32611307046E+01  0.14200000000E+01 0. -1.
<mgrwt>
<rscale>  0 0.20001458E+01</rscale>
<asrwt>0</asrwt>
<pdfrwt beam="1">  1       11 0.10000000E+01 0.14086149E+01</pdfrwt>
<pdfrwt beam="2">  1        4 0.99826045E+00 0.20001458E+01</pdfrwt>
<totfact> 0.43213953E-10</totfact>
</mgrwt>
</event>
<event>
 5    1  0.9349318E-034  0.2000744E+01  0.7818608E-02  0.3998156E+00
         11   -1    0    0    0    0  0.00000000000E+00  0.00000000000E+00  0.39999999571E+01  0.39999999898E+01  0.51100000000E-03 0. -1.
          4   -1    0    0  501    0 -0.00000000000E+00 -0.00000000000E+00  0.23788396050E+00  0.14397877547E+01  0.14200000000E+01 0. -1.
         11    1    1    2    0    0  0.12924719867E+01 -0.92111315990E-01  0.16016684880E+01  0.20601724533E+01  0.51100000000E-03 0. -1.
         22    1    1    2    0    0  0.11295580455E+00 -0.14420702944E-01  0.15068245703E+00  0.18887078469E+00  0.00000000000E+00 0.  1.
          4    1    1    2  501    0 -0.14054277913E+01  0.10653201893E+00  0.24855329726E+01  0.31907445064E+01  0.14200000000E+01 0. -1.
<mgrwt>
<rscale>  0 0.20007439E+01</rscale>
<asrwt>0</asrwt>
<pdfrwt beam="1">  1       11 0.10000000E+01 0.14097736E+01</pdfrwt>
<pdfrwt beam="2">  1        4 0.99817250E+00 0.20007439E+01</pdfrwt>
<totfact> 0.45237312E-10</totfact>
</mgrwt>
</event>
<event>
 5    1  0.9349318E-034  0.2000572E+01  0.7818608E-02  0.3998374E+00
         11   -1    0    0    0    0  0.00000000000E+00  0.00000000000E+00  0.39999999599E+01  0.39999999925E+01  0.51100000000E-03 0.  1.
          4   -1    0    0  501    0 -0.00000000000E+00 -0.00000000000E+00  0.23645973104E+00  0.14395531266E+01  0.14200000000E+01 0.  1.
         11    1    1    2    0    0 -0.97976664240E+00  0.90362046511E+00  0.15739881458E+01  0.20625012880E+01  0.51100000000E-03 0.  1.
         22    1    1    2    0    0 -0.56241668034E-01  0.51667940922E-01  0.84689839781E-01  0.11403977510E+00  0.00000000000E+00 0. -1.
          4    1    1    2  501    0  0.10360083104E+01 -0.95528840604E+00  0.25777817053E+01  0.32630120561E+01  0.14200000000E+01 0.  1.
<mgrwt>
<rscale>  0 0.20005722E+01</rscale>
<asrwt>0</asrwt>
<pdfrwt beam="1">  1       11 0.10000000E+01 0.14092978E+01</pdfrwt>
<pdfrwt beam="2">  1        4 0.99898919E+00 0.20005722E+01</pdfrwt>
<totfact> 0.26024622E-10</totfact>
</mgrwt>
</event>
<event>
 5    1  0.9349318E-034  0.2000455E+01  0.7818608E-02  0.3998522E+00
         11   -1    0    0    0    0  0.00000000000E+00  0.00000000000E+00  0.39999999600E+01  0.39999999926E+01  0.51100000000E-03 0.  1.
         -4   -1    0    0    0  501 -0.00000000000E+00 -0.00000000000E+00  0.23886938062E+00  0.14399508953E+01  0.14200000000E+01 0.  1.
         11    1    1    2    0    0 -0.88972635843E+00  0.10516893843E+01  0.17263233826E+01  0.22085869321E+01  0.51100000000E-03 0.  1.
         22    1    1    2    0    0 -0.20005991182E-01  0.24324794568E-01  0.39417426309E-01  0.50454621303E-01  0.00000000000E+00 0. -1.
         -4    1    1    2    0  501  0.90973234962E+00 -0.10760141788E+01  0.24731285317E+01  0.31809093346E+01  0.14200000000E+01 0.  1.
<mgrwt>
<rscale>  0 0.20004548E+01</rscale>
<asrwt>0</asrwt>
<pdfrwt beam="1">  1       11 0.10000000E+01 0.14090522E+01</pdfrwt>
<pdfrwt beam="2">  1       -4 0.99760799E+00 0.20004548E+01</pdfrwt>
<totfact> 0.57592934E-10</totfact>
</mgrwt>
</event>
<event>
 5    1  0.9349318E-034  0.2000317E+01  0.7818608E-02  0.3998698E+00
         11   -1    0    0    0    0  0.00000000000E+00  0.00000000000E+00  0.39999999655E+01  0.39999999981E+01  0.51100000000E-03 0.  1.
         -4   -1    0    0    0  501 -0.00000000000E+00 -0.00000000000E+00  0.23908438814E+00  0.14399865779E+01  0.14200000000E+01 0.  1.
         11    1    1    2    0    0 -0.12436927191E+01 -0.85554363607E-01  0.15362512394E+01  0.19784234280E+01  0.51100000000E-03 0.  1.
         22    1    1    2    0    0 -0.16208660434E+00 -0.74570070610E-02  0.21114448250E+00  0.26628869062E+00  0.00000000000E+00 0.  1.
         -4    1    1    2    0  501  0.14057793234E+01  0.93011370668E-01  0.24916886317E+01  0.31952744575E+01  0.14200000000E+01 0.  1.
<mgrwt>
<rscale>  0 0.20003166E+01</rscale>
<asrwt>0</asrwt>
<pdfrwt beam="1">  1       11 0.10000000E+01 0.14090219E+01</pdfrwt>
<pdfrwt beam="2">  1       -4 0.99748488E+00 0.20003166E+01</pdfrwt>
<totfact> 0.60186940E-10</totfact>
</mgrwt>
</event>
<event>
 5    1  0.9349318E-034  0.2000627E+01  0.7818608E-02  0.3998304E+00
         11   -1    0    0    0    0  0.00000000000E+00  0.00000000000E+00  0.39999999650E+01  0.39999999976E+01  0.51100000000E-03 0. -1.
         -4   -1    0    0    0  501 -0.00000000000E+00 -0.00000000000E+00  0.23632565000E+00  0.14395311087E+01  0.14200000000E+01 0.  1.
         11    1    1    2    0    0 -0.70101273362E+00  0.88752245592E+00  0.13307584714E+01  0.17464344628E+01  0.51100000000E-03 0. -1.
         22    1    1    2    0    0 -0.17379921005E+00  0.21738092013E+00  0.32615658761E+00  0.42876421200E+00  0.00000000000E+00 0. -1.
         -4    1    1    2    0  501  0.87481194367E+00 -0.11049033760E+01  0.25794105560E+01  0.32643324315E+01  0.14200000000E+01 0. -1.
<mgrwt>
<rscale>  0 0.20006268E+01</rscale>
<asrwt>0</asrwt>
<pdfrwt beam="1">  1       11 0.10000000E+01 0.14092990E+01</pdfrwt>
<pdfrwt beam="2">  1       -4 0.99906613E+00 0.20006268E+01</pdfrwt>
<totfact> 0.24134925E-10</totfact>
</mgrwt>
</event>
<event>
 5    1  0.9349318E-034  0.2000160E+01  0.7818608E-02  0.3998896E+00
         11   -1    0    0    0    0  0.00000000000E+00  0.00000000000E+00  0.39999999686E+01  0.40000000012E+01  0.51100000000E-03 0.  1.
         -4   -1    0    0    0  501 -0.00000000000E+00 -0.00000000000E+00  0.23946562373E+00  0.14400499245E+01  0.14200000000E+01 0. -1.
         11    1    1    2    0    0 -0.74406141300E+00  0.11063510239E+01  0.16817280392E+01  0.21461242819E+01  0.51100000000E-03 0.  1.
         22    1    1    2    0    0 -0.42012674012E-01  0.62548718435E-01  0.96998888048E-01  0.12282585737E+00  0.00000000000E+00 0.  1.
         -4    1    1    2    0  501  0.78607408701E+00 -0.11688997423E+01  0.24607386650E+01  0.31710997864E+01  0.14200000000E+01 0. -1.
<mgrwt>
<rscale>  0 0.20001598E+01</rscale>
<asrwt>0</asrwt>
<pdfrwt beam="1">  1       11 0.10000000E+01 0.14086395E+01</pdfrwt>
<pdfrwt beam="2">  1       -4 0.99726664E+00 0.20001598E+01</pdfrwt>
<totfact> 0.64708861E-10</totfact>
</mgrwt>
</event>
<event>
 5    1  0.9349318E-034  0.2000209E+01  0.7818608E-02  0.3998834E+00
         11   -1    0    0    0    0  0.00000000000E+00  0.00000000000E+00  0.39999999517E+01  0.39999999844E+01  0.51100000000E-03 0.  1.
          4   -1    0    0  501    0 -0.00000000000E+00 -0.00000000000E+00  0.23885213789E+00  0.14399480351E+01  0.14200000000E+01 0.  1.
         11    1    1    2    0    0  0.77600660213E+00  0.58145548270E-01  0.93971433593E+00  0.12200944413E+01  0.51100000000E-03 0.  1.
         22    1    1    2    0    0  0.62855546138E+00  0.49748023026E-01  0.75950278413E+00  0.98711767937E+00  0.00000000000E+00 0.  1.
          4    1    1    2  501    0 -0.14045620635E+01 -0.10789357130E+00  0.25396349696E+01  0.32327358988E+01  0.14200000000E+01 0.  1.
<mgrwt>
<rscale>  0 0.20002089E+01</rscale>
<asrwt>0</asrwt>
<pdfrwt beam="1">  1       11 0.10000000E+01 0.14087045E+01</pdfrwt>
<pdfrwt beam="2">  1        4 0.99761786E+00 0.20002089E+01</pdfrwt>
<totfact> 0.57366558E-10</totfact>
</mgrwt>
</event>
<event>
 5    1  0.9349318E-034  0.2000086E+01  0.7818608E-02  0.3998990E+00
         11   -1    0    0    0    0  0.00000000000E+00  0.00000000000E+00  0.39999999525E+01  0.39999999852E+01  0.51100000000E-03 0. -1.
          4   -1    0    0  501    0 -0.00000000000E+00 -0.00000000000E+00  0.23929303546E+00  0.14400212349E+01  0.14200000000E+01 0. -1.
         11    1    1    2    0    0 -0.10322667659E+01 -0.85973855329E+00  0.16333947552E+01  0.21148767679E+01  0.51100000000E-03 0. -1.
         22    1    1    2    0    0 -0.47100982011E-01 -0.45197664176E-01  0.78982350332E-01  0.10246727779E+00  0.00000000000E+00 0. -1.
          4    1    1    2  501    0  0.10793677479E+01  0.90493621746E+00  0.25269158824E+01  0.32226771743E+01  0.14200000000E+01 0. -1.
<mgrwt>
<rscale>  0 0.20000861E+01</rscale>
<asrwt>0</asrwt>
<pdfrwt beam="1">  1       11 0.10000000E+01 0.14086807E+01</pdfrwt>
<pdfrwt beam="2">  1        4 0.99736543E+00 0.20000861E+01</pdfrwt>
<totfact> 0.62664652E-10</totfact>
</mgrwt>
</event>
<event>
 5    1  0.9349318E-034  0.2001538E+01  0.7818608E-02  0.3997150E+00
         11   -1    0    0    0    0  0.00000000000E+00  0.00000000000E+00  0.39999999516E+01  0.39999999843E+01  0.51100000000E-03 0. -1.
          4   -1    0    0  501    0 -0.00000000000E+00 -0.00000000000E+00  0.23623921728E+00  0.14395169217E+01  0.14200000000E+01 0. -1.
         11    1    1    2    0    0 -0.14753612650E+00 -0.40023164908E-02  0.18205852323E+00  0.23436828745E+00  0.51100000000E-03 0. -1.
         22    1    1    2    0    0 -0.12624427215E+01 -0.37379180871E-01  0.15658130960E+01  0.20116981582E+01  0.00000000000E+00 0. -1.
          4    1    1    2  501    0  0.14099788480E+01  0.41381497362E-01  0.24883675497E+01  0.31934504603E+01  0.14200000000E+01 0. -1.
<mgrwt>
<rscale>  0 0.20015376E+01</rscale>
<asrwt>0</asrwt>
<pdfrwt beam="1">  1       11 0.10000000E+01 0.14105890E+01</pdfrwt>
<pdfrwt beam="2">  1        4 0.99911572E+00 0.20015376E+01</pdfrwt>
<totfact> 0.22933091E-10</totfact>
</mgrwt>
</event>
<event>
 5    1  0.9349318E-034  0.2000057E+01  0.7818608E-02  0.3999027E+00
         11   -1    0    0    0    0  0.00000000000E+00  0.00000000000E+00  0.39999999595E+01  0.39999999921E+01  0.51100000000E-03 0.  1.
          4   -1    0    0  501    0 -0.00000000000E+00 -0.00000000000E+00  0.23964205755E+00  0.14400792741E+01  0.14200000000E+01 0.  1.
         11    1    1    2    0    0 -0.37966321804E+00 -0.13360439180E+01  0.16964757578E+01  0.21925299925E+01  0.51100000000E-03 0.  1.
         22    1    1    2    0    0 -0.54676095997E-02 -0.18762960705E-01  0.23092007134E-01  0.30252012208E-01  0.00000000000E+00 0.  1.
          4    1    1    2  501    0  0.38513082764E+00  0.13548068787E+01  0.25200742521E+01  0.32172972616E+01  0.14200000000E+01 0.  1.
<mgrwt>
<rscale>  0 0.20000569E+01</rscale>
<asrwt>0</asrwt>
<pdfrwt beam="1">  1       11 0.10000000E+01 0.14084916E+01</pdfrwt>
<pdfrwt beam="2">  1        4 0.99716567E+00 0.20000569E+01</pdfrwt>
<totfact> 0.66763673E-10</totfact>
</mgrwt>
</event>
<event>
 5    1  0.9349318E-034  0.2000542E+01  0.7818608E-02  0.3998411E+00
         11   -1    0    0    0    0  0.00000000000E+00  0.00000000000E+00  0.39999999658E+01  0.39999999985E+01  0.51100000000E-03 0. -1.
          4   -1    0    0  501    0 -0.00000000000E+00 -0.00000000000E+00  0.23713569168E+00  0.14396643137E+01  0.14200000000E+01 0. -1.
         11    1    1    2    0    0 -0.26708799958E+00  0.12418058319E+01  0.15532061017E+01  0.20064563736E+01  0.51100000000E-03 0. -1.
         22    1    1    2    0    0 -0.31344201466E-01  0.13540448187E+00  0.14552474673E+00  0.20123191742E+00  0.00000000000E+00 0. -1.
          4    1    1    2  501    0  0.29843220105E+00 -0.13772103138E+01  0.25384048091E+01  0.32319760212E+01  0.14200000000E+01 0. -1.
<mgrwt>
<rscale>  0 0.20005424E+01</rscale>
<asrwt>0</asrwt>
<pdfrwt beam="1">  1       11 0.10000000E+01 0.14100366E+01</pdfrwt>
<pdfrwt beam="2">  1        4 0.99860146E+00 0.20005424E+01</pdfrwt>
<totfact> 0.35337251E-10</totfact>
</mgrwt>
</event>
<event>
 5    1  0.9349318E-034  0.2000916E+01  0.7818608E-02  0.3997937E+00
         11   -1    0    0    0    0  0.00000000000E+00  0.00000000000E+00  0.39999999597E+01  0.39999999923E+01  0.51100000000E-03 0. -1.
         -4   -1    0    0    0  501 -0.00000000000E+00 -0.00000000000E+00  0.23777665743E+00  0.14397700298E+01  0.14200000000E+01 0.  1.
         11    1    1    2    0    0 -0.59116307954E+00 -0.77082543958E+00  0.12069915038E+01  0.15493464417E+01  0.51100000000E-03 0. -1.
         22    1    1    2    0    0 -0.26781976226E+00 -0.34694703584E+00  0.54426101383E+00  0.69879877068E+00  0.00000000000E+00 0.  1.
         -4    1    1    2    0  501  0.85898284180E+00  0.11177724754E+01  0.24865240994E+01  0.31916248098E+01  0.14200000000E+01 0.  1.
<mgrwt>
<rscale>  0 0.20009165E+01</rscale>
<asrwt>0</asrwt>
<pdfrwt beam="1">  1       11 0.10000000E+01 0.14097069E+01</pdfrwt>
<pdfrwt beam="2">  1       -4 0.99823400E+00 0.20009165E+01</pdfrwt>
<totfact> 0.43854331E-10</totfact>
</mgrwt>
</event>
<event>
 5    1  0.9349318E-034  0.2000169E+01  0.7818608E-02  0.3998885E+00
         11   -1    0    0    0    0  0.00000000000E+00  0.00000000000E+00  0.39999999506E+01  0.39999999833E+01  0.51100000000E-03 0. -1.
          4   -1    0    0  501    0 -0.00000000000E+00 -0.00000000000E+00  0.23750562204E+00  0.14397252934E+01  0.14200000000E+01 0. -1.
         11    1    1    2    0    0  0.72110920409E+00  0.11526977334E+01  0.17503740857E+01  0.22164205941E+01  0.51100000000E-03 0. -1.
         22    1    1    2    0    0  0.20183703744E-01  0.45117290467E-01  0.74150433275E-01  0.89113627189E-01  0.00000000000E+00 0. -1.
          4    1    1    2  501    0 -0.74129290783E+00 -0.11978150238E+01  0.24129810537E+01  0.31341910554E+01  0.14200000000E+01 0. -1.
<mgrwt>
<rscale>  0 0.20001690E+01</rscale>
<asrwt>0</asrwt>
<pdfrwt beam="1">  1       11 0.10000000E+01 0.14094674E+01</pdfrwt>
<pdfrwt beam="2">  1        4 0.99838936E+00 0.20001690E+01</pdfrwt>
<totfact> 0.40263180E-10</totfact>
</mgrwt>
</event>
<event>
 5    1  0.9349318E-034  0.2000176E+01  0.7818608E-02  0.3998876E+00
         11   -1    0    0    0    0  0.00000000000E+00  0.00000000000E+00  0.39999999618E+01  0.39999999945E+01  0.51100000000E-03 0. -1.
          4   -1    0    0  501    0 -0.00000000000E+00 -0.00000000000E+00  0.23928985445E+00  0.14400207063E+01  0.14200000000E+01 0. -1.
         11    1    1    2    0    0 -0.10979533727E+01  0.80240529664E+00  0.17229323965E+01  0.21949606312E+01  0.51100000000E-03 0. -1.
         22    1    1    2    0    0 -0.38780265219E-01  0.29543772172E-01  0.63812172183E-01  0.80304027068E-01  0.00000000000E+00 0. -1.
          4    1    1    2  501    0  0.11367336379E+01 -0.83194906882E+00  0.24525452476E+01  0.31647560424E+01  0.14200000000E+01 0. -1.
<mgrwt>
<rscale>  0 0.20001756E+01</rscale>
<asrwt>0</asrwt>
<pdfrwt beam="1">  1       11 0.10000000E+01 0.14086778E+01</pdfrwt>
<pdfrwt beam="2">  1        4 0.99736725E+00 0.20001756E+01</pdfrwt>
<totfact> 0.62633200E-10</totfact>
</mgrwt>
</event>
<event>
 5    1  0.9349318E-034  0.2001124E+01  0.7818608E-02  0.3997674E+00
         11   -1    0    0    0    0  0.00000000000E+00  0.00000000000E+00  0.39999999562E+01  0.39999999888E+01  0.51100000000E-03 0.  1.
          4   -1    0    0  501    0 -0.00000000000E+00 -0.00000000000E+00  0.23704086136E+00  0.14396486967E+01  0.14200000000E+01 0.  1.
         11    1    1    2    0    0 -0.54938105888E+00  0.10112395231E+01  0.14192100696E+01  0.18271788100E+01  0.51100000000E-03 0.  1.
         22    1    1    2    0    0 -0.11406698380E+00  0.23292065418E+00  0.32542648630E+00  0.41613183719E+00  0.00000000000E+00 0. -1.
          4    1    1    2  501    0  0.66344804268E+00 -0.12441601772E+01  0.24924042616E+01  0.31963380383E+01  0.14200000000E+01 0.  1.
<mgrwt>
<rscale>  0 0.20011241E+01</rscale>
<asrwt>0</asrwt>
<pdfrwt beam="1">  1       11 0.10000000E+01 0.14102085E+01</pdfrwt>
<pdfrwt beam="2">  1        4 0.99865584E+00 0.20011241E+01</pdfrwt>
<totfact> 0.34076197E-10</totfact>
</mgrwt>
</event>
<event>
 5    1  0.9349318E-034  0.2001039E+01  0.7818608E-02  0.3997782E+00
         11   -1    0    0    0    0  0.00000000000E+00  0.00000000000E+00  0.39999999526E+01  0.39999999852E+01  0.51100000000E-03 0. -1.
         -4   -1    0    0    0  501 -0.00000000000E+00 -0.00000000000E+00  0.23708414766E+00  0.14396558245E+01  0.14200000000E+01 0. -1.
         11    1    1    2    0    0  0.86901995799E+00  0.11309063051E-01  0.11037856433E+01  0.14048724461E+01  0.51100000000E-03 0. -1.
         22    1    1    2    0    0  0.54075554470E+00  0.57379839935E-02  0.68774638501E+00  0.87489689317E+00  0.00000000000E+00 0. -1.
         -4    1    1    2    0  501 -0.14097755027E+01 -0.17047047045E-01  0.24455520720E+01  0.31598864705E+01  0.14200000000E+01 0. -1.
<mgrwt>
<rscale>  0 0.20010391E+01</rscale>
<asrwt>0</asrwt>
<pdfrwt beam="1">  1       11 0.10000000E+01 0.14098799E+01</pdfrwt>
<pdfrwt beam="2">  1       -4 0.99863102E+00 0.20010391E+01</pdfrwt>
<totfact> 0.34660362E-10</totfact>
</mgrwt>
</event>
<event>
 5    1  0.9349318E-034  0.2000959E+01  0.7818608E-02  0.3997884E+00
         11   -1    0    0    0    0  0.00000000000E+00  0.00000000000E+00  0.39999999647E+01  0.39999999973E+01  0.51100000000E-03 0.  1.
         -4   -1    0    0    0  501 -0.00000000000E+00 -0.00000000000E+00  0.23592425633E+00  0.14394652669E+01  0.14200000000E+01 0. -1.
         11    1    1    2    0    0 -0.10589958587E+01  0.69346824186E+00  0.15491404190E+01  0.20005516064E+01  0.51100000000E-03 0.  1.
         22    1    1    2    0    0 -0.12681803164E+00  0.68949501262E-01  0.15369181847E+00  0.21085071007E+00  0.00000000000E+00 0. -1.
         -4    1    1    2    0  501  0.11858138903E+01 -0.76241774312E+00  0.25330919836E+01  0.32280629478E+01  0.14200000000E+01 0. -1.
<mgrwt>
<rscale>  0 0.20009586E+01</rscale>
<asrwt>0</asrwt>
<pdfrwt beam="1">  1       11 0.10000000E+01 0.14109091E+01</pdfrwt>
<pdfrwt beam="2">  1       -4 0.99929649E+00 0.20009586E+01</pdfrwt>
<totfact> 0.18392093E-10</totfact>
</mgrwt>
</event>
<event>
 5    1  0.9349318E-034  0.2000110E+01  0.7818608E-02  0.3998960E+00
         11   -1    0    0    0    0  0.00000000000E+00  0.00000000000E+00  0.39999999513E+01  0.39999999839E+01  0.51100000000E-03 0. -1.
         -4   -1    0    0    0  501 -0.00000000000E+00 -0.00000000000E+00  0.23932356799E+00  0.14400263089E+01  0.14200000000E+01 0.  1.
         11    1    1    2    0    0  0.12980959811E+01  0.47192860401E+00  0.16753585022E+01  0.21713120815E+01  0.51100000000E-03 0. -1.
         22    1    1    2    0    0  0.25887349277E-01  0.88066098554E-02  0.34095835720E-01  0.43706260915E-01  0.00000000000E+00 0. -1.
         -4    1    1    2    0  501 -0.13239833304E+01 -0.48073521386E+00  0.25298691813E+01  0.32250079503E+01  0.14200000000E+01 0.  1.
<mgrwt>
<rscale>  0 0.20001095E+01</rscale>
<asrwt>0</asrwt>
<pdfrwt beam="1">  1       11 0.10000000E+01 0.14085717E+01</pdfrwt>
<pdfrwt beam="2">  1       -4 0.99734795E+00 0.20001095E+01</pdfrwt>
<totfact> 0.63028588E-10</totfact>
</mgrwt>
</event>
<event>
 5    1  0.9349318E-034  0.2000692E+01  0.7818608E-02  0.3998222E+00
         11   -1    0    0    0    0  0.00000000000E+00  0.00000000000E+00  0.39999999558E+01  0.39999999884E+01  0.51100000000E-03 0.  1.
         -4   -1    0    0    0  501 -0.00000000000E+00 -0.00000000000E+00  0.23797286378E+00  0.14398024461E+01  0.14200000000E+01 0.  1.
         11    1    1    2    0    0  0.12576015094E+01  0.53353314029E+00  0.17229924042E+01  0.21988456641E+01  0.51100000000E-03 0.  1.
         22    1    1    2    0    0  0.38971611688E-01  0.18976682574E-01  0.47989409231E-01  0.64667491040E-01  0.00000000000E+00 0. -1.
         -4    1    1    2    0  501 -0.12965731211E+01 -0.55250982287E+00  0.24669910061E+01  0.31762892795E+01  0.14200000000E+01 0.  1.
<mgrwt>
<rscale>  0 0.20006921E+01</rscale>
<asrwt>0</asrwt>
<pdfrwt beam="1">  1       11 0.10000000E+01 0.14096507E+01</pdfrwt>
<pdfrwt beam="2">  1       -4 0.99812156E+00 0.20006921E+01</pdfrwt>
<totfact> 0.46380993E-10</totfact>
</mgrwt>
</event>
<event>
 5    1  0.9349318E-034  0.2000418E+01  0.7818608E-02  0.3998569E+00
         11   -1    0    0    0    0  0.00000000000E+00  0.00000000000E+00  0.39999999600E+01  0.39999999927E+01  0.51100000000E-03 0. -1.
          4   -1    0    0  501    0 -0.00000000000E+00 -0.00000000000E+00  0.23896701477E+00  0.14399670948E+01  0.14200000000E+01 0. -1.
         11    1    1    2    0    0  0.13323571831E+01 -0.21490018359E+00  0.16840997668E+01  0.21581357784E+01  0.51100000000E-03 0. -1.
         22    1    1    2    0    0  0.58538055513E-01 -0.10227988882E-01  0.76630779118E-01  0.96972119746E-01  0.00000000000E+00 0.  1.
          4    1    1    2  501    0 -0.13908952386E+01  0.22512817248E+00  0.24782364289E+01  0.31848591894E+01  0.14200000000E+01 0. -1.
<mgrwt>
<rscale>  0 0.20004180E+01</rscale>
<asrwt>0</asrwt>
<pdfrwt beam="1">  1       11 0.10000000E+01 0.14090208E+01</pdfrwt>
<pdfrwt beam="2">  1        4 0.99755208E+00 0.20004180E+01</pdfrwt>
<totfact> 0.58776888E-10</totfact>
</mgrwt>
</event>
<event>
 5    1  0.9349318E-034  0.2001106E+01  0.7818608E-02  0.3997697E+00
         11   -1    0    0    0    0  0.00000000000E+00  0.00000000000E+00  0.39999999615E+01  0.39999999941E+01  0.51100000000E-03 0.  1.
         -4   -1    0    0    0  501 -0.00000000000E+00 -0.00000000000E+00  0.23651457945E+00  0.14395621370E+01  0.14200000000E+01 0.  1.
         11    1    1    2    0    0 -0.50538812652E+00 -0.12536905652E+01  0.16241251973E+01  0.21130404893E+01  0.51100000000E-03 0.  1.
         22    1    1    2    0    0 -0.21197437487E-01 -0.54260010056E-01  0.70127538976E-01  0.91166615436E-01  0.00000000000E+00 0.  1.
         -4    1    1    2    0  501  0.52658556401E+00  0.13079505753E+01  0.25422618047E+01  0.32353550264E+01  0.14200000000E+01 0. -1.
<mgrwt>
<rscale>  0 0.20011065E+01</rscale>
<asrwt>0</asrwt>
<pdfrwt beam="1">  1       11 0.10000000E+01 0.14099782E+01</pdfrwt>
<pdfrwt beam="2">  1       -4 0.99895772E+00 0.20011065E+01</pdfrwt>
<totfact> 0.26811202E-10</totfact>
</mgrwt>
</event>
<event>
 5    1  0.9349318E-034  0.2001895E+01  0.7818608E-02  0.3996698E+00
         11   -1    0    0    0    0  0.00000000000E+00  0.00000000000E+00  0.39999999655E+01  0.39999999981E+01  0.51100000000E-03 0. -1.
         -4   -1    0    0    0  501 -0.00000000000E+00 -0.00000000000E+00  0.23522917796E+00  0.14393515089E+01  0.14200000000E+01 0. -1.
         11    1    1    2    0    0 -0.81938057089E+00  0.10609295936E+01  0.16410730327E+01  0.21189801987E+01  0.51100000000E-03 0. -1.
         22    1    1    2    0    0 -0.43765027487E-01  0.55387333586E-01  0.87068182779E-01  0.11208926267E+00  0.00000000000E+00 0. -1.
         -4    1    1    2    0  501  0.86314559838E+00 -0.11163169272E+01  0.25070879279E+01  0.32082820456E+01  0.14200000000E+01 0. -1.
<mgrwt>
<rscale>  0 0.20018951E+01</rscale>
<asrwt>0</asrwt>
<pdfrwt beam="1">  1       11 0.10000000E+01 0.14110992E+01</pdfrwt>
<pdfrwt beam="2">  1       -4 0.99969558E+00 0.20018951E+01</pdfrwt>
<totfact> 0.81224039E-11</totfact>
</mgrwt>
</event>
<event>
 5    1  0.9349318E-034  0.2000952E+01  0.7818608E-02  0.3997892E+00
         11   -1    0    0    0    0  0.00000000000E+00  0.00000000000E+00  0.39999999579E+01  0.39999999905E+01  0.51100000000E-03 0.  1.
         -4   -1    0    0    0  501 -0.00000000000E+00 -0.00000000000E+00  0.23700844635E+00  0.14396433599E+01  0.14200000000E+01 0.  1.
         11    1    1    2    0    0  0.65545018034E+00 -0.12357781738E+01  0.16852635469E+01  0.21901771886E+01  0.51100000000E-03 0.  1.
         22    1    1    2    0    0  0.48328264251E-02 -0.97887041846E-02  0.13453536051E-01  0.17325489117E-01  0.00000000000E+00 0. -1.
         -4    1    1    2    0  501 -0.66028300677E+00  0.12455668780E+01  0.25382913213E+01  0.32321406727E+01  0.14200000000E+01 0.  1.
<mgrwt>
<rscale>  0 0.20009524E+01</rscale>
<asrwt>0</asrwt>
<pdfrwt beam="1">  1       11 0.10000000E+01 0.14097625E+01</pdfrwt>
<pdfrwt beam="2">  1       -4 0.99867443E+00 0.20009524E+01</pdfrwt>
<totfact> 0.33628307E-10</totfact>
</mgrwt>
</event>
<event>
 5    1  0.9349318E-034  0.2000294E+01  0.7818608E-02  0.3998727E+00
         11   -1    0    0    0    0  0.00000000000E+00  0.00000000000E+00  0.39999999646E+01  0.39999999973E+01  0.51100000000E-03 0.  1.
          4   -1    0    0  501    0 -0.00000000000E+00 -0.00000000000E+00  0.23840737920E+00  0.14398743273E+01  0.14200000000E+01 0.  1.
         11    1    1    2    0    0  0.13173753644E+00 -0.12683649609E+01  0.15299439521E+01  0.19916910428E+01  0.51100000000E-03 0.  1.
         22    1    1    2    0    0  0.14393005733E-01 -0.13285610298E+00  0.16057984790E+00  0.20891096253E+00  0.00000000000E+00 0.  1.
          4    1    1    2  501    0 -0.14613054217E+00  0.14012210638E+01  0.25478835439E+01  0.32392723192E+01  0.14200000000E+01 0.  1.
<mgrwt>
<rscale>  0 0.20002936E+01</rscale>
<asrwt>0</asrwt>
<pdfrwt beam="1">  1       11 0.10000000E+01 0.14088224E+01</pdfrwt>
<pdfrwt beam="2">  1        4 0.99787260E+00 0.20002936E+01</pdfrwt>
<totfact> 0.51873851E-10</totfact>
</mgrwt>
</event>
<event>
 5    1  0.9349318E-034  0.2000399E+01  0.7818608E-02  0.3998593E+00
         11   -1    0    0    0    0  0.00000000000E+00  0.00000000000E+00  0.39999999682E+01  0.40000000009E+01  0.51100000000E-03 0. -1.
          4   -1    0    0  501    0 -0.00000000000E+00 -0.00000000000E+00  0.23659676777E+00  0.14395756425E+01  0.14200000000E+01 0. -1.
         11    1    1    2    0    0  0.47158713031E+00  0.10176278224E+01  0.13173959306E+01  0.17301714092E+01  0.51100000000E-03 0. -1.
         22    1    1    2    0    0  0.10665335928E+00  0.26722006883E+00  0.34088213250E+00  0.44607413340E+00  0.00000000000E+00 0. -1.
          4    1    1    2  501    0 -0.57824048959E+00 -0.12848478912E+01  0.25783186729E+01  0.32633301007E+01  0.14200000000E+01 0. -1.
<mgrwt>
<rscale>  0 0.20003990E+01</rscale>
<asrwt>0</asrwt>
<pdfrwt beam="1">  1       11 0.10000000E+01 0.14093121E+01</pdfrwt>
<pdfrwt beam="2">  1        4 0.99891057E+00 0.20003990E+01</pdfrwt>
<totfact> 0.27936649E-10</totfact>
</mgrwt>
</event>
<event>
 5    1  0.9349318E-034  0.2001378E+01  0.7818608E-02  0.3997353E+00
         11   -1    0    0    0    0  0.00000000000E+00  0.00000000000E+00  0.39999999526E+01  0.39999999853E+01  0.51100000000E-03 0. -1.
          4   -1    0    0  501    0 -0.00000000000E+00 -0.00000000000E+00  0.23635851416E+00  0.14395365043E+01  0.14200000000E+01 0. -1.
         11    1    1    2    0    0  0.13489396331E+01  0.37039638916E+00  0.17034230137E+01  0.22041964168E+01  0.51100000000E-03 0. -1.
         22    1    1    2    0    0  0.11130500072E-01  0.28634816915E-02  0.14010711174E-01  0.18121467569E-01  0.00000000000E+00 0.  1.
          4    1    1    2  501    0 -0.13600701332E+01 -0.37325987085E+00  0.25189247419E+01  0.32172186052E+01  0.14200000000E+01 0. -1.
<mgrwt>
<rscale>  0 0.20013779E+01</rscale>
<asrwt>0</asrwt>
<pdfrwt beam="1">  1       11 0.10000000E+01 0.14103617E+01</pdfrwt>
<pdfrwt beam="2">  1        4 0.99904727E+00 0.20013779E+01</pdfrwt>
<totfact> 0.24622125E-10</totfact>
</mgrwt>
</event>
<event>
 5    1  0.9349318E-034  0.2000513E+01  0.7818608E-02  0.3998449E+00
         11   -1    0    0    0    0  0.00000000000E+00  0.00000000000E+00  0.39999999535E+01  0.39999999862E+01  0.51100000000E-03 0.  1.
          4   -1    0    0  501    0 -0.00000000000E+00 -0.00000000000E+00  0.23837949939E+00  0.14398697114E+01  0.14200000000E+01 0.  1.
         11    1    1    2    0    0 -0.10682136571E+01 -0.89514229270E+00  0.17263068636E+01  0.22186698244E+01  0.51100000000E-03 0.  1.
         22    1    1    2    0    0 -0.12254262004E-01 -0.94235748393E-02  0.25105346424E-01  0.29483031037E-01  0.00000000000E+00 0.  1.
          4    1    1    2  501    0  0.10804679191E+01  0.90456586754E+00  0.24869672429E+01  0.31917168421E+01  0.14200000000E+01 0.  1.
<mgrwt>
<rscale>  0 0.20005125E+01</rscale>
<asrwt>0</asrwt>
<pdfrwt beam="1">  1       11 0.10000000E+01 0.14095207E+01</pdfrwt>
<pdfrwt beam="2">  1        4 0.99788857E+00 0.20005125E+01</pdfrwt>
<totfact> 0.51537389E-10</totfact>
</mgrwt>
</event>
<event>
 5    1  0.9349318E-034  0.2000048E+01  0.7818608E-02  0.3999038E+00
         11   -1    0    0    0    0  0.00000000000E+00  0.00000000000E+00  0.39999999577E+01  0.39999999903E+01  0.51100000000E-03 0. -1.
         -4   -1    0    0    0  501 -0.00000000000E+00 -0.00000000000E+00  0.23772829256E+00  0.14397620432E+01  0.14200000000E+01 0.  1.
         11    1    1    2    0    0  0.19206436718E+00  0.13002485841E+01  0.17221714613E+01  0.21664279136E+01  0.51100000000E-03 0. -1.
         22    1    1    2    0    0  0.70451768555E-02  0.94078003803E-01  0.11822336193E+00  0.15125167313E+00  0.00000000000E+00 0. -1.
         -4    1    1    2    0  501 -0.19910954403E+00 -0.13943265879E+01  0.23973334270E+01  0.31220824468E+01  0.14200000000E+01 0.  1.
<mgrwt>
<rscale>  0 0.20000478E+01</rscale>
<asrwt>0</asrwt>
<pdfrwt beam="1">  1       11 0.10000000E+01 0.14087532E+01</pdfrwt>
<pdfrwt beam="2">  1       -4 0.99826172E+00 0.20000478E+01</pdfrwt>
<totfact> 0.43180037E-10</totfact>
</mgrwt>
</event>
<event>
 5    1  0.9349318E-034  0.2000447E+01  0.7818608E-02  0.3998532E+00
         11   -1    0    0    0    0  0.00000000000E+00  0.00000000000E+00  0.39999999468E+01  0.39999999795E+01  0.51100000000E-03 0. -1.
         -4   -1    0    0    0  501 -0.00000000000E+00 -0.00000000000E+00  0.23628120737E+00  0.14395238133E+01  0.14200000000E+01 0. -1.
         11    1    1    2    0    0 -0.23947949923E+00 -0.13716372702E+01  0.16264049622E+01  0.21410120490E+01  0.51100000000E-03 0. -1.
         22    1    1    2    0    0 -0.27852073828E-02 -0.16417631883E-01  0.20664895802E-01  0.26539290407E-01  0.00000000000E+00 0. -1.
         -4    1    1    2    0  501  0.24226470661E+00  0.13880549021E+01  0.25892112962E+01  0.32719724533E+01  0.14200000000E+01 0. -1.
<mgrwt>
<rscale>  0 0.20004471E+01</rscale>
<asrwt>0</asrwt>
<pdfrwt beam="1">  1       11 0.10000000E+01 0.14090570E+01</pdfrwt>
<pdfrwt beam="2">  1       -4 0.99909163E+00 0.20004471E+01</pdfrwt>
<totfact> 0.23499785E-10</totfact>
</mgrwt>
</event>
<event>
 5    1  0.9349318E-034  0.2001207E+01  0.7818608E-02  0.3997570E+00
         11   -1    0    0    0    0  0.00000000000E+00  0.00000000000E+00  0.39999999556E+01  0.39999999882E+01  0.51100000000E-03 0. -1.
         -4   -1    0    0    0  501 -0.00000000000E+00 -0.00000000000E+00  0.23660105754E+00  0.14395763476E+01  0.14200000000E+01 0.  1.
         11    1    1    2    0    0  0.11981074926E+01  0.67462716606E+00  0.17427916152E+01  0.22198887928E+01  0.51100000000E-03 0. -1.
         22    1    1    2    0    0  0.29520780702E-01  0.19171461873E-01  0.47076047071E-01  0.58780742182E-01  0.00000000000E+00 0. -1.
         -4    1    1    2    0  501 -0.12276282733E+01 -0.69379862793E+00  0.24467333508E+01  0.31609068008E+01  0.14200000000E+01 0.  1.
<mgrwt>
<rscale>  0 0.20012066E+01</rscale>
<asrwt>0</asrwt>
<pdfrwt beam="1">  1       11 0.10000000E+01 0.14102158E+01</pdfrwt>
<pdfrwt beam="2">  1       -4 0.99890811E+00 0.20012066E+01</pdfrwt>
<totfact> 0.28023537E-10</totfact>
</mgrwt>
</event>
<event>
 5    1  0.1125682E-033  0.2001428E+01  0.7818608E-02  0.3997289E+00
         11   -1    0    0    0    0  0.00000000000E+00  0.00000000000E+00  0.39999999529E+01  0.39999999855E+01  0.51100000000E-03 0.  1.
         -4   -1    0    0    0  501 -0.00000000000E+00 -0.00000000000E+00  0.23637962664E+00  0.14395399709E+01  0.14200000000E+01 0.  1.
         11    1    1    2    0    0  0.87345064149E+00 -0.10887874354E+01  0.17331973434E+01  0.22253870214E+01  0.51100000000E-03 0.  1.
         22    1    1    2    0    0  0.80342661573E-02 -0.12257013944E-01  0.16071322425E-01  0.21750200643E-01  0.00000000000E+00 0. -1.
         -4    1    1    2    0  501 -0.88148490765E+00  0.11010444493E+01  0.24871109137E+01  0.31924027344E+01  0.14200000000E+01 0.  1.
<mgrwt>
<rscale>  0 0.20014281E+01</rscale>
<asrwt>0</asrwt>
<pdfrwt beam="1">  1       11 0.10000000E+01 0.14105626E+01</pdfrwt>
<pdfrwt beam="2">  1       -4 0.99903515E+00 0.20014281E+01</pdfrwt>
<totfact> 0.24922107E-10</totfact>
</mgrwt>
</event>
<event>
 5    1  0.9349318E-034  0.2000058E+01  0.7818608E-02  0.3999026E+00
         11   -1    0    0    0    0  0.00000000000E+00  0.00000000000E+00  0.39999999533E+01  0.39999999859E+01  0.51100000000E-03 0.  1.
         -4   -1    0    0    0  501 -0.00000000000E+00 -0.00000000000E+00  0.23977650430E+00  0.14401016534E+01  0.14200000000E+01 0.  1.
         11    1    1    2    0    0  0.10125631165E+01 -0.86451765395E+00  0.16778851723E+01  0.21419555904E+01  0.51100000000E-03 0.  1.
         22    1    1    2    0    0  0.58883815573E-01 -0.49720588267E-01  0.96731952389E-01  0.12367906552E+00  0.00000000000E+00 0. -1.
         -4    1    1    2    0  501 -0.10714469321E+01  0.91423824222E+00  0.24651593329E+01  0.31744669833E+01  0.14200000000E+01 0.  1.
<mgrwt>
<rscale>  0 0.20000575E+01</rscale>
<asrwt>0</asrwt>
<pdfrwt beam="1">  1       11 0.10000000E+01 0.14084866E+01</pdfrwt>
<pdfrwt beam="2">  1       -4 0.99708873E+00 0.20000575E+01</pdfrwt>
<totfact> 0.68320483E-10</totfact>
</mgrwt>
</event>
<event>
 5    1  0.9349318E-034  0.2000291E+01  0.7818608E-02  0.3998731E+00
         11   -1    0    0    0    0  0.00000000000E+00  0.00000000000E+00  0.39999999613E+01  0.39999999940E+01  0.51100000000E-03 0. -1.
          4   -1    0    0  501    0 -0.00000000000E+00 -0.00000000000E+00  0.23916036963E+00  0.14399991953E+01  0.14200000000E+01 0. -1.
         11    1    1    2    0    0 -0.43686868087E+00 -0.65010662999E-01  0.55734025032E+00  0.71113222847E+00  0.51100000000E-03 0. -1.
         22    1    1    2    0    0 -0.95603041949E+00 -0.14616384898E+00  0.12204057213E+01  0.15571602867E+01  0.00000000000E+00 0. -1.
          4    1    1    2  501    0  0.13928991004E+01  0.21117451198E+00  0.24614143593E+01  0.31717066741E+01  0.14200000000E+01 0. -1.
<mgrwt>
<rscale>  0 0.20002906E+01</rscale>
<asrwt>0</asrwt>
<pdfrwt beam="1">  1       11 0.10000000E+01 0.14088187E+01</pdfrwt>
<pdfrwt beam="2">  1        4 0.99744138E+00 0.20002906E+01</pdfrwt>
<totfact> 0.61097033E-10</totfact>
</mgrwt>
</event>
<event>
 5    1  0.9349318E-034  0.2000460E+01  0.7818608E-02  0.3998516E+00
         11   -1    0    0    0    0  0.00000000000E+00  0.00000000000E+00  0.39999999495E+01  0.39999999821E+01  0.51100000000E-03 0.  1.
          4   -1    0    0  501    0 -0.00000000000E+00 -0.00000000000E+00  0.23742017499E+00  0.14397112000E+01  0.14200000000E+01 0. -1.
         11    1    1    2    0    0  0.13508858994E+00  0.13277563175E+01  0.17195713729E+01  0.21767204078E+01  0.51100000000E-03 0.  1.
         22    1    1    2    0    0 -0.11269929504E-02  0.74917595513E-01  0.96230255265E-01  0.12195974032E+00  0.00000000000E+00 0.  1.
          4    1    1    2  501    0 -0.13396159699E+00 -0.14026739130E+01  0.24216184963E+01  0.31410310341E+01  0.14200000000E+01 0. -1.
<mgrwt>
<rscale>  0 0.20004599E+01</rscale>
<asrwt>0</asrwt>
<pdfrwt beam="1">  1       11 0.10000000E+01 0.14095371E+01</pdfrwt>
<pdfrwt beam="2">  1        4 0.99843835E+00 0.20004599E+01</pdfrwt>
<totfact> 0.39144719E-10</totfact>
</mgrwt>
</event>
<event>
 5    1  0.9349318E-034  0.2000221E+01  0.7818608E-02  0.3998819E+00
         11   -1    0    0    0    0  0.00000000000E+00  0.00000000000E+00  0.39999999537E+01  0.39999999864E+01  0.51100000000E-03 0.  1.
          4   -1    0    0  501    0 -0.00000000000E+00 -0.00000000000E+00  0.23849760991E+00  0.14398892700E+01  0.14200000000E+01 0. -1.
         11    1    1    2    0    0 -0.70797296265E+00  0.11026338176E+01  0.15997358399E+01  0.20678931477E+01  0.51100000000E-03 0.  1.
         22    1    1    2    0    0 -0.42949400317E-01  0.89255418360E-01  0.11823427101E+00  0.15424176975E+00  0.00000000000E+00 0.  1.
          4    1    1    2  501    0  0.75092236297E+00 -0.11918892360E+01  0.25205274527E+01  0.32177543389E+01  0.14200000000E+01 0. -1.
<mgrwt>
<rscale>  0 0.20002211E+01</rscale>
<asrwt>0</asrwt>
<pdfrwt beam="1">  1       11 0.10000000E+01 0.14094198E+01</pdfrwt>
<pdfrwt beam="2">  1        4 0.99782091E+00 0.20002211E+01</pdfrwt>
<totfact> 0.52996787E-10</totfact>
</mgrwt>
</event>
<event>
 5    1  0.9349318E-034  0.2000513E+01  0.7818608E-02  0.3998449E+00
         11   -1    0    0    0    0  0.00000000000E+00  0.00000000000E+00  0.39999999598E+01  0.39999999924E+01  0.51100000000E-03 0.  1.
          4   -1    0    0  501    0 -0.00000000000E+00 -0.00000000000E+00  0.23872855228E+00  0.14399275404E+01  0.14200000000E+01 0. -1.
         11    1    1    2    0    0 -0.78487687907E+00 -0.11365751564E+01  0.17221063272E+01  0.22075971700E+01  0.51100000000E-03 0.  1.
         22    1    1    2    0    0 -0.16646879600E-01 -0.22394259334E-01  0.36501467306E-01  0.45945386788E-01  0.00000000000E+00 0. -1.
          4    1    1    2  501    0  0.80152375867E+00  0.11589694157E+01  0.24801207175E+01  0.31863849761E+01  0.14200000000E+01 0.  1.
<mgrwt>
<rscale>  0 0.20005125E+01</rscale>
<asrwt>0</asrwt>
<pdfrwt beam="1">  1       11 0.10000000E+01 0.14091674E+01</pdfrwt>
<pdfrwt beam="2">  1        4 0.99768864E+00 0.20005125E+01</pdfrwt>
<totfact> 0.55873012E-10</totfact>
</mgrwt>
</event>
<event>
 5    1  0.9349318E-034  0.2001601E+01  0.7818608E-02  0.3997070E+00
         11   -1    0    0    0    0  0.00000000000E+00  0.00000000000E+00  0.39999999643E+01  0.39999999970E+01  0.51100000000E-03 0. -1.
         -4   -1    0    0    0  501 -0.00000000000E+00 -0.00000000000E+00  0.23597073651E+00  0.14394728856E+01  0.14200000000E+01 0.  1.
         11    1    1    2    0    0  0.13171358912E+01 -0.42791079885E+00  0.17243246168E+01  0.22116171127E+01  0.51100000000E-03 0. -1.
         22    1    1    2    0    0  0.24018330556E-01 -0.94805682769E-02  0.29267898607E-01  0.39030389012E-01  0.00000000000E+00 0. -1.
         -4    1    1    2    0  501 -0.13411542218E+01  0.43739136712E+00  0.24823781854E+01  0.31888253809E+01  0.14200000000E+01 0.  1.
<mgrwt>
<rscale>  0 0.20016008E+01</rscale>
<asrwt>0</asrwt>
<pdfrwt beam="1">  1       11 0.10000000E+01 0.14107897E+01</pdfrwt>
<pdfrwt beam="2">  1       -4 0.99926981E+00 0.20016008E+01</pdfrwt>
<totfact> 0.19079819E-10</totfact>
</mgrwt>
</event>
<event>
 5    1  0.9349318E-034  0.2000084E+01  0.7818608E-02  0.3998993E+00
         11   -1    0    0    0    0  0.00000000000E+00  0.00000000000E+00  0.39999999656E+01  0.39999999982E+01  0.51100000000E-03 0.  1.
          4   -1    0    0  501    0 -0.00000000000E+00 -0.00000000000E+00  0.23717717407E+00  0.14396711471E+01  0.14200000000E+01 0.  1.
         11    1    1    2    0    0 -0.12061700781E+01  0.65023854209E+00  0.16367634184E+01  0.21346313892E+01  0.51100000000E-03 0.  1.
         22    1    1    2    0    0 -0.38444736216E-01  0.92082107714E-02  0.43304759722E-01  0.58635237723E-01  0.00000000000E+00 0.  1.
          4    1    1    2  501    0  0.12446148143E+01 -0.65944675286E+00  0.25571089615E+01  0.32464045184E+01  0.14200000000E+01 0.  1.
<mgrwt>
<rscale>  0 0.20000840E+01</rscale>
<asrwt>0</asrwt>
<pdfrwt beam="1">  1       11 0.10000000E+01 0.14098906E+01</pdfrwt>
<pdfrwt beam="2">  1        4 0.99857768E+00 0.20000840E+01</pdfrwt>
<totfact> 0.35877473E-10</totfact>
</mgrwt>
</event>
<event>
 5    1  0.9349318E-034  0.2000083E+01  0.7818608E-02  0.3998994E+00
         11   -1    0    0    0    0  0.00000000000E+00  0.00000000000E+00  0.39999999581E+01  0.39999999907E+01  0.51100000000E-03 0. -1.
          4   -1    0    0  501    0 -0.00000000000E+00 -0.00000000000E+00  0.23813034127E+00  0.14398284826E+01  0.14200000000E+01 0. -1.
         11    1    1    2    0    0 -0.46639239764E+00  0.12993072984E+01  0.17953911694E+01  0.22647629095E+01  0.51100000000E-03 0. -1.
         22    1    1    2    0    0 -0.11539971608E-01  0.25650517129E-01  0.37804159669E-01  0.47119788433E-01  0.00000000000E+00 0. -1.
          4    1    1    2  501    0  0.47793236925E+00 -0.13249578155E+01  0.24049349703E+01  0.31279457754E+01  0.14200000000E+01 0. -1.
<mgrwt>
<rscale>  0 0.20000831E+01</rscale>
<asrwt>0</asrwt>
<pdfrwt beam="1">  1       11 0.10000000E+01 0.14086151E+01</pdfrwt>
<pdfrwt beam="2">  1        4 0.99803132E+00 0.20000831E+01</pdfrwt>
<totfact> 0.48362640E-10</totfact>
</mgrwt>
</event>
<event>
 5    1  0.9349318E-034  0.2001026E+01  0.7818608E-02  0.3997799E+00
         11   -1    0    0    0    0  0.00000000000E+00  0.00000000000E+00  0.39999999537E+01  0.39999999864E+01  0.51100000000E-03 0.  1.
          4   -1    0    0  501    0 -0.00000000000E+00 -0.00000000000E+00  0.23608186227E+00  0.14394911065E+01  0.14200000000E+01 0.  1.
         11    1    1    2    0    0 -0.62073921269E+00  0.98360499104E+00  0.13850704069E+01  0.18086503924E+01  0.51100000000E-03 0.  1.
         22    1    1    2    0    0 -0.13414226840E+00  0.20713304716E+00  0.29017142271E+00  0.38091692264E+00  0.00000000000E+00 0.  1.
          4    1    1    2  501    0  0.75488148109E+00 -0.11907380382E+01  0.25608399864E+01  0.32499237778E+01  0.14200000000E+01 0.  1.
<mgrwt>
<rscale>  0 0.20010255E+01</rscale>
<asrwt>0</asrwt>
<pdfrwt beam="1">  1       11 0.10000000E+01 0.14098836E+01</pdfrwt>
<pdfrwt beam="2">  1        4 0.99920603E+00 0.20010255E+01</pdfrwt>
<totfact> 0.20668337E-10</totfact>
</mgrwt>
</event>
<event>
 5    1  0.9349318E-034  0.2000302E+01  0.7818608E-02  0.3998716E+00
         11   -1    0    0    0    0  0.00000000000E+00  0.00000000000E+00  0.39999999667E+01  0.39999999993E+01  0.51100000000E-03 0. -1.
         -4   -1    0    0    0  501 -0.00000000000E+00 -0.00000000000E+00  0.23831061676E+00  0.14398583090E+01  0.14200000000E+01 0. -1.
         11    1    1    2    0    0  0.19204174009E+00  0.44733502239E+00  0.58823823380E+00  0.76355296675E+00  0.51100000000E-03 0. -1.
         22    1    1    2    0    0  0.39106262078E+00  0.83516205445E+00  0.11058276925E+01  0.14398890638E+01  0.00000000000E+00 0. -1.
         -4    1    1    2    0  501 -0.58310436087E+00 -0.12824970768E+01  0.25442446571E+01  0.32364162778E+01  0.14200000000E+01 0. -1.
<mgrwt>
<rscale>  0 0.20003023E+01</rscale>
<asrwt>0</asrwt>
<pdfrwt beam="1">  1       11 0.10000000E+01 0.14090065E+01</pdfrwt>
<pdfrwt beam="2">  1       -4 0.99792803E+00 0.20003023E+01</pdfrwt>
<totfact> 0.50658656E-10</totfact>
</mgrwt>
</event>
<event>
 5    1  0.9349318E-034  0.2000638E+01  0.7818608E-02  0.3998290E+00
         11   -1    0    0    0    0  0.00000000000E+00  0.00000000000E+00  0.39999999466E+01  0.39999999793E+01  0.51100000000E-03 0. -1.
          4   -1    0    0  501    0 -0.00000000000E+00 -0.00000000000E+00  0.23664533330E+00  0.14395836251E+01  0.14200000000E+01 0. -1.
         11    1    1    2    0    0 -0.46639955295E+00 -0.36789841008E+00  0.69825925829E+00  0.91675734850E+00  0.51100000000E-03 0. -1.
         22    1    1    2    0    0 -0.62944892436E+00 -0.51825475121E+00  0.96866517765E+00  0.12661382870E+01  0.00000000000E+00 0. -1.
          4    1    1    2  501    0  0.10958484773E+01  0.88615316129E+00  0.25697208440E+01  0.32566879689E+01  0.14200000000E+01 0. -1.
<mgrwt>
<rscale>  0 0.20006377E+01</rscale>
<asrwt>0</asrwt>
<pdfrwt beam="1">  1       11 0.10000000E+01 0.14093964E+01</pdfrwt>
<pdfrwt beam="2">  1        4 0.99888271E+00 0.20006377E+01</pdfrwt>
<totfact> 0.28620828E-10</totfact>
</mgrwt>
</event>
<event>
 5    1  0.9349318E-034  0.2001118E+01  0.7818608E-02  0.3997682E+00
         11   -1    0    0    0    0  0.00000000000E+00  0.00000000000E+00  0.39999999630E+01  0.39999999956E+01  0.51100000000E-03 0. -1.
          4   -1    0    0  501    0 -0.00000000000E+00 -0.00000000000E+00  0.23656973344E+00  0.14395711996E+01  0.14200000000E+01 0. -1.
         11    1    1    2    0    0  0.21750212366E+00  0.12705930629E+01  0.16030224046E+01  0.20570354873E+01  0.51100000000E-03 0. -1.
         22    1    1    2    0    0  0.21066755330E-01  0.11906758772E+00  0.13075417765E+00  0.17809422674E+00  0.00000000000E+00 0. -1.
          4    1    1    2  501    0 -0.23856887899E+00 -0.13896606506E+01  0.25027931141E+01  0.32044414812E+01  0.14200000000E+01 0. -1.
<mgrwt>
<rscale>  0 0.20011176E+01</rscale>
<asrwt>0</asrwt>
<pdfrwt beam="1">  1       11 0.10000000E+01 0.14106118E+01</pdfrwt>
<pdfrwt beam="2">  1        4 0.99892608E+00 0.20011176E+01</pdfrwt>
<totfact> 0.27583309E-10</totfact>
</mgrwt>
</event>
<event>
 5    1  0.1011775E-033  0.2000193E+01  0.7818608E-02  0.3998854E+00
         11   -1    0    0    0    0  0.00000000000E+00  0.00000000000E+00  0.39999999545E+01  0.39999999871E+01  0.51100000000E-03 0. -1.
          4   -1    0    0  501    0 -0.00000000000E+00 -0.00000000000E+00  0.23839885540E+00  0.14398729160E+01  0.14200000000E+01 0.  1.
         11    1    1    2    0    0  0.99398286902E+00 -0.87945192787E+00  0.15842118158E+01  0.20666796984E+01  0.51100000000E-03 0. -1.
         22    1    1    2    0    0  0.59959375592E-01 -0.55202542441E-01  0.98809950243E-01  0.12808533749E+00  0.00000000000E+00 0. -1.
          4    1    1    2  501    0 -0.10539422446E+01  0.93465447031E+00  0.25553770438E+01  0.32451078672E+01  0.14200000000E+01 0.  1.
<mgrwt>
<rscale>  0 0.20001933E+01</rscale>
<asrwt>0</asrwt>
<pdfrwt beam="1">  1       11 0.10000000E+01 0.14086991E+01</pdfrwt>
<pdfrwt beam="2">  1        4 0.99787748E+00 0.20001933E+01</pdfrwt>
<totfact> 0.51761084E-10</totfact>
</mgrwt>
</event>
<event>
 5    1  0.9349318E-034  0.2000910E+01  0.7818608E-02  0.3997945E+00
         11   -1    0    0    0    0  0.00000000000E+00  0.00000000000E+00  0.39999999618E+01  0.39999999944E+01  0.51100000000E-03 0. -1.
         -4   -1    0    0    0  501 -0.00000000000E+00 -0.00000000000E+00  0.23765674258E+00  0.14397502309E+01  0.14200000000E+01 0. -1.
         11    1    1    2    0    0  0.13409279649E+01  0.38131524631E+00  0.17557674301E+01  0.22419207510E+01  0.51100000000E-03 0. -1.
         22    1    1    2    0    0  0.15065238214E-01  0.40732570826E-02  0.19299149950E-01  0.24819549039E-01  0.00000000000E+00 0.  1.
         -4    1    1    2    0  501 -0.13559932031E+01 -0.38538850340E+00  0.24625901243E+01  0.31730099252E+01  0.14200000000E+01 0. -1.
<mgrwt>
<rscale>  0 0.20009103E+01</rscale>
<asrwt>0</asrwt>
<pdfrwt beam="1">  1       11 0.10000000E+01 0.14096986E+01</pdfrwt>
<pdfrwt beam="2">  1       -4 0.99830273E+00 0.20009103E+01</pdfrwt>
<totfact> 0.42287830E-10</totfact>
</mgrwt>
</event>
<event>
 5    1  0.9349318E-034  0.2000636E+01  0.7818608E-02  0.3998293E+00
         11   -1    0    0    0    0  0.00000000000E+00  0.00000000000E+00  0.39999999545E+01  0.39999999871E+01  0.51100000000E-03 0. -1.
         -4   -1    0    0    0  501 -0.00000000000E+00 -0.00000000000E+00  0.23688409544E+00  0.14396228932E+01  0.14200000000E+01 0. -1.
         11    1    1    2    0    0 -0.67960137964E+00  0.11732109987E+01  0.16046562977E+01  0.21007627609E+01  0.51100000000E-03 0. -1.
         22    1    1    2    0    0 -0.26709132605E-01  0.46325152178E-01  0.68660264540E-01  0.87026601770E-01  0.00000000000E+00 0.  1.
         -4    1    1    2    0  501  0.70631051225E+00 -0.12195361508E+01  0.25635674876E+01  0.32518335177E+01  0.14200000000E+01 0. -1.
<mgrwt>
<rscale>  0 0.20006356E+01</rscale>
<asrwt>0</asrwt>
<pdfrwt beam="1">  1       11 0.10000000E+01 0.14094098E+01</pdfrwt>
<pdfrwt beam="2">  1       -4 0.99874575E+00 0.20006356E+01</pdfrwt>
<totfact> 0.31916989E-10</totfact>
</mgrwt>
</event>
<event>
 5    1  0.9349318E-034  0.2000091E+01  0.7818608E-02  0.3998984E+00
         11   -1    0    0    0    0  0.00000000000E+00  0.00000000000E+00  0.39999999588E+01  0.39999999914E+01  0.51100000000E-03 0. -1.
          4   -1    0    0  501    0 -0.00000000000E+00 -0.00000000000E+00  0.23934870175E+00  0.14400304861E+01  0.14200000000E+01 0.  1.
         11    1    1    2    0    0  0.37125540997E+00 -0.11728948887E+01  0.14924150976E+01  0.19341189426E+01  0.51100000000E-03 0. -1.
         22    1    1    2    0    0  0.60015022089E-01 -0.16798921978E+00  0.22551709470E+00  0.28754154628E+00  0.00000000000E+00 0. -1.
          4    1    1    2  501    0 -0.43127043206E+00  0.13408841085E+01  0.25214164682E+01  0.32183699887E+01  0.14200000000E+01 0.  1.
<mgrwt>
<rscale>  0 0.20000911E+01</rscale>
<asrwt>0</asrwt>
<pdfrwt beam="1">  1       11 0.10000000E+01 0.14087180E+01</pdfrwt>
<pdfrwt beam="2">  1        4 0.99733357E+00 0.20000911E+01</pdfrwt>
<totfact> 0.63324935E-10</totfact>
</mgrwt>
</event>
<event>
 5    1  0.9349318E-034  0.2001477E+01  0.7818608E-02  0.3997227E+00
         11   -1    0    0    0    0  0.00000000000E+00  0.00000000000E+00  0.39999999569E+01  0.39999999895E+01  0.51100000000E-03 0. -1.
          4   -1    0    0  501    0 -0.00000000000E+00 -0.00000000000E+00  0.23541667016E+00  0.14393821621E+01  0.14200000000E+01 0.  1.
         11    1    1    2    0    0  0.11295768332E+01  0.41393706121E+00  0.14409624283E+01  0.18771416286E+01  0.51100000000E-03 0. -1.
         22    1    1    2    0    0  0.19527162179E+00  0.70094910748E-01  0.24690474821E+00  0.32250001159E+00  0.00000000000E+00 0. -1.
          4    1    1    2  501    0 -0.13248484550E+01 -0.48403197196E+00  0.25475494505E+01  0.32397405114E+01  0.14200000000E+01 0.  1.
<mgrwt>
<rscale>  0 0.20014770E+01</rscale>
<asrwt>0</asrwt>
<pdfrwt beam="1">  1       11 0.10000000E+01 0.14105069E+01</pdfrwt>
<pdfrwt beam="2">  1        4 0.99958791E+00 0.20014770E+01</pdfrwt>
<totfact> 0.10932884E-10</totfact>
</mgrwt>
</event>
<event>
 5    1  0.9349318E-034  0.2001009E+01  0.7818608E-02  0.3997820E+00
         11   -1    0    0    0    0  0.00000000000E+00  0.00000000000E+00  0.39999999612E+01  0.39999999939E+01  0.51100000000E-03 0. -1.
          4   -1    0    0  501    0 -0.00000000000E+00 -0.00000000000E+00  0.23751203096E+00  0.14397263507E+01  0.14200000000E+01 0. -1.
         11    1    1    2    0    0  0.71573132269E+00  0.16940197135E+00  0.90573105001E+00  0.11667550515E+01  0.51100000000E-03 0. -1.
         22    1    1    2    0    0  0.65646264233E+00  0.15420261514E+00  0.83363575415E+00  0.10722267568E+01  0.00000000000E+00 0. -1.
          4    1    1    2  501    0 -0.13721939650E+01 -0.32360458649E+00  0.24981451880E+01  0.32007445363E+01  0.14200000000E+01 0. -1.
<mgrwt>
<rscale>  0 0.20010088E+01</rscale>
<asrwt>0</asrwt>
<pdfrwt beam="1">  1       11 0.10000000E+01 0.14098385E+01</pdfrwt>
<pdfrwt beam="2">  1        4 0.99838569E+00 0.20010088E+01</pdfrwt>
<totfact> 0.40387662E-10</totfact>
</mgrwt>
</event>
<event>
 5    1  0.9349318E-034  0.2000932E+01  0.7818608E-02  0.3997918E+00
         11   -1    0    0    0    0  0.00000000000E+00  0.00000000000E+00  0.39999999563E+01  0.39999999889E+01  0.51100000000E-03 0. -1.
          4   -1    0    0  501    0 -0.00000000000E+00 -0.00000000000E+00  0.23699481218E+00  0.14396411153E+01  0.14200000000E+01 0. -1.
         11    1    1    2    0    0  0.32972240515E+00  0.13254539547E+01  0.17499013649E+01  0.22198423589E+01  0.51100000000E-03 0. -1.
         22    1    1    2    0    0  0.10800235302E-01  0.42526960976E-01  0.56879525336E-01  0.71836396728E-01  0.00000000000E+00 0.  1.
          4    1    1    2  501    0 -0.34052264045E+00 -0.13679809157E+01  0.24302138783E+01  0.31479623486E+01  0.14200000000E+01 0. -1.
<mgrwt>
<rscale>  0 0.20009316E+01</rscale>
<asrwt>0</asrwt>
<pdfrwt beam="1">  1       11 0.10000000E+01 0.14097285E+01</pdfrwt>
<pdfrwt beam="2">  1        4 0.99868225E+00 0.20009316E+01</pdfrwt>
<totfact> 0.33441776E-10</totfact>
</mgrwt>
</event>
<event>
 5    1  0.9349318E-034  0.2000244E+01  0.7818608E-02  0.3998789E+00
         11   -1    0    0    0    0  0.00000000000E+00  0.00000000000E+00  0.39999999502E+01  0.39999999828E+01  0.51100000000E-03 0. -1.
         -4   -1    0    0    0  501 -0.00000000000E+00 -0.00000000000E+00  0.23748869232E+00  0.14397225007E+01  0.14200000000E+01 0.  1.
         11    1    1    2    0    0 -0.10729054819E+01  0.62143986956E+00  0.16180063283E+01  0.20384450997E+01  0.51100000000E-03 0. -1.
         22    1    1    2    0    0 -0.14481389019E+00  0.86894469858E-01  0.22262732606E+00  0.27943628611E+00  0.00000000000E+00 0. -1.
         -4    1    1    2    0  501  0.12177193721E+01 -0.70833433942E+00  0.23968549881E+01  0.31218410978E+01  0.14200000000E+01 0. -1.
<mgrwt>
<rscale>  0 0.20002445E+01</rscale>
<asrwt>0</asrwt>
<pdfrwt beam="1">  1       11 0.10000000E+01 0.14087732E+01</pdfrwt>
<pdfrwt beam="2">  1       -4 0.99839907E+00 0.20002445E+01</pdfrwt>
<totfact> 0.40042931E-10</totfact>
</mgrwt>
</event>
<event>
 5    1  0.9349318E-034  0.2000266E+01  0.7818608E-02  0.3998762E+00
         11   -1    0    0    0    0  0.00000000000E+00  0.00000000000E+00  0.39999999509E+01  0.39999999835E+01  0.51100000000E-03 0.  1.
          4   -1    0    0  501    0 -0.00000000000E+00 -0.00000000000E+00  0.23822775971E+00  0.14398445977E+01  0.14200000000E+01 0.  1.
         11    1    1    2    0    0  0.96948100772E+00 -0.35941060794E+00  0.13373250266E+01  0.16904164864E+01  0.51100000000E-03 0.  1.
         22    1    1    2    0    0  0.35202019063E+00 -0.12874771215E+00  0.48332782530E+00  0.61163712666E+00  0.00000000000E+00 0.  1.
          4    1    1    2  501    0 -0.13215011984E+01  0.48815832009E+00  0.24175748587E+01  0.31377909682E+01  0.14200000000E+01 0.  1.
<mgrwt>
<rscale>  0 0.20002660E+01</rscale>
<asrwt>0</asrwt>
<pdfrwt beam="1">  1       11 0.10000000E+01 0.14087846E+01</pdfrwt>
<pdfrwt beam="2">  1        4 0.99797550E+00 0.20002660E+01</pdfrwt>
<totfact> 0.49610045E-10</totfact>
</mgrwt>
</event>
<event>
 5    1  0.9349318E-034  0.2000658E+01  0.7818608E-02  0.3998265E+00
         11   -1    0    0    0    0  0.00000000000E+00  0.00000000000E+00  0.39999999508E+01  0.39999999834E+01  0.51100000000E-03 0.  1.
          4   -1    0    0  501    0 -0.00000000000E+00 -0.00000000000E+00  0.23751784018E+00  0.14397273090E+01  0.14200000000E+01 0. -1.
         11    1    1    2    0    0  0.61662456109E+00  0.59528024482E+00  0.10947676102E+01  0.13903599536E+01  0.51100000000E-03 0.  1.
         22    1    1    2    0    0  0.40724395527E+00  0.37318439627E+00  0.71322319148E+00  0.90210950200E+00  0.00000000000E+00 0.  1.
          4    1    1    2  501    0 -0.10238685164E+01 -0.96846464109E+00  0.24295269893E+01  0.31472578368E+01  0.14200000000E+01 0. -1.
<mgrwt>
<rscale>  0 0.20006575E+01</rscale>
<asrwt>0</asrwt>
<pdfrwt beam="1">  1       11 0.10000000E+01 0.14094628E+01</pdfrwt>
<pdfrwt beam="2">  1        4 0.99838236E+00 0.20006575E+01</pdfrwt>
<totfact> 0.40447798E-10</totfact>
</mgrwt>
</event>
<event>
 5    1  0.9349318E-034  0.2000661E+01  0.7818608E-02  0.3998261E+00
         11   -1    0    0    0    0  0.00000000000E+00  0.00000000000E+00  0.39999999693E+01  0.40000000019E+01  0.51100000000E-03 0.  1.
          4   -1    0    0  501    0 -0.00000000000E+00 -0.00000000000E+00  0.23735856440E+00  0.14397010412E+01  0.14200000000E+01 0.  1.
         11    1    1    2    0    0 -0.13475867483E+01 -0.29338740406E+00  0.17706630334E+01  0.22443961442E+01  0.51100000000E-03 0.  1.
         22    1    1    2    0    0 -0.30337724998E-01 -0.25311611326E-02  0.37330891973E-01  0.48170321052E-01  0.00000000000E+00 0.  1.
          4    1    1    2  501    0  0.13779244733E+01  0.29591856519E+00  0.24293646083E+01  0.31471345779E+01  0.14200000000E+01 0.  1.
<mgrwt>
<rscale>  0 0.20006608E+01</rscale>
<asrwt>0</asrwt>
<pdfrwt beam="1">  1       11 0.10000000E+01 0.14096166E+01</pdfrwt>
<pdfrwt beam="2">  1        4 0.99847367E+00 0.20006608E+01</pdfrwt>
<totfact> 0.38333776E-10</totfact>
</mgrwt>
</event>
<event>
 5    1  0.9349318E-034  0.2000699E+01  0.7818608E-02  0.3998213E+00
         11   -1    0    0    0    0  0.00000000000E+00  0.00000000000E+00  0.39999999533E+01  0.39999999859E+01  0.51100000000E-03 0. -1.
         -4   -1    0    0    0  501 -0.00000000000E+00 -0.00000000000E+00  0.23645507430E+00  0.14395523617E+01  0.14200000000E+01 0. -1.
         11    1    1    2    0    0 -0.41906429300E+00 -0.64839616915E+00  0.90751892782E+00  0.11914794750E+01  0.51100000000E-03 0. -1.
         22    1    1    2    0    0 -0.33868077155E+00 -0.53997205885E+00  0.75736014914E+00  0.98988326830E+00  0.00000000000E+00 0. -1.
         -4    1    1    2    0  501  0.75774506455E+00  0.11883682280E+01  0.25715759506E+01  0.32581896044E+01  0.14200000000E+01 0. -1.
<mgrwt>
<rscale>  0 0.20006990E+01</rscale>
<asrwt>0</asrwt>
<pdfrwt beam="1">  1       11 0.10000000E+01 0.14094407E+01</pdfrwt>
<pdfrwt beam="2">  1       -4 0.99899186E+00 0.20006990E+01</pdfrwt>
<totfact> 0.25963164E-10</totfact>
</mgrwt>
</event>
<event>
 5    1  0.9349318E-034  0.2001141E+01  0.7818608E-02  0.3997653E+00
         11   -1    0    0    0    0  0.00000000000E+00  0.00000000000E+00  0.39999999541E+01  0.39999999868E+01  0.51100000000E-03 0. -1.
         -4   -1    0    0    0  501 -0.00000000000E+00 -0.00000000000E+00  0.23676626189E+00  0.14396035089E+01  0.14200000000E+01 0. -1.
         11    1    1    2    0    0 -0.13488698758E+01  0.24931562384E+00  0.17455114002E+01  0.22200041737E+01  0.51100000000E-03 0. -1.
         22    1    1    2    0    0 -0.37921021838E-01  0.55883667691E-02  0.45753487464E-01  0.59687648266E-01  0.00000000000E+00 0. -1.
         -4    1    1    2    0  501  0.13867908976E+01 -0.25490399061E+00  0.24455013284E+01  0.31599116737E+01  0.14200000000E+01 0. -1.
<mgrwt>
<rscale>  0 0.20011409E+01</rscale>
<asrwt>0</asrwt>
<pdfrwt beam="1">  1       11 0.10000000E+01 0.14100939E+01</pdfrwt>
<pdfrwt beam="2">  1       -4 0.99881334E+00 0.20011409E+01</pdfrwt>
<totfact> 0.30314187E-10</totfact>
</mgrwt>
</event>
<event>
 5    1  0.9349318E-034  0.2000611E+01  0.7818608E-02  0.3998324E+00
         11   -1    0    0    0    0  0.00000000000E+00  0.00000000000E+00  0.39999999612E+01  0.39999999939E+01  0.51100000000E-03 0.  1.
         -4   -1    0    0    0  501 -0.00000000000E+00 -0.00000000000E+00  0.23796465786E+00  0.14398010899E+01  0.14200000000E+01 0.  1.
         11    1    1    2    0    0 -0.10923016919E+01 -0.77356746793E+00  0.17088904810E+01  0.21706765192E+01  0.51100000000E-03 0.  1.
         22    1    1    2    0    0 -0.57964627593E-01 -0.40639864834E-01  0.81989823903E-01  0.10832279487E+00  0.00000000000E+00 0. -1.
         -4    1    1    2    0  501  0.11502663195E+01  0.81420733276E+00  0.24470843142E+01  0.31608017697E+01  0.14200000000E+01 0.  1.
<mgrwt>
<rscale>  0 0.20006115E+01</rscale>
<asrwt>0</asrwt>
<pdfrwt beam="1">  1       11 0.10000000E+01 0.14094629E+01</pdfrwt>
<pdfrwt beam="2">  1       -4 0.99812626E+00 0.20006115E+01</pdfrwt>
<totfact> 0.46271055E-10</totfact>
</mgrwt>
</event>
<event>
 5    1  0.9349318E-034  0.2000352E+01  0.7818608E-02  0.3998652E+00
         11   -1    0    0    0    0  0.00000000000E+00  0.00000000000E+00  0.39999999581E+01  0.39999999907E+01  0.51100000000E-03 0. -1.
          4   -1    0    0  501    0 -0.00000000000E+00 -0.00000000000E+00  0.23901547829E+00  0.14399751383E+01  0.14200000000E+01 0. -1.
         11    1    1    2    0    0 -0.80133936053E+00 -0.88699992598E+00  0.14627380916E+01  0.18890517794E+01  0.51100000000E-03 0. -1.
         22    1    1    2    0    0 -0.14443199532E+00 -0.15728279890E+00  0.26520212679E+00  0.34048590009E+00  0.00000000000E+00 0. -1.
          4    1    1    2  501    0  0.94577135585E+00  0.10442827249E+01  0.25110752179E+01  0.32104374495E+01  0.14200000000E+01 0. -1.
<mgrwt>
<rscale>  0 0.20003524E+01</rscale>
<asrwt>0</asrwt>
<pdfrwt beam="1">  1       11 0.10000000E+01 0.14089226E+01</pdfrwt>
<pdfrwt beam="2">  1        4 0.99752433E+00 0.20003524E+01</pdfrwt>
<totfact> 0.59358762E-10</totfact>
</mgrwt>
</event>
<event>
 5    1  0.9349318E-034  0.2000684E+01  0.7818608E-02  0.3998232E+00
         11   -1    0    0    0    0  0.00000000000E+00  0.00000000000E+00  0.39999999576E+01  0.39999999902E+01  0.51100000000E-03 0.  1.
          4   -1    0    0  501    0 -0.00000000000E+00 -0.00000000000E+00  0.23693388578E+00  0.14396310869E+01  0.14200000000E+01 0.  1.
         11    1    1    2    0    0 -0.29321455705E+00  0.44514778694E+00  0.70298334635E+00  0.88222286019E+00  0.51100000000E-03 0.  1.
         22    1    1    2    0    0 -0.43619763700E+00  0.76079352356E+00  0.10890843701E+01  0.13982774865E+01  0.00000000000E+00 0.  1.
          4    1    1    2  501    0  0.72941219405E+00 -0.12059413105E+01  0.24448661269E+01  0.31591307304E+01  0.14200000000E+01 0.  1.
<mgrwt>
<rscale>  0 0.20006840E+01</rscale>
<asrwt>0</asrwt>
<pdfrwt beam="1">  1       11 0.10000000E+01 0.14103812E+01</pdfrwt>
<pdfrwt beam="2">  1        4 0.99871720E+00 0.20006840E+01</pdfrwt>
<totfact> 0.32600488E-10</totfact>
</mgrwt>
</event>
<event>
 5    1  0.9349318E-034  0.2000448E+01  0.7818608E-02  0.3998530E+00
         11   -1    0    0    0    0  0.00000000000E+00  0.00000000000E+00  0.39999999617E+01  0.39999999943E+01  0.51100000000E-03 0. -1.
          4   -1    0    0  501    0 -0.00000000000E+00 -0.00000000000E+00  0.23893388523E+00  0.14399615972E+01  0.14200000000E+01 0. -1.
         11    1    1    2    0    0 -0.81358437180E+00  0.57336542522E+00  0.12362512646E+01  0.15871310252E+01  0.51100000000E-03 0. -1.
         22    1    1    2    0    0 -0.33755733453E+00  0.23920247267E+00  0.51478781788E+00  0.66043112772E+00  0.00000000000E+00 0. -1.
          4    1    1    2  501    0  0.11511417063E+01 -0.81256789789E+00  0.24878947644E+01  0.31923994386E+01  0.14200000000E+01 0. -1.
<mgrwt>
<rscale>  0 0.20004484E+01</rscale>
<asrwt>0</asrwt>
<pdfrwt beam="1">  1       11 0.10000000E+01 0.14090421E+01</pdfrwt>
<pdfrwt beam="2">  1        4 0.99757105E+00 0.20004484E+01</pdfrwt>
<totfact> 0.58377123E-10</totfact>
</mgrwt>
</event>
<event>
 5    1  0.9349318E-034  0.2000118E+01  0.7818608E-02  0.3998950E+00
         11   -1    0    0    0    0  0.00000000000E+00  0.00000000000E+00  0.39999999599E+01  0.39999999926E+01  0.51100000000E-03 0. -1.
          4   -1    0    0  501    0 -0.00000000000E+00 -0.00000000000E+00  0.23784681503E+00  0.14397816180E+01  0.14200000000E+01 0. -1.
         11    1    1    2    0    0 -0.12893214629E+01  0.52622976272E+00  0.17303951244E+01  0.22211562632E+01  0.51100000000E-03 0. -1.
         22    1    1    2    0    0 -0.17618890261E-01 -0.89334955403E-03  0.26614026005E-01  0.31930075911E-01  0.00000000000E+00 0.  1.
          4    1    1    2  501    0  0.13069403531E+01 -0.52533641317E+00  0.24808376245E+01  0.31866952714E+01  0.14200000000E+01 0. -1.
<mgrwt>
<rscale>  0 0.20001179E+01</rscale>
<asrwt>0</asrwt>
<pdfrwt beam="1">  1       11 0.10000000E+01 0.14104315E+01</pdfrwt>
<pdfrwt beam="2">  1        4 0.99819379E+00 0.20001179E+01</pdfrwt>
<totfact> 0.44723754E-10</totfact>
</mgrwt>
</event>
