<event>
 5    1  0.2843180E-003  0.1884374E+03  0.7818608E-02  0.1159878E+00
         11   -1    0    0    0    0  0.00000000000E+00  0.00000000000E+00  0.10014380863E+04  0.10014380863E+04  0.51100000000E-03 0. -1.
          2   -1    0    0  501    0 -0.00000000000E+00 -0.00000000000E+00 -0.15470721267E+04  0.15470721267E+04  0.25500000000E-02 0. -1.
         11    1    1    2    0    0 -0.17227725490E+03 -0.66302733226E+02  0.98711219382E+03  0.10042240727E+04  0.51100000000E-03 0. -1.
         22    1    1    2    0    0  0.16943590996E+02  0.94895248764E+01 -0.88841632102E+02  0.90939386146E+02  0.00000000000E+00 0. -1.
          2    1    1    2  501    0  0.15533366391E+03  0.56813208349E+02 -0.14439046021E+04  0.14533467541E+04  0.25500000000E-02 0. -1.
<mgrwt>
<rscale>  0 0.18843743E+03</rscale>
<asrwt>0</asrwt>
<pdfrwt beam="1">  1       11 0.10000000E+01 0.18459552E+03</pdfrwt>
<pdfrwt beam="2">  1        2 0.23835337E+00 0.18843743E+03</pdfrwt>
<totfact> 0.16559761E+01</totfact>
</mgrwt>
</event>
<event>
 5    1  0.9955701E-004  0.1888381E+03  0.7818608E-02  0.1425397E+00
         11   -1    0    0    0    0  0.00000000000E+00  0.00000000000E+00  0.10001539907E+04  0.10001539907E+04  0.51100000000E-03 0.  1.
          2   -1    0    0  501    0 -0.00000000000E+00 -0.00000000000E+00 -0.21138966060E+03  0.21138966062E+03  0.25500000000E-02 0.  1.
         11    1    1    2    0    0  0.14270724481E+03 -0.12526698466E+03  0.92549800907E+03  0.94477708480E+03  0.51100000000E-03 0.  1.
         22    1    1    2    0    0 -0.14618207143E+02  0.47866522687E+01 -0.80780321665E+02  0.82231772377E+02  0.00000000000E+00 0. -1.
          2    1    1    2  501    0 -0.12808903767E+03  0.12048033239E+03 -0.55953357271E+02  0.18453479418E+03  0.25500000000E-02 0.  1.
<mgrwt>
<rscale>  0 0.53895231E+02</rscale>
<asrwt>0</asrwt>
<pdfrwt beam="1">  1       11 0.10000000E+01 0.18883809E+03</pdfrwt>
<pdfrwt beam="2">  1        2 0.32526493E-01 0.53895231E+02</pdfrwt>
<totfact> 0.19292919E+02</totfact>
</mgrwt>
</event>
<event>
 5    1  0.9955701E-004  0.8077844E+03  0.7818608E-02  0.9548817E-01
         11   -1    0    0    0    0  0.00000000000E+00  0.00000000000E+00  0.99993179264E+03  0.99993179264E+03  0.51100000000E-03 0. -1.
          2   -1    0    0  501    0 -0.00000000000E+00 -0.00000000000E+00 -0.70238199565E+03  0.70238199565E+03  0.25500000000E-02 0. -1.
         11    1    1    2    0    0  0.42988893204E+03  0.68742503646E+03  0.34711573922E+03  0.88195635439E+03  0.51100000000E-03 0. -1.
         22    1    1    2    0    0  0.57821925571E+01 -0.93483969972E+01  0.58995527393E+01  0.12475215417E+02  0.00000000000E+00 0. -1.
          2    1    1    2  501    0 -0.43567112459E+03 -0.67807663947E+03 -0.55465494968E+02  0.80788221848E+03  0.25500000000E-02 0. -1.
<mgrwt>
<rscale>  0 0.80778438E+03</rscale>
<asrwt>0</asrwt>
<pdfrwt beam="1">  1       11 0.10000000E+01 0.10992101E+02</pdfrwt>
<pdfrwt beam="2">  1        2 0.10805140E+00 0.80778438E+03</pdfrwt>
<totfact> 0.50473100E+01</totfact>
</mgrwt>
</event>
<event>
 5    1  0.9955701E-004  0.6921041E+02  0.7818608E-02  0.1527077E+00
         11   -1    0    0    0    0  0.00000000000E+00  0.00000000000E+00  0.10003986687E+04  0.10003986687E+04  0.51100000000E-03 0.  1.
          2   -1    0    0  501    0 -0.00000000000E+00 -0.00000000000E+00 -0.82613905594E+01  0.82613909530E+01  0.25500000000E-02 0.  1.
         11    1    1    2    0    0 -0.39436388822E+02  0.60665325384E+02  0.35735085689E+03  0.36460272268E+03  0.51100000000E-03 0.  1.
         22    1    1    2    0    0  0.19754271377E+02  0.49696520821E+01  0.36003373565E+02  0.41366309813E+02  0.00000000000E+00 0.  1.
          2    1    1    2  501    0  0.19682117444E+02 -0.65634977466E+02  0.59878304766E+03  0.60269102713E+03  0.25500000000E-02 0.  1.
<mgrwt>
<rscale>  0 0.37547323E+02</rscale>
<asrwt>0</asrwt>
<pdfrwt beam="1">  1       11 0.10000000E+01 0.69210414E+02</pdfrwt>
<pdfrwt beam="2">  1        2 0.12714899E-02 0.37547323E+02</pdfrwt>
<totfact> 0.94956816E+03</totfact>
</mgrwt>
</event>
<event>
 5    1  0.9955701E-004  0.3963415E+02  0.7818608E-02  0.1519944E+00
         11   -1    0    0    0    0  0.00000000000E+00  0.00000000000E+00  0.10003127542E+04  0.10003127542E+04  0.51100000000E-03 0. -1.
          2   -1    0    0  501    0 -0.00000000000E+00 -0.00000000000E+00 -0.84324060869E+01  0.84324064724E+01  0.25500000000E-02 0. -1.
         11    1    1    2    0    0  0.39888759742E+02 -0.17252549605E+02  0.14461863470E+03  0.15100765916E+03  0.51100000000E-03 0. -1.
         22    1    1    2    0    0 -0.34784797665E+01  0.37137186028E+02  0.69555291245E+02  0.78925337806E+02  0.00000000000E+00 0. -1.
          2    1    1    2  501    0 -0.36410279975E+02 -0.19884636423E+02  0.77770642219E+03  0.77881216373E+03  0.25500000000E-02 0. -1.
<mgrwt>
<rscale>  0 0.38449223E+02</rscale>
<asrwt>0</asrwt>
<pdfrwt beam="1">  1       11 0.10000000E+01 0.39634152E+02</pdfrwt>
<pdfrwt beam="2">  1        2 0.12976990E-02 0.38449223E+02</pdfrwt>
<totfact> 0.92831840E+03</totfact>
</mgrwt>
</event>
<event>
 5    1  0.9955701E-004  0.6439522E+02  0.7818608E-02  0.1406209E+00
         11   -1    0    0    0    0  0.00000000000E+00  0.00000000000E+00  0.10001656708E+04  0.10001656708E+04  0.51100000000E-03 0.  1.
         -2   -1    0    0    0  501 -0.00000000000E+00 -0.00000000000E+00 -0.71883641398E+01  0.71883645921E+01  0.25500000000E-02 0.  1.
         11    1    1    2    0    0 -0.34510297885E+02  0.51689831768E+01  0.12778494993E+03  0.13246385347E+03  0.51100000000E-03 0.  1.
         22    1    1    2    0    0 -0.23537871756E+02 -0.49959399287E+01  0.33889463789E+02  0.41563043422E+02  0.00000000000E+00 0.  1.
         -2    1    1    2    0  501  0.58048169641E+02 -0.17304324807E+00  0.83130289298E+03  0.83332713854E+03  0.25500000000E-02 0.  1.
<mgrwt>
<rscale>  0 0.58048428E+02</rscale>
<asrwt>0</asrwt>
<pdfrwt beam="1">  1       11 0.10000000E+01 0.64395223E+02</pdfrwt>
<pdfrwt beam="2">  1       -2 0.11060854E-02 0.58048428E+02</pdfrwt>
<totfact> 0.11699256E+04</totfact>
</mgrwt>
</event>
<event>
 5    1  0.9955701E-004  0.2807568E+03  0.7818608E-02  0.1410392E+00
         11   -1    0    0    0    0  0.00000000000E+00  0.00000000000E+00  0.10003259024E+04  0.10003259024E+04  0.51100000000E-03 0. -1.
          2   -1    0    0  501    0 -0.00000000000E+00 -0.00000000000E+00 -0.15161189458E+03  0.15161189460E+03  0.25500000000E-02 0. -1.
         11    1    1    2    0    0 -0.13617214842E+03  0.24671133625E+03  0.80512405724E+03  0.85301470386E+03  0.51100000000E-03 0. -1.
         22    1    1    2    0    0  0.11608500493E+02 -0.40521934142E+00 -0.12719781603E+02  0.17225397831E+02  0.00000000000E+00 0.  1.
          2    1    1    2  501    0  0.12456364793E+03 -0.24630611691E+03  0.56309732211E+02  0.28169769534E+03  0.25500000000E-02 0. -1.
<mgrwt>
<rscale>  0 0.57106488E+02</rscale>
<asrwt>0</asrwt>
<pdfrwt beam="1">  1       11 0.10000000E+01 0.28075684E+03</pdfrwt>
<pdfrwt beam="2">  1        2 0.23332508E-01 0.57106488E+02</pdfrwt>
<totfact> 0.27486719E+02</totfact>
</mgrwt>
</event>
<event>
 5    1  0.9955701E-004  0.3048194E+02  0.7818608E-02  0.1713137E+00
         11   -1    0    0    0    0  0.00000000000E+00  0.00000000000E+00  0.10000449054E+04  0.10000449054E+04  0.51100000000E-03 0.  1.
          2   -1    0    0  501    0 -0.00000000000E+00 -0.00000000000E+00 -0.35296438085E+01  0.35296447296E+01  0.25500000000E-02 0.  1.
         11    1    1    2    0    0 -0.34095858336E+02 -0.18104145228E+02  0.15916129138E+03  0.16377607977E+03  0.51100000000E-03 0.  1.
         22    1    1    2    0    0  0.14791851191E+02 -0.45535969003E+01  0.63021533927E+02  0.64894127969E+02  0.00000000000E+00 0.  1.
          2    1    1    2  501    0  0.19304007145E+02  0.22657742128E+02  0.77433243631E+03  0.77490434242E+03  0.25500000000E-02 0.  1.
<mgrwt>
<rscale>  0 0.21720159E+02</rscale>
<asrwt>0</asrwt>
<pdfrwt beam="1">  1       11 0.10000000E+01 0.30481936E+02</pdfrwt>
<pdfrwt beam="2">  1        2 0.54304656E-03 0.21720159E+02</pdfrwt>
<totfact> 0.25776179E+04</totfact>
</mgrwt>
</event>
<event>
 5    1  0.9955701E-004  0.1524327E+03  0.7818608E-02  0.1408950E+00
         11   -1    0    0    0    0  0.00000000000E+00  0.00000000000E+00  0.10002381057E+04  0.10002381057E+04  0.51100000000E-03 0.  1.
          2   -1    0    0  501    0 -0.00000000000E+00 -0.00000000000E+00 -0.68899177740E+02  0.68899177788E+02  0.25500000000E-02 0.  1.
         11    1    1    2    0    0  0.11125048556E+03 -0.10648627233E+03  0.88540487273E+03  0.89869782763E+03  0.51100000000E-03 0.  1.
         22    1    1    2    0    0 -0.21478404171E+02 -0.26076540478E+01 -0.73699467278E+00  0.21648668932E+02  0.00000000000E+00 0.  1.
          2    1    1    2  501    0 -0.89772081393E+02  0.10909392638E+03  0.46671049914E+02  0.14879078694E+03  0.25500000000E-02 0.  1.
<mgrwt>
<rscale>  0 0.57428680E+02</rscale>
<asrwt>0</asrwt>
<pdfrwt beam="1">  1       11 0.10000000E+01 0.15243275E+03</pdfrwt>
<pdfrwt beam="2">  1        2 0.10602397E-01 0.57428680E+02</pdfrwt>
<totfact> 0.67155602E+02</totfact>
</mgrwt>
</event>
<event>
 5    1  0.9955701E-004  0.3361634E+03  0.7818608E-02  0.1288920E+00
         11   -1    0    0    0    0  0.00000000000E+00  0.00000000000E+00  0.10006076493E+04  0.10006076493E+04  0.51100000000E-03 0.  1.
          2   -1    0    0  501    0 -0.00000000000E+00 -0.00000000000E+00 -0.44299899488E+03  0.44299899488E+03  0.25500000000E-02 0.  1.
         11    1    1    2    0    0 -0.17998862478E+03  0.28671987109E+03  0.88907873103E+03  0.95134913649E+03  0.51100000000E-03 0.  1.
         22    1    1    2    0    0  0.21100336360E+02 -0.17511169769E+02 -0.98904688551E+02  0.10263528964E+03  0.00000000000E+00 0.  1.
          2    1    1    2  501    0  0.15888828842E+03 -0.26920870132E+03 -0.23256538807E+03  0.38962221805E+03  0.25500000000E-02 0.  1.
<mgrwt>
<rscale>  0 0.96008615E+02</rscale>
<asrwt>0</asrwt>
<pdfrwt beam="1">  1       11 0.10000000E+01 0.33616338E+03</pdfrwt>
<pdfrwt beam="2">  1        2 0.68195103E-01 0.96008615E+02</pdfrwt>
<totfact> 0.89633866E+01</totfact>
</mgrwt>
</event>
<event>
 5    1  0.9955701E-004  0.1011771E+03  0.7818608E-02  0.1277840E+00
         11   -1    0    0    0    0  0.00000000000E+00  0.00000000000E+00  0.10001006523E+04  0.10001006523E+04  0.51100000000E-03 0. -1.
          2   -1    0    0  501    0 -0.00000000000E+00 -0.00000000000E+00 -0.16692107680E+02  0.16692107875E+02  0.25500000000E-02 0. -1.
         11    1    1    2    0    0 -0.10440064317E+03  0.27197878162E+02  0.45250100704E+03  0.46518424333E+03  0.51100000000E-03 0. -1.
         22    1    1    2    0    0  0.56969111328E+01 -0.48240051049E+02  0.18609893044E+03  0.19233400435E+03  0.00000000000E+00 0. -1.
          2    1    1    2  501    0  0.98703732040E+02  0.21042172887E+02  0.34480860719E+03  0.35927451253E+03  0.25500000000E-02 0. -1.
<mgrwt>
<rscale>  0 0.10117707E+03</rscale>
<asrwt>0</asrwt>
<pdfrwt beam="1">  1       11 0.10000000E+01 0.48575275E+02</pdfrwt>
<pdfrwt beam="2">  1        2 0.25682750E-02 0.10117707E+03</pdfrwt>
<totfact> 0.43050697E+03</totfact>
</mgrwt>
</event>
<event>
 5    1  0.9955701E-004  0.6825790E+02  0.7818608E-02  0.1559018E+00
         11   -1    0    0    0    0  0.00000000000E+00  0.00000000000E+00  0.10001998913E+04  0.10001998913E+04  0.51100000000E-03 0.  1.
          2   -1    0    0  501    0 -0.00000000000E+00 -0.00000000000E+00 -0.21331431575E+02  0.21331431727E+02  0.25500000000E-02 0.  1.
         11    1    1    2    0    0 -0.21378842346E+02 -0.70817472044E+02  0.41794514679E+03  0.42444117963E+03  0.51100000000E-03 0.  1.
         22    1    1    2    0    0 -0.10155319177E+02  0.13371599172E+02 -0.11868461515E+02  0.20561871285E+02  0.00000000000E+00 0.  1.
          2    1    1    2  501    0  0.31534161523E+02  0.57445872872E+02  0.57279177449E+03  0.57652827215E+03  0.25500000000E-02 0.  1.
<mgrwt>
<rscale>  0 0.33854137E+02</rscale>
<asrwt>0</asrwt>
<pdfrwt beam="1">  1       11 0.10000000E+01 0.68257901E+02</pdfrwt>
<pdfrwt beam="2">  1        2 0.32824146E-02 0.33854137E+02</pdfrwt>
<totfact> 0.27150869E+03</totfact>
</mgrwt>
</event>
<event>
 5    1  0.9955701E-004  0.4168527E+02  0.7818608E-02  0.1657831E+00
         11   -1    0    0    0    0  0.00000000000E+00  0.00000000000E+00  0.10001048751E+04  0.10001048751E+04  0.51100000000E-03 0. -1.
         -2   -1    0    0    0  501 -0.00000000000E+00 -0.00000000000E+00 -0.56283389912E+01  0.56283395688E+01  0.25500000000E-02 0.  1.
         11    1    1    2    0    0  0.43070324153E+02  0.56870252292E+01  0.14095326395E+03  0.14749650062E+03  0.51100000000E-03 0. -1.
         22    1    1    2    0    0 -0.23557217202E+01 -0.15078055774E+02  0.30041157031E+02  0.33695226762E+02  0.00000000000E+00 0. -1.
         -2    1    1    2    0  501 -0.40714602433E+02  0.93910305445E+01  0.82348211514E+03  0.82454148730E+03  0.25500000000E-02 0.  1.
<mgrwt>
<rscale>  0 0.25222160E+02</rscale>
<asrwt>0</asrwt>
<pdfrwt beam="1">  1       11 0.10000000E+01 0.41685273E+02</pdfrwt>
<pdfrwt beam="2">  1       -2 0.86598914E-03 0.25222160E+02</pdfrwt>
<totfact> 0.13836294E+04</totfact>
</mgrwt>
</event>
<event>
 5    1  0.9955701E-004  0.7055910E+02  0.7818608E-02  0.1503198E+00
         11   -1    0    0    0    0  0.00000000000E+00  0.00000000000E+00  0.10002135320E+04  0.10002135320E+04  0.51100000000E-03 0.  1.
          2   -1    0    0  501    0 -0.00000000000E+00 -0.00000000000E+00 -0.15233564089E+02  0.15233564303E+02  0.25500000000E-02 0.  1.
         11    1    1    2    0    0 -0.45160551583E+02  0.63593059076E+02  0.19071613595E+03  0.20604901624E+03  0.51100000000E-03 0.  1.
         22    1    1    2    0    0 -0.10064175662E+02 -0.21196565283E+02  0.16886028549E+02  0.28908821693E+02  0.00000000000E+00 0.  1.
          2    1    1    2  501    0  0.55224727245E+02 -0.42396493793E+02  0.77737780339E+03  0.78048925835E+03  0.25500000000E-02 0.  1.
<mgrwt>
<rscale>  0 0.40689459E+02</rscale>
<asrwt>0</asrwt>
<pdfrwt beam="1">  1       11 0.10000000E+01 0.70559099E+02</pdfrwt>
<pdfrwt beam="2">  1        2 0.23441256E-02 0.40689459E+02</pdfrwt>
<totfact> 0.43065779E+03</totfact>
</mgrwt>
</event>
<event>
 5    1  0.9955701E-004  0.7452326E+02  0.7818608E-02  0.1452169E+00
         11   -1    0    0    0    0  0.00000000000E+00  0.00000000000E+00  0.99994430816E+03  0.99994430816E+03  0.51100000000E-03 0. -1.
          2   -1    0    0  501    0 -0.00000000000E+00 -0.00000000000E+00 -0.26694801918E+02  0.26694802039E+02  0.25500000000E-02 0. -1.
         11    1    1    2    0    0 -0.10272008733E+03  0.83301420475E+01  0.13911503458E+03  0.17312943266E+03  0.51100000000E-03 0. -1.
         22    1    1    2    0    0  0.30838622279E+02 -0.81524152868E+01  0.23315557887E+02  0.39510729412E+02  0.00000000000E+00 0. -1.
          2    1    1    2  501    0  0.71881465052E+02 -0.17772676077E+00  0.81081891378E+03  0.81399894813E+03  0.25500000000E-02 0. -1.
<mgrwt>
<rscale>  0 0.48755943E+02</rscale>
<asrwt>0</asrwt>
<pdfrwt beam="1">  1       11 0.10000000E+01 0.74523264E+02</pdfrwt>
<pdfrwt beam="2">  1        2 0.41066638E-02 0.48755943E+02</pdfrwt>
<totfact> 0.21371760E+03</totfact>
</mgrwt>
</event>
<event>
 5    1  0.9955701E-004  0.1633998E+03  0.7818608E-02  0.1231008E+00
         11   -1    0    0    0    0  0.00000000000E+00  0.00000000000E+00  0.10004448176E+04  0.10004448176E+04  0.51100000000E-03 0. -1.
          2   -1    0    0  501    0 -0.00000000000E+00 -0.00000000000E+00 -0.98088304728E+02  0.98088304761E+02  0.25500000000E-02 0. -1.
         11    1    1    2    0    0  0.62591513729E+02 -0.15835909591E+03  0.78934242226E+03  0.80750031606E+03  0.51100000000E-03 0. -1.
         22    1    1    2    0    0  0.68408049693E+02  0.72526692562E+02  0.31905136529E+01  0.99749495107E+02  0.00000000000E+00 0. -1.
          2    1    1    2  501    0 -0.13099956342E+03  0.85832403347E+02  0.10982357696E+03  0.19128331120E+03  0.25500000000E-02 0. -1.
<mgrwt>
<rscale>  0 0.12763506E+03</rscale>
<asrwt>0</asrwt>
<pdfrwt beam="1">  1       11 0.10000000E+01 0.16339981E+03</pdfrwt>
<pdfrwt beam="2">  1        2 0.15097221E-01 0.12763506E+03</pdfrwt>
<totfact> 0.46306552E+02</totfact>
</mgrwt>
</event>
<event>
 5    1  0.9955701E-004  0.2747017E+03  0.7818608E-02  0.1098618E+00
         11   -1    0    0    0    0  0.00000000000E+00  0.00000000000E+00  0.10001807247E+04  0.10001807247E+04  0.51100000000E-03 0.  1.
          2   -1    0    0  501    0 -0.00000000000E+00 -0.00000000000E+00 -0.68262794947E+03  0.68262794947E+03  0.25500000000E-02 0.  1.
         11    1    1    2    0    0 -0.14796020200E+03 -0.23013357829E+03  0.95248463627E+03  0.99099983227E+03  0.51100000000E-03 0.  1.
         22    1    1    2    0    0  0.75848678383E+01  0.11288260161E+02 -0.47556867444E+02  0.49463225519E+02  0.00000000000E+00 0. -1.
          2    1    1    2  501    0  0.14037533416E+03  0.21884531813E+03 -0.58737499363E+03  0.64234561635E+03  0.25500000000E-02 0.  1.
<mgrwt>
<rscale>  0 0.27470167E+03</rscale>
<asrwt>0</asrwt>
<pdfrwt beam="1">  1       11 0.10000000E+01 0.27359402E+03</pdfrwt>
<pdfrwt beam="2">  1        2 0.10503866E+00 0.27470167E+03</pdfrwt>
<totfact> 0.53949053E+01</totfact>
</mgrwt>
</event>
<event>
 5    1  0.9955701E-004  0.5582347E+02  0.7818608E-02  0.1520048E+00
         11   -1    0    0    0    0  0.00000000000E+00  0.00000000000E+00  0.99998305217E+03  0.99998305217E+03  0.51100000000E-03 0. -1.
          2   -1    0    0  501    0 -0.00000000000E+00 -0.00000000000E+00 -0.86507040317E+01  0.86507044075E+01  0.25500000000E-02 0. -1.
         11    1    1    2    0    0  0.22450400279E+02  0.68284606604E+02  0.20109111214E+03  0.21355196874E+03  0.51100000000E-03 0. -1.
         22    1    1    2    0    0 -0.21957482644E+02 -0.14772005137E+02  0.12946587945E+03  0.13214294200E+03  0.00000000000E+00 0. -1.
          2    1    1    2  501    0 -0.49291763494E+00 -0.53512601467E+02  0.66077535655E+03  0.66293884584E+03  0.25500000000E-02 0. -1.
<mgrwt>
<rscale>  0 0.38435810E+02</rscale>
<asrwt>0</asrwt>
<pdfrwt beam="1">  1       11 0.10000000E+01 0.55823472E+02</pdfrwt>
<pdfrwt beam="2">  1        2 0.13308550E-02 0.38435810E+02</pdfrwt>
<totfact> 0.89778419E+03</totfact>
</mgrwt>
</event>
<event>
 5    1  0.9955701E-004  0.1871085E+03  0.7818608E-02  0.1161095E+00
         11   -1    0    0    0    0  0.00000000000E+00  0.00000000000E+00  0.10001564866E+04  0.10001564866E+04  0.51100000000E-03 0.  1.
          2   -1    0    0  501    0 -0.00000000000E+00 -0.00000000000E+00 -0.43647088034E+02  0.43647088108E+02  0.25500000000E-02 0.  1.
         11    1    1    2    0    0 -0.17311531935E+03  0.50490356383E+02  0.71995644769E+03  0.74219638672E+03  0.51100000000E-03 0.  1.
         22    1    1    2    0    0  0.51171709318E+01 -0.13792888448E+02  0.13522726194E+02  0.19982325535E+02  0.00000000000E+00 0. -1.
          2    1    1    2  501    0  0.16799814842E+03 -0.36697467934E+02  0.22303022468E+03  0.28162486245E+03  0.25500000000E-02 0.  1.
<mgrwt>
<rscale>  0 0.18710852E+03</rscale>
<asrwt>0</asrwt>
<pdfrwt beam="1">  1       11 0.10000000E+01 0.18032801E+03</pdfrwt>
<pdfrwt beam="2">  1        2 0.67159872E-02 0.18710852E+03</pdfrwt>
<totfact> 0.12798790E+03</totfact>
</mgrwt>
</event>
<event>
 5    1  0.1533400E-003  0.1907854E+03  0.7818608E-02  0.1476135E+00
         11   -1    0    0    0    0  0.00000000000E+00  0.00000000000E+00  0.10006715017E+04  0.10006715017E+04  0.51100000000E-03 0.  1.
          2   -1    0    0  501    0 -0.00000000000E+00 -0.00000000000E+00 -0.43145531647E+03  0.43145531648E+03  0.25500000000E-02 0.  1.
         11    1    1    2    0    0  0.36909886268E+02  0.18732573580E+03  0.96646725659E+03  0.98514579077E+03  0.51100000000E-03 0.  1.
         22    1    1    2    0    0 -0.93403905625E+01 -0.47515335771E+01 -0.19180147402E+01  0.10653579105E+02  0.00000000000E+00 0. -1.
          2    1    1    2  501    0 -0.27569495706E+02 -0.18257420223E+03 -0.39533305667E+03  0.43632744827E+03  0.25500000000E-02 0.  1.
<mgrwt>
<rscale>  0 0.44713937E+02</rscale>
<asrwt>0</asrwt>
<pdfrwt beam="1">  1       11 0.10000000E+01 0.19078542E+03</pdfrwt>
<pdfrwt beam="2">  1        2 0.66422312E-01 0.44713937E+02</pdfrwt>
<totfact> 0.92601124E+01</totfact>
</mgrwt>
</event>
<event>
 5    1  0.9955701E-004  0.8054381E+02  0.7818608E-02  0.1332681E+00
         11   -1    0    0    0    0  0.00000000000E+00  0.00000000000E+00  0.10001746724E+04  0.10001746724E+04  0.51100000000E-03 0. -1.
          2   -1    0    0  501    0 -0.00000000000E+00 -0.00000000000E+00 -0.11718769629E+02  0.11718769907E+02  0.25500000000E-02 0. -1.
         11    1    1    2    0    0  0.11988404817E+02 -0.23993094165E+01  0.39132744187E+02  0.40998173174E+02  0.51100000000E-03 0. -1.
         22    1    1    2    0    0  0.66620524433E+02 -0.20499657250E+01  0.11541442574E+03  0.13327785376E+03  0.00000000000E+00 0. -1.
          2    1    1    2  501    0 -0.78608929250E+02  0.44492751415E+01  0.83390873280E+03  0.83761741533E+03  0.25500000000E-02 0. -1.
<mgrwt>
<rscale>  0 0.78734743E+02</rscale>
<asrwt>0</asrwt>
<pdfrwt beam="1">  1       11 0.10000000E+01 0.80543813E+02</pdfrwt>
<pdfrwt beam="2">  1        2 0.18032025E-02 0.78734743E+02</pdfrwt>
<totfact> 0.67085806E+03</totfact>
</mgrwt>
</event>
<event>
 5    1  0.9955701E-004  0.2722424E+03  0.7818608E-02  0.1300619E+00
         11   -1    0    0    0    0  0.00000000000E+00  0.00000000000E+00  0.10001932196E+04  0.10001932196E+04  0.51100000000E-03 0. -1.
          2   -1    0    0  501    0 -0.00000000000E+00 -0.00000000000E+00 -0.27691881724E+03  0.27691881725E+03  0.25500000000E-02 0. -1.
         11    1    1    2    0    0  0.10291407696E+03  0.24653642873E+03  0.76721722662E+03  0.81240001892E+03  0.51100000000E-03 0. -1.
         22    1    1    2    0    0  0.20274666378E+02  0.22611271802E+02 -0.14790125474E+03  0.15098712813E+03  0.00000000000E+00 0.  1.
          2    1    1    2  501    0 -0.12318874334E+03 -0.26914770053E+03  0.10395843045E+03  0.31372488976E+03  0.25500000000E-02 0. -1.
<mgrwt>
<rscale>  0 0.90928420E+02</rscale>
<asrwt>0</asrwt>
<pdfrwt beam="1">  1       11 0.10000000E+01 0.27224237E+03</pdfrwt>
<pdfrwt beam="2">  1        2 0.42611125E-01 0.90928420E+02</pdfrwt>
<totfact> 0.14688172E+02</totfact>
</mgrwt>
</event>
<event>
 5    1  0.9955701E-004  0.2179353E+03  0.7818608E-02  0.1462396E+00
         11   -1    0    0    0    0  0.00000000000E+00  0.00000000000E+00  0.10002227551E+04  0.10002227551E+04  0.51100000000E-03 0.  1.
          2   -1    0    0  501    0 -0.00000000000E+00 -0.00000000000E+00 -0.65471926705E+02  0.65471926754E+02  0.25500000000E-02 0.  1.
         11    1    1    2    0    0  0.20972404663E+03 -0.55590128082E+02  0.69867804381E+03  0.73159103807E+03  0.51100000000E-03 0.  1.
         22    1    1    2    0    0  0.57871503458E+01  0.83066303133E+01 -0.10863991900E+01  0.10181919244E+02  0.00000000000E+00 0.  1.
          2    1    1    2  501    0 -0.21551119697E+03  0.47283497769E+02  0.23715918379E+03  0.32392172457E+03  0.25500000000E-02 0.  1.
<mgrwt>
<rscale>  0 0.46971608E+02</rscale>
<asrwt>0</asrwt>
<pdfrwt beam="1">  1       11 0.10000000E+01 0.21793527E+03</pdfrwt>
<pdfrwt beam="2">  1        2 0.10074848E-01 0.46971608E+02</pdfrwt>
<totfact> 0.70302499E+02</totfact>
</mgrwt>
</event>
<event>
 5    1  0.9955701E-004  0.1259869E+03  0.7818608E-02  0.1239555E+00
         11   -1    0    0    0    0  0.00000000000E+00  0.00000000000E+00  0.10003460834E+04  0.10003460834E+04  0.51100000000E-03 0. -1.
         -2   -1    0    0    0  501 -0.00000000000E+00 -0.00000000000E+00 -0.15627140179E+02  0.15627140387E+02  0.25500000000E-02 0.  1.
         11    1    1    2    0    0 -0.25296961350E+02 -0.10416414176E+03  0.51509101229E+03  0.52612627346E+03  0.51100000000E-03 0. -1.
         22    1    1    2    0    0  0.44572466988E+01 -0.16218060096E+02  0.47229692117E+02  0.50135180651E+02  0.00000000000E+00 0.  1.
         -2    1    1    2    0  501  0.20839714651E+02  0.12038220186E+03  0.42239823878E+03  0.43971176964E+03  0.25500000000E-02 0.  1.
<mgrwt>
<rscale>  0 0.12217270E+03</rscale>
<asrwt>0</asrwt>
<pdfrwt beam="1">  1       11 0.10000000E+01 0.12598686E+03</pdfrwt>
<pdfrwt beam="2">  1       -2 0.24050074E-02 0.12217270E+03</pdfrwt>
<totfact> 0.43058026E+03</totfact>
</mgrwt>
</event>
<event>
 5    1  0.9955701E-004  0.2433976E+03  0.7818608E-02  0.1438680E+00
         11   -1    0    0    0    0  0.00000000000E+00  0.00000000000E+00  0.10002090853E+04  0.10002090853E+04  0.51100000000E-03 0. -1.
         -2   -1    0    0    0  501 -0.00000000000E+00 -0.00000000000E+00 -0.14984147152E+03  0.14984147155E+03  0.25500000000E-02 0.  1.
         11    1    1    2    0    0 -0.19346627892E+03  0.14980647444E+03  0.86581565297E+03  0.89972658391E+03  0.51100000000E-03 0. -1.
         22    1    1    2    0    0  0.62733024725E+01 -0.87838260062E+01 -0.11709673216E+02  0.15925651322E+02  0.00000000000E+00 0. -1.
         -2    1    1    2    0  501  0.18719297644E+03 -0.14102264843E+03 -0.37383659572E+01  0.23439832164E+03  0.25500000000E-02 0.  1.
<mgrwt>
<rscale>  0 0.51256487E+02</rscale>
<asrwt>0</asrwt>
<pdfrwt beam="1">  1       11 0.10000000E+01 0.24339756E+03</pdfrwt>
<pdfrwt beam="2">  1       -2 0.23057353E-01 0.51256487E+02</pdfrwt>
<totfact> 0.12533752E+02</totfact>
</mgrwt>
</event>
<event>
 5    1  0.9955701E-004  0.1606369E+03  0.7818608E-02  0.1448986E+00
         11   -1    0    0    0    0  0.00000000000E+00  0.00000000000E+00  0.10002697365E+04  0.10002697365E+04  0.51100000000E-03 0. -1.
         -2   -1    0    0    0  501 -0.00000000000E+00 -0.00000000000E+00 -0.45976496928E+02  0.45976496999E+02  0.25500000000E-02 0.  1.
         11    1    1    2    0    0 -0.98849773971E+02  0.12216673063E+03  0.71529648782E+03  0.73235582429E+03  0.51100000000E-03 0. -1.
         22    1    1    2    0    0 -0.60991416745E+01  0.13867082868E+02 -0.45695419794E+01  0.15823281276E+02  0.00000000000E+00 0. -1.
         -2    1    1    2    0  501  0.10494891565E+03 -0.13603381350E+03  0.24356629379E+03  0.29806712798E+03  0.25500000000E-02 0.  1.
<mgrwt>
<rscale>  0 0.49330571E+02</rscale>
<asrwt>0</asrwt>
<pdfrwt beam="1">  1       11 0.10000000E+01 0.16063685E+03</pdfrwt>
<pdfrwt beam="2">  1       -2 0.70752150E-02 0.49330571E+02</pdfrwt>
<totfact> 0.80043290E+02</totfact>
</mgrwt>
</event>
<event>
 5    1  0.9955701E-004  0.4592621E+02  0.7818608E-02  0.1548735E+00
         11   -1    0    0    0    0  0.00000000000E+00  0.00000000000E+00  0.10001865392E+04  0.10001865392E+04  0.51100000000E-03 0.  1.
         -2   -1    0    0    0  501 -0.00000000000E+00 -0.00000000000E+00 -0.17336468724E+02  0.17336468912E+02  0.25500000000E-02 0.  1.
         11    1    1    2    0    0  0.15223471417E+02 -0.23840348999E+02  0.11304698816E+03  0.11653213228E+03  0.51100000000E-03 0.  1.
         22    1    1    2    0    0  0.18719846100E+02 -0.18968387957E+02 -0.26930953457E+01  0.26785913130E+02  0.00000000000E+00 0.  1.
         -2    1    1    2    0  501 -0.33943317517E+02  0.42808736956E+02  0.87249617766E+03  0.87420496270E+03  0.25500000000E-02 0.  1.
<mgrwt>
<rscale>  0 0.34984874E+02</rscale>
<asrwt>0</asrwt>
<pdfrwt beam="1">  1       11 0.10000000E+01 0.45926211E+02</pdfrwt>
<pdfrwt beam="2">  1       -2 0.26676465E-02 0.34984874E+02</pdfrwt>
<totfact> 0.31301258E+03</totfact>
</mgrwt>
</event>
<event>
 5    1  0.9955701E-004  0.1835876E+03  0.7818608E-02  0.1400030E+00
         11   -1    0    0    0    0  0.00000000000E+00  0.00000000000E+00  0.10002639745E+04  0.10002639745E+04  0.51100000000E-03 0. -1.
          2   -1    0    0  501    0 -0.00000000000E+00 -0.00000000000E+00 -0.63328446510E+02  0.63328446561E+02  0.25500000000E-02 0. -1.
         11    1    1    2    0    0  0.11729206124E+03  0.14288282216E+03  0.80460898099E+03  0.82557164486E+03  0.51100000000E-03 0. -1.
         22    1    1    2    0    0 -0.18406358975E+02  0.57052104982E+01  0.15103089935E+02  0.24483602740E+02  0.00000000000E+00 0. -1.
          2    1    1    2  501    0 -0.98885702262E+02 -0.14858803266E+03  0.11722345708E+03  0.21353717348E+03  0.25500000000E-02 0. -1.
<mgrwt>
<rscale>  0 0.59479273E+02</rscale>
<asrwt>0</asrwt>
<pdfrwt beam="1">  1       11 0.10000000E+01 0.18358762E+03</pdfrwt>
<pdfrwt beam="2">  1        2 0.97454095E-02 0.59479273E+02</pdfrwt>
<totfact> 0.74438632E+02</totfact>
</mgrwt>
</event>
<event>
 5    1  0.9955701E-004  0.1127644E+03  0.7818608E-02  0.1255535E+00
         11   -1    0    0    0    0  0.00000000000E+00  0.00000000000E+00  0.10005454283E+04  0.10005454283E+04  0.51100000000E-03 0.  1.
          2   -1    0    0  501    0 -0.00000000000E+00 -0.00000000000E+00 -0.11896963790E+03  0.11896963793E+03  0.25500000000E-02 0.  1.
         11    1    1    2    0    0 -0.78674511059E+02  0.91994943729E+01  0.12429179791E+03  0.14738643226E+03  0.51100000000E-03 0.  1.
         22    1    1    2    0    0 -0.10904003956E+03  0.13751704751E+02 -0.65465932155E+02  0.12792430529E+03  0.00000000000E+00 0.  1.
          2    1    1    2  501    0  0.18771455061E+03 -0.22951199124E+02  0.82274992464E+03  0.84420432868E+03  0.25500000000E-02 0.  1.
<mgrwt>
<rscale>  0 0.11276438E+03</rscale>
<asrwt>0</asrwt>
<pdfrwt beam="1">  1       11 0.10000000E+01 0.79210538E+02</pdfrwt>
<pdfrwt beam="2">  1        2 0.18313004E-01 0.11276438E+03</pdfrwt>
<totfact> 0.36884998E+02</totfact>
</mgrwt>
</event>
<event>
 5    1  0.9955701E-004  0.3062291E+03  0.7818608E-02  0.1082168E+00
         11   -1    0    0    0    0  0.00000000000E+00  0.00000000000E+00  0.10000461601E+04  0.10000461601E+04  0.51100000000E-03 0.  1.
          2   -1    0    0  501    0 -0.00000000000E+00 -0.00000000000E+00 -0.10382123925E+04  0.10382123925E+04  0.25500000000E-02 0.  1.
         11    1    1    2    0    0 -0.33608363122E+02 -0.27000256885E+03  0.95810277238E+03  0.99598786725E+03  0.51100000000E-03 0.  1.
         22    1    1    2    0    0 -0.36430581583E+02  0.19138881821E+03 -0.54177101120E+03  0.57573665472E+03  0.00000000000E+00 0.  1.
          2    1    1    2  501    0  0.70038944705E+02  0.78613750637E+02 -0.45449799356E+03  0.46653403061E+03  0.25500000000E-02 0.  1.
<mgrwt>
<rscale>  0 0.30622908E+03</rscale>
<asrwt>0</asrwt>
<pdfrwt beam="1">  1       11 0.10000000E+01 0.27208622E+03</pdfrwt>
<pdfrwt beam="2">  1        2 0.15973235E+00 0.30622908E+03</pdfrwt>
<totfact> 0.30939802E+01</totfact>
</mgrwt>
</event>
<event>
 5    1  0.9955701E-004  0.2044033E+03  0.7818608E-02  0.1249839E+00
         11   -1    0    0    0    0  0.00000000000E+00  0.00000000000E+00  0.10002875937E+04  0.10002875937E+04  0.51100000000E-03 0.  1.
          2   -1    0    0  501    0 -0.00000000000E+00 -0.00000000000E+00 -0.36093956300E+03  0.36093956301E+03  0.25500000000E-02 0.  1.
         11    1    1    2    0    0 -0.65985073535E+02 -0.20129350481E+03  0.91470237811E+03  0.93891082938E+03  0.51100000000E-03 0.  1.
         22    1    1    2    0    0 -0.67234857337E+01  0.65491013134E+02 -0.25919960647E+03  0.26742983015E+03  0.00000000000E+00 0.  1.
          2    1    1    2  501    0  0.72708559269E+02  0.13580249168E+03 -0.16154740965E+02  0.15488649715E+03  0.25500000000E-02 0.  1.
<mgrwt>
<rscale>  0 0.11600406E+03</rscale>
<asrwt>0</asrwt>
<pdfrwt beam="1">  1       11 0.10000000E+01 0.20440334E+03</pdfrwt>
<pdfrwt beam="2">  1        2 0.55545132E-01 0.11600406E+03</pdfrwt>
<totfact> 0.11130250E+02</totfact>
</mgrwt>
</event>
<event>
 5    1  0.9955701E-004  0.1549377E+03  0.7818608E-02  0.1421174E+00
         11   -1    0    0    0    0  0.00000000000E+00  0.00000000000E+00  0.10002242146E+04  0.10002242146E+04  0.51100000000E-03 0. -1.
          2   -1    0    0  501    0 -0.00000000000E+00 -0.00000000000E+00 -0.11654945371E+03  0.11654945374E+03  0.25500000000E-02 0. -1.
         11    1    1    2    0    0 -0.26673574353E+02 -0.15406678985E+03  0.91512264232E+03  0.92838435240E+03  0.51100000000E-03 0. -1.
         22    1    1    2    0    0 -0.88203250130E+01  0.17237796638E+02 -0.42395724474E+02  0.46608338524E+02  0.00000000000E+00 0. -1.
          2    1    1    2  501    0  0.35493899366E+02  0.13682899321E+03  0.10947843013E+02  0.14178097738E+03  0.25500000000E-02 0. -1.
<mgrwt>
<rscale>  0 0.54773303E+02</rscale>
<asrwt>0</asrwt>
<pdfrwt beam="1">  1       11 0.10000000E+01 0.15493770E+03</pdfrwt>
<pdfrwt beam="2">  1        2 0.17934705E-01 0.54773303E+02</pdfrwt>
<totfact> 0.36604255E+02</totfact>
</mgrwt>
</event>
<event>
 5    1  0.9955701E-004  0.1666192E+03  0.7818608E-02  0.1236803E+00
         11   -1    0    0    0    0  0.00000000000E+00  0.00000000000E+00  0.10000209195E+04  0.10000209195E+04  0.51100000000E-03 0.  1.
         -2   -1    0    0    0  501 -0.00000000000E+00 -0.00000000000E+00 -0.79163618122E+02  0.79163618163E+02  0.25500000000E-02 0. -1.
         11    1    1    2    0    0  0.93721202851E+02  0.15435019467E+03  0.74498342315E+03  0.76655589961E+03  0.51100000000E-03 0.  1.
         22    1    1    2    0    0 -0.91765789214E+02 -0.81723032989E+01  0.11811989836E+02  0.92883097037E+02  0.00000000000E+00 0.  1.
         -2    1    1    2    0  501 -0.19554136366E+01 -0.14617789137E+03  0.16406188839E+03  0.21974554101E+03  0.25500000000E-02 0. -1.
<mgrwt>
<rscale>  0 0.12389696E+03</rscale>
<asrwt>0</asrwt>
<pdfrwt beam="1">  1       11 0.10000000E+01 0.16661922E+03</pdfrwt>
<pdfrwt beam="2">  1       -2 0.12179273E-01 0.12389696E+03</pdfrwt>
<totfact> 0.37163885E+02</totfact>
</mgrwt>
</event>
<event>
 5    1  0.9955701E-004  0.6017432E+02  0.7818608E-02  0.1653718E+00
         11   -1    0    0    0    0  0.00000000000E+00  0.00000000000E+00  0.10001246845E+04  0.10001246845E+04  0.51100000000E-03 0.  1.
          2   -1    0    0  501    0 -0.00000000000E+00 -0.00000000000E+00 -0.81132981793E+01  0.81132985800E+01  0.25500000000E-02 0.  1.
         11    1    1    2    0    0  0.57972475128E+02  0.16881788043E+02  0.14973379924E+03  0.16144972368E+03  0.51100000000E-03 0.  1.
         22    1    1    2    0    0 -0.40276303832E+01  0.10040852956E+02  0.24391439826E+02  0.26683007165E+02  0.00000000000E+00 0.  1.
          2    1    1    2  501    0 -0.53944844745E+02 -0.26922640998E+02  0.81788614723E+03  0.82010525221E+03  0.25500000000E-02 0.  1.
<mgrwt>
<rscale>  0 0.25514646E+02</rscale>
<asrwt>0</asrwt>
<pdfrwt beam="1">  1       11 0.10000000E+01 0.60174318E+02</pdfrwt>
<pdfrwt beam="2">  1        2 0.12483553E-02 0.25514646E+02</pdfrwt>
<totfact> 0.90187774E+03</totfact>
</mgrwt>
</event>
<event>
 5    1  0.9955701E-004  0.2600867E+03  0.7818608E-02  0.1428634E+00
         11   -1    0    0    0    0  0.00000000000E+00  0.00000000000E+00  0.99985339356E+03  0.99985339356E+03  0.51100000000E-03 0.  1.
          2   -1    0    0  501    0 -0.00000000000E+00 -0.00000000000E+00 -0.31770102801E+03  0.31770102803E+03  0.25500000000E-02 0.  1.
         11    1    1    2    0    0 -0.18318678800E+03 -0.18565570123E+03  0.91435685556E+03  0.95082800653E+03  0.51100000000E-03 0.  1.
         22    1    1    2    0    0  0.99492156764E+01  0.44432849048E+01 -0.63785744074E+02  0.64709742855E+02  0.00000000000E+00 0.  1.
          2    1    1    2  501    0  0.17323757232E+03  0.18121241632E+03 -0.16841874594E+03  0.30201667220E+03  0.25500000000E-02 0.  1.
<mgrwt>
<rscale>  0 0.53235199E+02</rscale>
<asrwt>0</asrwt>
<pdfrwt beam="1">  1       11 0.10000000E+01 0.26008669E+03</pdfrwt>
<pdfrwt beam="2">  1        2 0.48869914E-01 0.53235199E+02</pdfrwt>
<totfact> 0.12682806E+02</totfact>
</mgrwt>
</event>
<event>
 5    1  0.9955701E-004  0.1308985E+03  0.7818608E-02  0.1387786E+00
         11   -1    0    0    0    0  0.00000000000E+00  0.00000000000E+00  0.10001515190E+04  0.10001515190E+04  0.51100000000E-03 0. -1.
          2   -1    0    0  501    0 -0.00000000000E+00 -0.00000000000E+00 -0.61699456844E+02  0.61699456897E+02  0.25500000000E-02 0. -1.
         11    1    1    2    0    0  0.14521628729E+03  0.58932973932E+02  0.99794622015E+02  0.18579513474E+03  0.51100000000E-03 0. -1.
         22    1    1    2    0    0 -0.29506205783E+02 -0.42056611801E+01  0.22263143367E+01  0.29887459598E+02  0.00000000000E+00 0. -1.
          2    1    1    2  501    0 -0.11571008151E+03 -0.54727312752E+02  0.83643112578E+03  0.84616838154E+03  0.25500000000E-02 0. -1.
<mgrwt>
<rscale>  0 0.62460811E+02</rscale>
<asrwt>0</asrwt>
<pdfrwt beam="1">  1       11 0.10000000E+01 0.13089851E+03</pdfrwt>
<pdfrwt beam="2">  1        2 0.94936621E-02 0.62460811E+02</pdfrwt>
<totfact> 0.77092213E+02</totfact>
</mgrwt>
</event>
<event>
 5    1  0.9955701E-004  0.5713708E+02  0.7818608E-02  0.1418794E+00
         11   -1    0    0    0    0  0.00000000000E+00  0.00000000000E+00  0.10001656587E+04  0.10001656587E+04  0.51100000000E-03 0.  1.
         -2   -1    0    0    0  501 -0.00000000000E+00 -0.00000000000E+00 -0.44595076802E+01  0.44595084093E+01  0.25500000000E-02 0.  1.
         11    1    1    2    0    0  0.96055682327E+01 -0.32864139974E+01  0.39162779200E+02  0.40457270458E+02  0.51100000000E-03 0.  1.
         22    1    1    2    0    0  0.25318574061E+02 -0.39560223262E+02  0.19325981693E+03  0.19888538986E+03  0.00000000000E+00 0.  1.
         -2    1    1    2    0  501 -0.34924142294E+02  0.42846637260E+02  0.76328355485E+03  0.76528250676E+03  0.25500000000E-02 0.  1.
<mgrwt>
<rscale>  0 0.55276849E+02</rscale>
<asrwt>0</asrwt>
<pdfrwt beam="1">  1       11 0.10000000E+01 0.57137079E+02</pdfrwt>
<pdfrwt beam="2">  1       -2 0.68619180E-03 0.55276849E+02</pdfrwt>
<totfact> 0.22541460E+04</totfact>
</mgrwt>
</event>
<event>
 5    1  0.9955701E-004  0.1083237E+03  0.7818608E-02  0.1529922E+00
         11   -1    0    0    0    0  0.00000000000E+00  0.00000000000E+00  0.10001515884E+04  0.10001515884E+04  0.51100000000E-03 0. -1.
         -2   -1    0    0    0  501 -0.00000000000E+00 -0.00000000000E+00 -0.25984964665E+02  0.25984964790E+02  0.25500000000E-02 0.  1.
         11    1    1    2    0    0  0.31337787756E+02 -0.11069457581E+03  0.52429389687E+03  0.53676758131E+03  0.51100000000E-03 0. -1.
         22    1    1    2    0    0 -0.29667293959E+01  0.12422900069E+02 -0.11260866626E+02  0.17027537890E+02  0.00000000000E+00 0.  1.
         -2    1    1    2    0  501 -0.28371058360E+02  0.98271675745E+02  0.46113359348E+03  0.47234143397E+03  0.25500000000E-02 0.  1.
<mgrwt>
<rscale>  0 0.37195897E+02</rscale>
<asrwt>0</asrwt>
<pdfrwt beam="1">  1       11 0.10000000E+01 0.10832370E+03</pdfrwt>
<pdfrwt beam="2">  1       -2 0.39982928E-02 0.37195897E+02</pdfrwt>
<totfact> 0.17797725E+03</totfact>
</mgrwt>
</event>
<event>
 5    1  0.9955701E-004  0.7194733E+03  0.7818608E-02  0.9684498E-01
         11   -1    0    0    0    0  0.00000000000E+00  0.00000000000E+00  0.10004901774E+04  0.10004901774E+04  0.51100000000E-03 0. -1.
          2   -1    0    0  501    0 -0.00000000000E+00 -0.00000000000E+00 -0.66857400483E+03  0.66857400483E+03  0.25500000000E-02 0. -1.
         11    1    1    2    0    0 -0.71444961154E+03  0.66965185481E+02  0.56441756324E+03  0.91295660860E+03  0.51100000000E-03 0. -1.
         22    1    1    2    0    0  0.21067982274E+02 -0.35224226975E+01  0.18705384492E+01  0.21442160639E+02  0.00000000000E+00 0. -1.
          2    1    1    2  501    0  0.69338162926E+03 -0.63442762783E+02 -0.23437192908E+03  0.73466541303E+03  0.25500000000E-02 0. -1.
<mgrwt>
<rscale>  0 0.71947326E+03</rscale>
<asrwt>0</asrwt>
<pdfrwt beam="1">  1       11 0.10000000E+01 0.71758106E+03</pdfrwt>
<pdfrwt beam="2">  1        2 0.10290795E+00 0.71947326E+03</pdfrwt>
<totfact> 0.53836820E+01</totfact>
</mgrwt>
</event>
<event>
 5    1  0.9955701E-004  0.1679173E+03  0.7818608E-02  0.1483412E+00
         11   -1    0    0    0    0  0.00000000000E+00  0.00000000000E+00  0.10001100998E+04  0.10001100998E+04  0.51100000000E-03 0.  1.
          2   -1    0    0  501    0 -0.00000000000E+00 -0.00000000000E+00 -0.62580086528E+02  0.62580086580E+02  0.25500000000E-02 0.  1.
         11    1    1    2    0    0 -0.12983591772E+03 -0.10879885200E+03  0.84811636736E+03  0.86486757848E+03  0.51100000000E-03 0.  1.
         22    1    1    2    0    0  0.11208619495E+02  0.15108110010E+01 -0.46924833023E+01  0.12244798913E+02  0.00000000000E+00 0.  1.
          2    1    1    2  501    0  0.11862729822E+03  0.10728804099E+03  0.94106129209E+02  0.18557780898E+03  0.25500000000E-02 0.  1.
<mgrwt>
<rscale>  0 0.43579145E+02</rscale>
<asrwt>0</asrwt>
<pdfrwt beam="1">  1       11 0.10000000E+01 0.16791732E+03</pdfrwt>
<pdfrwt beam="2">  1        2 0.96287654E-02 0.43579145E+02</pdfrwt>
<totfact> 0.73747726E+02</totfact>
</mgrwt>
</event>
<event>
 5    1  0.9955701E-004  0.7393796E+02  0.7818608E-02  0.1598279E+00
         11   -1    0    0    0    0  0.00000000000E+00  0.00000000000E+00  0.99990124776E+03  0.99990124776E+03  0.51100000000E-03 0.  1.
          2   -1    0    0  501    0 -0.00000000000E+00 -0.00000000000E+00 -0.89938373433E+01  0.89938377048E+01  0.25500000000E-02 0.  1.
         11    1    1    2    0    0 -0.20834671388E+02  0.73351233325E+02  0.22098648645E+03  0.23377235541E+03  0.51100000000E-03 0.  1.
         22    1    1    2    0    0  0.12152148082E+02 -0.39085321151E+00  0.49783704906E+02  0.51246899842E+02  0.00000000000E+00 0.  1.
          2    1    1    2  501    0  0.86825233062E+01 -0.72960380114E+02  0.72013721906E+03  0.72387583021E+03  0.25500000000E-02 0.  1.
<mgrwt>
<rscale>  0 0.29982816E+02</rscale>
<asrwt>0</asrwt>
<pdfrwt beam="1">  1       11 0.10000000E+01 0.73937964E+02</pdfrwt>
<pdfrwt beam="2">  1        2 0.13835306E-02 0.29982816E+02</pdfrwt>
<totfact> 0.81438787E+03</totfact>
</mgrwt>
</event>
<event>
 5    1  0.9955701E-004  0.7545051E+02  0.7818608E-02  0.1516118E+00
         11   -1    0    0    0    0  0.00000000000E+00  0.00000000000E+00  0.10002758025E+04  0.10002758025E+04  0.51100000000E-03 0. -1.
          2   -1    0    0  501    0 -0.00000000000E+00 -0.00000000000E+00 -0.86477381234E+01  0.86477384994E+01  0.25500000000E-02 0. -1.
         11    1    1    2    0    0  0.73101280046E+02 -0.23916626533E+02  0.28751422962E+03  0.29762431756E+03  0.51100000000E-03 0. -1.
         22    1    1    2    0    0  0.24117720894E+01  0.19957352229E+02  0.74634152521E+02  0.77294044241E+02  0.00000000000E+00 0. -1.
          2    1    1    2  501    0 -0.75513052135E+02  0.39592743044E+01  0.62947968222E+03  0.63400517919E+03  0.25500000000E-02 0. -1.
<mgrwt>
<rscale>  0 0.38945435E+02</rscale>
<asrwt>0</asrwt>
<pdfrwt beam="1">  1       11 0.10000000E+01 0.75450506E+02</pdfrwt>
<pdfrwt beam="2">  1        2 0.13307882E-02 0.38945435E+02</pdfrwt>
<totfact> 0.89999282E+03</totfact>
</mgrwt>
</event>
<event>
 5    1  0.9955701E-004  0.4984090E+03  0.7818608E-02  0.1221286E+00
         11   -1    0    0    0    0  0.00000000000E+00  0.00000000000E+00  0.99989534691E+03  0.99989534691E+03  0.51100000000E-03 0. -1.
          2   -1    0    0  501    0 -0.00000000000E+00 -0.00000000000E+00 -0.35655389334E+03  0.35655389335E+03  0.25500000000E-02 0. -1.
         11    1    1    2    0    0 -0.43946600356E+03 -0.23473122317E+03  0.51185422369E+03  0.71429956021E+03  0.51100000000E-03 0. -1.
         22    1    1    2    0    0  0.17058742164E+02 -0.31883033626E+02 -0.89056819203E+02  0.96117873281E+02  0.00000000000E+00 0.  1.
          2    1    1    2  501    0  0.42240726140E+03  0.26661425679E+03  0.22054404908E+03  0.54603180676E+03  0.25500000000E-02 0. -1.
<mgrwt>
<rscale>  0 0.13424736E+03</rscale>
<asrwt>0</asrwt>
<pdfrwt beam="1">  1       11 0.10000000E+01 0.49840904E+03</pdfrwt>
<pdfrwt beam="2">  1        2 0.54848703E-01 0.13424736E+03</pdfrwt>
<totfact> 0.11277994E+02</totfact>
</mgrwt>
</event>
<event>
 5    1  0.1688645E-003  0.1826049E+03  0.7818608E-02  0.1165306E+00
         11   -1    0    0    0    0  0.00000000000E+00  0.00000000000E+00  0.10000859485E+04  0.10000859485E+04  0.51100000000E-03 0.  1.
         -2   -1    0    0    0  501 -0.00000000000E+00 -0.00000000000E+00 -0.55031184465E+03  0.55031184466E+03  0.25500000000E-02 0. -1.
         11    1    1    2    0    0  0.95864299765E+02 -0.15063037310E+03  0.97661821390E+03  0.99280542353E+03  0.51100000000E-03 0.  1.
         22    1    1    2    0    0 -0.43872738098E+02  0.36076885672E+02 -0.16220594872E+03  0.17186369200E+03  0.00000000000E+00 0. -1.
         -2    1    1    2    0  501 -0.51991561667E+02  0.11455348743E+03 -0.36463816138E+03  0.38572867758E+03  0.25500000000E-02 0. -1.
<mgrwt>
<rscale>  0 0.18260486E+03</rscale>
<asrwt>0</asrwt>
<pdfrwt beam="1">  1       11 0.10000000E+01 0.17854824E+03</pdfrwt>
<pdfrwt beam="2">  1       -2 0.84670635E-01 0.18260486E+03</pdfrwt>
<totfact> 0.10288171E+01</totfact>
</mgrwt>
</event>
<event>
 5    1  0.9955701E-004  0.1164143E+03  0.7818608E-02  0.1554222E+00
         11   -1    0    0    0    0  0.00000000000E+00  0.00000000000E+00  0.10003090650E+04  0.10003090650E+04  0.51100000000E-03 0.  1.
         -2   -1    0    0    0  501 -0.00000000000E+00 -0.00000000000E+00 -0.17607948957E+02  0.17607949141E+02  0.25500000000E-02 0. -1.
         11    1    1    2    0    0  0.11247944571E+03 -0.17731628771E+02  0.53192523922E+03  0.54397655876E+03  0.51100000000E-03 0.  1.
         22    1    1    2    0    0  0.69831954092E+01  0.73663318135E+01  0.32949091555E+01  0.10671658205E+02  0.00000000000E+00 0. -1.
         -2    1    1    2    0  501 -0.11946264111E+03  0.10365296958E+02  0.44748096771E+03  0.46326879722E+03  0.25500000000E-02 0. -1.
<mgrwt>
<rscale>  0 0.34374938E+02</rscale>
<asrwt>0</asrwt>
<pdfrwt beam="1">  1       11 0.10000000E+01 0.11641435E+03</pdfrwt>
<pdfrwt beam="2">  1       -2 0.27097524E-02 0.34374938E+02</pdfrwt>
<totfact> 0.30534186E+03</totfact>
</mgrwt>
</event>
<event>
 5    1  0.9955701E-004  0.2031050E+03  0.7818608E-02  0.1206957E+00
         11   -1    0    0    0    0  0.00000000000E+00  0.00000000000E+00  0.10001687570E+04  0.10001687570E+04  0.51100000000E-03 0.  1.
          2   -1    0    0  501    0 -0.00000000000E+00 -0.00000000000E+00 -0.26701129277E+03  0.26701129278E+03  0.25500000000E-02 0.  1.
         11    1    1    2    0    0  0.15267999082E+03 -0.14226212348E+03  0.93110790391E+03  0.95420732553E+03  0.51100000000E-03 0.  1.
         22    1    1    2    0    0 -0.96774203078E+02  0.36116934022E+02 -0.31878018288E+02  0.10810128285E+03  0.00000000000E+00 0.  1.
          2    1    1    2  501    0 -0.55905787739E+02  0.10614518946E+03 -0.16607242139E+03  0.20487144140E+03  0.25500000000E-02 0.  1.
<mgrwt>
<rscale>  0 0.14484320E+03</rscale>
<asrwt>0</asrwt>
<pdfrwt beam="1">  1       11 0.10000000E+01 0.20310498E+03</pdfrwt>
<pdfrwt beam="2">  1        2 0.41085592E-01 0.14484320E+03</pdfrwt>
<totfact> 0.15328852E+02</totfact>
</mgrwt>
</event>
<event>
 5    1  0.9955701E-004  0.5537727E+03  0.7818608E-02  0.1259664E+00
         11   -1    0    0    0    0  0.00000000000E+00  0.00000000000E+00  0.99988036575E+03  0.99988036575E+03  0.51100000000E-03 0. -1.
          2   -1    0    0  501    0 -0.00000000000E+00 -0.00000000000E+00 -0.40620139858E+03  0.40620139859E+03  0.25500000000E-02 0.  1.
         11    1    1    2    0    0  0.55240374895E+03  0.10677502356E+03  0.47636740321E+03  0.73720872917E+03  0.51100000000E-03 0. -1.
         22    1    1    2    0    0 -0.20279354581E+02 -0.86456264349E+01 -0.87558184307E+02  0.90290834074E+02  0.00000000000E+00 0.  1.
          2    1    1    2  501    0 -0.53212439437E+03 -0.98129397126E+02  0.20486974826E+03  0.57858220110E+03  0.25500000000E-02 0.  1.
<mgrwt>
<rscale>  0 0.11049042E+03</rscale>
<asrwt>0</asrwt>
<pdfrwt beam="1">  1       11 0.10000000E+01 0.55377272E+03</pdfrwt>
<pdfrwt beam="2">  1        2 0.62485045E-01 0.11049042E+03</pdfrwt>
<totfact> 0.98272327E+01</totfact>
</mgrwt>
</event>
<event>
 5    1  0.9955701E-004  0.4522621E+02  0.7818608E-02  0.1703413E+00
         11   -1    0    0    0    0  0.00000000000E+00  0.00000000000E+00  0.10003863996E+04  0.10003863996E+04  0.51100000000E-03 0.  1.
          2   -1    0    0  501    0 -0.00000000000E+00 -0.00000000000E+00 -0.72594358619E+01  0.72594363098E+01  0.25500000000E-02 0.  1.
         11    1    1    2    0    0 -0.52751820213E+02 -0.12002863718E+02  0.13170702905E+03  0.14238526881E+03  0.51100000000E-03 0.  1.
         22    1    1    2    0    0  0.10775047300E+02 -0.21027033501E+01  0.21194780303E+02  0.23869263034E+02  0.00000000000E+00 0.  1.
          2    1    1    2  501    0  0.41976772913E+02  0.14105567068E+02  0.84022515434E+03  0.84139130402E+03  0.25500000000E-02 0.  1.
<mgrwt>
<rscale>  0 0.22282426E+02</rscale>
<asrwt>0</asrwt>
<pdfrwt beam="1">  1       11 0.10000000E+01 0.45226209E+02</pdfrwt>
<pdfrwt beam="2">  1        2 0.11172678E-02 0.22282426E+02</pdfrwt>
<totfact> 0.10121077E+04</totfact>
</mgrwt>
</event>
<event>
 5    1  0.9955701E-004  0.6429770E+02  0.7818608E-02  0.1411529E+00
         11   -1    0    0    0    0  0.00000000000E+00  0.00000000000E+00  0.10000600150E+04  0.10000600150E+04  0.51100000000E-03 0.  1.
         -2   -1    0    0    0  501 -0.00000000000E+00 -0.00000000000E+00 -0.12649624483E+02  0.12649624740E+02  0.25500000000E-02 0. -1.
         11    1    1    2    0    0  0.56786333077E+02 -0.56067898168E+00  0.33982446381E+03  0.34453688945E+03  0.51100000000E-03 0.  1.
         22    1    1    2    0    0  0.83980020984E+01  0.49565910851E+02  0.78125401251E+02  0.92902552593E+02  0.00000000000E+00 0. -1.
         -2    1    1    2    0  501 -0.65184335175E+02 -0.49005231869E+02  0.56946052543E+03  0.57527019768E+03  0.25500000000E-02 0. -1.
<mgrwt>
<rscale>  0 0.56854150E+02</rscale>
<asrwt>0</asrwt>
<pdfrwt beam="1">  1       11 0.10000000E+01 0.64297698E+02</pdfrwt>
<pdfrwt beam="2">  1       -2 0.19462128E-02 0.56854150E+02</pdfrwt>
<totfact> 0.52651441E+03</totfact>
</mgrwt>
</event>
<event>
 5    1  0.9955701E-004  0.1048385E+03  0.7818608E-02  0.1308533E+00
         11   -1    0    0    0    0  0.00000000000E+00  0.00000000000E+00  0.10002104836E+04  0.10002104836E+04  0.51100000000E-03 0.  1.
          2   -1    0    0  501    0 -0.00000000000E+00 -0.00000000000E+00 -0.60710386373E+02  0.60710386427E+02  0.25500000000E-02 0.  1.
         11    1    1    2    0    0 -0.48909096212E+02  0.77241759422E+02  0.22494907646E+03  0.24281778372E+03  0.51100000000E-03 0.  1.
         22    1    1    2    0    0 -0.63600022151E+02 -0.36549428061E+02 -0.18257568942E+02  0.75592078506E+02  0.00000000000E+00 0.  1.
          2    1    1    2  501    0  0.11250911836E+03 -0.40692331361E+02  0.73280858971E+03  0.74251100781E+03  0.25500000000E-02 0.  1.
<mgrwt>
<rscale>  0 0.87694536E+02</rscale>
<asrwt>0</asrwt>
<pdfrwt beam="1">  1       11 0.10000000E+01 0.10483853E+03</pdfrwt>
<pdfrwt beam="2">  1        2 0.93420251E-02 0.87694536E+02</pdfrwt>
<totfact> 0.80482891E+02</totfact>
</mgrwt>
</event>
<event>
 5    1  0.9955701E-004  0.4916748E+03  0.7818608E-02  0.1257702E+00
         11   -1    0    0    0    0  0.00000000000E+00  0.00000000000E+00  0.10003385839E+04  0.10003385839E+04  0.51100000000E-03 0.  1.
          2   -1    0    0  501    0 -0.00000000000E+00 -0.00000000000E+00 -0.29065353230E+03  0.29065353231E+03  0.25500000000E-02 0.  1.
         11    1    1    2    0    0  0.14117944841E+03  0.47788752549E+03  0.54286411806E+03  0.73689183355E+03  0.51100000000E-03 0.  1.
         22    1    1    2    0    0 -0.22258953322E+02 -0.12056010817E+02 -0.25830178297E+02  0.36166372650E+02  0.00000000000E+00 0.  1.
          2    1    1    2  501    0 -0.11892049508E+03 -0.46583151468E+03  0.19265111181E+03  0.51793390998E+03  0.25500000000E-02 0.  1.
<mgrwt>
<rscale>  0 0.11156322E+03</rscale>
<asrwt>0</asrwt>
<pdfrwt beam="1">  1       11 0.10000000E+01 0.49167480E+03</pdfrwt>
<pdfrwt beam="2">  1        2 0.44731067E-01 0.11156322E+03</pdfrwt>
<totfact> 0.13982791E+02</totfact>
</mgrwt>
</event>
<event>
 5    1  0.9955701E-004  0.1249810E+03  0.7818608E-02  0.1370847E+00
         11   -1    0    0    0    0  0.00000000000E+00  0.00000000000E+00  0.10002034112E+04  0.10002034112E+04  0.51100000000E-03 0. -1.
          2   -1    0    0  501    0 -0.00000000000E+00 -0.00000000000E+00 -0.66783947069E+02  0.66783947118E+02  0.25500000000E-02 0. -1.
         11    1    1    2    0    0  0.11152001236E+03  0.98744597405E+01  0.45703873122E+03  0.47055139990E+03  0.51100000000E-03 0. -1.
         22    1    1    2    0    0  0.29914473698E+02  0.19748128074E+02 -0.43776593737E+02  0.56579629358E+02  0.00000000000E+00 0.  1.
          2    1    1    2  501    0 -0.14143448606E+03 -0.29622587814E+02  0.52015732668E+03  0.53985632910E+03  0.25500000000E-02 0. -1.
<mgrwt>
<rscale>  0 0.66932383E+02</rscale>
<asrwt>0</asrwt>
<pdfrwt beam="1">  1       11 0.10000000E+01 0.12498099E+03</pdfrwt>
<pdfrwt beam="2">  1        2 0.10276543E-01 0.66932383E+02</pdfrwt>
<totfact> 0.70437509E+02</totfact>
</mgrwt>
</event>
<event>
 5    1  0.9955701E-004  0.1505868E+03  0.7818608E-02  0.1482022E+00
         11   -1    0    0    0    0  0.00000000000E+00  0.00000000000E+00  0.10001445642E+04  0.10001445642E+04  0.51100000000E-03 0. -1.
          2   -1    0    0  501    0 -0.00000000000E+00 -0.00000000000E+00 -0.52995779527E+02  0.52995779589E+02  0.25500000000E-02 0.  1.
         11    1    1    2    0    0 -0.12180294483E+03 -0.98133721318E+02  0.52953496205E+03  0.55215347564E+03  0.51100000000E-03 0. -1.
         22    1    1    2    0    0  0.61002638002E+01  0.11179505121E+02 -0.28910535875E+02  0.31591353845E+02  0.00000000000E+00 0.  1.
          2    1    1    2  501    0  0.11570268103E+03  0.86954216197E+02  0.44652435851E+03  0.46939551432E+03  0.25500000000E-02 0.  1.
<mgrwt>
<rscale>  0 0.43792782E+02</rscale>
<asrwt>0</asrwt>
<pdfrwt beam="1">  1       11 0.10000000E+01 0.15058681E+03</pdfrwt>
<pdfrwt beam="2">  1        2 0.81543753E-02 0.43792782E+02</pdfrwt>
<totfact> 0.90005963E+02</totfact>
</mgrwt>
</event>
<event>
 5    1  0.9955701E-004  0.1536350E+03  0.7818608E-02  0.1196076E+00
         11   -1    0    0    0    0  0.00000000000E+00  0.00000000000E+00  0.99969827757E+03  0.99969827757E+03  0.51100000000E-03 0.  1.
         -2   -1    0    0    0  501 -0.00000000000E+00 -0.00000000000E+00 -0.56379500986E+03  0.56379500986E+03  0.25500000000E-02 0. -1.
         11    1    1    2    0    0  0.58551480877E+02 -0.13865216529E+03  0.73426595145E+03  0.74953264526E+03  0.51100000000E-03 0.  1.
         22    1    1    2    0    0  0.14954578320E+03  0.27368577924E+02 -0.48805612302E+03  0.51118661910E+03  0.00000000000E+00 0. -1.
         -2    1    1    2    0  501 -0.20809726408E+03  0.11128358736E+03  0.18969343929E+03  0.30277402308E+03  0.25500000000E-02 0. -1.
<mgrwt>
<rscale>  0 0.15363503E+03</rscale>
<asrwt>0</asrwt>
<pdfrwt beam="1">  1       11 0.10000000E+01 0.15050814E+03</pdfrwt>
<pdfrwt beam="2">  1       -2 0.86711521E-01 0.15363503E+03</pdfrwt>
<totfact> 0.97950061E+00</totfact>
</mgrwt>
</event>
<event>
 5    1  0.9955701E-004  0.5214942E+02  0.7818608E-02  0.1641680E+00
         11   -1    0    0    0    0  0.00000000000E+00  0.00000000000E+00  0.10003809833E+04  0.10003809833E+04  0.51100000000E-03 0. -1.
          2   -1    0    0  501    0 -0.00000000000E+00 -0.00000000000E+00 -0.82609933951E+01  0.82609937887E+01  0.25500000000E-02 0. -1.
         11    1    1    2    0    0  0.49975045219E+02 -0.28630208073E+02  0.28041548645E+03  0.28626917229E+03  0.51100000000E-03 0. -1.
         22    1    1    2    0    0 -0.16021711106E+01  0.13267589993E+02  0.56710454962E+01  0.14517460298E+02  0.00000000000E+00 0. -1.
          2    1    1    2  501    0 -0.48372874108E+02  0.15362618080E+02  0.70603345798E+03  0.70785534453E+03  0.25500000000E-02 0. -1.
<mgrwt>
<rscale>  0 0.26399306E+02</rscale>
<asrwt>0</asrwt>
<pdfrwt beam="1">  1       11 0.10000000E+01 0.52149421E+02</pdfrwt>
<pdfrwt beam="2">  1        2 0.12714063E-02 0.26399306E+02</pdfrwt>
<totfact> 0.88679064E+03</totfact>
</mgrwt>
</event>
<event>
 5    1  0.9955701E-004  0.3883865E+03  0.7818608E-02  0.1052254E+00
         11   -1    0    0    0    0  0.00000000000E+00  0.00000000000E+00  0.10002502899E+04  0.10002502899E+04  0.51100000000E-03 0.  1.
          2   -1    0    0  501    0 -0.00000000000E+00 -0.00000000000E+00 -0.31930388443E+03  0.31930388444E+03  0.25500000000E-02 0.  1.
         11    1    1    2    0    0 -0.28532177883E+02 -0.26700023851E+01 -0.42942750521E+02  0.51626484580E+02  0.51100000000E-03 0.  1.
         22    1    1    2    0    0 -0.34729129942E+03  0.24373370177E+02 -0.99903986513E+02  0.36219623734E+03  0.00000000000E+00 0.  1.
          2    1    1    2  501    0  0.37582347730E+03 -0.21703367792E+02  0.82379314252E+03  0.90573145244E+03  0.25500000000E-02 0.  1.
<mgrwt>
<rscale>  0 0.37644963E+03</rscale>
<asrwt>0</asrwt>
<pdfrwt beam="1">  1       11 0.10000000E+01 0.38838648E+03</pdfrwt>
<pdfrwt beam="2">  1        2 0.49135968E-01 0.37644963E+03</pdfrwt>
<totfact> 0.12676625E+02</totfact>
</mgrwt>
</event>
<event>
 5    1  0.9955701E-004  0.5820304E+02  0.7818608E-02  0.1405531E+00
         11   -1    0    0    0    0  0.00000000000E+00  0.00000000000E+00  0.10001478827E+04  0.10001478827E+04  0.51100000000E-03 0. -1.
          2   -1    0    0  501    0 -0.00000000000E+00 -0.00000000000E+00 -0.78056909210E+01  0.78056913375E+01  0.25500000000E-02 0. -1.
         11    1    1    2    0    0  0.49954900567E+01 -0.28907907794E+02  0.14672875007E+03  0.14963271084E+03  0.51100000000E-03 0. -1.
         22    1    1    2    0    0  0.56241271203E+02  0.16331461196E+02  0.16967378631E+03  0.17949649292E+03  0.00000000000E+00 0. -1.
          2    1    1    2  501    0 -0.61236761260E+02  0.12576446597E+02  0.67593965538E+03  0.67882437026E+03  0.25500000000E-02 0. -1.
<mgrwt>
<rscale>  0 0.58203036E+02</rscale>
<asrwt>0</asrwt>
<pdfrwt beam="1">  1       11 0.10000000E+01 0.29336375E+02</pdfrwt>
<pdfrwt beam="2">  1        2 0.12010531E-02 0.58203036E+02</pdfrwt>
<totfact> 0.11070429E+04</totfact>
</mgrwt>
</event>
<event>
 5    1  0.9955701E-004  0.2612831E+03  0.7818608E-02  0.1248321E+00
         11   -1    0    0    0    0  0.00000000000E+00  0.00000000000E+00  0.10001149235E+04  0.10001149235E+04  0.51100000000E-03 0. -1.
          2   -1    0    0  501    0 -0.00000000000E+00 -0.00000000000E+00 -0.11575966118E+03  0.11575966121E+03  0.25500000000E-02 0. -1.
         11    1    1    2    0    0  0.51774397276E+02  0.26070600611E+03  0.68766196459E+03  0.73724296360E+03  0.51100000000E-03 0. -1.
         22    1    1    2    0    0  0.45229135849E+02 -0.26243364520E+02 -0.76427763004E+01  0.52846957723E+02  0.00000000000E+00 0. -1.
          2    1    1    2  501    0 -0.97003533125E+02 -0.23446264159E+03  0.20433607400E+03  0.32578466336E+03  0.25500000000E-02 0. -1.
<mgrwt>
<rscale>  0 0.11688823E+03</rscale>
<asrwt>0</asrwt>
<pdfrwt beam="1">  1       11 0.10000000E+01 0.26128314E+03</pdfrwt>
<pdfrwt beam="2">  1        2 0.17811225E-01 0.11688823E+03</pdfrwt>
<totfact> 0.38122594E+02</totfact>
</mgrwt>
</event>
<event>
 5    1  0.9955701E-004  0.1728507E+03  0.7818608E-02  0.1174907E+00
         11   -1    0    0    0    0  0.00000000000E+00  0.00000000000E+00  0.10003273351E+04  0.10003273351E+04  0.51100000000E-03 0. -1.
          2   -1    0    0  501    0 -0.00000000000E+00 -0.00000000000E+00 -0.63051793786E+03  0.63051793787E+03  0.25500000000E-02 0. -1.
         11    1    1    2    0    0  0.69451653784E+02 -0.13957741098E+03  0.88088712891E+03  0.89457672658E+03  0.51100000000E-03 0. -1.
         22    1    1    2    0    0  0.16135297153E+03 -0.84197382350E+01 -0.41566427279E+03  0.44596239874E+03  0.00000000000E+00 0. -1.
          2    1    1    2  501    0 -0.23080462532E+03  0.14799714922E+03 -0.95413458850E+02  0.29030614768E+03  0.25500000000E-02 0. -1.
<mgrwt>
<rscale>  0 0.17285067E+03</rscale>
<asrwt>0</asrwt>
<pdfrwt beam="1">  1       11 0.10000000E+01 0.15590185E+03</pdfrwt>
<pdfrwt beam="2">  1        2 0.97034509E-01 0.17285067E+03</pdfrwt>
<totfact> 0.60016976E+01</totfact>
</mgrwt>
</event>
<event>
 5    1  0.1218811E-003  0.2162888E+03  0.7818608E-02  0.1286135E+00
         11   -1    0    0    0    0  0.00000000000E+00  0.00000000000E+00  0.10008517124E+04  0.10008517124E+04  0.51100000000E-03 0.  1.
          2   -1    0    0  501    0 -0.00000000000E+00 -0.00000000000E+00 -0.12347140927E+04  0.12347140927E+04  0.25500000000E-02 0.  1.
         11    1    1    2    0    0  0.18014335992E+03  0.11882230034E+03  0.97024634473E+03  0.99395590377E+03  0.51100000000E-03 0.  1.
         22    1    1    2    0    0  0.42164409406E+02  0.11664610131E+02 -0.21950039665E+03  0.22381761476E+03  0.00000000000E+00 0.  1.
          2    1    1    2  501    0 -0.22230776933E+03 -0.13048691047E+03 -0.98460832840E+03  0.10177922865E+04  0.25500000000E-02 0.  1.
<mgrwt>
<rscale>  0 0.97274015E+02</rscale>
<asrwt>0</asrwt>
<pdfrwt beam="1">  1       11 0.10000000E+01 0.21628878E+03</pdfrwt>
<pdfrwt beam="2">  1        2 0.19011780E+00 0.97274015E+02</pdfrwt>
<totfact> 0.25474268E+01</totfact>
</mgrwt>
</event>
<event>
 5    1  0.9955701E-004  0.3276255E+03  0.7818608E-02  0.1240050E+00
         11   -1    0    0    0    0  0.00000000000E+00  0.00000000000E+00  0.10001065440E+04  0.10001065440E+04  0.51100000000E-03 0.  1.
         -2   -1    0    0    0  501 -0.00000000000E+00 -0.00000000000E+00 -0.23687019481E+03  0.23687019482E+03  0.25500000000E-02 0.  1.
         11    1    1    2    0    0 -0.26272089645E+03  0.18905160879E+03  0.76918341945E+03  0.83450938460E+03  0.51100000000E-03 0.  1.
         22    1    1    2    0    0  0.35487799452E+01  0.45190938425E+02 -0.26524179615E+02  0.52519966290E+02  0.00000000000E+00 0.  1.
         -2    1    1    2    0  501  0.25917211651E+03 -0.23424254721E+03  0.20577109375E+02  0.34994738796E+03  0.25500000000E-02 0.  1.
<mgrwt>
<rscale>  0 0.12186585E+03</rscale>
<asrwt>0</asrwt>
<pdfrwt beam="1">  1       11 0.10000000E+01 0.32762552E+03</pdfrwt>
<pdfrwt beam="2">  1       -2 0.36445450E-01 0.12186585E+03</pdfrwt>
<totfact> 0.57088501E+01</totfact>
</mgrwt>
</event>
<event>
 5    1  0.9955701E-004  0.2928862E+03  0.7818608E-02  0.1204315E+00
         11   -1    0    0    0    0  0.00000000000E+00  0.00000000000E+00  0.10000610009E+04  0.10000610009E+04  0.51100000000E-03 0. -1.
          2   -1    0    0  501    0 -0.00000000000E+00 -0.00000000000E+00 -0.43422155090E+03  0.43422155091E+03  0.25500000000E-02 0.  1.
         11    1    1    2    0    0 -0.21157203995E+03  0.19561842013E+03  0.75178314948E+03  0.80511315864E+03  0.51100000000E-03 0. -1.
         22    1    1    2    0    0  0.29504645753E+02  0.67531256995E+02 -0.28485772159E+03  0.29423615744E+03  0.00000000000E+00 0. -1.
          2    1    1    2  501    0  0.18206739420E+03 -0.26314967712E+03  0.98914022072E+02  0.33493323569E+03  0.25500000000E-02 0.  1.
<mgrwt>
<rscale>  0 0.14691607E+03</rscale>
<asrwt>0</asrwt>
<pdfrwt beam="1">  1       11 0.10000000E+01 0.29288621E+03</pdfrwt>
<pdfrwt beam="2">  1        2 0.66807389E-01 0.14691607E+03</pdfrwt>
<totfact> 0.91281376E+01</totfact>
</mgrwt>
</event>
<event>
 5    1  0.9955701E-004  0.3774789E+03  0.7818608E-02  0.1184380E+00
         11   -1    0    0    0    0  0.00000000000E+00  0.00000000000E+00  0.10001130413E+04  0.10001130413E+04  0.51100000000E-03 0.  1.
         -2   -1    0    0    0  501 -0.00000000000E+00 -0.00000000000E+00 -0.48637338202E+03  0.48637338202E+03  0.25500000000E-02 0.  1.
         11    1    1    2    0    0  0.23764767362E+03  0.29145944757E+03  0.83728771856E+03  0.91786477762E+03  0.51100000000E-03 0.  1.
         22    1    1    2    0    0 -0.45101199842E+02  0.55030751380E+02 -0.46266589647E+02  0.84871073648E+02  0.00000000000E+00 0.  1.
         -2    1    1    2    0  501 -0.19254647378E+03 -0.34649019895E+03 -0.27728146964E+03  0.48375057204E+03  0.25500000000E-02 0.  1.
<mgrwt>
<rscale>  0 0.16388441E+03</rscale>
<asrwt>0</asrwt>
<pdfrwt beam="1">  1       11 0.10000000E+01 0.37747890E+03</pdfrwt>
<pdfrwt beam="2">  1       -2 0.74835131E-01 0.16388441E+03</pdfrwt>
<totfact> 0.13519946E+01</totfact>
</mgrwt>
</event>
<event>
 5    1  0.9955701E-004  0.1459579E+03  0.7818608E-02  0.1431417E+00
         11   -1    0    0    0    0  0.00000000000E+00  0.00000000000E+00  0.10002844262E+04  0.10002844262E+04  0.51100000000E-03 0. -1.
          2   -1    0    0  501    0 -0.00000000000E+00 -0.00000000000E+00 -0.30999374034E+02  0.30999374138E+02  0.25500000000E-02 0. -1.
         11    1    1    2    0    0  0.13761871781E+03  0.63019612463E+02  0.59777053613E+03  0.61663603278E+03  0.51100000000E-03 0. -1.
         22    1    1    2    0    0 -0.17557664274E+02  0.72904484001E+01  0.11892502151E+01  0.19048268391E+02  0.00000000000E+00 0.  1.
          2    1    1    2  501    0 -0.12006105354E+03 -0.70310060863E+02  0.37032526582E+03  0.39559949917E+03  0.25500000000E-02 0. -1.
<mgrwt>
<rscale>  0 0.52676567E+02</rscale>
<asrwt>0</asrwt>
<pdfrwt beam="1">  1       11 0.10000000E+01 0.14595787E+03</pdfrwt>
<pdfrwt beam="2">  1        2 0.47704908E-02 0.52676567E+02</pdfrwt>
<totfact> 0.17811541E+03</totfact>
</mgrwt>
</event>
<event>
 5    1  0.9955701E-004  0.7729478E+02  0.7818608E-02  0.1544302E+00
         11   -1    0    0    0    0  0.00000000000E+00  0.00000000000E+00  0.10001551111E+04  0.10001551111E+04  0.51100000000E-03 0. -1.
          2   -1    0    0  501    0 -0.00000000000E+00 -0.00000000000E+00 -0.11525888664E+02  0.11525888946E+02  0.25500000000E-02 0. -1.
         11    1    1    2    0    0  0.79259576070E+02 -0.38695673403E+01  0.20423393462E+03  0.21910854388E+03  0.51100000000E-03 0. -1.
         22    1    1    2    0    0 -0.31162862608E+01  0.15993400968E+02  0.29094703807E+02  0.33346692552E+02  0.00000000000E+00 0. -1.
          2    1    1    2  501    0 -0.76143289809E+02 -0.12123833627E+02  0.75530058399E+03  0.75922576360E+03  0.25500000000E-02 0. -1.
<mgrwt>
<rscale>  0 0.35488787E+02</rscale>
<asrwt>0</asrwt>
<pdfrwt beam="1">  1       11 0.10000000E+01 0.77294783E+02</pdfrwt>
<pdfrwt beam="2">  1        2 0.17734887E-02 0.35488787E+02</pdfrwt>
<totfact> 0.60666959E+03</totfact>
</mgrwt>
</event>
<event>
 5    1  0.9955701E-004  0.1313396E+03  0.7818608E-02  0.1483303E+00
         11   -1    0    0    0    0  0.00000000000E+00  0.00000000000E+00  0.10004025119E+04  0.10004025119E+04  0.51100000000E-03 0. -1.
         -2   -1    0    0    0  501 -0.00000000000E+00 -0.00000000000E+00 -0.26987398070E+02  0.26987398191E+02  0.25500000000E-02 0.  1.
         11    1    1    2    0    0  0.12037912149E+03  0.42210066947E+02  0.68153731531E+03  0.69337286853E+03  0.51100000000E-03 0. -1.
         22    1    1    2    0    0  0.13701992330E+02  0.46542147358E+01  0.78696175645E+01  0.16472315843E+02  0.00000000000E+00 0. -1.
         -2    1    1    2    0  501 -0.13408111382E+03 -0.46864281683E+02  0.28400818096E+03  0.31754472573E+03  0.25500000000E-02 0.  1.
<mgrwt>
<rscale>  0 0.43595864E+02</rscale>
<asrwt>0</asrwt>
<pdfrwt beam="1">  1       11 0.10000000E+01 0.13133960E+03</pdfrwt>
<pdfrwt beam="2">  1       -2 0.41535785E-02 0.43595864E+02</pdfrwt>
<totfact> 0.17206759E+03</totfact>
</mgrwt>
</event>
<event>
 5    1  0.9955701E-004  0.1967217E+03  0.7818608E-02  0.1276456E+00
         11   -1    0    0    0    0  0.00000000000E+00  0.00000000000E+00  0.99991514030E+03  0.99991514030E+03  0.51100000000E-03 0. -1.
          2   -1    0    0  501    0 -0.00000000000E+00 -0.00000000000E+00 -0.12560160159E+03  0.12560160162E+03  0.25500000000E-02 0. -1.
         11    1    1    2    0    0 -0.58435197058E+02  0.19800206369E+03  0.86053334942E+03  0.88495035733E+03  0.51100000000E-03 0. -1.
         22    1    1    2    0    0  0.25931767430E+02 -0.45912780135E+02 -0.49818000389E+02  0.72541526759E+02  0.00000000000E+00 0. -1.
          2    1    1    2  501    0  0.32503429627E+02 -0.15208928356E+03  0.63598189682E+02  0.16802485783E+03  0.25500000000E-02 0. -1.
<mgrwt>
<rscale>  0 0.10184847E+03</rscale>
<asrwt>0</asrwt>
<pdfrwt beam="1">  1       11 0.10000000E+01 0.19672170E+03</pdfrwt>
<pdfrwt beam="2">  1        2 0.19321683E-01 0.10184847E+03</pdfrwt>
<totfact> 0.34581662E+02</totfact>
</mgrwt>
</event>
<event>
 5    1  0.9955701E-004  0.1181169E+03  0.7818608E-02  0.1347000E+00
         11   -1    0    0    0    0  0.00000000000E+00  0.00000000000E+00  0.10000010414E+04  0.10000010414E+04  0.51100000000E-03 0.  1.
          2   -1    0    0  501    0 -0.00000000000E+00 -0.00000000000E+00 -0.30856011407E+02  0.30856011512E+02  0.25500000000E-02 0.  1.
         11    1    1    2    0    0  0.13385760829E+03  0.32564608950E+02  0.72249468801E+03  0.73551131008E+03  0.51100000000E-03 0.  1.
         22    1    1    2    0    0 -0.45344591446E+02 -0.96457633276E+01  0.19148310090E+02  0.50158055215E+02  0.00000000000E+00 0.  1.
          2    1    1    2  501    0 -0.88513016846E+02 -0.22918845623E+02  0.22750203187E+03  0.24518768759E+03  0.25500000000E-02 0.  1.
<mgrwt>
<rscale>  0 0.73998661E+02</rscale>
<asrwt>0</asrwt>
<pdfrwt beam="1">  1       11 0.10000000E+01 0.11811691E+03</pdfrwt>
<pdfrwt beam="2">  1        2 0.47470835E-02 0.73998661E+02</pdfrwt>
<totfact> 0.18560538E+03</totfact>
</mgrwt>
</event>
<event>
 5    1  0.9955701E-004  0.2661513E+02  0.7818608E-02  0.1721532E+00
         11   -1    0    0    0    0  0.00000000000E+00  0.00000000000E+00  0.10004170155E+04  0.10004170155E+04  0.51100000000E-03 0.  1.
          2   -1    0    0  501    0 -0.00000000000E+00 -0.00000000000E+00 -0.72886917904E+01  0.72886922364E+01  0.25500000000E-02 0.  1.
         11    1    1    2    0    0 -0.35470804750E+02 -0.83625210127E+01  0.46323664659E+02  0.58940577322E+02  0.51100000000E-03 0.  1.
         22    1    1    2    0    0  0.96612199329E+01  0.13949467829E+02  0.91941948191E+02  0.93494645090E+02  0.00000000000E+00 0.  1.
          2    1    1    2  501    0  0.25809584817E+02 -0.55869468163E+01  0.85486271082E+03  0.85527048529E+03  0.25500000000E-02 0.  1.
<mgrwt>
<rscale>  0 0.21251260E+02</rscale>
<asrwt>0</asrwt>
<pdfrwt beam="1">  1       11 0.10000000E+01 0.26615127E+02</pdfrwt>
<pdfrwt beam="2">  1        2 0.11218048E-02 0.21251260E+02</pdfrwt>
<totfact> 0.99626784E+03</totfact>
</mgrwt>
</event>
<event>
 5    1  0.9955701E-004  0.1440247E+03  0.7818608E-02  0.1365901E+00
         11   -1    0    0    0    0  0.00000000000E+00  0.00000000000E+00  0.10000718832E+04  0.10000718832E+04  0.51100000000E-03 0.  1.
          2   -1    0    0  501    0 -0.00000000000E+00 -0.00000000000E+00 -0.65049023992E+02  0.65049024042E+02  0.25500000000E-02 0.  1.
         11    1    1    2    0    0 -0.13195359352E+03 -0.68667241646E+02  0.87760991153E+03  0.89012701213E+03  0.51100000000E-03 0.  1.
         22    1    1    2    0    0  0.32230537048E+02  0.33904113679E+01 -0.14809364757E+02  0.35631723115E+02  0.00000000000E+00 0.  1.
          2    1    1    2  501    0  0.99723056470E+02  0.65276830278E+02  0.72222312438E+02  0.13936217200E+03  0.25500000000E-02 0.  1.
<mgrwt>
<rscale>  0 0.68319880E+02</rscale>
<asrwt>0</asrwt>
<pdfrwt beam="1">  1       11 0.10000000E+01 0.14402471E+03</pdfrwt>
<pdfrwt beam="2">  1        2 0.10008261E-01 0.68319880E+02</pdfrwt>
<totfact> 0.72807421E+02</totfact>
</mgrwt>
</event>
<event>
 5    1  0.9955701E-004  0.5009702E+02  0.7818608E-02  0.1472043E+00
         11   -1    0    0    0    0  0.00000000000E+00  0.00000000000E+00  0.10001686133E+04  0.10001686133E+04  0.51100000000E-03 0. -1.
          2   -1    0    0  501    0 -0.00000000000E+00 -0.00000000000E+00 -0.34061827639E+01  0.34061837185E+01  0.25500000000E-02 0. -1.
         11    1    1    2    0    0 -0.15281271636E+02 -0.29304897172E+01  0.51626996577E+02  0.53920791988E+02  0.51100000000E-03 0. -1.
         22    1    1    2    0    0 -0.17179439183E+02 -0.28767476948E+02  0.17472382329E+03  0.17790760322E+03  0.00000000000E+00 0. -1.
          2    1    1    2  501    0  0.32460710819E+02  0.31697966666E+02  0.77041161064E+03  0.77174640178E+03  0.25500000000E-02 0. -1.
<mgrwt>
<rscale>  0 0.45370242E+02</rscale>
<asrwt>0</asrwt>
<pdfrwt beam="1">  1       11 0.10000000E+01 0.50097018E+02</pdfrwt>
<pdfrwt beam="2">  1        2 0.52411653E-03 0.45370242E+02</pdfrwt>
<totfact> 0.32251494E+04</totfact>
</mgrwt>
</event>
<event>
 5    1  0.9955701E-004  0.1255273E+03  0.7818608E-02  0.1234247E+00
         11   -1    0    0    0    0  0.00000000000E+00  0.00000000000E+00  0.10006705905E+04  0.10006705905E+04  0.51100000000E-03 0. -1.
          2   -1    0    0  501    0 -0.00000000000E+00 -0.00000000000E+00 -0.17864856960E+02  0.17864857142E+02  0.25500000000E-02 0. -1.
         11    1    1    2    0    0  0.10791033058E+03  0.49881638530E+02  0.68680500634E+03  0.69701788646E+03  0.51100000000E-03 0. -1.
         22    1    1    2    0    0 -0.49947824967E+01 -0.14555612711E+02  0.23437595591E+02  0.28038091959E+02  0.00000000000E+00 0. -1.
          2    1    1    2  501    0 -0.10291554808E+03 -0.35326025819E+02  0.27256313162E+03  0.29347946923E+03  0.25500000000E-02 0. -1.
<mgrwt>
<rscale>  0 0.12552733E+03</rscale>
<asrwt>0</asrwt>
<pdfrwt beam="1">  1       11 0.10000000E+01 0.11888153E+03</pdfrwt>
<pdfrwt beam="2">  1        2 0.27502825E-02 0.12552733E+03</pdfrwt>
<totfact> 0.40222451E+03</totfact>
</mgrwt>
</event>
<event>
 5    1  0.9955701E-004  0.3992219E+02  0.7818608E-02  0.1519984E+00
         11   -1    0    0    0    0  0.00000000000E+00  0.00000000000E+00  0.10001858851E+04  0.10001858851E+04  0.51100000000E-03 0. -1.
          2   -1    0    0  501    0 -0.00000000000E+00 -0.00000000000E+00 -0.23655304698E+01  0.23655318442E+01  0.25500000000E-02 0. -1.
         11    1    1    2    0    0 -0.16841735508E+02 -0.45683097266E+01  0.83513076713E+02  0.85316748010E+02  0.51100000000E-03 0. -1.
         22    1    1    2    0    0 -0.21580359343E+02  0.58666614000E+01  0.12452043676E+03  0.12651272188E+03  0.00000000000E+00 0. -1.
          2    1    1    2  501    0  0.38422094850E+02 -0.12983516734E+01  0.78978684114E+03  0.79072194704E+03  0.25500000000E-02 0. -1.
<mgrwt>
<rscale>  0 0.38444025E+02</rscale>
<asrwt>0</asrwt>
<pdfrwt beam="1">  1       11 0.10000000E+01 0.39922194E+02</pdfrwt>
<pdfrwt beam="2">  1        2 0.36399551E-03 0.38444025E+02</pdfrwt>
<totfact> 0.50659106E+04</totfact>
</mgrwt>
</event>
<event>
 5    1  0.9955701E-004  0.7170679E+02  0.7818608E-02  0.1573272E+00
         11   -1    0    0    0    0  0.00000000000E+00  0.00000000000E+00  0.10002777762E+04  0.10002777762E+04  0.51100000000E-03 0.  1.
          2   -1    0    0  501    0 -0.00000000000E+00 -0.00000000000E+00 -0.87832120946E+01  0.87832124647E+01  0.25500000000E-02 0.  1.
         11    1    1    2    0    0 -0.81296103217E+02  0.15838857109E+02  0.29597136673E+03  0.30734178973E+03  0.51100000000E-03 0.  1.
         22    1    1    2    0    0  0.14128219454E+02 -0.37330643907E+01  0.38826171709E+02  0.41485105330E+02  0.00000000000E+00 0.  1.
          2    1    1    2  501    0  0.67167883763E+02 -0.12105792718E+02  0.65669702563E+03  0.66023409357E+03  0.25500000000E-02 0.  1.
<mgrwt>
<rscale>  0 0.32370621E+02</rscale>
<asrwt>0</asrwt>
<pdfrwt beam="1">  1       11 0.10000000E+01 0.71706786E+02</pdfrwt>
<pdfrwt beam="2">  1        2 0.13516387E-02 0.32370621E+02</pdfrwt>
<totfact> 0.85201294E+03</totfact>
</mgrwt>
</event>
<event>
 5    1  0.9955701E-004  0.1618668E+03  0.7818608E-02  0.1186605E+00
         11   -1    0    0    0    0  0.00000000000E+00  0.00000000000E+00  0.10000923457E+04  0.10000923457E+04  0.51100000000E-03 0.  1.
          2   -1    0    0  501    0 -0.00000000000E+00 -0.00000000000E+00 -0.98275778439E+02  0.98275778472E+02  0.25500000000E-02 0.  1.
         11    1    1    2    0    0 -0.15156159103E+03  0.29530868315E+02  0.92236644331E+03  0.93520203368E+03  0.51100000000E-03 0.  1.
         22    1    1    2    0    0  0.19451873712E+02 -0.20770390383E+02 -0.10694456315E+02  0.30399932623E+02  0.00000000000E+00 0.  1.
          2    1    1    2  501    0  0.13210971732E+03 -0.87604779320E+01 -0.98554196870E+01  0.13276615791E+03  0.25500000000E-02 0.  1.
<mgrwt>
<rscale>  0 0.16186685E+03</rscale>
<asrwt>0</asrwt>
<pdfrwt beam="1">  1       11 0.10000000E+01 0.15441175E+03</pdfrwt>
<pdfrwt beam="2">  1        2 0.15120746E-01 0.16186685E+03</pdfrwt>
<totfact> 0.46681224E+02</totfact>
</mgrwt>
</event>
<event>
 5    1  0.9955701E-004  0.9076986E+02  0.7818608E-02  0.1447378E+00
         11   -1    0    0    0    0  0.00000000000E+00  0.00000000000E+00  0.99995415854E+03  0.99995415854E+03  0.51100000000E-03 0. -1.
          2   -1    0    0  501    0 -0.00000000000E+00 -0.00000000000E+00 -0.17946976238E+02  0.17946976419E+02  0.25500000000E-02 0. -1.
         11    1    1    2    0    0  0.85295513052E+02 -0.49928820006E+02  0.45353794463E+03  0.46418194583E+03  0.51100000000E-03 0. -1.
         22    1    1    2    0    0 -0.24465533252E+02 -0.11724788816E+02  0.11369044139E+02  0.29415780709E+02  0.00000000000E+00 0.  1.
          2    1    1    2  501    0 -0.60829979800E+02  0.61653608822E+02  0.51710019353E+03  0.52430340841E+03  0.25500000000E-02 0. -1.
<mgrwt>
<rscale>  0 0.49624373E+02</rscale>
<asrwt>0</asrwt>
<pdfrwt beam="1">  1       11 0.10000000E+01 0.90769855E+02</pdfrwt>
<pdfrwt beam="2">  1        2 0.27609466E-02 0.49624373E+02</pdfrwt>
<totfact> 0.35785214E+03</totfact>
</mgrwt>
</event>
<event>
 5    1  0.9955701E-004  0.1176643E+03  0.7818608E-02  0.1526581E+00
         11   -1    0    0    0    0  0.00000000000E+00  0.00000000000E+00  0.10001759403E+04  0.10001759403E+04  0.51100000000E-03 0. -1.
          2   -1    0    0  501    0 -0.00000000000E+00 -0.00000000000E+00 -0.21264427772E+02  0.21264427925E+02  0.25500000000E-02 0. -1.
         11    1    1    2    0    0  0.24923811543E+02  0.11239473300E+03  0.47301695213E+03  0.48682523496E+03  0.51100000000E-03 0. -1.
         22    1    1    2    0    0  0.11782747974E+02  0.23816914636E+01 -0.23773110205E+01  0.12253865175E+02  0.00000000000E+00 0. -1.
          2    1    1    2  501    0 -0.36706559517E+02 -0.11477642446E+03  0.50827187146E+03  0.52236126814E+03  0.25500000000E-02 0. -1.
<mgrwt>
<rscale>  0 0.37609145E+02</rscale>
<asrwt>0</asrwt>
<pdfrwt beam="1">  1       11 0.10000000E+01 0.11766426E+03</pdfrwt>
<pdfrwt beam="2">  1        2 0.32720259E-02 0.37609145E+02</pdfrwt>
<totfact> 0.27662317E+03</totfact>
</mgrwt>
</event>
<event>
 5    1  0.9955701E-004  0.1434693E+03  0.7818608E-02  0.1335092E+00
         11   -1    0    0    0    0  0.00000000000E+00  0.00000000000E+00  0.99983869588E+03  0.99983869588E+03  0.51100000000E-03 0. -1.
          2   -1    0    0  501    0 -0.00000000000E+00 -0.00000000000E+00 -0.77598309297E+02  0.77598309339E+02  0.25500000000E-02 0. -1.
         11    1    1    2    0    0 -0.12018311763E+03  0.87597603766E+02  0.84524756555E+03  0.85823118623E+03  0.51100000000E-03 0. -1.
         22    1    1    2    0    0  0.46526964967E+01 -0.42050774399E+02 -0.32732085176E+02  0.53491163871E+02  0.00000000000E+00 0. -1.
          2    1    1    2  501    0  0.11553042113E+03 -0.45546829366E+02  0.10972490622E+03  0.16571465513E+03  0.25500000000E-02 0. -1.
<mgrwt>
<rscale>  0 0.77908993E+02</rscale>
<asrwt>0</asrwt>
<pdfrwt beam="1">  1       11 0.10000000E+01 0.14346929E+03</pdfrwt>
<pdfrwt beam="2">  1        2 0.11936275E-01 0.77908993E+02</pdfrwt>
<totfact> 0.59520283E+02</totfact>
</mgrwt>
</event>
<event>
 5    1  0.9955701E-004  0.2491243E+03  0.7818608E-02  0.1301330E+00
         11   -1    0    0    0    0  0.00000000000E+00  0.00000000000E+00  0.10000616268E+04  0.10000616268E+04  0.51100000000E-03 0.  1.
          2   -1    0    0  501    0 -0.00000000000E+00 -0.00000000000E+00 -0.16001699594E+03  0.16001699596E+03  0.25500000000E-02 0.  1.
         11    1    1    2    0    0  0.14029637183E+03 -0.20502028336E+03  0.77483988040E+03  0.81369111387E+03  0.51100000000E-03 0.  1.
         22    1    1    2    0    0 -0.25313976056E+02 -0.21126450701E+02 -0.56183005538E+02  0.65143337452E+02  0.00000000000E+00 0. -1.
          2    1    1    2  501    0 -0.11498239577E+03  0.22614673406E+03  0.12138775604E+03  0.28124417147E+03  0.25500000000E-02 0.  1.
<mgrwt>
<rscale>  0 0.90631224E+02</rscale>
<asrwt>0</asrwt>
<pdfrwt beam="1">  1       11 0.10000000E+01 0.24912430E+03</pdfrwt>
<pdfrwt beam="2">  1        2 0.24619516E-01 0.90631224E+02</pdfrwt>
<totfact> 0.26338340E+02</totfact>
</mgrwt>
</event>
<event>
 5    1  0.9955701E-004  0.2079503E+03  0.7818608E-02  0.1203633E+00
         11   -1    0    0    0    0  0.00000000000E+00  0.00000000000E+00  0.99998967168E+03  0.99998967168E+03  0.51100000000E-03 0. -1.
          2   -1    0    0  501    0 -0.00000000000E+00 -0.00000000000E+00 -0.87020731828E+03  0.87020731829E+03  0.25500000000E-02 0. -1.
         11    1    1    2    0    0  0.56555921378E+02  0.20369272678E+03  0.97165585225E+03  0.99438644118E+03  0.51100000000E-03 0. -1.
         22    1    1    2    0    0 -0.64250160474E+02 -0.82492188859E+02 -0.54706117532E+03  0.55696406876E+03  0.00000000000E+00 0.  1.
          2    1    1    2  501    0  0.76942390965E+01 -0.12120053793E+03 -0.29481232353E+03  0.31884648002E+03  0.25500000000E-02 0. -1.
<mgrwt>
<rscale>  0 0.14745688E+03</rscale>
<asrwt>0</asrwt>
<pdfrwt beam="1">  1       11 0.10000000E+01 0.20795029E+03</pdfrwt>
<pdfrwt beam="2">  1        2 0.13387666E+00 0.14745688E+03</pdfrwt>
<totfact> 0.40727691E+01</totfact>
</mgrwt>
</event>
<event>
 5    1  0.9955701E-004  0.1378424E+03  0.7818608E-02  0.1490819E+00
         11   -1    0    0    0    0  0.00000000000E+00  0.00000000000E+00  0.10000552000E+04  0.10000552000E+04  0.51100000000E-03 0. -1.
          2   -1    0    0  501    0 -0.00000000000E+00 -0.00000000000E+00 -0.37533383772E+02  0.37533383859E+02  0.25500000000E-02 0. -1.
         11    1    1    2    0    0  0.38874790991E+02 -0.13427989078E+03  0.82305827860E+03  0.83484565545E+03  0.51100000000E-03 0. -1.
         22    1    1    2    0    0 -0.10450481801E+02  0.78693584812E+01  0.10118309315E+01  0.13121096547E+02  0.00000000000E+00 0. -1.
          2    1    1    2  501    0 -0.28424309190E+02  0.12641053230E+03  0.13845170672E+03  0.18962183189E+03  0.25500000000E-02 0. -1.
<mgrwt>
<rscale>  0 0.42464781E+02</rscale>
<asrwt>0</asrwt>
<pdfrwt beam="1">  1       11 0.10000000E+01 0.13784240E+03</pdfrwt>
<pdfrwt beam="2">  1        2 0.57746853E-02 0.42464781E+02</pdfrwt>
<totfact> 0.13694814E+03</totfact>
</mgrwt>
</event>
<event>
 5    1  0.9955701E-004  0.9124359E+02  0.7818608E-02  0.1436896E+00
         11   -1    0    0    0    0  0.00000000000E+00  0.00000000000E+00  0.10002507909E+04  0.10002507909E+04  0.51100000000E-03 0. -1.
          2   -1    0    0  501    0 -0.00000000000E+00 -0.00000000000E+00 -0.16758173682E+02  0.16758173876E+02  0.25500000000E-02 0. -1.
         11    1    1    2    0    0  0.28009091327E+02  0.10418002189E+03  0.56408749975E+03  0.57431062461E+03  0.51100000000E-03 0. -1.
         22    1    1    2    0    0 -0.60870926054E+01 -0.28539167107E+02  0.19463181034E+02  0.35076376260E+02  0.00000000000E+00 0. -1.
          2    1    1    2  501    0 -0.21921998721E+02 -0.75640854785E+02  0.39994193647E+03  0.40762196395E+03  0.25500000000E-02 0. -1.
<mgrwt>
<rscale>  0 0.51600265E+02</rscale>
<asrwt>0</asrwt>
<pdfrwt beam="1">  1       11 0.10000000E+01 0.91243592E+02</pdfrwt>
<pdfrwt beam="2">  1        2 0.25788271E-02 0.51600265E+02</pdfrwt>
<totfact> 0.39337164E+03</totfact>
</mgrwt>
</event>
<event>
 5    1  0.9955701E-004  0.2177412E+03  0.7818608E-02  0.1673264E+00
         11   -1    0    0    0    0  0.00000000000E+00  0.00000000000E+00  0.10004349134E+04  0.10004349134E+04  0.51100000000E-03 0. -1.
          2   -1    0    0  501    0 -0.00000000000E+00 -0.00000000000E+00 -0.20144866351E+03  0.20144866353E+03  0.25500000000E-02 0. -1.
         11    1    1    2    0    0  0.21457013534E+03  0.23462438879E+02  0.38540701913E+03  0.44173453500E+03  0.51100000000E-03 0. -1.
         22    1    1    2    0    0 -0.22568682765E+03 -0.44920790359E+02 -0.96477432985E+02  0.24952017285E+03  0.00000000000E+00 0. -1.
          2    1    1    2  501    0  0.11116692317E+02  0.21458351480E+02  0.51005666379E+03  0.51062886912E+03  0.25500000000E-02 0. -1.
<mgrwt>
<rscale>  0 0.24166955E+02</rscale>
<asrwt>0</asrwt>
<pdfrwt beam="1">  1       11 0.10000000E+01 0.21774115E+03</pdfrwt>
<pdfrwt beam="2">  1        2 0.31005580E-01 0.24166955E+02</pdfrwt>
<totfact> 0.19759331E+02</totfact>
</mgrwt>
</event>
<event>
 5    1  0.9955701E-004  0.8095362E+02  0.7818608E-02  0.1338890E+00
         11   -1    0    0    0    0  0.00000000000E+00  0.00000000000E+00  0.10000303674E+04  0.10000303674E+04  0.51100000000E-03 0. -1.
          2   -1    0    0  501    0 -0.00000000000E+00 -0.00000000000E+00 -0.11438012215E+02  0.11438012499E+02  0.25500000000E-02 0. -1.
         11    1    1    2    0    0 -0.64450699247E+02  0.31005974209E+01  0.11135515463E+03  0.12869917172E+03  0.51100000000E-03 0. -1.
         22    1    1    2    0    0 -0.11328102411E+02  0.83033202460E+01  0.48394044179E+02  0.50391016495E+02  0.00000000000E+00 0. -1.
          2    1    1    2  501    0  0.75778801659E+02 -0.11403917667E+02  0.82884315638E+03  0.83237819169E+03  0.25500000000E-02 0. -1.
<mgrwt>
<rscale>  0 0.76632083E+02</rscale>
<asrwt>0</asrwt>
<pdfrwt beam="1">  1       11 0.10000000E+01 0.80953622E+02</pdfrwt>
<pdfrwt beam="2">  1        2 0.17597476E-02 0.76632083E+02</pdfrwt>
<totfact> 0.69065909E+03</totfact>
</mgrwt>
</event>
<event>
 5    1  0.9955701E-004  0.1369990E+03  0.7818608E-02  0.1217425E+00
         11   -1    0    0    0    0  0.00000000000E+00  0.00000000000E+00  0.10002701391E+04  0.10002701391E+04  0.51100000000E-03 0. -1.
          2   -1    0    0  501    0 -0.00000000000E+00 -0.00000000000E+00 -0.21434476656E+02  0.21434476807E+02  0.25500000000E-02 0. -1.
         11    1    1    2    0    0  0.11822127757E+03 -0.66908221465E+02  0.67320423370E+03  0.68677283060E+03  0.51100000000E-03 0. -1.
         22    1    1    2    0    0 -0.10325555213E+02  0.90515271980E+01  0.21049300568E+02  0.25132057009E+02  0.00000000000E+00 0.  1.
          2    1    1    2  501    0 -0.10789572236E+03  0.57856694267E+02  0.28458212820E+03  0.30979972833E+03  0.25500000000E-02 0. -1.
<mgrwt>
<rscale>  0 0.13699902E+03</rscale>
<asrwt>0</asrwt>
<pdfrwt beam="1">  1       11 0.10000000E+01 0.13584175E+03</pdfrwt>
<pdfrwt beam="2">  1        2 0.32985025E-02 0.13699902E+03</pdfrwt>
<totfact> 0.31797989E+03</totfact>
</mgrwt>
</event>
<event>
 5    1  0.9955701E-004  0.1551449E+03  0.7818608E-02  0.1231691E+00
         11   -1    0    0    0    0  0.00000000000E+00  0.00000000000E+00  0.10002621108E+04  0.10002621108E+04  0.51100000000E-03 0. -1.
          2   -1    0    0  501    0 -0.00000000000E+00 -0.00000000000E+00 -0.65769092450E+02  0.65769092500E+02  0.25500000000E-02 0. -1.
         11    1    1    2    0    0 -0.11570185464E+03  0.11867037044E+03  0.69627475202E+03  0.71572907324E+03  0.51100000000E-03 0. -1.
         22    1    1    2    0    0  0.10291212857E+03  0.16750454064E+02  0.16670183506E+03  0.19662397039E+03  0.00000000000E+00 0. -1.
          2    1    1    2  501    0  0.12789726067E+02 -0.13542082451E+03  0.71516431223E+02  0.15367815962E+03  0.25500000000E-02 0. -1.
<mgrwt>
<rscale>  0 0.12718649E+03</rscale>
<asrwt>0</asrwt>
<pdfrwt beam="1">  1       11 0.10000000E+01 0.15514492E+03</pdfrwt>
<pdfrwt beam="2">  1        2 0.10120974E-01 0.12718649E+03</pdfrwt>
<totfact> 0.74678846E+02</totfact>
</mgrwt>
</event>
<event>
 5    1  0.9955701E-004  0.3459365E+03  0.7818608E-02  0.1113414E+00
         11   -1    0    0    0    0  0.00000000000E+00  0.00000000000E+00  0.99978147430E+03  0.99978147430E+03  0.51100000000E-03 0.  1.
          2   -1    0    0  501    0 -0.00000000000E+00 -0.00000000000E+00 -0.79323146769E+03  0.79323146770E+03  0.25500000000E-02 0.  1.
         11    1    1    2    0    0 -0.16065062405E+03 -0.30663655718E+03  0.84388644449E+03  0.91212879156E+03  0.51100000000E-03 0.  1.
         22    1    1    2    0    0 -0.15656321669E+03  0.89662409212E+02 -0.37327034903E+03  0.41458671217E+03  0.00000000000E+00 0.  1.
          2    1    1    2  501    0  0.31721384074E+03  0.21697414797E+03 -0.26406608885E+03  0.46629743826E+03  0.25500000000E-02 0.  1.
<mgrwt>
<rscale>  0 0.24982769E+03</rscale>
<asrwt>0</asrwt>
<pdfrwt beam="1">  1       11 0.10000000E+01 0.34593651E+03</pdfrwt>
<pdfrwt beam="2">  1        2 0.12200894E+00 0.24982769E+03</pdfrwt>
<totfact> 0.44948225E+01</totfact>
</mgrwt>
</event>
<event>
 5    1  0.9955701E-004  0.2827999E+03  0.7818608E-02  0.1354330E+00
         11   -1    0    0    0    0  0.00000000000E+00  0.00000000000E+00  0.10002562817E+04  0.10002562817E+04  0.51100000000E-03 0. -1.
         -2   -1    0    0    0  501 -0.00000000000E+00 -0.00000000000E+00 -0.11490247491E+03  0.11490247494E+03  0.25500000000E-02 0.  1.
         11    1    1    2    0    0  0.27761722470E+03 -0.39265951135E+02  0.55569691616E+03  0.62242445405E+03  0.51100000000E-03 0. -1.
         22    1    1    2    0    0  0.82136440054E+01  0.16230269763E+02 -0.28570431685E+02  0.33869679229E+02  0.00000000000E+00 0.  1.
         -2    1    1    2    0  501 -0.28583086871E+03  0.23035681373E+02  0.35822732234E+03  0.45886462339E+03  0.25500000000E-02 0.  1.
<mgrwt>
<rscale>  0 0.71723113E+02</rscale>
<asrwt>0</asrwt>
<pdfrwt beam="1">  1       11 0.10000000E+01 0.28279995E+03</pdfrwt>
<pdfrwt beam="2">  1       -2 0.17681834E-01 0.71723113E+02</pdfrwt>
<totfact> 0.19779537E+02</totfact>
</mgrwt>
</event>
<event>
 5    1  0.9955701E-004  0.2668362E+03  0.7818608E-02  0.1355222E+00
         11   -1    0    0    0    0  0.00000000000E+00  0.00000000000E+00  0.10002077479E+04  0.10002077479E+04  0.51100000000E-03 0. -1.
          2   -1    0    0  501    0 -0.00000000000E+00 -0.00000000000E+00 -0.82099454216E+02  0.82099454256E+02  0.25500000000E-02 0. -1.
         11    1    1    2    0    0 -0.19509977802E+03  0.19369346423E+03  0.56284824350E+03  0.62640180929E+03  0.51100000000E-03 0. -1.
         22    1    1    2    0    0  0.10299851082E+02 -0.16124472157E+02  0.16722413838E+01  0.19206299120E+02  0.00000000000E+00 0.  1.
          2    1    1    2  501    0  0.18479992694E+03 -0.17756899207E+03  0.35358780879E+03  0.43669909374E+03  0.25500000000E-02 0. -1.
<mgrwt>
<rscale>  0 0.71452598E+02</rscale>
<asrwt>0</asrwt>
<pdfrwt beam="1">  1       11 0.10000000E+01 0.26683621E+03</pdfrwt>
<pdfrwt beam="2">  1        2 0.12633309E-01 0.71452598E+02</pdfrwt>
<totfact> 0.55392035E+02</totfact>
</mgrwt>
</event>
<event>
 5    1  0.9955701E-004  0.1439983E+03  0.7818608E-02  0.1208048E+00
         11   -1    0    0    0    0  0.00000000000E+00  0.00000000000E+00  0.99989428158E+03  0.99989428158E+03  0.51100000000E-03 0.  1.
          2   -1    0    0  501    0 -0.00000000000E+00 -0.00000000000E+00 -0.25537854812E+02  0.25537854940E+02  0.25500000000E-02 0. -1.
         11    1    1    2    0    0 -0.45694291599E+02 -0.13819304296E+03  0.63093430405E+03  0.64750550687E+03  0.51100000000E-03 0.  1.
         22    1    1    2    0    0  0.12129525020E+02 -0.12283167914E+01  0.48198459911E+02  0.49716452781E+02  0.00000000000E+00 0.  1.
          2    1    1    2  501    0  0.33564766579E+02  0.13942135975E+03  0.29522366281E+03  0.32821017686E+03  0.25500000000E-02 0. -1.
<mgrwt>
<rscale>  0 0.14399832E+03</rscale>
<asrwt>0</asrwt>
<pdfrwt beam="1">  1       11 0.10000000E+01 0.12191560E+02</pdfrwt>
<pdfrwt beam="2">  1        2 0.39284853E-02 0.14399832E+03</pdfrwt>
<totfact> 0.25305473E+03</totfact>
</mgrwt>
</event>
<event>
 5    1  0.9955701E-004  0.9019643E+02  0.7818608E-02  0.1307543E+00
         11   -1    0    0    0    0  0.00000000000E+00  0.00000000000E+00  0.10001908714E+04  0.10001908714E+04  0.51100000000E-03 0.  1.
          2   -1    0    0  501    0 -0.00000000000E+00 -0.00000000000E+00 -0.79451603505E+01  0.79451607597E+01  0.25500000000E-02 0.  1.
         11    1    1    2    0    0  0.19918267831E+02  0.77290706449E+02  0.46045194385E+03  0.46731850305E+03  0.51100000000E-03 0.  1.
         22    1    1    2    0    0 -0.37614727373E+01  0.93052190956E+01  0.43647225070E+02  0.44786337602E+02  0.00000000000E+00 0. -1.
          2    1    1    2  501    0 -0.16156795093E+02 -0.86595925544E+02  0.48814654210E+03  0.49603119148E+03  0.25500000000E-02 0.  1.
<mgrwt>
<rscale>  0 0.88090274E+02</rscale>
<asrwt>0</asrwt>
<pdfrwt beam="1">  1       11 0.10000000E+01 0.90196428E+02</pdfrwt>
<pdfrwt beam="2">  1        2 0.12225657E-02 0.88090274E+02</pdfrwt>
<totfact> 0.11545992E+04</totfact>
</mgrwt>
</event>
<event>
 5    1  0.9955701E-004  0.3903957E+03  0.7818608E-02  0.1321369E+00
         11   -1    0    0    0    0  0.00000000000E+00  0.00000000000E+00  0.99996368337E+03  0.99996368337E+03  0.51100000000E-03 0. -1.
          2   -1    0    0  501    0 -0.00000000000E+00 -0.00000000000E+00 -0.17692747027E+03  0.17692747029E+03  0.25500000000E-02 0. -1.
         11    1    1    2    0    0 -0.31836990151E+03 -0.23773181694E+03  0.41335262876E+03  0.57335521858E+03  0.51100000000E-03 0. -1.
         22    1    1    2    0    0  0.39331582473E+01  0.17102100709E+02 -0.20387559927E+02  0.26899891863E+02  0.00000000000E+00 0. -1.
          2    1    1    2  501    0  0.31443674327E+03  0.22062971623E+03  0.43007114427E+03  0.57663604322E+03  0.25500000000E-02 0. -1.
<mgrwt>
<rscale>  0 0.82770016E+02</rscale>
<asrwt>0</asrwt>
<pdfrwt beam="1">  1       11 0.10000000E+01 0.39039574E+03</pdfrwt>
<pdfrwt beam="2">  1        2 0.27218622E-01 0.82770016E+02</pdfrwt>
<totfact> 0.23561577E+02</totfact>
</mgrwt>
</event>
<event>
 5    1  0.9955701E-004  0.1033445E+03  0.7818608E-02  0.1445412E+00
         11   -1    0    0    0    0  0.00000000000E+00  0.00000000000E+00  0.10001431663E+04  0.10001431663E+04  0.51100000000E-03 0. -1.
          2   -1    0    0  501    0 -0.00000000000E+00 -0.00000000000E+00 -0.14429036752E+02  0.14429036977E+02  0.25500000000E-02 0. -1.
         11    1    1    2    0    0 -0.10519698842E+03  0.30597941194E+02  0.40884642466E+03  0.42327064549E+03  0.51100000000E-03 0. -1.
         22    1    1    2    0    0  0.17101250064E+02  0.17091918622E+02  0.57758643555E+02  0.62615072796E+02  0.00000000000E+00 0. -1.
          2    1    1    2  501    0  0.88095738357E+02 -0.47689859815E+02  0.51910906133E+03  0.52868648498E+03  0.25500000000E-02 0. -1.
<mgrwt>
<rscale>  0 0.49986847E+02</rscale>
<asrwt>0</asrwt>
<pdfrwt beam="1">  1       11 0.10000000E+01 0.10334449E+03</pdfrwt>
<pdfrwt beam="2">  1        2 0.22201696E-02 0.49986847E+02</pdfrwt>
<totfact> 0.47675852E+03</totfact>
</mgrwt>
</event>
<event>
 5    1  0.9955701E-004  0.1499744E+03  0.7818608E-02  0.1200504E+00
         11   -1    0    0    0    0  0.00000000000E+00  0.00000000000E+00  0.10001390755E+04  0.10001390755E+04  0.51100000000E-03 0. -1.
          2   -1    0    0  501    0 -0.00000000000E+00 -0.00000000000E+00 -0.27999790156E+02  0.27999790272E+02  0.25500000000E-02 0.  1.
         11    1    1    2    0    0  0.14301951749E+03 -0.16810121018E+02  0.72412902356E+03  0.73830888205E+03  0.51100000000E-03 0. -1.
         22    1    1    2    0    0 -0.16528094209E+02 -0.12511206374E+01  0.91289048588E+01  0.18923004649E+02  0.00000000000E+00 0.  1.
          2    1    1    2  501    0 -0.12649142328E+03  0.18061241656E+02  0.23888135688E+03  0.27090697903E+03  0.25500000000E-02 0.  1.
<mgrwt>
<rscale>  0 0.14997443E+03</rscale>
<asrwt>0</asrwt>
<pdfrwt beam="1">  1       11 0.10000000E+01 0.14400404E+03</pdfrwt>
<pdfrwt beam="2">  1        2 0.43082590E-02 0.14997443E+03</pdfrwt>
<totfact> 0.22473343E+03</totfact>
</mgrwt>
</event>
<event>
 5    1  0.9955701E-004  0.1307943E+03  0.7818608E-02  0.1400688E+00
         11   -1    0    0    0    0  0.00000000000E+00  0.00000000000E+00  0.10000660237E+04  0.10000660237E+04  0.51100000000E-03 0. -1.
          2   -1    0    0  501    0 -0.00000000000E+00 -0.00000000000E+00 -0.50651814983E+02  0.50651815047E+02  0.25500000000E-02 0.  1.
         11    1    1    2    0    0  0.81681726752E+02 -0.99201998783E+02  0.65352448975E+03  0.66603843715E+03  0.51100000000E-03 0. -1.
         22    1    1    2    0    0  0.24371649658E+02  0.11404303858E+02 -0.24228987443E+02  0.36208828842E+02  0.00000000000E+00 0. -1.
          2    1    1    2  501    0 -0.10605337641E+03  0.87797694925E+02  0.32011870642E+03  0.34847057277E+03  0.25500000000E-02 0.  1.
<mgrwt>
<rscale>  0 0.59324547E+02</rscale>
<asrwt>0</asrwt>
<pdfrwt beam="1">  1       11 0.10000000E+01 0.13079434E+03</pdfrwt>
<pdfrwt beam="2">  1        2 0.77931012E-02 0.59324547E+02</pdfrwt>
<totfact> 0.97582916E+02</totfact>
</mgrwt>
</event>
<event>
 5    1  0.9955701E-004  0.1833601E+03  0.7818608E-02  0.1164590E+00
         11   -1    0    0    0    0  0.00000000000E+00  0.00000000000E+00  0.10000605470E+04  0.10000605470E+04  0.51100000000E-03 0. -1.
          2   -1    0    0  501    0 -0.00000000000E+00 -0.00000000000E+00 -0.11908413282E+03  0.11908413285E+03  0.25500000000E-02 0.  1.
         11    1    1    2    0    0  0.15361792320E+03  0.89891554285E+02  0.91543299107E+03  0.93257520823E+03  0.51100000000E-03 0. -1.
         22    1    1    2    0    0 -0.19160394693E+02 -0.67097050264E+00  0.62187039597E+01  0.20155475810E+02  0.00000000000E+00 0. -1.
          2    1    1    2  501    0 -0.13445752850E+03 -0.89220583783E+02 -0.40675280805E+02  0.16641399586E+03  0.25500000000E-02 0.  1.
<mgrwt>
<rscale>  0 0.18336006E+03</rscale>
<asrwt>0</asrwt>
<pdfrwt beam="1">  1       11 0.10000000E+01 0.17798584E+03</pdfrwt>
<pdfrwt beam="2">  1        2 0.18321745E-01 0.18336006E+03</pdfrwt>
<totfact> 0.37498969E+02</totfact>
</mgrwt>
</event>
<event>
 5    1  0.9955701E-004  0.1182120E+03  0.7818608E-02  0.1523299E+00
         11   -1    0    0    0    0  0.00000000000E+00  0.00000000000E+00  0.10001363478E+04  0.10001363478E+04  0.51100000000E-03 0. -1.
          2   -1    0    0  501    0 -0.00000000000E+00 -0.00000000000E+00 -0.18225890650E+02  0.18225890828E+02  0.25500000000E-02 0. -1.
         11    1    1    2    0    0  0.52994563808E+01 -0.11928863247E+03  0.34126400921E+03  0.36155080702E+03  0.51100000000E-03 0. -1.
         22    1    1    2    0    0  0.11911859109E+02  0.27671644258E+01  0.11678225383E+02  0.16909480610E+02  0.00000000000E+00 0.  1.
          2    1    1    2  501    0 -0.17211315490E+02  0.11652146805E+03  0.62896822253E+03  0.63990195097E+03  0.25500000000E-02 0. -1.
<mgrwt>
<rscale>  0 0.38021302E+02</rscale>
<asrwt>0</asrwt>
<pdfrwt beam="1">  1       11 0.10000000E+01 0.11821200E+03</pdfrwt>
<pdfrwt beam="2">  1        2 0.28043654E-02 0.38021302E+02</pdfrwt>
<totfact> 0.33785688E+03</totfact>
</mgrwt>
</event>
<event>
 5    1  0.9955701E-004  0.1616789E+03  0.7818608E-02  0.1271919E+00
         11   -1    0    0    0    0  0.00000000000E+00  0.00000000000E+00  0.10005396603E+04  0.10005396603E+04  0.51100000000E-03 0.  1.
          2   -1    0    0  501    0 -0.00000000000E+00 -0.00000000000E+00 -0.81039012714E+02  0.81039012755E+02  0.25500000000E-02 0.  1.
         11    1    1    2    0    0  0.14527585169E+03 -0.73788132100E+02  0.78878983037E+03  0.80544345426E+03  0.51100000000E-03 0.  1.
         22    1    1    2    0    0  0.21251355286E+02  0.63557989044E+02  0.49387441031E+01  0.67198432022E+02  0.00000000000E+00 0.  1.
          2    1    1    2  501    0 -0.16652720698E+03  0.10230143056E+02  0.12577207315E+03  0.20893678681E+03  0.25500000000E-02 0.  1.
<mgrwt>
<rscale>  0 0.10409219E+03</rscale>
<asrwt>0</asrwt>
<pdfrwt beam="1">  1       11 0.10000000E+01 0.16167885E+03</pdfrwt>
<pdfrwt beam="2">  1        2 0.12474268E-01 0.10409219E+03</pdfrwt>
<totfact> 0.57410666E+02</totfact>
</mgrwt>
</event>
<event>
 5    1  0.9955701E-004  0.2731346E+02  0.7818608E-02  0.1763528E+00
         11   -1    0    0    0    0  0.00000000000E+00  0.00000000000E+00  0.10003456755E+04  0.10003456755E+04  0.51100000000E-03 0. -1.
         -2   -1    0    0    0  501 -0.00000000000E+00 -0.00000000000E+00 -0.56492551350E+01  0.56492557105E+01  0.25500000000E-02 0. -1.
         11    1    1    2    0    0  0.27609435789E+01  0.38785580394E+02  0.17337968249E+03  0.17768640454E+03  0.51100000000E-03 0. -1.
         22    1    1    2    0    0 -0.44045393334E+01 -0.12631121302E+02  0.10337248631E+02  0.16905735753E+02  0.00000000000E+00 0. -1.
         -2    1    1    2    0  501  0.16435957546E+01 -0.26154459092E+02  0.81097948921E+03  0.81140279089E+03  0.25500000000E-02 0. -1.
<mgrwt>
<rscale>  0 0.19114732E+02</rscale>
<asrwt>0</asrwt>
<pdfrwt beam="1">  1       11 0.10000000E+01 0.27313455E+02</pdfrwt>
<pdfrwt beam="2">  1       -2 0.86941663E-03 0.19114732E+02</pdfrwt>
<totfact> 0.12870072E+04</totfact>
</mgrwt>
</event>
<event>
 5    1  0.9955701E-004  0.1471035E+03  0.7818608E-02  0.1373221E+00
         11   -1    0    0    0    0  0.00000000000E+00  0.00000000000E+00  0.10001148652E+04  0.10001148652E+04  0.51100000000E-03 0.  1.
          2   -1    0    0  501    0 -0.00000000000E+00 -0.00000000000E+00 -0.38537499744E+02  0.38537499829E+02  0.25500000000E-02 0.  1.
         11    1    1    2    0    0 -0.70579972335E+02 -0.13821247057E+03  0.73379003591E+03  0.75002135724E+03  0.51100000000E-03 0.  1.
         22    1    1    2    0    0  0.25062567646E+02  0.16238770112E+02  0.45552924731E+01  0.30208949689E+02  0.00000000000E+00 0. -1.
          2    1    1    2  501    0  0.45517404688E+02  0.12197370046E+03  0.22323203710E+03  0.25842205813E+03  0.25500000000E-02 0.  1.
<mgrwt>
<rscale>  0 0.66279931E+02</rscale>
<asrwt>0</asrwt>
<pdfrwt beam="1">  1       11 0.10000000E+01 0.14710352E+03</pdfrwt>
<pdfrwt beam="2">  1        2 0.59295270E-02 0.66279931E+02</pdfrwt>
<totfact> 0.13838236E+03</totfact>
</mgrwt>
</event>
<event>
 5    1  0.9955701E-004  0.2357061E+03  0.7818608E-02  0.1359517E+00
         11   -1    0    0    0    0  0.00000000000E+00  0.00000000000E+00  0.10001907452E+04  0.10001907452E+04  0.51100000000E-03 0. -1.
          2   -1    0    0  501    0 -0.00000000000E+00 -0.00000000000E+00 -0.12289353222E+03  0.12289353225E+03  0.25500000000E-02 0. -1.
         11    1    1    2    0    0 -0.22709000308E+03  0.64125759560E+02  0.81740167362E+03  0.85078051140E+03  0.51100000000E-03 0. -1.
         22    1    1    2    0    0  0.73641854301E+01  0.19548416659E+02 -0.14804652989E+02  0.25603702292E+02  0.00000000000E+00 0.  1.
          2    1    1    2  501    0  0.21972581765E+03 -0.83674176219E+02  0.74700192317E+02  0.24670006373E+03  0.25500000000E-02 0. -1.
<mgrwt>
<rscale>  0 0.70169701E+02</rscale>
<asrwt>0</asrwt>
<pdfrwt beam="1">  1       11 0.10000000E+01 0.23570615E+03</pdfrwt>
<pdfrwt beam="2">  1        2 0.18910303E-01 0.70169701E+02</pdfrwt>
<totfact> 0.34901106E+02</totfact>
</mgrwt>
</event>
<event>
 5    1  0.9955701E-004  0.2120803E+03  0.7818608E-02  0.1285761E+00
         11   -1    0    0    0    0  0.00000000000E+00  0.00000000000E+00  0.10003787804E+04  0.10003787804E+04  0.51100000000E-03 0. -1.
         -2   -1    0    0    0  501 -0.00000000000E+00 -0.00000000000E+00 -0.11224928493E+03  0.11224928495E+03  0.25500000000E-02 0.  1.
         11    1    1    2    0    0 -0.18715728245E+03 -0.91190760764E+02  0.64124681631E+03  0.67419662017E+03  0.51100000000E-03 0. -1.
         22    1    1    2    0    0  0.87305509624E+01 -0.43914548437E+02 -0.49690643028E+02  0.66886994917E+02  0.00000000000E+00 0.  1.
         -2    1    1    2    0  501  0.17842673149E+03  0.13510530920E+03  0.29657332222E+03  0.37154445029E+03  0.25500000000E-02 0.  1.
<mgrwt>
<rscale>  0 0.97445778E+02</rscale>
<asrwt>0</asrwt>
<pdfrwt beam="1">  1       11 0.10000000E+01 0.21208027E+03</pdfrwt>
<pdfrwt beam="2">  1       -2 0.17275661E-01 0.97445778E+02</pdfrwt>
<totfact> 0.20844028E+02</totfact>
</mgrwt>
</event>
<event>
 5    1  0.9955701E-004  0.2009842E+03  0.7818608E-02  0.1378554E+00
         11   -1    0    0    0    0  0.00000000000E+00  0.00000000000E+00  0.10001668337E+04  0.10001668337E+04  0.51100000000E-03 0.  1.
          2   -1    0    0  501    0 -0.00000000000E+00 -0.00000000000E+00 -0.20349366434E+03  0.20349366436E+03  0.25500000000E-02 0.  1.
         11    1    1    2    0    0  0.87576493013E+02 -0.18196802751E+03  0.92993617789E+03  0.95161089743E+03  0.51100000000E-03 0.  1.
         22    1    1    2    0    0 -0.19720965865E+02  0.69858794291E+01 -0.33519011595E+02  0.39512569448E+02  0.00000000000E+00 0. -1.
          2    1    1    2  501    0 -0.67855527148E+02  0.17498214808E+03 -0.99743996904E+02  0.21253703121E+03  0.25500000000E-02 0.  1.
<mgrwt>
<rscale>  0 0.64845496E+02</rscale>
<asrwt>0</asrwt>
<pdfrwt beam="1">  1       11 0.10000000E+01 0.20098421E+03</pdfrwt>
<pdfrwt beam="2">  1        2 0.31311940E-01 0.64845496E+02</pdfrwt>
<totfact> 0.20170681E+02</totfact>
</mgrwt>
</event>
<event>
 5    1  0.9955701E-004  0.1310743E+03  0.7818608E-02  0.1225870E+00
         11   -1    0    0    0    0  0.00000000000E+00  0.00000000000E+00  0.10004251121E+04  0.10004251121E+04  0.51100000000E-03 0.  1.
          2   -1    0    0  501    0 -0.00000000000E+00 -0.00000000000E+00 -0.18757779828E+02  0.18757780001E+02  0.25500000000E-02 0.  1.
         11    1    1    2    0    0 -0.12898099932E+03 -0.59430536790E+01  0.41858305018E+03  0.43804473284E+03  0.51100000000E-03 0.  1.
         22    1    1    2    0    0 -0.46734000125E+01  0.88567230115E+01  0.36439388121E+02  0.37790358782E+02  0.00000000000E+00 0. -1.
          2    1    1    2  501    0  0.13365439934E+03 -0.29136693325E+01  0.52664489395E+03  0.54334780046E+03  0.25500000000E-02 0.  1.
<mgrwt>
<rscale>  0 0.13107426E+03</rscale>
<asrwt>0</asrwt>
<pdfrwt beam="1">  1       11 0.10000000E+01 0.10014101E+02</pdfrwt>
<pdfrwt beam="2">  1        2 0.28870390E-02 0.13107426E+03</pdfrwt>
<totfact> 0.37854164E+03</totfact>
</mgrwt>
</event>
<event>
 5    1  0.9955701E-004  0.6706803E+02  0.7818608E-02  0.1386834E+00
         11   -1    0    0    0    0  0.00000000000E+00  0.00000000000E+00  0.10000611663E+04  0.10000611663E+04  0.51100000000E-03 0.  1.
         -2   -1    0    0    0  501 -0.00000000000E+00 -0.00000000000E+00 -0.70170718873E+01  0.70170723507E+01  0.25500000000E-02 0.  1.
         11    1    1    2    0    0 -0.20476502048E+01  0.14376891950E+02  0.51545558660E+02  0.53552147588E+02  0.51100000000E-03 0.  1.
         22    1    1    2    0    0 -0.43316971862E+02  0.28906550250E+02  0.13661438481E+03  0.14620341595E+03  0.00000000000E+00 0.  1.
         -2    1    1    2    0  501  0.45364622067E+02 -0.43283442200E+02  0.80488415092E+03  0.80732267509E+03  0.25500000000E-02 0.  1.
<mgrwt>
<rscale>  0 0.62700920E+02</rscale>
<asrwt>0</asrwt>
<pdfrwt beam="1">  1       11 0.10000000E+01 0.67068031E+02</pdfrwt>
<pdfrwt beam="2">  1       -2 0.10796156E-02 0.62700920E+02</pdfrwt>
<totfact> 0.12268224E+04</totfact>
</mgrwt>
</event>
<event>
 5    1  0.9955701E-004  0.1411493E+03  0.7818608E-02  0.1322824E+00
         11   -1    0    0    0    0  0.00000000000E+00  0.00000000000E+00  0.10000822174E+04  0.10000822174E+04  0.51100000000E-03 0.  1.
          2   -1    0    0  501    0 -0.00000000000E+00 -0.00000000000E+00 -0.84007940185E+02  0.84007940224E+02  0.25500000000E-02 0.  1.
         11    1    1    2    0    0 -0.12468977858E+03  0.39627566561E+02 -0.99703319355E+01  0.13121468070E+03  0.51100000000E-03 0.  1.
         22    1    1    2    0    0  0.11120131469E+02  0.46603524372E+02  0.68723284107E+02  0.83776103909E+02  0.00000000000E+00 0.  1.
          2    1    1    2  501    0  0.11356964711E+03 -0.86231090933E+02  0.85732132502E+03  0.86909937298E+03  0.25500000000E-02 0.  1.
<mgrwt>
<rscale>  0 0.82235754E+02</rscale>
<asrwt>0</asrwt>
<pdfrwt beam="1">  1       11 0.10000000E+01 0.14114925E+03</pdfrwt>
<pdfrwt beam="2">  1        2 0.12925361E-01 0.82235754E+02</pdfrwt>
<totfact> 0.54358343E+02</totfact>
</mgrwt>
</event>
<event>
 5    1  0.9955701E-004  0.3333042E+03  0.7818608E-02  0.1241681E+00
         11   -1    0    0    0    0  0.00000000000E+00  0.00000000000E+00  0.10001875926E+04  0.10001875926E+04  0.51100000000E-03 0. -1.
          2   -1    0    0  501    0 -0.00000000000E+00 -0.00000000000E+00 -0.53195933080E+03  0.53195933081E+03  0.25500000000E-02 0.  1.
         11    1    1    2    0    0  0.53998835303E+02 -0.33044817167E+03  0.89724305350E+03  0.95768312371E+03  0.51100000000E-03 0. -1.
         22    1    1    2    0    0 -0.41695313841E+02  0.13502606701E+02 -0.13512673620E+03  0.14205651840E+03  0.00000000000E+00 0.  1.
          2    1    1    2  501    0 -0.12303521462E+02  0.31694556497E+03 -0.29388805547E+03  0.43240728133E+03  0.25500000000E-02 0.  1.
<mgrwt>
<rscale>  0 0.12086263E+03</rscale>
<asrwt>0</asrwt>
<pdfrwt beam="1">  1       11 0.10000000E+01 0.33330422E+03</pdfrwt>
<pdfrwt beam="2">  1        2 0.81855247E-01 0.12086263E+03</pdfrwt>
<totfact> 0.73319479E+01</totfact>
</mgrwt>
</event>
<event>
 5    1  0.9955701E-004  0.2952850E+02  0.7818608E-02  0.1603360E+00
         11   -1    0    0    0    0  0.00000000000E+00  0.00000000000E+00  0.10003136920E+04  0.10003136920E+04  0.51100000000E-03 0.  1.
          2   -1    0    0  501    0 -0.00000000000E+00 -0.00000000000E+00 -0.33235891411E+01  0.33235901193E+01  0.25500000000E-02 0.  1.
         11    1    1    2    0    0  0.10430011154E+02 -0.48120812091E+01  0.20449217846E+02  0.23454461601E+02  0.51100000000E-03 0.  1.
         22    1    1    2    0    0  0.27719177203E+02  0.48083384885E+01  0.14142622174E+03  0.14419725760E+03  0.00000000000E+00 0.  1.
          2    1    1    2  501    0 -0.38149188357E+02  0.37427205254E-02  0.83511466330E+03  0.83598556294E+03  0.25500000000E-02 0.  1.
<mgrwt>
<rscale>  0 0.29528505E+02</rscale>
<asrwt>0</asrwt>
<pdfrwt beam="1">  1       11 0.10000000E+01 0.11486574E+02</pdfrwt>
<pdfrwt beam="2">  1        2 0.51148186E-03 0.29528505E+02</pdfrwt>
<totfact> 0.30161476E+04</totfact>
</mgrwt>
</event>
<event>
 5    1  0.9955701E-004  0.3430904E+03  0.7818608E-02  0.1065487E+00
         11   -1    0    0    0    0  0.00000000000E+00  0.00000000000E+00  0.10003590741E+04  0.10003590741E+04  0.51100000000E-03 0. -1.
          2   -1    0    0  501    0 -0.00000000000E+00 -0.00000000000E+00 -0.46126154098E+03  0.46126154099E+03  0.25500000000E-02 0. -1.
         11    1    1    2    0    0  0.30352757567E+03 -0.83463953684E+02  0.90609975944E+03  0.95922468422E+03  0.51100000000E-03 0. -1.
         22    1    1    2    0    0 -0.15709025925E+03 -0.25177697961E+02 -0.19573892221E+03  0.25223994865E+03  0.00000000000E+00 0. -1.
          2    1    1    2  501    0 -0.14643731642E+03  0.10864165165E+03 -0.17126330410E+03  0.25015598224E+03  0.25500000000E-02 0. -1.
<mgrwt>
<rscale>  0 0.34309042E+03</rscale>
<asrwt>0</asrwt>
<pdfrwt beam="1">  1       11 0.10000000E+01 0.31479393E+03</pdfrwt>
<pdfrwt beam="2">  1        2 0.70988793E-01 0.34309042E+03</pdfrwt>
<totfact> 0.84553608E+01</totfact>
</mgrwt>
</event>
<event>
 5    1  0.9955701E-004  0.2234034E+03  0.7818608E-02  0.1131371E+00
         11   -1    0    0    0    0  0.00000000000E+00  0.00000000000E+00  0.99976974188E+03  0.99976974188E+03  0.51100000000E-03 0. -1.
          2   -1    0    0  501    0 -0.00000000000E+00 -0.00000000000E+00 -0.10411871304E+03  0.10411871307E+03  0.25500000000E-02 0. -1.
         11    1    1    2    0    0  0.21632708889E+03  0.13802143490E+02  0.84825355725E+03  0.87551242478E+03  0.51100000000E-03 0. -1.
         22    1    1    2    0    0 -0.79658034218E+02  0.20962811675E+02  0.16340851465E+02  0.83975385176E+02  0.00000000000E+00 0. -1.
          2    1    1    2  501    0 -0.13666905467E+03 -0.34764955165E+02  0.31056620126E+02  0.14440064499E+03  0.25500000000E-02 0. -1.
<mgrwt>
<rscale>  0 0.22340343E+03</rscale>
<asrwt>0</asrwt>
<pdfrwt beam="1">  1       11 0.10000000E+01 0.21676695E+03</pdfrwt>
<pdfrwt beam="2">  1        2 0.16014575E-01 0.22340343E+03</pdfrwt>
<totfact> 0.44158564E+02</totfact>
</mgrwt>
</event>
<event>
 5    1  0.9955701E-004  0.6102391E+02  0.7818608E-02  0.1393584E+00
         11   -1    0    0    0    0  0.00000000000E+00  0.00000000000E+00  0.10002239084E+04  0.10002239084E+04  0.51100000000E-03 0.  1.
          2   -1    0    0  501    0 -0.00000000000E+00 -0.00000000000E+00 -0.23027297313E+02  0.23027297454E+02  0.25500000000E-02 0.  1.
         11    1    1    2    0    0 -0.11808301976E+02 -0.25272544716E+01  0.20609601655E+02  0.23886789055E+02  0.51100000000E-03 0.  1.
         22    1    1    2    0    0 -0.16254389155E+01 -0.60866830333E+02  0.25479565182E+02  0.66004706865E+02  0.00000000000E+00 0.  1.
          2    1    1    2  501    0  0.13433740891E+02  0.63394084805E+02  0.93110744423E+03  0.93335970991E+03  0.25500000000E-02 0.  1.
<mgrwt>
<rscale>  0 0.61023906E+02</rscale>
<asrwt>0</asrwt>
<pdfrwt beam="1">  1       11 0.10000000E+01 0.12075726E+02</pdfrwt>
<pdfrwt beam="2">  1        2 0.35434543E-02 0.61023906E+02</pdfrwt>
<totfact> 0.26534892E+03</totfact>
</mgrwt>
</event>
<event>
 5    1  0.9955701E-004  0.1963762E+03  0.7818608E-02  0.1152833E+00
         11   -1    0    0    0    0  0.00000000000E+00  0.00000000000E+00  0.10000282730E+04  0.10000282730E+04  0.51100000000E-03 0.  1.
          2   -1    0    0  501    0 -0.00000000000E+00 -0.00000000000E+00 -0.46757323056E+02  0.46757323126E+02  0.25500000000E-02 0.  1.
         11    1    1    2    0    0 -0.17335486363E+03  0.75638069343E+02  0.70668802460E+03  0.73156065394E+03  0.51100000000E-03 0.  1.
         22    1    1    2    0    0  0.18295771977E+02 -0.18381435489E+02  0.12830073419E+02  0.28934809949E+02  0.00000000000E+00 0. -1.
          2    1    1    2  501    0  0.15505909166E+03 -0.57256633855E+02  0.23375285192E+03  0.28629013223E+03  0.25500000000E-02 0.  1.
<mgrwt>
<rscale>  0 0.19637623E+03</rscale>
<asrwt>0</asrwt>
<pdfrwt beam="1">  1       11 0.10000000E+01 0.18913759E+03</pdfrwt>
<pdfrwt beam="2">  1        2 0.71936375E-02 0.19637623E+03</pdfrwt>
<totfact> 0.11754503E+03</totfact>
</mgrwt>
</event>
<event>
 5    1  0.9955701E-004  0.2011900E+03  0.7818608E-02  0.1149549E+00
         11   -1    0    0    0    0  0.00000000000E+00  0.00000000000E+00  0.99987287630E+03  0.99987287630E+03  0.51100000000E-03 0. -1.
         -2   -1    0    0    0  501 -0.00000000000E+00 -0.00000000000E+00 -0.41314065891E+02  0.41314065970E+02  0.25500000000E-02 0. -1.
         11    1    1    2    0    0  0.19090814225E+03  0.49369420628E+01  0.37990399442E+03  0.42520270125E+03  0.51100000000E-03 0. -1.
         22    1    1    2    0    0  0.90905706402E+01  0.45955505989E+01  0.18487044759E+02  0.21107543291E+02  0.00000000000E+00 0. -1.
         -2    1    1    2    0  501 -0.19999871289E+03 -0.95324926618E+01  0.56016777123E+03  0.59487669773E+03  0.25500000000E-02 0. -1.
<mgrwt>
<rscale>  0 0.20022576E+03</rscale>
<asrwt>0</asrwt>
<pdfrwt beam="1">  1       11 0.10000000E+01 0.20119000E+03</pdfrwt>
<pdfrwt beam="2">  1       -2 0.63552020E-02 0.20022576E+03</pdfrwt>
<totfact> 0.10583163E+03</totfact>
</mgrwt>
</event>
<event>
 5    1  0.9955701E-004  0.3803144E+02  0.7818608E-02  0.1724155E+00
         11   -1    0    0    0    0  0.00000000000E+00  0.00000000000E+00  0.10001441939E+04  0.10001441939E+04  0.51100000000E-03 0.  1.
         -2   -1    0    0    0  501 -0.00000000000E+00 -0.00000000000E+00 -0.11098749966E+02  0.11098750259E+02  0.25500000000E-02 0.  1.
         11    1    1    2    0    0 -0.12855593502E+01 -0.27371172374E+02  0.36993689539E+02  0.46036581171E+02  0.51100000000E-03 0.  1.
         22    1    1    2    0    0 -0.27261841412E+01 -0.11393433039E+02 -0.62605959913E+00  0.11731766577E+02  0.00000000000E+00 0. -1.
         -2    1    1    2    0  501  0.40117434914E+01  0.38764605413E+02  0.95267781397E+03  0.95347459639E+03  0.25500000000E-02 0.  1.
<mgrwt>
<rscale>  0 0.21107818E+02</rscale>
<asrwt>0</asrwt>
<pdfrwt beam="1">  1       11 0.10000000E+01 0.38031439E+02</pdfrwt>
<pdfrwt beam="2">  1       -2 0.17077462E-02 0.21107818E+02</pdfrwt>
<totfact> 0.52924788E+03</totfact>
</mgrwt>
</event>
<event>
 5    1  0.9955701E-004  0.5771471E+02  0.7818608E-02  0.1420816E+00
         11   -1    0    0    0    0  0.00000000000E+00  0.00000000000E+00  0.10001934848E+04  0.10001934848E+04  0.51100000000E-03 0. -1.
          2   -1    0    0  501    0 -0.00000000000E+00 -0.00000000000E+00 -0.68803469770E+01  0.68803474495E+01  0.25500000000E-02 0. -1.
         11    1    1    2    0    0 -0.29160707159E+02 -0.13577426565E+02  0.78252883480E+02  0.84606188470E+02  0.51100000000E-03 0. -1.
         22    1    1    2    0    0 -0.12388469408E+02 -0.22228239063E+02  0.54359540503E+02  0.60021066550E+02  0.00000000000E+00 0. -1.
          2    1    1    2  501    0  0.41549176567E+02  0.35805665628E+02  0.86070071382E+03  0.86244657721E+03  0.25500000000E-02 0. -1.
<mgrwt>
<rscale>  0 0.54848699E+02</rscale>
<asrwt>0</asrwt>
<pdfrwt beam="1">  1       11 0.10000000E+01 0.57714711E+02</pdfrwt>
<pdfrwt beam="2">  1        2 0.10587197E-02 0.54848699E+02</pdfrwt>
<totfact> 0.12985039E+04</totfact>
</mgrwt>
</event>
<event>
 5    1  0.9955701E-004  0.1647942E+03  0.7818608E-02  0.1390752E+00
         11   -1    0    0    0    0  0.00000000000E+00  0.00000000000E+00  0.99999097288E+03  0.99999097288E+03  0.51100000000E-03 0.  1.
          2   -1    0    0  501    0 -0.00000000000E+00 -0.00000000000E+00 -0.59739578920E+02  0.59739578975E+02  0.25500000000E-02 0.  1.
         11    1    1    2    0    0  0.15610336318E+03 -0.55446604177E+02  0.80550481407E+03  0.82236281008E+03  0.51100000000E-03 0.  1.
         22    1    1    2    0    0 -0.12239989033E+02 -0.19609322887E+02 -0.44956727020E+01  0.23548969163E+02  0.00000000000E+00 0. -1.
          2    1    1    2  501    0 -0.14386337415E+03  0.75055927064E+02  0.13924225259E+03  0.21381877261E+03  0.25500000000E-02 0.  1.
<mgrwt>
<rscale>  0 0.61719999E+02</rscale>
<asrwt>0</asrwt>
<pdfrwt beam="1">  1       11 0.10000000E+01 0.16479415E+03</pdfrwt>
<pdfrwt beam="2">  1        2 0.91906212E-02 0.61719999E+02</pdfrwt>
<totfact> 0.80094482E+02</totfact>
</mgrwt>
</event>
<event>
 5    1  0.9955701E-004  0.3531153E+02  0.7818608E-02  0.1545851E+00
         11   -1    0    0    0    0  0.00000000000E+00  0.00000000000E+00  0.99998484750E+03  0.99998484750E+03  0.51100000000E-03 0. -1.
          2   -1    0    0  501    0 -0.00000000000E+00 -0.00000000000E+00 -0.13930883154E+02  0.13930883388E+02  0.25500000000E-02 0. -1.
         11    1    1    2    0    0  0.10039560304E+02  0.31444196846E+02  0.41773963490E+02  0.53240908260E+02  0.51100000000E-03 0. -1.
         22    1    1    2    0    0 -0.35726119755E+02 -0.25328235804E+01  0.33395476617E+02  0.48969671088E+02  0.00000000000E+00 0. -1.
          2    1    1    2  501    0  0.25686559451E+02 -0.28911373266E+02  0.91088452424E+03  0.91170515154E+03  0.25500000000E-02 0. -1.
<mgrwt>
<rscale>  0 0.35311533E+02</rscale>
<asrwt>0</asrwt>
<pdfrwt beam="1">  1       11 0.10000000E+01 0.33008050E+02</pdfrwt>
<pdfrwt beam="2">  1        2 0.21431803E-02 0.35311533E+02</pdfrwt>
<totfact> 0.47342933E+03</totfact>
</mgrwt>
</event>
<event>
 5    1  0.9955701E-004  0.1556421E+03  0.7818608E-02  0.1475327E+00
         11   -1    0    0    0    0  0.00000000000E+00  0.00000000000E+00  0.10005530029E+04  0.10005530029E+04  0.51100000000E-03 0. -1.
         -2   -1    0    0    0  501 -0.00000000000E+00 -0.00000000000E+00 -0.29816656638E+02  0.29816656747E+02  0.25500000000E-02 0.  1.
         11    1    1    2    0    0  0.76104225270E+01 -0.15073553297E+03  0.57458986773E+03  0.59408133747E+03  0.51100000000E-03 0. -1.
         22    1    1    2    0    0  0.28985236249E+01 -0.12590435250E+02  0.83839676436E+01  0.15401669144E+02  0.00000000000E+00 0.  1.
         -2    1    1    2    0  501 -0.10508946152E+02  0.16332596822E+03  0.38776251086E+03  0.42088665301E+03  0.25500000000E-02 0.  1.
<mgrwt>
<rscale>  0 0.44842621E+02</rscale>
<asrwt>0</asrwt>
<pdfrwt beam="1">  1       11 0.10000000E+01 0.15564212E+03</pdfrwt>
<pdfrwt beam="2">  1       -2 0.45897145E-02 0.44842621E+02</pdfrwt>
<totfact> 0.14948008E+03</totfact>
</mgrwt>
</event>
<event>
 5    1  0.9955701E-004  0.1360298E+03  0.7818608E-02  0.1218773E+00
         11   -1    0    0    0    0  0.00000000000E+00  0.00000000000E+00  0.10003866600E+04  0.10003866600E+04  0.51100000000E-03 0. -1.
          2   -1    0    0  501    0 -0.00000000000E+00 -0.00000000000E+00 -0.22465573901E+02  0.22465574046E+02  0.25500000000E-02 0. -1.
         11    1    1    2    0    0 -0.12897634237E+03 -0.38654714655E+02  0.70690161110E+03  0.71961029150E+03  0.51100000000E-03 0. -1.
         22    1    1    2    0    0  0.14755517933E+02 -0.17782629843E+01  0.30053246233E+02  0.33527378929E+02  0.00000000000E+00 0.  1.
          2    1    1    2  501    0  0.11422082444E+03  0.40432977639E+02  0.24096622880E+03  0.26971456365E+03  0.25500000000E-02 0. -1.
<mgrwt>
<rscale>  0 0.13602985E+03</rscale>
<asrwt>0</asrwt>
<pdfrwt beam="1">  1       11 0.10000000E+01 0.13464429E+03</pdfrwt>
<pdfrwt beam="2">  1        2 0.34575784E-02 0.13602985E+03</pdfrwt>
<totfact> 0.29837300E+03</totfact>
</mgrwt>
</event>
<event>
 5    1  0.9955701E-004  0.5605634E+02  0.7818608E-02  0.1664212E+00
         11   -1    0    0    0    0  0.00000000000E+00  0.00000000000E+00  0.10004940343E+04  0.10004940343E+04  0.51100000000E-03 0. -1.
          2   -1    0    0  501    0 -0.00000000000E+00 -0.00000000000E+00 -0.66844901663E+01  0.66844906527E+01  0.25500000000E-02 0. -1.
         11    1    1    2    0    0 -0.61123898351E+02 -0.50716491272E+01  0.26089189396E+03  0.26800453897E+03  0.51100000000E-03 0. -1.
         22    1    1    2    0    0  0.65766791971E+01  0.87578722372E+01  0.12236503434E+02  0.16422090357E+02  0.00000000000E+00 0.  1.
          2    1    1    2  501    0  0.54547219154E+02 -0.36862231100E+01  0.72068114674E+03  0.72275189563E+03  0.25500000000E-02 0. -1.
<mgrwt>
<rscale>  0 0.24777934E+02</rscale>
<asrwt>0</asrwt>
<pdfrwt beam="1">  1       11 0.10000000E+01 0.56056343E+02</pdfrwt>
<pdfrwt beam="2">  1        2 0.10288912E-02 0.24777934E+02</pdfrwt>
<totfact> 0.11534193E+04</totfact>
</mgrwt>
</event>
<event>
 5    1  0.9955701E-004  0.9976871E+02  0.7818608E-02  0.1298828E+00
         11   -1    0    0    0    0  0.00000000000E+00  0.00000000000E+00  0.10002970261E+04  0.10002970261E+04  0.51100000000E-03 0. -1.
          2   -1    0    0  501    0 -0.00000000000E+00 -0.00000000000E+00 -0.65771388198E+02  0.65771388247E+02  0.25500000000E-02 0. -1.
         11    1    1    2    0    0  0.17339409847E+03 -0.86859262146E+01  0.30464050831E+03  0.35063770191E+03  0.51100000000E-03 0. -1.
         22    1    1    2    0    0 -0.83858811206E+02  0.81239107217E+01  0.52541539600E+01  0.84415071381E+02  0.00000000000E+00 0.  1.
          2    1    1    2  501    0 -0.89535287267E+02  0.56201549284E+00  0.62463097561E+03  0.63101564103E+03  0.25500000000E-02 0. -1.
<mgrwt>
<rscale>  0 0.91682326E+02</rscale>
<asrwt>0</asrwt>
<pdfrwt beam="1">  1       11 0.10000000E+01 0.99768708E+02</pdfrwt>
<pdfrwt beam="2">  1        2 0.10121680E-01 0.91682326E+02</pdfrwt>
<totfact> 0.73226655E+02</totfact>
</mgrwt>
</event>
<event>
 5    1  0.9955701E-004  0.1372423E+03  0.7818608E-02  0.1459599E+00
         11   -1    0    0    0    0  0.00000000000E+00  0.00000000000E+00  0.99998097335E+03  0.99998097335E+03  0.51100000000E-03 0.  1.
          2   -1    0    0  501    0 -0.00000000000E+00 -0.00000000000E+00 -0.27284258770E+02  0.27284258889E+02  0.25500000000E-02 0.  1.
         11    1    1    2    0    0 -0.82410309190E+02  0.12014075617E+03  0.52531070970E+03  0.54513906674E+03  0.51100000000E-03 0.  1.
         22    1    1    2    0    0  0.74737872389E+01 -0.14604431914E+02  0.13508411103E-01  0.16405703572E+02  0.00000000000E+00 0. -1.
          2    1    1    2  501    0  0.74936521951E+02 -0.10553632426E+03  0.44737249646E+03  0.46572046193E+03  0.25500000000E-02 0.  1.
<mgrwt>
<rscale>  0 0.47450555E+02</rscale>
<asrwt>0</asrwt>
<pdfrwt beam="1">  1       11 0.10000000E+01 0.13724233E+03</pdfrwt>
<pdfrwt beam="2">  1        2 0.41974983E-02 0.47450555E+02</pdfrwt>
<totfact> 0.20717082E+03</totfact>
</mgrwt>
</event>
<event>
 5    1  0.9955701E-004  0.5916775E+02  0.7818608E-02  0.1576888E+00
         11   -1    0    0    0    0  0.00000000000E+00  0.00000000000E+00  0.10001735933E+04  0.10001735933E+04  0.51100000000E-03 0.  1.
          2   -1    0    0  501    0 -0.00000000000E+00 -0.00000000000E+00 -0.85006992919E+01  0.85006996744E+01  0.25500000000E-02 0.  1.
         11    1    1    2    0    0  0.25475739782E+01  0.55831291809E+02  0.24188816117E+03  0.24826096308E+03  0.51100000000E-03 0.  1.
         22    1    1    2    0    0  0.17198528704E+02  0.20167219890E+01  0.14481072434E+02  0.22573391770E+02  0.00000000000E+00 0.  1.
          2    1    1    2  501    0 -0.19746102682E+02 -0.57848013798E+02  0.73530366041E+03  0.73783993812E+03  0.25500000000E-02 0.  1.
<mgrwt>
<rscale>  0 0.32008903E+02</rscale>
<asrwt>0</asrwt>
<pdfrwt beam="1">  1       11 0.10000000E+01 0.59167746E+02</pdfrwt>
<pdfrwt beam="2">  1        2 0.13080269E-02 0.32008903E+02</pdfrwt>
<totfact> 0.88761961E+03</totfact>
</mgrwt>
</event>
<event>
 5    1  0.9955701E-004  0.5347822E+02  0.7818608E-02  0.1427436E+00
         11   -1    0    0    0    0  0.00000000000E+00  0.00000000000E+00  0.10000829245E+04  0.10000829245E+04  0.51100000000E-03 0. -1.
          2   -1    0    0  501    0 -0.00000000000E+00 -0.00000000000E+00 -0.37105322532E+02  0.37105322619E+02  0.25500000000E-02 0. -1.
         11    1    1    2    0    0 -0.11453949174E+02  0.53063086679E+01  0.52770450045E+02  0.54259287330E+02  0.51100000000E-03 0. -1.
         22    1    1    2    0    0  0.28204980541E+02 -0.45698595260E+02 -0.15731316604E+02  0.55958528020E+02  0.00000000000E+00 0. -1.
          2    1    1    2  501    0 -0.16751031367E+02  0.40392286592E+02  0.92593846854E+03  0.92697043178E+03  0.25500000000E-02 0. -1.
<mgrwt>
<rscale>  0 0.53478218E+02</rscale>
<asrwt>0</asrwt>
<pdfrwt beam="1">  1       11 0.10000000E+01 0.12623386E+02</pdfrwt>
<pdfrwt beam="2">  1        2 0.57089844E-02 0.53478218E+02</pdfrwt>
<totfact> 0.14220942E+03</totfact>
</mgrwt>
</event>
<event>
 5    1  0.9955701E-004  0.1869962E+03  0.7818608E-02  0.1407430E+00
         11   -1    0    0    0    0  0.00000000000E+00  0.00000000000E+00  0.99989459837E+03  0.99989459837E+03  0.51100000000E-03 0.  1.
          2   -1    0    0  501    0 -0.00000000000E+00 -0.00000000000E+00 -0.50074529936E+02  0.50074530000E+02  0.25500000000E-02 0.  1.
         11    1    1    2    0    0 -0.14683131190E+03 -0.10980959413E+03  0.67659829003E+03  0.70100130327E+03  0.51100000000E-03 0.  1.
         22    1    1    2    0    0 -0.17788934408E+02  0.14509107031E+01  0.11090148959E+02  0.21012918244E+02  0.00000000000E+00 0. -1.
          2    1    1    2  501    0  0.16462024630E+03  0.10835868343E+03  0.26213162945E+03  0.32795490685E+03  0.25500000000E-02 0.  1.
<mgrwt>
<rscale>  0 0.57771187E+02</rscale>
<asrwt>0</asrwt>
<pdfrwt beam="1">  1       11 0.10000000E+01 0.18699624E+03</pdfrwt>
<pdfrwt beam="2">  1        2 0.77029616E-02 0.57771187E+02</pdfrwt>
<totfact> 0.98765798E+02</totfact>
</mgrwt>
</event>
<event>
 5    1  0.9955701E-004  0.2400252E+03  0.7818608E-02  0.1119776E+00
         11   -1    0    0    0    0  0.00000000000E+00  0.00000000000E+00  0.10005239428E+04  0.10005239428E+04  0.51100000000E-03 0. -1.
          2   -1    0    0  501    0 -0.00000000000E+00 -0.00000000000E+00 -0.29825652848E+03  0.29825652849E+03  0.25500000000E-02 0. -1.
         11    1    1    2    0    0  0.13733631067E+03 -0.19573712129E+03  0.93461560928E+03  0.96471789659E+03  0.51100000000E-03 0. -1.
         22    1    1    2    0    0 -0.38054406094E+01  0.10352664132E+02 -0.15846846083E+02  0.19307551984E+02  0.00000000000E+00 0.  1.
          2    1    1    2  501    0 -0.13353087006E+03  0.18538445716E+03 -0.21650134891E+03  0.31475502268E+03  0.25500000000E-02 0. -1.
<mgrwt>
<rscale>  0 0.24002525E+03</rscale>
<asrwt>0</asrwt>
<pdfrwt beam="1">  1       11 0.10000000E+01 0.23911144E+03</pdfrwt>
<pdfrwt beam="2">  1        2 0.45909660E-01 0.24002525E+03</pdfrwt>
<totfact> 0.13646264E+02</totfact>
</mgrwt>
</event>
<event>
 5    1  0.9955701E-004  0.1331972E+03  0.7818608E-02  0.1368622E+00
         11   -1    0    0    0    0  0.00000000000E+00  0.00000000000E+00  0.10000776631E+04  0.10000776631E+04  0.51100000000E-03 0. -1.
          2   -1    0    0  501    0 -0.00000000000E+00 -0.00000000000E+00 -0.11151677379E+03  0.11151677382E+03  0.25500000000E-02 0. -1.
         11    1    1    2    0    0 -0.15509673998E+02 -0.13224687458E+03  0.19932223654E+02  0.13463684252E+03  0.51100000000E-03 0. -1.
         22    1    1    2    0    0  0.34259278691E+02  0.24889259948E-01 -0.43349882717E+02  0.55253154909E+02  0.00000000000E+00 0. -1.
          2    1    1    2  501    0 -0.18749604693E+02  0.13222198532E+03  0.91197854835E+03  0.92170443947E+03  0.25500000000E-02 0. -1.
<mgrwt>
<rscale>  0 0.67551744E+02</rscale>
<asrwt>0</asrwt>
<pdfrwt beam="1">  1       11 0.10000000E+01 0.13319718E+03</pdfrwt>
<pdfrwt beam="2">  1        2 0.17157759E-01 0.67551744E+02</pdfrwt>
<totfact> 0.38854149E+02</totfact>
</mgrwt>
</event>
<event>
 5    1  0.9955701E-004  0.1077509E+03  0.7818608E-02  0.1479412E+00
         11   -1    0    0    0    0  0.00000000000E+00  0.00000000000E+00  0.10001732935E+04  0.10001732935E+04  0.51100000000E-03 0. -1.
          2   -1    0    0  501    0 -0.00000000000E+00 -0.00000000000E+00 -0.14631880044E+02  0.14631880266E+02  0.25500000000E-02 0. -1.
         11    1    1    2    0    0  0.11233799604E+03  0.31686557747E+02  0.50496067437E+03  0.51827516433E+03  0.51100000000E-03 0. -1.
         22    1    1    2    0    0 -0.13960398667E+02 -0.11566291351E+02  0.31359070822E+02  0.36222412252E+02  0.00000000000E+00 0.  1.
          2    1    1    2  501    0 -0.98377597372E+02 -0.20120266396E+02  0.44922166826E+03  0.46030759718E+03  0.25500000000E-02 0. -1.
<mgrwt>
<rscale>  0 0.44197825E+02</rscale>
<asrwt>0</asrwt>
<pdfrwt beam="1">  1       11 0.10000000E+01 0.10775087E+03</pdfrwt>
<pdfrwt beam="2">  1        2 0.22514485E-02 0.44197825E+02</pdfrwt>
<totfact> 0.45966110E+03</totfact>
</mgrwt>
</event>
<event>
 5    1  0.9955701E-004  0.1385509E+03  0.7818608E-02  0.1467788E+00
         11   -1    0    0    0    0  0.00000000000E+00  0.00000000000E+00  0.10000810312E+04  0.10000810312E+04  0.51100000000E-03 0. -1.
          2   -1    0    0  501    0 -0.00000000000E+00 -0.00000000000E+00 -0.24563516285E+02  0.24563516417E+02  0.25500000000E-02 0. -1.
         11    1    1    2    0    0 -0.13105559501E+03 -0.30576645239E+02  0.28793582943E+03  0.31783256927E+03  0.51100000000E-03 0. -1.
         22    1    1    2    0    0 -0.20476039792E+01 -0.15179441720E+02  0.24024523585E+02  0.28491856143E+02  0.00000000000E+00 0. -1.
          2    1    1    2  501    0  0.13310319899E+03  0.45756086959E+02  0.66355716192E+03  0.67832012223E+03  0.25500000000E-02 0. -1.
<mgrwt>
<rscale>  0 0.46067048E+02</rscale>
<asrwt>0</asrwt>
<pdfrwt beam="1">  1       11 0.10000000E+01 0.13855093E+03</pdfrwt>
<pdfrwt beam="2">  1        2 0.37793086E-02 0.46067048E+02</pdfrwt>
<totfact> 0.23608698E+03</totfact>
</mgrwt>
</event>
<event>
 5    1  0.9955701E-004  0.4714884E+02  0.7818608E-02  0.1461356E+00
         11   -1    0    0    0    0  0.00000000000E+00  0.00000000000E+00  0.10005662711E+04  0.10005662711E+04  0.51100000000E-03 0.  1.
          2   -1    0    0  501    0 -0.00000000000E+00 -0.00000000000E+00 -0.43906202867E+01  0.43906210272E+01  0.25500000000E-02 0.  1.
         11    1    1    2    0    0 -0.11388869492E+02 -0.60230705454E+01  0.72807945313E+02  0.73939033183E+02  0.51100000000E-03 0.  1.
         22    1    1    2    0    0 -0.28757791749E+01  0.48059509135E+02  0.18005330487E+03  0.18637912737E+03  0.00000000000E+00 0.  1.
          2    1    1    2  501    0  0.14264648667E+02 -0.42036438589E+02  0.74331440059E+03  0.74463873154E+03  0.25500000000E-02 0.  1.
<mgrwt>
<rscale>  0 0.47148836E+02</rscale>
<asrwt>0</asrwt>
<pdfrwt beam="1">  1       11 0.10000000E+01 0.12883474E+02</pdfrwt>
<pdfrwt beam="2">  1        2 0.67586259E-03 0.47148836E+02</pdfrwt>
<totfact> 0.23086893E+04</totfact>
</mgrwt>
</event>
<event>
 5    1  0.1890208E-003  0.1648771E+03  0.7818608E-02  0.1410206E+00
         11   -1    0    0    0    0  0.00000000000E+00  0.00000000000E+00  0.10001275662E+04  0.10001275662E+04  0.51100000000E-03 0.  1.
         -2   -1    0    0    0  501 -0.00000000000E+00 -0.00000000000E+00 -0.24413777118E+03  0.24413777119E+03  0.25500000000E-02 0. -1.
         11    1    1    2    0    0 -0.60625911660E+02  0.15431998368E+03  0.95096671358E+03  0.96531230639E+03  0.51100000000E-03 0.  1.
         22    1    1    2    0    0 -0.84649453361E+00 -0.19789953476E+02 -0.10275880501E+03  0.10465051752E+03  0.00000000000E+00 0. -1.
         -2    1    1    2    0  501  0.61472406193E+02 -0.13453003021E+03 -0.92218113514E+02  0.17430251351E+03  0.25500000000E-02 0. -1.
<mgrwt>
<rscale>  0 0.57147995E+02</rscale>
<asrwt>0</asrwt>
<pdfrwt beam="1">  1       11 0.10000000E+01 0.16487708E+03</pdfrwt>
<pdfrwt beam="2">  1       -2 0.37564447E-01 0.57147995E+02</pdfrwt>
<totfact> 0.53377072E+01</totfact>
</mgrwt>
</event>
<event>
 5    1  0.9955701E-004  0.9142780E+02  0.7818608E-02  0.1429721E+00
         11   -1    0    0    0    0  0.00000000000E+00  0.00000000000E+00  0.10000909883E+04  0.10000909883E+04  0.51100000000E-03 0. -1.
          2   -1    0    0  501    0 -0.00000000000E+00 -0.00000000000E+00 -0.33179336322E+02  0.33179336420E+02  0.25500000000E-02 0. -1.
         11    1    1    2    0    0  0.16987444800E+02 -0.68606897101E+02  0.17569415506E+03  0.18937770653E+03  0.51100000000E-03 0. -1.
         22    1    1    2    0    0  0.17867394640E+01 -0.30690412001E+02 -0.12980202818E+02  0.33370338504E+02  0.00000000000E+00 0. -1.
          2    1    1    2  501    0 -0.18774184264E+02  0.99297309101E+02  0.80419769973E+03  0.81052227967E+03  0.25500000000E-02 0. -1.
<mgrwt>
<rscale>  0 0.53016099E+02</rscale>
<asrwt>0</asrwt>
<pdfrwt beam="1">  1       11 0.10000000E+01 0.91427805E+02</pdfrwt>
<pdfrwt beam="2">  1        2 0.51049776E-02 0.53016099E+02</pdfrwt>
<totfact> 0.16356963E+03</totfact>
</mgrwt>
</event>
<event>
 5    1  0.9955701E-004  0.2885373E+02  0.7818608E-02  0.1744292E+00
         11   -1    0    0    0    0  0.00000000000E+00  0.00000000000E+00  0.10001463372E+04  0.10001463372E+04  0.51100000000E-03 0.  1.
          2   -1    0    0  501    0 -0.00000000000E+00 -0.00000000000E+00 -0.30298580197E+01  0.30298590927E+01  0.25500000000E-02 0.  1.
         11    1    1    2    0    0  0.42966865180E+01  0.29757962357E+02  0.13302230551E+03  0.13637789998E+03  0.51100000000E-03 0.  1.
         22    1    1    2    0    0 -0.13756373204E+02 -0.22271382682E+01  0.43282524478E+02  0.45470593505E+02  0.00000000000E+00 0.  1.
          2    1    1    2  501    0  0.94596866856E+01 -0.27530824088E+02  0.82081164919E+03  0.82132770281E+03  0.25500000000E-02 0.  1.
<mgrwt>
<rscale>  0 0.20052201E+02</rscale>
<asrwt>0</asrwt>
<pdfrwt beam="1">  1       11 0.10000000E+01 0.28853733E+02</pdfrwt>
<pdfrwt beam="2">  1        2 0.46620028E-03 0.20052201E+02</pdfrwt>
<totfact> 0.30792181E+04</totfact>
</mgrwt>
</event>
<event>
 5    1  0.9955701E-004  0.2325183E+03  0.7818608E-02  0.1124880E+00
         11   -1    0    0    0    0  0.00000000000E+00  0.00000000000E+00  0.10000655055E+04  0.10000655055E+04  0.51100000000E-03 0.  1.
          2   -1    0    0  501    0 -0.00000000000E+00 -0.00000000000E+00 -0.34081899160E+03  0.34081899161E+03  0.25500000000E-02 0.  1.
         11    1    1    2    0    0 -0.61340282169E+02 -0.22257801751E+03  0.94482172869E+03  0.97262104805E+03  0.51100000000E-03 0.  1.
         22    1    1    2    0    0  0.10379378444E+02  0.18922747449E+02 -0.37629784679E+02  0.43379748304E+02  0.00000000000E+00 0. -1.
          2    1    1    2  501    0  0.50960903724E+02  0.20365527006E+03 -0.24794543008E+03  0.32488370079E+03  0.25500000000E-02 0.  1.
<mgrwt>
<rscale>  0 0.23251831E+03</rscale>
<asrwt>0</asrwt>
<pdfrwt beam="1">  1       11 0.10000000E+01 0.23087573E+03</pdfrwt>
<pdfrwt beam="2">  1        2 0.52437124E-01 0.23251831E+03</pdfrwt>
<totfact> 0.11822961E+02</totfact>
</mgrwt>
</event>
<event>
 5    1  0.9955701E-004  0.4506833E+02  0.7818608E-02  0.1496566E+00
         11   -1    0    0    0    0  0.00000000000E+00  0.00000000000E+00  0.99992669889E+03  0.99992669889E+03  0.51100000000E-03 0. -1.
          2   -1    0    0  501    0 -0.00000000000E+00 -0.00000000000E+00 -0.31486215441E+01  0.31486225767E+01  0.25500000000E-02 0. -1.
         11    1    1    2    0    0  0.81126434975E+01 -0.20688172122E+02  0.79670808865E+02  0.82711868772E+02  0.51100000000E-03 0. -1.
         22    1    1    2    0    0  0.19712685210E+02 -0.10272925785E+02  0.11221685176E+03  0.11439731108E+03  0.00000000000E+00 0. -1.
          2    1    1    2  501    0 -0.27825328707E+02  0.30961097907E+02  0.80489041672E+03  0.80596614162E+03  0.25500000000E-02 0. -1.
<mgrwt>
<rscale>  0 0.41627377E+02</rscale>
<asrwt>0</asrwt>
<pdfrwt beam="1">  1       11 0.10000000E+01 0.45068331E+02</pdfrwt>
<pdfrwt beam="2">  1        2 0.48436787E-03 0.41627377E+02</pdfrwt>
<totfact> 0.35179608E+04</totfact>
</mgrwt>
</event>
<event>
 5    1  0.9955701E-004  0.3159537E+03  0.7818608E-02  0.1315239E+00
         11   -1    0    0    0    0  0.00000000000E+00  0.00000000000E+00  0.10000210161E+04  0.10000210161E+04  0.51100000000E-03 0.  1.
          2   -1    0    0  501    0 -0.00000000000E+00 -0.00000000000E+00 -0.24883778451E+03  0.24883778453E+03  0.25500000000E-02 0.  1.
         11    1    1    2    0    0  0.67358651853E+01 -0.31335115977E+03  0.82497118524E+03  0.88250313182E+03  0.51100000000E-03 0.  1.
         22    1    1    2    0    0 -0.10826972131E+02 -0.20187001206E+02 -0.15703475125E+02  0.27772963008E+02  0.00000000000E+00 0.  1.
          2    1    1    2  501    0  0.40911069453E+01  0.33353816098E+03 -0.58084478556E+02  0.33858270576E+03  0.25500000000E-02 0.  1.
<mgrwt>
<rscale>  0 0.85074115E+02</rscale>
<asrwt>0</asrwt>
<pdfrwt beam="1">  1       11 0.10000000E+01 0.31595373E+03</pdfrwt>
<pdfrwt beam="2">  1        2 0.38283540E-01 0.85074115E+02</pdfrwt>
<totfact> 0.16417080E+02</totfact>
</mgrwt>
</event>
<event>
 5    1  0.9955701E-004  0.1760145E+03  0.7818608E-02  0.1421122E+00
         11   -1    0    0    0    0  0.00000000000E+00  0.00000000000E+00  0.10002001845E+04  0.10002001845E+04  0.51100000000E-03 0. -1.
         -2   -1    0    0    0  501 -0.00000000000E+00 -0.00000000000E+00 -0.46683395700E+02  0.46683395769E+02  0.25500000000E-02 0.  1.
         11    1    1    2    0    0 -0.10957388031E+03  0.12951569420E+03  0.55187633119E+03  0.57736317446E+03  0.51100000000E-03 0. -1.
         22    1    1    2    0    0 -0.14172707551E+02  0.94808994583E+01 -0.85594593467E+01  0.19079241027E+02  0.00000000000E+00 0. -1.
         -2    1    1    2    0  501  0.12374658786E+03 -0.13899659366E+03  0.41019991699E+03  0.45044116481E+03  0.25500000000E-02 0.  1.
<mgrwt>
<rscale>  0 0.54784200E+02</rscale>
<asrwt>0</asrwt>
<pdfrwt beam="1">  1       11 0.10000000E+01 0.17601451E+03</pdfrwt>
<pdfrwt beam="2">  1       -2 0.71834984E-02 0.54784200E+02</pdfrwt>
<totfact> 0.79046648E+02</totfact>
</mgrwt>
</event>
<event>
 5    1  0.9955701E-004  0.2110147E+02  0.7818608E-02  0.1781988E+00
         11   -1    0    0    0    0  0.00000000000E+00  0.00000000000E+00  0.10003846624E+04  0.10003846624E+04  0.51100000000E-03 0. -1.
          2   -1    0    0  501    0 -0.00000000000E+00 -0.00000000000E+00 -0.10733592101E+02  0.10733592403E+02  0.25500000000E-02 0. -1.
         11    1    1    2    0    0 -0.40474745177E+01 -0.32081108463E+02  0.91474496768E+02  0.97021457056E+02  0.51100000000E-03 0. -1.
         22    1    1    2    0    0 -0.66848923353E+01  0.14345451809E+02  0.14623886177E+00  0.15827228403E+02  0.00000000000E+00 0. -1.
          2    1    1    2  501    0  0.10732366853E+02  0.17735656654E+02  0.89803033472E+03  0.89826956939E+03  0.25500000000E-02 0. -1.
<mgrwt>
<rscale>  0 0.18274665E+02</rscale>
<asrwt>0</asrwt>
<pdfrwt beam="1">  1       11 0.10000000E+01 0.21101470E+02</pdfrwt>
<pdfrwt beam="2">  1        2 0.16519570E-02 0.18274665E+02</pdfrwt>
<totfact> 0.58631000E+03</totfact>
</mgrwt>
</event>
<event>
 5    1  0.9955701E-004  0.2344095E+03  0.7818608E-02  0.1427153E+00
         11   -1    0    0    0    0  0.00000000000E+00  0.00000000000E+00  0.10002193156E+04  0.10002193156E+04  0.51100000000E-03 0. -1.
          2   -1    0    0  501    0 -0.00000000000E+00 -0.00000000000E+00 -0.17224096847E+03  0.17224096849E+03  0.25500000000E-02 0. -1.
         11    1    1    2    0    0 -0.14054240968E+03 -0.18834829432E+03  0.88995675929E+03  0.92046199395E+03  0.51100000000E-03 0. -1.
         22    1    1    2    0    0 -0.43111504931E+01  0.11441481849E+02  0.57804460350E+01  0.13524314468E+02  0.00000000000E+00 0. -1.
          2    1    1    2  501    0  0.14485356017E+03  0.17690681247E+03 -0.67758858208E+02  0.23847397566E+03  0.25500000000E-02 0. -1.
<mgrwt>
<rscale>  0 0.53535664E+02</rscale>
<asrwt>0</asrwt>
<pdfrwt beam="1">  1       11 0.10000000E+01 0.23440950E+03</pdfrwt>
<pdfrwt beam="2">  1        2 0.26504421E-01 0.53535664E+02</pdfrwt>
<totfact> 0.23923754E+02</totfact>
</mgrwt>
</event>
<event>
 5    1  0.9955701E-004  0.1207070E+03  0.7818608E-02  0.1539427E+00
         11   -1    0    0    0    0  0.00000000000E+00  0.00000000000E+00  0.10003711997E+04  0.10003711997E+04  0.51100000000E-03 0.  1.
          2   -1    0    0  501    0 -0.00000000000E+00 -0.00000000000E+00 -0.18208266581E+02  0.18208266760E+02  0.25500000000E-02 0.  1.
         11    1    1    2    0    0 -0.11522925874E+03  0.46043013484E+02  0.61957577707E+03  0.63187964415E+03  0.51100000000E-03 0.  1.
         22    1    1    2    0    0  0.10349037349E+02  0.29800078083E+01  0.72601721493E+01  0.12988191569E+02  0.00000000000E+00 0. -1.
          2    1    1    2  501    0  0.10488022139E+03 -0.49023021292E+02  0.35532698389E+03  0.37371163073E+03  0.25500000000E-02 0.  1.
<mgrwt>
<rscale>  0 0.36054947E+02</rscale>
<asrwt>0</asrwt>
<pdfrwt beam="1">  1       11 0.10000000E+01 0.12070702E+03</pdfrwt>
<pdfrwt beam="2">  1        2 0.28023115E-02 0.36054947E+02</pdfrwt>
<totfact> 0.33559123E+03</totfact>
</mgrwt>
</event>
<event>
 5    1  0.9955701E-004  0.2171547E+02  0.7818608E-02  0.1713220E+00
         11   -1    0    0    0    0  0.00000000000E+00  0.00000000000E+00  0.99999360832E+03  0.99999360832E+03  0.51100000000E-03 0. -1.
         -2   -1    0    0    0  501 -0.00000000000E+00 -0.00000000000E+00 -0.15140612978E+02  0.15140613192E+02  0.25500000000E-02 0. -1.
         11    1    1    2    0    0 -0.14450446148E+02 -0.12434671954E+02  0.96477671388E+02  0.98343162127E+02  0.51100000000E-03 0. -1.
         22    1    1    2    0    0 -0.21557067463E+02 -0.89049416037E+00 -0.53601223399E+01  0.22231307855E+02  0.00000000000E+00 0. -1.
         -2    1    1    2    0  501  0.36007513611E+02  0.13325166114E+02  0.89373544630E+03  0.89455975153E+03  0.25500000000E-02 0. -1.
<mgrwt>
<rscale>  0 0.21715470E+02</rscale>
<asrwt>0</asrwt>
<pdfrwt beam="1">  1       11 0.10000000E+01 0.19064010E+02</pdfrwt>
<pdfrwt beam="2">  1       -2 0.23293101E-02 0.21715470E+02</pdfrwt>
<totfact> 0.34805898E+03</totfact>
</mgrwt>
</event>
<event>
 5    1  0.9955701E-004  0.1538356E+03  0.7818608E-02  0.1398055E+00
         11   -1    0    0    0    0  0.00000000000E+00  0.00000000000E+00  0.10001046822E+04  0.10001046822E+04  0.51100000000E-03 0.  1.
          2   -1    0    0  501    0 -0.00000000000E+00 -0.00000000000E+00 -0.16101864291E+03  0.16101864293E+03  0.25500000000E-02 0.  1.
         11    1    1    2    0    0  0.15327280668E+03 -0.48560563768E+01  0.92655673801E+03  0.93916107421E+03  0.51100000000E-03 0.  1.
         22    1    1    2    0    0  0.12479650404E+02  0.19747369606E+02  0.13818662811E+02  0.27141402367E+02  0.00000000000E+00 0.  1.
          2    1    1    2  501    0 -0.16575245709E+03 -0.14891313229E+02 -0.10128936158E+03  0.19482084851E+03  0.25500000000E-02 0.  1.
<mgrwt>
<rscale>  0 0.59946942E+02</rscale>
<asrwt>0</asrwt>
<pdfrwt beam="1">  1       11 0.10000000E+01 0.15383565E+03</pdfrwt>
<pdfrwt beam="2">  1        2 0.24774691E-01 0.59946942E+02</pdfrwt>
<totfact> 0.25812558E+02</totfact>
</mgrwt>
</event>
<event>
 5    1  0.9955701E-004  0.5073177E+02  0.7818608E-02  0.1449386E+00
         11   -1    0    0    0    0  0.00000000000E+00  0.00000000000E+00  0.10003239156E+04  0.10003239156E+04  0.51100000000E-03 0. -1.
          2   -1    0    0  501    0 -0.00000000000E+00 -0.00000000000E+00 -0.39870931060E+01  0.39870939214E+01  0.25500000000E-02 0. -1.
         11    1    1    2    0    0  0.86863793467E+01 -0.11511223821E+02  0.77887889991E+02  0.79211646035E+02  0.51100000000E-03 0. -1.
         22    1    1    2    0    0  0.27905466132E+02 -0.21464254762E+02  0.11809113243E+03  0.12322720816E+03  0.00000000000E+00 0. -1.
          2    1    1    2  501    0 -0.36591845478E+02  0.32975478584E+02  0.80035780009E+03  0.80187215534E+03  0.25500000000E-02 0. -1.
<mgrwt>
<rscale>  0 0.49257947E+02</rscale>
<asrwt>0</asrwt>
<pdfrwt beam="1">  1       11 0.10000000E+01 0.50731770E+02</pdfrwt>
<pdfrwt beam="2">  1        2 0.61359767E-03 0.49257947E+02</pdfrwt>
<totfact> 0.26537396E+04</totfact>
</mgrwt>
</event>
<event>
 5    1  0.9955701E-004  0.4903103E+02  0.7818608E-02  0.1644127E+00
         11   -1    0    0    0    0  0.00000000000E+00  0.00000000000E+00  0.10005271909E+04  0.10005271909E+04  0.51100000000E-03 0. -1.
          2   -1    0    0  501    0 -0.00000000000E+00 -0.00000000000E+00 -0.15357848292E+02  0.15357848503E+02  0.25500000000E-02 0.  1.
         11    1    1    2    0    0  0.34844941160E+02 -0.48738909363E+02  0.31408997568E+03  0.31975328620E+03  0.51100000000E-03 0. -1.
         22    1    1    2    0    0 -0.95240413329E+01  0.10284665342E+02 -0.75643391559E+01  0.15927992070E+02  0.00000000000E+00 0.  1.
          2    1    1    2  501    0 -0.25320899827E+02  0.38454244021E+02  0.67864370604E+03  0.68020376109E+03  0.25500000000E-02 0.  1.
<mgrwt>
<rscale>  0 0.26215969E+02</rscale>
<asrwt>0</asrwt>
<pdfrwt beam="1">  1       11 0.10000000E+01 0.49031025E+02</pdfrwt>
<pdfrwt beam="2">  1        2 0.23639915E-02 0.26215969E+02</pdfrwt>
<totfact> 0.39705238E+03</totfact>
</mgrwt>
</event>
<event>
 5    1  0.9955701E-004  0.4513282E+02  0.7818608E-02  0.1681018E+00
         11   -1    0    0    0    0  0.00000000000E+00  0.00000000000E+00  0.99992172010E+03  0.99992172010E+03  0.51100000000E-03 0.  1.
          2   -1    0    0  501    0 -0.00000000000E+00 -0.00000000000E+00 -0.39507088829E+01  0.39507097059E+01  0.25500000000E-02 0.  1.
         11    1    1    2    0    0  0.17849935740E+02 -0.49914821519E+02  0.30884437242E+03  0.31336074417E+03  0.51100000000E-03 0.  1.
         22    1    1    2    0    0  0.23546420040E+01  0.12178563796E+02  0.37957770561E+02  0.39933120352E+02  0.00000000000E+00 0.  1.
          2    1    1    2  501    0 -0.20204577744E+02  0.37736257722E+02  0.64916886824E+03  0.65057856528E+03  0.25500000000E-02 0.  1.
<mgrwt>
<rscale>  0 0.23660767E+02</rscale>
<asrwt>0</asrwt>
<pdfrwt beam="1">  1       11 0.10000000E+01 0.45132825E+02</pdfrwt>
<pdfrwt beam="2">  1        2 0.60775383E-03 0.23660767E+02</pdfrwt>
<totfact> 0.22736045E+04</totfact>
</mgrwt>
</event>
<event>
 5    1  0.9955701E-004  0.1145500E+03  0.7818608E-02  0.1445477E+00
         11   -1    0    0    0    0  0.00000000000E+00  0.00000000000E+00  0.10002409856E+04  0.10002409856E+04  0.51100000000E-03 0. -1.
          2   -1    0    0  501    0 -0.00000000000E+00 -0.00000000000E+00 -0.73300287105E+02  0.73300287149E+02  0.25500000000E-02 0. -1.
         11    1    1    2    0    0  0.66158957271E+02  0.10397773012E+03  0.66368775714E+03  0.67503319545E+03  0.51100000000E-03 0. -1.
         22    1    1    2    0    0 -0.16277616092E+02 -0.14504997663E+02 -0.57658826237E+02  0.61643296358E+02  0.00000000000E+00 0. -1.
          2    1    1    2  501    0 -0.49881341179E+02 -0.89472732454E+02  0.32091176759E+03  0.33686478094E+03  0.25500000000E-02 0. -1.
<mgrwt>
<rscale>  0 0.49974937E+02</rscale>
<asrwt>0</asrwt>
<pdfrwt beam="1">  1       11 0.10000000E+01 0.11455001E+03</pdfrwt>
<pdfrwt beam="2">  1        2 0.11279685E-01 0.49974937E+02</pdfrwt>
<totfact> 0.61827316E+02</totfact>
</mgrwt>
</event>
<event>
 5    1  0.9955701E-004  0.4134325E+02  0.7818608E-02  0.1617577E+00
         11   -1    0    0    0    0  0.00000000000E+00  0.00000000000E+00  0.99968342981E+03  0.99968342981E+03  0.51100000000E-03 0.  1.
          2   -1    0    0  501    0 -0.00000000000E+00 -0.00000000000E+00 -0.67411446336E+01  0.67411451159E+01  0.25500000000E-02 0.  1.
         11    1    1    2    0    0 -0.46295733272E+02  0.28135644555E+02  0.17692807314E+03  0.18503635448E+03  0.51100000000E-03 0.  1.
         22    1    1    2    0    0  0.19336345197E+02  0.13467703628E+01  0.41062695153E+02  0.45407631179E+02  0.00000000000E+00 0.  1.
          2    1    1    2  501    0  0.26959388075E+02 -0.29482414918E+02  0.77495151688E+03  0.77598058927E+03  0.25500000000E-02 0.  1.
<mgrwt>
<rscale>  0 0.28308367E+02</rscale>
<asrwt>0</asrwt>
<pdfrwt beam="1">  1       11 0.10000000E+01 0.41343250E+02</pdfrwt>
<pdfrwt beam="2">  1        2 0.10367709E-02 0.28308367E+02</pdfrwt>
<totfact> 0.11751161E+04</totfact>
</mgrwt>
</event>
<event>
 5    1  0.9955701E-004  0.5764012E+02  0.7818608E-02  0.1649865E+00
         11   -1    0    0    0    0  0.00000000000E+00  0.00000000000E+00  0.10005733586E+04  0.10005733586E+04  0.51100000000E-03 0. -1.
          2   -1    0    0  501    0 -0.00000000000E+00 -0.00000000000E+00 -0.79841727015E+01  0.79841731088E+01  0.25500000000E-02 0. -1.
         11    1    1    2    0    0 -0.53384017714E+02 -0.19198889884E+02  0.13558304314E+03  0.14697350886E+03  0.51100000000E-03 0. -1.
         22    1    1    2    0    0 -0.39817996993E+01  0.10833424708E+02  0.24725441135E+02  0.27286723129E+02  0.00000000000E+00 0.  1.
          2    1    1    2  501    0  0.57365817413E+02  0.83654651758E+01  0.83228070162E+03  0.83429729971E+03  0.25500000000E-02 0. -1.
<mgrwt>
<rscale>  0 0.25793063E+02</rscale>
<asrwt>0</asrwt>
<pdfrwt beam="1">  1       11 0.10000000E+01 0.57640122E+02</pdfrwt>
<pdfrwt beam="2">  1        2 0.12290385E-02 0.25793063E+02</pdfrwt>
<totfact> 0.92245847E+03</totfact>
</mgrwt>
</event>
<event>
 5    1  0.9955701E-004  0.4135825E+02  0.7818608E-02  0.1685684E+00
         11   -1    0    0    0    0  0.00000000000E+00  0.00000000000E+00  0.10004228676E+04  0.10004228676E+04  0.51100000000E-03 0. -1.
          2   -1    0    0  501    0 -0.00000000000E+00 -0.00000000000E+00 -0.44034973148E+01  0.44034980531E+01  0.25500000000E-02 0. -1.
         11    1    1    2    0    0 -0.38023339562E+02  0.29138566393E+02  0.21687366739E+03  0.22210136877E+03  0.51100000000E-03 0. -1.
         22    1    1    2    0    0  0.12985246043E+02  0.23613195451E+01  0.33673933282E+02  0.36168027697E+02  0.00000000000E+00 0.  1.
          2    1    1    2  501    0  0.25038093519E+02 -0.31499885938E+02  0.74547176959E+03  0.74655696916E+03  0.25500000000E-02 0. -1.
<mgrwt>
<rscale>  0 0.23363522E+02</rscale>
<asrwt>0</asrwt>
<pdfrwt beam="1">  1       11 0.10000000E+01 0.41358252E+02</pdfrwt>
<pdfrwt beam="2">  1        2 0.67774764E-03 0.23363522E+02</pdfrwt>
<totfact> 0.19645692E+04</totfact>
</mgrwt>
</event>
<event>
 5    1  0.9955701E-004  0.1405275E+03  0.7818608E-02  0.1466475E+00
         11   -1    0    0    0    0  0.00000000000E+00  0.00000000000E+00  0.10000806703E+04  0.10000806703E+04  0.51100000000E-03 0. -1.
          2   -1    0    0  501    0 -0.00000000000E+00 -0.00000000000E+00 -0.27734639858E+02  0.27734639975E+02  0.25500000000E-02 0. -1.
         11    1    1    2    0    0 -0.82339643665E+02  0.12295328168E+03  0.36632008218E+03  0.39507939582E+03  0.51100000000E-03 0. -1.
         22    1    1    2    0    0  0.14653609444E+02 -0.42043480605E+01  0.45276838561E+01  0.15902978760E+02  0.00000000000E+00 0. -1.
          2    1    1    2  501    0  0.67686034221E+02 -0.11874893362E+03  0.60149826444E+03  0.61683293573E+03  0.25500000000E-02 0. -1.
<mgrwt>
<rscale>  0 0.46285161E+02</rscale>
<asrwt>0</asrwt>
<pdfrwt beam="1">  1       11 0.10000000E+01 0.14052746E+03</pdfrwt>
<pdfrwt beam="2">  1        2 0.42672118E-02 0.46285161E+02</pdfrwt>
<totfact> 0.20228110E+03</totfact>
</mgrwt>
</event>
<event>
 5    1  0.9955701E-004  0.5907003E+03  0.7818608E-02  0.9924890E-01
         11   -1    0    0    0    0  0.00000000000E+00  0.00000000000E+00  0.10003980138E+04  0.10003980138E+04  0.51100000000E-03 0. -1.
          2   -1    0    0  501    0 -0.00000000000E+00 -0.00000000000E+00 -0.56433567231E+03  0.56433567231E+03  0.25500000000E-02 0. -1.
         11    1    1    2    0    0  0.54712273730E+03 -0.21678081965E+03  0.70275022822E+03  0.91662156679E+03  0.51100000000E-03 0. -1.
         22    1    1    2    0    0 -0.14066878112E+02  0.88615742539E+01 -0.17176388378E+02  0.23904662219E+02  0.00000000000E+00 0. -1.
          2    1    1    2  501    0 -0.53305585919E+03  0.20791924539E+03 -0.24951149839E+03  0.62420745707E+03  0.25500000000E-02 0. -1.
<mgrwt>
<rscale>  0 0.59070034E+03</rscale>
<asrwt>0</asrwt>
<pdfrwt beam="1">  1       11 0.10000000E+01 0.58850422E+03</pdfrwt>
<pdfrwt beam="2">  1        2 0.86855426E-01 0.59070034E+03</pdfrwt>
<totfact> 0.66427433E+01</totfact>
</mgrwt>
</event>
<event>
 5    1  0.9955701E-004  0.5773113E+02  0.7818608E-02  0.1407608E+00
         11   -1    0    0    0    0  0.00000000000E+00  0.00000000000E+00  0.10003197573E+04  0.10003197573E+04  0.51100000000E-03 0. -1.
          2   -1    0    0  501    0 -0.00000000000E+00 -0.00000000000E+00 -0.93683512807E+01  0.93683516277E+01  0.25500000000E-02 0. -1.
         11    1    1    2    0    0 -0.34225978487E+02 -0.30849321923E+02  0.15804648883E+03  0.16462621571E+03  0.51100000000E-03 0. -1.
         22    1    1    2    0    0  0.58816134076E+02 -0.20384896455E+02  0.19648710175E+03  0.20611177256E+03  0.00000000000E+00 0. -1.
          2    1    1    2  501    0 -0.24590155589E+02  0.51234218378E+02  0.63641781543E+03  0.63895012066E+03  0.25500000000E-02 0. -1.
<mgrwt>
<rscale>  0 0.57731135E+02</rscale>
<asrwt>0</asrwt>
<pdfrwt beam="1">  1       11 0.10000000E+01 0.46077114E+02</pdfrwt>
<pdfrwt beam="2">  1        2 0.14417457E-02 0.57731135E+02</pdfrwt>
<totfact> 0.86507781E+03</totfact>
</mgrwt>
</event>
<event>
 5    1  0.9955701E-004  0.3438595E+02  0.7818608E-02  0.1658691E+00
         11   -1    0    0    0    0  0.00000000000E+00  0.00000000000E+00  0.10002464658E+04  0.10002464658E+04  0.51100000000E-03 0.  1.
          2   -1    0    0  501    0 -0.00000000000E+00 -0.00000000000E+00 -0.30800513675E+01  0.30800524231E+01  0.25500000000E-02 0.  1.
         11    1    1    2    0    0 -0.10907179340E+02  0.38046963873E+02  0.20820826382E+03  0.21193682819E+03  0.51100000000E-03 0.  1.
         22    1    1    2    0    0 -0.12589771281E+02 -0.13434842199E+02  0.10620608774E+03  0.10779021476E+03  0.00000000000E+00 0. -1.
          2    1    1    2  501    0  0.23496950621E+02 -0.24612121675E+02  0.68275206283E+03  0.68359947522E+03  0.25500000000E-02 0.  1.
<mgrwt>
<rscale>  0 0.25161670E+02</rscale>
<asrwt>0</asrwt>
<pdfrwt beam="1">  1       11 0.10000000E+01 0.34385949E+02</pdfrwt>
<pdfrwt beam="2">  1        2 0.47397091E-03 0.25161670E+02</pdfrwt>
<totfact> 0.32031506E+04</totfact>
</mgrwt>
</event>
<event>
 5    1  0.9955701E-004  0.1180082E+03  0.7818608E-02  0.1246419E+00
         11   -1    0    0    0    0  0.00000000000E+00  0.00000000000E+00  0.10001377364E+04  0.10001377364E+04  0.51100000000E-03 0.  1.
          2   -1    0    0  501    0 -0.00000000000E+00 -0.00000000000E+00 -0.27148904849E+02  0.27148904968E+02  0.25500000000E-02 0.  1.
         11    1    1    2    0    0  0.70105571876E+01  0.78834151226E+01  0.14376550265E+02  0.17832031400E+02  0.51100000000E-03 0.  1.
         22    1    1    2    0    0 -0.74561988570E+02 -0.93731284222E+02  0.14287611168E+03  0.18643665699E+03  0.00000000000E+00 0.  1.
          2    1    1    2  501    0  0.67551431383E+02  0.85847869099E+02  0.81573616959E+03  0.82301795296E+03  0.25500000000E-02 0.  1.
<mgrwt>
<rscale>  0 0.11800823E+03</rscale>
<asrwt>0</asrwt>
<pdfrwt beam="1">  1       11 0.10000000E+01 0.10549704E+02</pdfrwt>
<pdfrwt beam="2">  1        2 0.41773298E-02 0.11800823E+03</pdfrwt>
<totfact> 0.22913042E+03</totfact>
</mgrwt>
</event>
<event>
 5    1  0.9955701E-004  0.1416241E+03  0.7818608E-02  0.1510784E+00
         11   -1    0    0    0    0  0.00000000000E+00  0.00000000000E+00  0.10002914524E+04  0.10002914524E+04  0.51100000000E-03 0. -1.
          2   -1    0    0  501    0 -0.00000000000E+00 -0.00000000000E+00 -0.23883750503E+02  0.23883750639E+02  0.25500000000E-02 0. -1.
         11    1    1    2    0    0  0.32194790366E+01  0.14503943990E+03  0.48449582821E+03  0.50574994980E+03  0.51100000000E-03 0. -1.
         22    1    1    2    0    0 -0.89718867402E+01 -0.65392456706E+01  0.50185202795E+01  0.12183678895E+02  0.00000000000E+00 0. -1.
          2    1    1    2  501    0  0.57524077036E+01 -0.13850019423E+03  0.48689335343E+03  0.50624157437E+03  0.25500000000E-02 0. -1.
<mgrwt>
<rscale>  0 0.39652533E+02</rscale>
<asrwt>0</asrwt>
<pdfrwt beam="1">  1       11 0.10000000E+01 0.14162411E+03</pdfrwt>
<pdfrwt beam="2">  1        2 0.36754940E-02 0.39652533E+02</pdfrwt>
<totfact> 0.24007518E+03</totfact>
</mgrwt>
</event>
<event>
 5    1  0.9955701E-004  0.2462472E+03  0.7818608E-02  0.1403223E+00
         11   -1    0    0    0    0  0.00000000000E+00  0.00000000000E+00  0.10000883759E+04  0.10000883759E+04  0.51100000000E-03 0.  1.
         -2   -1    0    0    0  501 -0.00000000000E+00 -0.00000000000E+00 -0.75937414441E+02  0.75937414484E+02  0.25500000000E-02 0.  1.
         11    1    1    2    0    0 -0.24956434406E+03 -0.18774510368E+02  0.64410884272E+03  0.69102174013E+03  0.51100000000E-03 0.  1.
         22    1    1    2    0    0  0.10919310832E+02  0.87762090677E+01 -0.33254572941E+01  0.14398328405E+02  0.00000000000E+00 0.  1.
         -2    1    1    2    0  501  0.23864503322E+03  0.99983013001E+01  0.28336757603E+03  0.37060572184E+03  0.25500000000E-02 0.  1.
<mgrwt>
<rscale>  0 0.58734033E+02</rscale>
<asrwt>0</asrwt>
<pdfrwt beam="1">  1       11 0.10000000E+01 0.24624719E+03</pdfrwt>
<pdfrwt beam="2">  1       -2 0.11683711E-01 0.58734033E+02</pdfrwt>
<totfact> 0.37873943E+02</totfact>
</mgrwt>
</event>
<event>
 5    1  0.9955701E-004  0.1390703E+03  0.7818608E-02  0.1436880E+00
         11   -1    0    0    0    0  0.00000000000E+00  0.00000000000E+00  0.10001990310E+04  0.10001990310E+04  0.51100000000E-03 0. -1.
          2   -1    0    0  501    0 -0.00000000000E+00 -0.00000000000E+00 -0.49815863739E+02  0.49815863804E+02  0.25500000000E-02 0.  1.
         11    1    1    2    0    0 -0.13768097618E+03  0.28625493464E+02  0.82411078800E+03  0.83602276343E+03  0.51100000000E-03 0. -1.
         22    1    1    2    0    0  0.50990522938E+01 -0.18456552437E+02 -0.11646624589E+02  0.22411794360E+02  0.00000000000E+00 0. -1.
          2    1    1    2  501    0  0.13258192388E+03 -0.10168941027E+02  0.13791900387E+03  0.19158033703E+03  0.25500000000E-02 0.  1.
<mgrwt>
<rscale>  0 0.51603430E+02</rscale>
<asrwt>0</asrwt>
<pdfrwt beam="1">  1       11 0.10000000E+01 0.13907032E+03</pdfrwt>
<pdfrwt beam="2">  1        2 0.76655042E-02 0.51603430E+02</pdfrwt>
<totfact> 0.98416713E+02</totfact>
</mgrwt>
</event>
<event>
 5    1  0.9955701E-004  0.3565974E+03  0.7818608E-02  0.1251230E+00
         11   -1    0    0    0    0  0.00000000000E+00  0.00000000000E+00  0.10002299680E+04  0.10002299680E+04  0.51100000000E-03 0. -1.
          2   -1    0    0  501    0 -0.00000000000E+00 -0.00000000000E+00 -0.44214138225E+03  0.44214138226E+03  0.25500000000E-02 0. -1.
         11    1    1    2    0    0 -0.19932529494E+03  0.29848630212E+03  0.87553799654E+03  0.94625125054E+03  0.51100000000E-03 0. -1.
         22    1    1    2    0    0  0.36933338693E+02 -0.45831734193E+01 -0.69064356875E+02  0.78453568282E+02  0.00000000000E+00 0.  1.
          2    1    1    2  501    0  0.16239195624E+03 -0.29390312870E+03 -0.24838505388E+03  0.41766653147E+03  0.25500000000E-02 0. -1.
<mgrwt>
<rscale>  0 0.11520134E+03</rscale>
<asrwt>0</asrwt>
<pdfrwt beam="1">  1       11 0.10000000E+01 0.35659735E+03</pdfrwt>
<pdfrwt beam="2">  1        2 0.68037392E-01 0.11520134E+03</pdfrwt>
<totfact> 0.89708654E+01</totfact>
</mgrwt>
</event>
<event>
 5    1  0.9955701E-004  0.8971600E+02  0.7818608E-02  0.1303541E+00
         11   -1    0    0    0    0  0.00000000000E+00  0.00000000000E+00  0.10002882595E+04  0.10002882595E+04  0.51100000000E-03 0.  1.
          2   -1    0    0  501    0 -0.00000000000E+00 -0.00000000000E+00 -0.18293449922E+02  0.18293450100E+02  0.25500000000E-02 0.  1.
         11    1    1    2    0    0  0.34327627967E+02  0.92297324398E+02  0.28082476328E+03  0.29758986845E+03  0.51100000000E-03 0.  1.
         22    1    1    2    0    0  0.50896575864E+02 -0.52847453272E+02  0.27725203471E+03  0.28679610441E+03  0.00000000000E+00 0.  1.
          2    1    1    2  501    0 -0.85224203832E+02 -0.39449871126E+02  0.42391801159E+03  0.43419573675E+03  0.25500000000E-02 0.  1.
<mgrwt>
<rscale>  0 0.89715997E+02</rscale>
<asrwt>0</asrwt>
<pdfrwt beam="1">  1       11 0.10000000E+01 0.73371076E+02</pdfrwt>
<pdfrwt beam="2">  1        2 0.28151881E-02 0.89715997E+02</pdfrwt>
<totfact> 0.37558033E+03</totfact>
</mgrwt>
</event>
<event>
 5    1  0.9955701E-004  0.3919224E+03  0.7818608E-02  0.1216569E+00
         11   -1    0    0    0    0  0.00000000000E+00  0.00000000000E+00  0.99958050886E+03  0.99958050886E+03  0.51100000000E-03 0. -1.
          2   -1    0    0  501    0 -0.00000000000E+00 -0.00000000000E+00 -0.30340901496E+03  0.30340901498E+03  0.25500000000E-02 0.  1.
         11    1    1    2    0    0  0.35672943795E+03 -0.16344553742E+03  0.73801624720E+03  0.83584586900E+03  0.51100000000E-03 0. -1.
         22    1    1    2    0    0 -0.22717419185E+02 -0.42650432213E+02 -0.56556366428E+02  0.74389267276E+02  0.00000000000E+00 0.  1.
          2    1    1    2  501    0 -0.33401201876E+03  0.20609596964E+03  0.14711613125E+02  0.39275438756E+03  0.25500000000E-02 0.  1.
<mgrwt>
<rscale>  0 0.13761898E+03</rscale>
<asrwt>0</asrwt>
<pdfrwt beam="1">  1       11 0.10000000E+01 0.39192245E+03</pdfrwt>
<pdfrwt beam="2">  1        2 0.46658728E-01 0.13761898E+03</pdfrwt>
<totfact> 0.13388862E+02</totfact>
</mgrwt>
</event>
<event>
 5    1  0.9955701E-004  0.3060966E+03  0.7818608E-02  0.1374277E+00
         11   -1    0    0    0    0  0.00000000000E+00  0.00000000000E+00  0.10001970176E+04  0.10001970176E+04  0.51100000000E-03 0. -1.
          2   -1    0    0  501    0 -0.00000000000E+00 -0.00000000000E+00 -0.11853731924E+03  0.11853731927E+03  0.25500000000E-02 0. -1.
         11    1    1    2    0    0  0.30685765526E+03  0.19303260597E+02  0.58697297646E+03  0.66262471397E+03  0.51100000000E-03 0. -1.
         22    1    1    2    0    0 -0.28568237271E+01 -0.13937724194E+02 -0.15993350373E+02  0.21405813549E+02  0.00000000000E+00 0. -1.
          2    1    1    2  501    0 -0.30400083153E+03 -0.53655364029E+01  0.31068007229E+03  0.43470380936E+03  0.25500000000E-02 0. -1.
<mgrwt>
<rscale>  0 0.65992335E+02</rscale>
<asrwt>0</asrwt>
<pdfrwt beam="1">  1       11 0.10000000E+01 0.30609665E+03</pdfrwt>
<pdfrwt beam="2">  1        2 0.18240103E-01 0.65992335E+02</pdfrwt>
<totfact> 0.36237600E+02</totfact>
</mgrwt>
</event>
<event>
 5    1  0.9955701E-004  0.1472922E+03  0.7818608E-02  0.1453503E+00
         11   -1    0    0    0    0  0.00000000000E+00  0.00000000000E+00  0.10001318027E+04  0.10001318027E+04  0.51100000000E-03 0.  1.
          2   -1    0    0  501    0 -0.00000000000E+00 -0.00000000000E+00 -0.61858391809E+02  0.61858391862E+02  0.25500000000E-02 0.  1.
         11    1    1    2    0    0  0.86595626838E+02 -0.12123148202E+03  0.82148486686E+03  0.83488517851E+03  0.51100000000E-03 0.  1.
         22    1    1    2    0    0  0.53534949934E+01  0.15058468642E+02 -0.23611106667E+02  0.28511431822E+02  0.00000000000E+00 0.  1.
          2    1    1    2  501    0 -0.91949121832E+02  0.10617301338E+03  0.14039965071E+03  0.19859358424E+03  0.25500000000E-02 0.  1.
<mgrwt>
<rscale>  0 0.48517949E+02</rscale>
<asrwt>0</asrwt>
<pdfrwt beam="1">  1       11 0.10000000E+01 0.14729216E+03</pdfrwt>
<pdfrwt beam="2">  1        2 0.95179297E-02 0.48517949E+02</pdfrwt>
<totfact> 0.75403966E+02</totfact>
</mgrwt>
</event>
<event>
 5    1  0.9955701E-004  0.1563149E+03  0.7818608E-02  0.1192921E+00
         11   -1    0    0    0    0  0.00000000000E+00  0.00000000000E+00  0.10004439041E+04  0.10004439041E+04  0.51100000000E-03 0. -1.
          2   -1    0    0  501    0 -0.00000000000E+00 -0.00000000000E+00 -0.29886444294E+02  0.29886444402E+02  0.25500000000E-02 0. -1.
         11    1    1    2    0    0 -0.30149965875E+02 -0.15069176019E+03  0.71032894534E+03  0.72676284826E+03  0.51100000000E-03 0. -1.
         22    1    1    2    0    0  0.25294430159E+00  0.11631492788E+02  0.84138853726E+01  0.14357892337E+02  0.00000000000E+00 0.  1.
          2    1    1    2  501    0  0.29897021573E+02  0.13906026740E+03  0.25181462910E+03  0.28920960790E+03  0.25500000000E-02 0. -1.
<mgrwt>
<rscale>  0 0.15631490E+03</rscale>
<asrwt>0</asrwt>
<pdfrwt beam="1">  1       11 0.10000000E+01 0.15367832E+03</pdfrwt>
<pdfrwt beam="2">  1        2 0.45999554E-02 0.15631490E+03</pdfrwt>
<totfact> 0.20683782E+03</totfact>
</mgrwt>
</event>
<event>
 5    1  0.9955701E-004  0.1740269E+03  0.7818608E-02  0.1294099E+00
         11   -1    0    0    0    0  0.00000000000E+00  0.00000000000E+00  0.10000511164E+04  0.10000511164E+04  0.51100000000E-03 0. -1.
          2   -1    0    0  501    0 -0.00000000000E+00 -0.00000000000E+00 -0.26231785022E+03  0.26231785024E+03  0.25500000000E-02 0. -1.
         11    1    1    2    0    0 -0.17169163647E+03  0.29951545740E+02  0.94223595747E+03  0.95821903168E+03  0.51100000000E-03 0. -1.
         22    1    1    2    0    0 -0.17390219771E+01 -0.50435488540E+02 -0.43674920629E+02  0.66740253174E+02  0.00000000000E+00 0.  1.
          2    1    1    2  501    0  0.17343065845E+03  0.20483942801E+02 -0.16082777063E+03  0.23740968181E+03  0.25500000000E-02 0. -1.
<mgrwt>
<rscale>  0 0.93714186E+02</rscale>
<asrwt>0</asrwt>
<pdfrwt beam="1">  1       11 0.10000000E+01 0.17402692E+03</pdfrwt>
<pdfrwt beam="2">  1        2 0.40358654E-01 0.93714186E+02</pdfrwt>
<totfact> 0.15552661E+02</totfact>
</mgrwt>
</event>
<event>
 5    1  0.9955701E-004  0.1116139E+03  0.7818608E-02  0.1396283E+00
         11   -1    0    0    0    0  0.00000000000E+00  0.00000000000E+00  0.10002021756E+04  0.10002021756E+04  0.51100000000E-03 0. -1.
          2   -1    0    0  501    0 -0.00000000000E+00 -0.00000000000E+00 -0.40633775204E+02  0.40633775284E+02  0.25500000000E-02 0. -1.
         11    1    1    2    0    0 -0.18725347692E+02  0.12675096366E+03  0.30678978887E+03  0.33247017910E+03  0.51100000000E-03 0. -1.
         22    1    1    2    0    0 -0.18757253563E+02 -0.26729041385E+02 -0.12203407236E+02  0.34859709734E+02  0.00000000000E+00 0. -1.
          2    1    1    2  501    0  0.37482601255E+02 -0.10002192228E+03  0.66498201872E+03  0.67350606201E+03  0.25500000000E-02 0. -1.
<mgrwt>
<rscale>  0 0.60370726E+02</rscale>
<asrwt>0</asrwt>
<pdfrwt beam="1">  1       11 0.10000000E+01 0.11161387E+03</pdfrwt>
<pdfrwt beam="2">  1        2 0.62526137E-02 0.60370726E+02</pdfrwt>
<totfact> 0.12836938E+03</totfact>
</mgrwt>
</event>
<event>
 5    1  0.9955701E-004  0.1238851E+03  0.7818608E-02  0.1509623E+00
         11   -1    0    0    0    0  0.00000000000E+00  0.00000000000E+00  0.10003163846E+04  0.10003163846E+04  0.51100000000E-03 0.  1.
          2   -1    0    0  501    0 -0.00000000000E+00 -0.00000000000E+00 -0.17022080451E+02  0.17022080642E+02  0.25500000000E-02 0.  1.
         11    1    1    2    0    0  0.11412041216E+03 -0.43588160985E+02  0.46407496880E+03  0.47988433285E+03  0.51100000000E-03 0.  1.
         22    1    1    2    0    0 -0.14178519073E+01 -0.12713254846E+02  0.44476515520E+02  0.46279559047E+02  0.00000000000E+00 0.  1.
          2    1    1    2  501    0 -0.11270256026E+03  0.56301415831E+02  0.47474281982E+03  0.49117457333E+03  0.25500000000E-02 0.  1.
<mgrwt>
<rscale>  0 0.39808879E+02</rscale>
<asrwt>0</asrwt>
<pdfrwt beam="1">  1       11 0.10000000E+01 0.12388506E+03</pdfrwt>
<pdfrwt beam="2">  1        2 0.26196101E-02 0.39808879E+02</pdfrwt>
<totfact> 0.37148515E+03</totfact>
</mgrwt>
</event>
<event>
 5    1  0.9955701E-004  0.2723449E+02  0.7818608E-02  0.1790167E+00
         11   -1    0    0    0    0  0.00000000000E+00  0.00000000000E+00  0.10002469822E+04  0.10002469822E+04  0.51100000000E-03 0. -1.
          2   -1    0    0  501    0 -0.00000000000E+00 -0.00000000000E+00 -0.14905897435E+02  0.14905897653E+02  0.25500000000E-02 0. -1.
         11    1    1    2    0    0  0.31929199087E+02 -0.20491362254E+02  0.41383696606E+02  0.56142497507E+02  0.51100000000E-03 0. -1.
         22    1    1    2    0    0 -0.11400942300E+02  0.30076124552E+01 -0.25956889425E+01  0.12073310196E+02  0.00000000000E+00 0. -1.
          2    1    1    2  501    0 -0.20528256787E+02  0.17483749798E+02  0.94655307711E+03  0.94693707215E+03  0.25500000000E-02 0. -1.
<mgrwt>
<rscale>  0 0.17919855E+02</rscale>
<asrwt>0</asrwt>
<pdfrwt beam="1">  1       11 0.10000000E+01 0.27234494E+02</pdfrwt>
<pdfrwt beam="2">  1        2 0.22937813E-02 0.17919855E+02</pdfrwt>
<totfact> 0.38524328E+03</totfact>
</mgrwt>
</event>
<event>
 5    1  0.9955701E-004  0.3990101E+02  0.7818608E-02  0.1595268E+00
         11   -1    0    0    0    0  0.00000000000E+00  0.00000000000E+00  0.10004100663E+04  0.10004100663E+04  0.51100000000E-03 0.  1.
          2   -1    0    0  501    0 -0.00000000000E+00 -0.00000000000E+00 -0.46738154503E+01  0.46738161459E+01  0.25500000000E-02 0.  1.
         11    1    1    2    0    0  0.36409645497E+02 -0.20407075642E+02  0.16740931472E+03  0.17253402470E+03  0.51100000000E-03 0.  1.
         22    1    1    2    0    0  0.41935257665E+01  0.22557047702E+02  0.82944551345E+02  0.86059308951E+02  0.00000000000E+00 0.  1.
          2    1    1    2  501    0 -0.40603171264E+02 -0.21499720598E+01  0.74538238482E+03  0.74649054883E+03  0.25500000000E-02 0.  1.
<mgrwt>
<rscale>  0 0.30256735E+02</rscale>
<asrwt>0</asrwt>
<pdfrwt beam="1">  1       11 0.10000000E+01 0.39901010E+02</pdfrwt>
<pdfrwt beam="2">  1        2 0.71934342E-03 0.30256735E+02</pdfrwt>
<totfact> 0.19307537E+04</totfact>
</mgrwt>
</event>
<event>
 5    1  0.9955701E-004  0.5573251E+02  0.7818608E-02  0.1659037E+00
         11   -1    0    0    0    0  0.00000000000E+00  0.00000000000E+00  0.10001645620E+04  0.10001645620E+04  0.51100000000E-03 0.  1.
          2   -1    0    0  501    0 -0.00000000000E+00 -0.00000000000E+00 -0.54304080700E+01  0.54304086687E+01  0.25500000000E-02 0.  1.
         11    1    1    2    0    0  0.40381581000E+02  0.45336161308E+02  0.24078518388E+03  0.24832145373E+03  0.51100000000E-03 0.  1.
         22    1    1    2    0    0 -0.11311153134E+02  0.77710286863E+00  0.52535581707E+02  0.53745078094E+02  0.00000000000E+00 0.  1.
          2    1    1    2  501    0 -0.29070427866E+02 -0.46113264177E+02  0.70141338839E+03  0.70352843889E+03  0.25500000000E-02 0.  1.
<mgrwt>
<rscale>  0 0.25137316E+02</rscale>
<asrwt>0</asrwt>
<pdfrwt beam="1">  1       11 0.10000000E+01 0.55732510E+02</pdfrwt>
<pdfrwt beam="2">  1        2 0.83558490E-03 0.25137316E+02</pdfrwt>
<totfact> 0.15193474E+04</totfact>
</mgrwt>
</event>
<event>
 5    1  0.9955701E-004  0.1722565E+03  0.7818608E-02  0.1486490E+00
         11   -1    0    0    0    0  0.00000000000E+00  0.00000000000E+00  0.10001903102E+04  0.10001903102E+04  0.51100000000E-03 0. -1.
          2   -1    0    0  501    0 -0.00000000000E+00 -0.00000000000E+00 -0.47171477894E+02  0.47171477963E+02  0.25500000000E-02 0. -1.
         11    1    1    2    0    0  0.89282544881E+02 -0.14915123087E+03  0.77681252286E+03  0.79602459645E+03  0.51100000000E-03 0. -1.
         22    1    1    2    0    0  0.27175780914E+01  0.10441675825E+02  0.21691162334E+02  0.24226439031E+02  0.00000000000E+00 0. -1.
          2    1    1    2  501    0 -0.92000122973E+02  0.13870955505E+03  0.15451514712E+03  0.22711075269E+03  0.25500000000E-02 0. -1.
<mgrwt>
<rscale>  0 0.43111083E+02</rscale>
<asrwt>0</asrwt>
<pdfrwt beam="1">  1       11 0.10000000E+01 0.17225649E+03</pdfrwt>
<pdfrwt beam="2">  1        2 0.72585314E-02 0.43111083E+02</pdfrwt>
<totfact> 0.10350534E+03</totfact>
</mgrwt>
</event>
<event>
 5    1  0.9955701E-004  0.2056574E+03  0.7818608E-02  0.1467765E+00
         11   -1    0    0    0    0  0.00000000000E+00  0.00000000000E+00  0.10001751185E+04  0.10001751185E+04  0.51100000000E-03 0. -1.
          2   -1    0    0  501    0 -0.00000000000E+00 -0.00000000000E+00 -0.91022865080E+02  0.91022865115E+02  0.25500000000E-02 0. -1.
         11    1    1    2    0    0  0.14098355738E+03  0.14705151300E+03  0.31686163165E+03  0.37669855925E+03  0.51100000000E-03 0. -1.
         22    1    1    2    0    0 -0.51895043223E+01  0.89210526176E+01 -0.44130537705E+02  0.45321302861E+02  0.00000000000E+00 0. -1.
          2    1    1    2  501    0 -0.13579405306E+03 -0.15597256561E+03  0.63642115951E+03  0.66917812155E+03  0.25500000000E-02 0. -1.
<mgrwt>
<rscale>  0 0.46070811E+02</rscale>
<asrwt>0</asrwt>
<pdfrwt beam="1">  1       11 0.10000000E+01 0.20565735E+03</pdfrwt>
<pdfrwt beam="2">  1        2 0.14005970E-01 0.46070811E+02</pdfrwt>
<totfact> 0.47887673E+02</totfact>
</mgrwt>
</event>
<event>
 5    1  0.9955701E-004  0.1091039E+03  0.7818608E-02  0.1423815E+00
         11   -1    0    0    0    0  0.00000000000E+00  0.00000000000E+00  0.10000400761E+04  0.10000400761E+04  0.51100000000E-03 0. -1.
          2   -1    0    0  501    0 -0.00000000000E+00 -0.00000000000E+00 -0.61012301296E+02  0.61012301349E+02  0.25500000000E-02 0. -1.
         11    1    1    2    0    0  0.10617418410E+03  0.16524832441E+02  0.55159965536E+03  0.56196815502E+03  0.51100000000E-03 0. -1.
         22    1    1    2    0    0  0.66974862372E+01 -0.26101346182E+02 -0.44788546528E+02  0.52269976989E+02  0.00000000000E+00 0. -1.
          2    1    1    2  501    0 -0.11287167034E+03  0.95765137413E+01  0.43221666594E+03  0.44681424541E+03  0.25500000000E-02 0. -1.
<mgrwt>
<rscale>  0 0.54221893E+02</rscale>
<asrwt>0</asrwt>
<pdfrwt beam="1">  1       11 0.10000000E+01 0.10910388E+03</pdfrwt>
<pdfrwt beam="2">  1        2 0.93868838E-02 0.54221893E+02</pdfrwt>
<totfact> 0.77325142E+02</totfact>
</mgrwt>
</event>
<event>
 5    1  0.9955701E-004  0.2883914E+03  0.7818608E-02  0.1091192E+00
         11   -1    0    0    0    0  0.00000000000E+00  0.00000000000E+00  0.10005619238E+04  0.10005619238E+04  0.51100000000E-03 0. -1.
          2   -1    0    0  501    0 -0.00000000000E+00 -0.00000000000E+00 -0.81171309089E+02  0.81171309129E+02  0.25500000000E-02 0. -1.
         11    1    1    2    0    0 -0.27080400530E+03  0.69159484840E+01  0.55004860533E+03  0.61313628816E+03  0.51100000000E-03 0. -1.
         22    1    1    2    0    0  0.75634497161E+02  0.40181855640E+02  0.86363367837E+02  0.12162972493E+03  0.00000000000E+00 0. -1.
          2    1    1    2  501    0  0.19516950814E+03 -0.47097804124E+02  0.28297864152E+03  0.34696721981E+03  0.25500000000E-02 0. -1.
<mgrwt>
<rscale>  0 0.28839136E+03</rscale>
<asrwt>0</asrwt>
<pdfrwt beam="1">  1       11 0.10000000E+01 0.27089230E+03</pdfrwt>
<pdfrwt beam="2">  1        2 0.12494911E-01 0.28839136E+03</pdfrwt>
<totfact> 0.60033395E+02</totfact>
</mgrwt>
</event>
<event>
 5    1  0.9955701E-004  0.1896183E+03  0.7818608E-02  0.1200693E+00
         11   -1    0    0    0    0  0.00000000000E+00  0.00000000000E+00  0.10000560548E+04  0.10000560548E+04  0.51100000000E-03 0.  1.
          2   -1    0    0  501    0 -0.00000000000E+00 -0.00000000000E+00 -0.19258505215E+04  0.19258505215E+04  0.25500000000E-02 0.  1.
         11    1    1    2    0    0  0.18837734244E+03 -0.24035428714E+02  0.96885270348E+03  0.98728885642E+03  0.51100000000E-03 0.  1.
         22    1    1    2    0    0 -0.66702600402E+02 -0.97794210085E+02 -0.18056371173E+03  0.21590784705E+03  0.00000000000E+00 0.  1.
          2    1    1    2  501    0 -0.12167474204E+03  0.12182963880E+03 -0.17140834584E+04  0.17227098728E+04  0.25500000000E-02 0.  1.
<mgrwt>
<rscale>  0 0.14982094E+03</rscale>
<asrwt>0</asrwt>
<pdfrwt beam="1">  1       11 0.10000000E+01 0.18961835E+03</pdfrwt>
<pdfrwt beam="2">  1        2 0.29630130E+00 0.14982094E+03</pdfrwt>
<totfact> 0.10792373E+01</totfact>
</mgrwt>
</event>
<event>
 5    1  0.9955701E-004  0.1917385E+03  0.7818608E-02  0.1156903E+00
         11   -1    0    0    0    0  0.00000000000E+00  0.00000000000E+00  0.99998655231E+03  0.99998655231E+03  0.51100000000E-03 0. -1.
          2   -1    0    0  501    0 -0.00000000000E+00 -0.00000000000E+00 -0.29902036905E+03  0.29902036906E+03  0.25500000000E-02 0.  1.
         11    1    1    2    0    0  0.18803480511E+03 -0.16995839553E+02  0.95907023200E+03  0.97747718971E+03  0.51100000000E-03 0. -1.
         22    1    1    2    0    0 -0.45265063812E+02  0.12415260877E+01 -0.87408989392E+02  0.98441854998E+02  0.00000000000E+00 0. -1.
          2    1    1    2  501    0 -0.14276974130E+03  0.15754313465E+02 -0.17069505935E+03  0.22308787667E+03  0.25500000000E-02 0.  1.
<mgrwt>
<rscale>  0 0.19173854E+03</rscale>
<asrwt>0</asrwt>
<pdfrwt beam="1">  1       11 0.10000000E+01 0.18880134E+03</pdfrwt>
<pdfrwt beam="2">  1        2 0.46002514E-01 0.19173854E+03</pdfrwt>
<totfact> 0.13608927E+02</totfact>
</mgrwt>
</event>
<event>
 5    1  0.9955701E-004  0.1861137E+03  0.7818608E-02  0.1405881E+00
         11   -1    0    0    0    0  0.00000000000E+00  0.00000000000E+00  0.10002093503E+04  0.10002093503E+04  0.51100000000E-03 0. -1.
          2   -1    0    0  501    0 -0.00000000000E+00 -0.00000000000E+00 -0.18382897644E+03  0.18382897646E+03  0.25500000000E-02 0. -1.
         11    1    1    2    0    0  0.17338025211E+03 -0.68717649322E+02  0.92877291932E+03  0.94731302261E+03  0.51100000000E-03 0. -1.
         22    1    1    2    0    0 -0.12017354654E+02 -0.13604128941E+02 -0.35622311112E+02  0.39980472559E+02  0.00000000000E+00 0. -1.
          2    1    1    2  501    0 -0.16136289746E+03  0.82321778262E+02 -0.76770234376E+02  0.19674483156E+03  0.25500000000E-02 0. -1.
<mgrwt>
<rscale>  0 0.58123191E+02</rscale>
<asrwt>0</asrwt>
<pdfrwt beam="1">  1       11 0.10000000E+01 0.18611370E+03</pdfrwt>
<pdfrwt beam="2">  1        2 0.28287301E-01 0.58123191E+02</pdfrwt>
<totfact> 0.22385950E+02</totfact>
</mgrwt>
</event>
<event>
 5    1  0.9955701E-004  0.2083389E+03  0.7818608E-02  0.1225378E+00
         11   -1    0    0    0    0  0.00000000000E+00  0.00000000000E+00  0.99980333187E+03  0.99980333187E+03  0.51100000000E-03 0.  1.
          2   -1    0    0  501    0 -0.00000000000E+00 -0.00000000000E+00 -0.85742173203E+02  0.85742173240E+02  0.25500000000E-02 0.  1.
         11    1    1    2    0    0 -0.19726718908E+03  0.32290634882E+02  0.52728725704E+03  0.56390502785E+03  0.51100000000E-03 0.  1.
         22    1    1    2    0    0 -0.50722396717E+01  0.82731814205E+02  0.16841950357E+02  0.84580919768E+02  0.00000000000E+00 0.  1.
          2    1    1    2  501    0  0.20233942876E+03 -0.11502244909E+03  0.36993195126E+03  0.43705955749E+03  0.25500000000E-02 0.  1.
<mgrwt>
<rscale>  0 0.13141011E+03</rscale>
<asrwt>0</asrwt>
<pdfrwt beam="1">  1       11 0.10000000E+01 0.20833887E+03</pdfrwt>
<pdfrwt beam="2">  1        2 0.13188509E-01 0.13141011E+03</pdfrwt>
<totfact> 0.54368547E+02</totfact>
</mgrwt>
</event>
<event>
 5    1  0.9955701E-004  0.3421150E+03  0.7818608E-02  0.1087836E+00
         11   -1    0    0    0    0  0.00000000000E+00  0.00000000000E+00  0.99995420015E+03  0.99995420015E+03  0.51100000000E-03 0. -1.
          2   -1    0    0  501    0 -0.00000000000E+00 -0.00000000000E+00 -0.25166632554E+03  0.25166632555E+03  0.25500000000E-02 0. -1.
         11    1    1    2    0    0 -0.23477598204E+03 -0.27872162466E+03  0.32507024355E+03  0.48834021853E+03  0.51100000000E-03 0. -1.
         22    1    1    2    0    0 -0.12605847772E+03  0.22067475825E+03  0.92702139725E+02  0.27052130312E+03  0.00000000000E+00 0.  1.
          2    1    1    2  501    0  0.36083445975E+03  0.58046866413E+02  0.33051549134E+03  0.49275900404E+03  0.25500000000E-02 0. -1.
<mgrwt>
<rscale>  0 0.29486557E+03</rscale>
<asrwt>0</asrwt>
<pdfrwt beam="1">  1       11 0.10000000E+01 0.34211502E+03</pdfrwt>
<pdfrwt beam="2">  1        2 0.38716122E-01 0.29486557E+03</pdfrwt>
<totfact> 0.16426987E+02</totfact>
</mgrwt>
</event>
<event>
 5    1  0.9955701E-004  0.1092423E+03  0.7818608E-02  0.1522975E+00
         11   -1    0    0    0    0  0.00000000000E+00  0.00000000000E+00  0.10002522053E+04  0.10002522053E+04  0.51100000000E-03 0. -1.
         -2   -1    0    0    0  501 -0.00000000000E+00 -0.00000000000E+00 -0.14326780843E+02  0.14326781070E+02  0.25500000000E-02 0. -1.
         11    1    1    2    0    0 -0.10377809725E+03  0.15149415832E+02  0.41313157714E+03  0.42623596551E+03  0.51100000000E-03 0. -1.
         22    1    1    2    0    0 -0.62908581583E+01  0.11674702453E+02  0.19581923626E+02  0.23650059337E+02  0.00000000000E+00 0. -1.
         -2    1    1    2    0  501  0.11006895541E+03 -0.26824118285E+02  0.55321192368E+03  0.56469296150E+03  0.25500000000E-02 0. -1.
<mgrwt>
<rscale>  0 0.38062338E+02</rscale>
<asrwt>0</asrwt>
<pdfrwt beam="1">  1       11 0.10000000E+01 0.10924230E+03</pdfrwt>
<pdfrwt beam="2">  1       -2 0.22046760E-02 0.38062338E+02</pdfrwt>
<totfact> 0.41458551E+03</totfact>
</mgrwt>
</event>
<event>
 5    1  0.9955701E-004  0.4979762E+03  0.7818608E-02  0.1206110E+00
         11   -1    0    0    0    0  0.00000000000E+00  0.00000000000E+00  0.99981056745E+03  0.99981056745E+03  0.51100000000E-03 0.  1.
          2   -1    0    0  501    0 -0.00000000000E+00 -0.00000000000E+00 -0.11778988002E+04  0.11778988002E+04  0.25500000000E-02 0.  1.
         11    1    1    2    0    0 -0.31394138851E+03  0.38793963125E+03  0.87131113110E+03  0.10041112688E+04  0.51100000000E-03 0.  1.
         22    1    1    2    0    0  0.41186304076E+02  0.10543833981E+02 -0.88918308854E+02  0.98559371589E+02  0.00000000000E+00 0.  1.
          2    1    1    2  501    0  0.27275508443E+03 -0.39848346523E+03 -0.96048105497E+03  0.10750387273E+04  0.25500000000E-02 0.  1.
<mgrwt>
<rscale>  0 0.14550333E+03</rscale>
<asrwt>0</asrwt>
<pdfrwt beam="1">  1       11 0.10000000E+01 0.49797625E+03</pdfrwt>
<pdfrwt beam="2">  1        2 0.18118087E+00 0.14550333E+03</pdfrwt>
<totfact> 0.26731151E+01</totfact>
</mgrwt>
</event>
<event>
 5    1  0.9955701E-004  0.2130569E+03  0.7818608E-02  0.1139168E+00
         11   -1    0    0    0    0  0.00000000000E+00  0.00000000000E+00  0.10001906446E+04  0.10001906446E+04  0.51100000000E-03 0. -1.
          2   -1    0    0  501    0 -0.00000000000E+00 -0.00000000000E+00 -0.21283497313E+03  0.21283497314E+03  0.25500000000E-02 0. -1.
         11    1    1    2    0    0  0.13231181688E+03  0.14944807592E+03  0.93353986903E+03  0.95464015804E+03  0.51100000000E-03 0. -1.
         22    1    1    2    0    0 -0.45244964306E+02 -0.69149915958E+02 -0.10360047392E+03  0.13252122800E+03  0.00000000000E+00 0. -1.
          2    1    1    2  501    0 -0.87066852576E+02 -0.80298159966E+02 -0.42583723589E+02  0.12586423174E+03  0.25500000000E-02 0. -1.
<mgrwt>
<rscale>  0 0.21305686E+03</rscale>
<asrwt>0</asrwt>
<pdfrwt beam="1">  1       11 0.10000000E+01 0.19960247E+03</pdfrwt>
<pdfrwt beam="2">  1        2 0.32750084E-01 0.21305686E+03</pdfrwt>
<totfact> 0.19650670E+02</totfact>
</mgrwt>
</event>
<event>
 5    1  0.9955701E-004  0.1013941E+03  0.7818608E-02  0.1500468E+00
         11   -1    0    0    0    0  0.00000000000E+00  0.00000000000E+00  0.10003588717E+04  0.10003588717E+04  0.51100000000E-03 0. -1.
          2   -1    0    0  501    0 -0.00000000000E+00 -0.00000000000E+00 -0.14052509144E+02  0.14052509375E+02  0.25500000000E-02 0. -1.
         11    1    1    2    0    0  0.78649822381E+02 -0.68762469308E+02  0.42597371887E+03  0.43859740186E+03  0.51100000000E-03 0. -1.
         22    1    1    2    0    0 -0.14723249799E+02 -0.77472242906E+01  0.18482423539E+02  0.24867519956E+02  0.00000000000E+00 0.  1.
          2    1    1    2  501    0 -0.63926572582E+02  0.76509693598E+02  0.54185022011E+03  0.55094645923E+03  0.25500000000E-02 0. -1.
<mgrwt>
<rscale>  0 0.41071951E+02</rscale>
<asrwt>0</asrwt>
<pdfrwt beam="1">  1       11 0.10000000E+01 0.10139415E+03</pdfrwt>
<pdfrwt beam="2">  1        2 0.21627003E-02 0.41071951E+02</pdfrwt>
<totfact> 0.47913700E+03</totfact>
</mgrwt>
</event>
<event>
 5    1  0.9955701E-004  0.6133849E+02  0.7818608E-02  0.1642973E+00
         11   -1    0    0    0    0  0.00000000000E+00  0.00000000000E+00  0.99963266237E+03  0.99963266237E+03  0.51100000000E-03 0. -1.
          2   -1    0    0  501    0 -0.00000000000E+00 -0.00000000000E+00 -0.66854092233E+01  0.66854097096E+01  0.25500000000E-02 0. -1.
         11    1    1    2    0    0 -0.42727794484E+02 -0.52583608187E+02  0.39677409228E+03  0.40251755313E+03  0.51100000000E-03 0. -1.
         22    1    1    2    0    0  0.18695464850E+01  0.11122430995E+02  0.11051443325E+02  0.15790442517E+02  0.00000000000E+00 0. -1.
          2    1    1    2  501    0  0.40858247999E+02  0.41461177192E+02  0.58512171754E+03  0.58801007643E+03  0.25500000000E-02 0. -1.
<mgrwt>
<rscale>  0 0.26302155E+02</rscale>
<asrwt>0</asrwt>
<pdfrwt beam="1">  1       11 0.10000000E+01 0.61338487E+02</pdfrwt>
<pdfrwt beam="2">  1        2 0.10281467E-02 0.26302155E+02</pdfrwt>
<totfact> 0.11695543E+04</totfact>
</mgrwt>
</event>
<event>
 5    1  0.9955701E-004  0.3065515E+03  0.7818608E-02  0.1310353E+00
         11   -1    0    0    0    0  0.00000000000E+00  0.00000000000E+00  0.10001639873E+04  0.10001639873E+04  0.51100000000E-03 0.  1.
          2   -1    0    0  501    0 -0.00000000000E+00 -0.00000000000E+00 -0.12793166152E+03  0.12793166155E+03  0.25500000000E-02 0.  1.
         11    1    1    2    0    0  0.49386665662E+02 -0.30674440217E+03  0.56859582874E+03  0.64794474106E+03  0.51100000000E-03 0.  1.
         22    1    1    2    0    0  0.20324645970E+02  0.13992168824E+02 -0.24597223280E+02  0.34841001927E+02  0.00000000000E+00 0. -1.
          2    1    1    2  501    0 -0.69711311632E+02  0.29275223334E+03  0.32823372032E+03  0.44530990586E+03  0.25500000000E-02 0.  1.
<mgrwt>
<rscale>  0 0.86972762E+02</rscale>
<asrwt>0</asrwt>
<pdfrwt beam="1">  1       11 0.10000000E+01 0.30655155E+03</pdfrwt>
<pdfrwt beam="2">  1        2 0.19685021E-01 0.86972762E+02</pdfrwt>
<totfact> 0.33665349E+02</totfact>
</mgrwt>
</event>
<event>
 5    1  0.9955701E-004  0.8028686E+02  0.7818608E-02  0.1522572E+00
         11   -1    0    0    0    0  0.00000000000E+00  0.00000000000E+00  0.10002168895E+04  0.10002168895E+04  0.51100000000E-03 0.  1.
         -2   -1    0    0    0  501 -0.00000000000E+00 -0.00000000000E+00 -0.97360500248E+01  0.97360503587E+01  0.25500000000E-02 0.  1.
         11    1    1    2    0    0 -0.45310954332E+02  0.56982812693E+02  0.39569860475E+03  0.40234004192E+03  0.51100000000E-03 0.  1.
         22    1    1    2    0    0 -0.10391304171E+01  0.18063181111E+02  0.24002408150E+02  0.30057842584E+02  0.00000000000E+00 0. -1.
         -2    1    1    2    0  501  0.46350084749E+02 -0.75045993803E+02  0.57077982661E+03  0.57755505539E+03  0.25500000000E-02 0.  1.
<mgrwt>
<rscale>  0 0.38113434E+02</rscale>
<asrwt>0</asrwt>
<pdfrwt beam="1">  1       11 0.10000000E+01 0.80286862E+02</pdfrwt>
<pdfrwt beam="2">  1       -2 0.14981787E-02 0.38113434E+02</pdfrwt>
<totfact> 0.71075979E+03</totfact>
</mgrwt>
</event>
<event>
 5    1  0.9955701E-004  0.3777542E+02  0.7818608E-02  0.1683938E+00
         11   -1    0    0    0    0  0.00000000000E+00  0.00000000000E+00  0.10001668734E+04  0.10001668734E+04  0.51100000000E-03 0.  1.
          2   -1    0    0  501    0 -0.00000000000E+00 -0.00000000000E+00 -0.33607861609E+01  0.33607871283E+01  0.25500000000E-02 0. -1.
         11    1    1    2    0    0 -0.29574274793E+02 -0.26090942543E+02  0.17849719543E+03  0.18280214383E+03  0.51100000000E-03 0.  1.
         22    1    1    2    0    0 -0.60954806032E+01  0.13252521321E+02  0.72454318284E+02  0.73908135162E+02  0.00000000000E+00 0. -1.
          2    1    1    2  501    0  0.35669755396E+02  0.12838421222E+02  0.74585457356E+03  0.74681738157E+03  0.25500000000E-02 0. -1.
<mgrwt>
<rscale>  0 0.23474123E+02</rscale>
<asrwt>0</asrwt>
<pdfrwt beam="1">  1       11 0.10000000E+01 0.37775417E+02</pdfrwt>
<pdfrwt beam="2">  1        2 0.51713037E-03 0.23474123E+02</pdfrwt>
<totfact> 0.28048653E+04</totfact>
</mgrwt>
</event>
<event>
 5    1  0.9955701E-004  0.1949976E+03  0.7818608E-02  0.1306759E+00
         11   -1    0    0    0    0  0.00000000000E+00  0.00000000000E+00  0.10004780056E+04  0.10004780056E+04  0.51100000000E-03 0. -1.
          2   -1    0    0  501    0 -0.00000000000E+00 -0.00000000000E+00 -0.14141565370E+03  0.14141565372E+03  0.25500000000E-02 0.  1.
         11    1    1    2    0    0 -0.19458370889E+03  0.29029285215E+02  0.89671089429E+03  0.91803918604E+03  0.51100000000E-03 0. -1.
         22    1    1    2    0    0  0.24536790129E+02  0.31692018486E+02 -0.56129607394E+01  0.40471513856E+02  0.00000000000E+00 0. -1.
          2    1    1    2  501    0  0.17004691877E+03 -0.60721303701E+02 -0.32035581659E+02  0.18338295941E+03  0.25500000000E-02 0.  1.
<mgrwt>
<rscale>  0 0.88405776E+02</rscale>
<asrwt>0</asrwt>
<pdfrwt beam="1">  1       11 0.10000000E+01 0.19499761E+03</pdfrwt>
<pdfrwt beam="2">  1        2 0.21766653E-01 0.88405776E+02</pdfrwt>
<totfact> 0.30126648E+02</totfact>
</mgrwt>
</event>
<event>
 5    1  0.9955701E-004  0.1675380E+03  0.7818608E-02  0.1419374E+00
         11   -1    0    0    0    0  0.00000000000E+00  0.00000000000E+00  0.10001920820E+04  0.10001920820E+04  0.51100000000E-03 0. -1.
          2   -1    0    0  501    0 -0.00000000000E+00 -0.00000000000E+00 -0.12597355968E+03  0.12597355971E+03  0.25500000000E-02 0. -1.
         11    1    1    2    0    0 -0.14291720328E+03  0.93610458807E+02  0.80485944229E+03  0.82279217719E+03  0.51100000000E-03 0. -1.
         22    1    1    2    0    0  0.76609045557E+01 -0.16461240937E+02 -0.83333150729E+02  0.85288193334E+02  0.00000000000E+00 0. -1.
          2    1    1    2  501    0  0.13525629873E+03 -0.77149217870E+02  0.15269223073E+03  0.21808527115E+03  0.25500000000E-02 0. -1.
<mgrwt>
<rscale>  0 0.55153604E+02</rscale>
<asrwt>0</asrwt>
<pdfrwt beam="1">  1       11 0.10000000E+01 0.16753803E+03</pdfrwt>
<pdfrwt beam="2">  1        2 0.19384270E-01 0.55153604E+02</pdfrwt>
<totfact> 0.33597068E+02</totfact>
</mgrwt>
</event>
<event>
 5    1  0.1333576E-003  0.2505136E+03  0.7818608E-02  0.1112981E+00
         11   -1    0    0    0    0  0.00000000000E+00  0.00000000000E+00  0.99989223997E+03  0.99989223997E+03  0.51100000000E-03 0. -1.
          2   -1    0    0  501    0 -0.00000000000E+00 -0.00000000000E+00 -0.75845863234E+03  0.75845863234E+03  0.25500000000E-02 0. -1.
         11    1    1    2    0    0 -0.13825389271E+03  0.19868789510E+03  0.96382498140E+03  0.99375530856E+03  0.51100000000E-03 0. -1.
         22    1    1    2    0    0 -0.48802335051E+01 -0.24162351065E+02 -0.79361354638E+02  0.83101507195E+02  0.00000000000E+00 0.  1.
          2    1    1    2  501    0  0.14313412621E+03 -0.17452554404E+03 -0.64303001913E+03  0.68149405655E+03  0.25500000000E-02 0. -1.
<mgrwt>
<rscale>  0 0.25051363E+03</rscale>
<asrwt>0</asrwt>
<pdfrwt beam="1">  1       11 0.10000000E+01 0.24205582E+03</pdfrwt>
<pdfrwt beam="2">  1        2 0.11667337E+00 0.25051363E+03</pdfrwt>
<totfact> 0.47548844E+01</totfact>
</mgrwt>
</event>
<event>
 5    1  0.9955701E-004  0.3378449E+02  0.7818608E-02  0.1718700E+00
         11   -1    0    0    0    0  0.00000000000E+00  0.00000000000E+00  0.10001494306E+04  0.10001494306E+04  0.51100000000E-03 0. -1.
          2   -1    0    0  501    0 -0.00000000000E+00 -0.00000000000E+00 -0.34648227206E+01  0.34648236590E+01  0.25500000000E-02 0. -1.
         11    1    1    2    0    0 -0.16412954857E+01 -0.38229780883E+02  0.19990983622E+03  0.20353906901E+03  0.51100000000E-03 0. -1.
         22    1    1    2    0    0  0.11872116872E+02  0.65625217917E+01  0.34452397665E+02  0.37026768103E+02  0.00000000000E+00 0.  1.
          2    1    1    2  501    0 -0.10230821386E+02  0.31667259091E+02  0.76232237399E+03  0.76304841713E+03  0.25500000000E-02 0. -1.
<mgrwt>
<rscale>  0 0.21407758E+02</rscale>
<asrwt>0</asrwt>
<pdfrwt beam="1">  1       11 0.10000000E+01 0.33784488E+02</pdfrwt>
<pdfrwt beam="2">  1        2 0.53312936E-03 0.21407758E+02</pdfrwt>
<totfact> 0.26304324E+04</totfact>
</mgrwt>
</event>
<event>
 5    1  0.9955701E-004  0.1740883E+03  0.7818608E-02  0.1173650E+00
         11   -1    0    0    0    0  0.00000000000E+00  0.00000000000E+00  0.10001697443E+04  0.10001697443E+04  0.51100000000E-03 0. -1.
          2   -1    0    0  501    0 -0.00000000000E+00 -0.00000000000E+00 -0.15470882399E+03  0.15470882401E+03  0.25500000000E-02 0. -1.
         11    1    1    2    0    0  0.20832770447E+02  0.16538744640E+03  0.94144106293E+03  0.95608487422E+03  0.51100000000E-03 0. -1.
         22    1    1    2    0    0 -0.18770214824E+02 -0.38413401037E+02 -0.44657822277E+02  0.61824197806E+02  0.00000000000E+00 0. -1.
          2    1    1    2  501    0 -0.20625556226E+01 -0.12697404536E+03 -0.51322320366E+02  0.13696949626E+03  0.25500000000E-02 0. -1.
<mgrwt>
<rscale>  0 0.17408833E+03</rscale>
<asrwt>0</asrwt>
<pdfrwt beam="1">  1       11 0.10000000E+01 0.16669437E+03</pdfrwt>
<pdfrwt beam="2">  1        2 0.23805397E-01 0.17408833E+03</pdfrwt>
<totfact> 0.27823819E+02</totfact>
</mgrwt>
</event>
<event>
 5    1  0.9955701E-004  0.3145888E+02  0.7818608E-02  0.1727758E+00
         11   -1    0    0    0    0  0.00000000000E+00  0.00000000000E+00  0.10001059322E+04  0.10001059322E+04  0.51100000000E-03 0. -1.
          2   -1    0    0  501    0 -0.00000000000E+00 -0.00000000000E+00 -0.64330297313E+01  0.64330302367E+01  0.25500000000E-02 0. -1.
         11    1    1    2    0    0 -0.18633965181E+02 -0.34594971551E+02  0.20748784413E+03  0.21117585605E+03  0.51100000000E-03 0. -1.
         22    1    1    2    0    0  0.13100487771E+02  0.46535557222E+01  0.69671849538E+01  0.15550563555E+02  0.00000000000E+00 0. -1.
          2    1    1    2  501    0  0.55334774099E+01  0.29941415828E+02  0.77921787339E+03  0.77981254284E+03  0.25500000000E-02 0. -1.
<mgrwt>
<rscale>  0 0.20913047E+02</rscale>
<asrwt>0</asrwt>
<pdfrwt beam="1">  1       11 0.10000000E+01 0.31458879E+02</pdfrwt>
<pdfrwt beam="2">  1        2 0.98980173E-03 0.20913047E+02</pdfrwt>
<totfact> 0.11675398E+04</totfact>
</mgrwt>
</event>
<event>
 5    1  0.9955701E-004  0.1284448E+03  0.7818608E-02  0.1459248E+00
         11   -1    0    0    0    0  0.00000000000E+00  0.00000000000E+00  0.10001296390E+04  0.10001296390E+04  0.51100000000E-03 0.  1.
          2   -1    0    0  501    0 -0.00000000000E+00 -0.00000000000E+00 -0.94395797419E+02  0.94395797454E+02  0.25500000000E-02 0.  1.
         11    1    1    2    0    0 -0.62913160070E+02 -0.10781144567E+03  0.68313570471E+03  0.69444637272E+03  0.51100000000E-03 0.  1.
         22    1    1    2    0    0 -0.16572088026E+02 -0.58494437742E+01 -0.72186989556E+02  0.74295434282E+02  0.00000000000E+00 0.  1.
          2    1    1    2  501    0  0.79485248095E+02  0.11366088944E+03  0.29478512643E+03  0.32578362946E+03  0.25500000000E-02 0.  1.
<mgrwt>
<rscale>  0 0.47511117E+02</rscale>
<asrwt>0</asrwt>
<pdfrwt beam="1">  1       11 0.10000000E+01 0.12844482E+03</pdfrwt>
<pdfrwt beam="2">  1        2 0.14524313E-01 0.47511117E+02</pdfrwt>
<totfact> 0.46036136E+02</totfact>
</mgrwt>
</event>
<event>
 5    1  0.9955701E-004  0.2357672E+03  0.7818608E-02  0.1407882E+00
         11   -1    0    0    0    0  0.00000000000E+00  0.00000000000E+00  0.10001006382E+04  0.10001006382E+04  0.51100000000E-03 0.  1.
          2   -1    0    0  501    0 -0.00000000000E+00 -0.00000000000E+00 -0.10422813617E+03  0.10422813620E+03  0.25500000000E-02 0.  1.
         11    1    1    2    0    0  0.64143299089E+02 -0.22959366493E+03  0.75202698683E+03  0.78890569951E+03  0.51100000000E-03 0.  1.
         22    1    1    2    0    0 -0.11692725560E+02  0.78903590546E+01 -0.27130787739E+02  0.30578705669E+02  0.00000000000E+00 0.  1.
          2    1    1    2  501    0 -0.52450573529E+02  0.22170330587E+03  0.17097630292E+03  0.28484436920E+03  0.25500000000E-02 0.  1.
<mgrwt>
<rscale>  0 0.57669046E+02</rscale>
<asrwt>0</asrwt>
<pdfrwt beam="1">  1       11 0.10000000E+01 0.23576723E+03</pdfrwt>
<pdfrwt beam="2">  1        2 0.16036711E-01 0.57669046E+02</pdfrwt>
<totfact> 0.41602595E+02</totfact>
</mgrwt>
</event>
<event>
 5    1  0.9955701E-004  0.1335903E+03  0.7818608E-02  0.1405557E+00
         11   -1    0    0    0    0  0.00000000000E+00  0.00000000000E+00  0.10002755869E+04  0.10002755869E+04  0.51100000000E-03 0. -1.
          2   -1    0    0  501    0 -0.00000000000E+00 -0.00000000000E+00 -0.74150718917E+02  0.74150718961E+02  0.25500000000E-02 0. -1.
         11    1    1    2    0    0 -0.92315724680E+02  0.86812927353E+02  0.64310834974E+03  0.65547465770E+03  0.51100000000E-03 0. -1.
         22    1    1    2    0    0 -0.17553751643E+02  0.18293224736E+02 -0.48223202174E+02  0.54481680370E+02  0.00000000000E+00 0. -1.
          2    1    1    2  501    0  0.10986947632E+03 -0.10510615209E+03  0.33123972042E+03  0.36446996780E+03  0.25500000000E-02 0. -1.
<mgrwt>
<rscale>  0 0.58197239E+02</rscale>
<asrwt>0</asrwt>
<pdfrwt beam="1">  1       11 0.10000000E+01 0.13359028E+03</pdfrwt>
<pdfrwt beam="2">  1        2 0.11410946E-01 0.58197239E+02</pdfrwt>
<totfact> 0.61627974E+02</totfact>
</mgrwt>
</event>
<event>
 5    1  0.9955701E-004  0.2034841E+03  0.7818608E-02  0.1146832E+00
         11   -1    0    0    0    0  0.00000000000E+00  0.00000000000E+00  0.99995440106E+03  0.99995440106E+03  0.51100000000E-03 0. -1.
          2   -1    0    0  501    0 -0.00000000000E+00 -0.00000000000E+00 -0.10388950020E+03  0.10388950023E+03  0.25500000000E-02 0. -1.
         11    1    1    2    0    0  0.82331849899E+02  0.18415430444E+03  0.87650960949E+03  0.89942227951E+03  0.51100000000E-03 0. -1.
         22    1    1    2    0    0 -0.84791716943E+01 -0.70242064676E+01 -0.23722920355E+01  0.11263374211E+02  0.00000000000E+00 0.  1.
          2    1    1    2  501    0 -0.73852678205E+02 -0.17713009797E+03  0.21927583414E+02  0.19315824757E+03  0.25500000000E-02 0. -1.
<mgrwt>
<rscale>  0 0.20348413E+03</rscale>
<asrwt>0</asrwt>
<pdfrwt beam="1">  1       11 0.10000000E+01 0.20172095E+03</pdfrwt>
<pdfrwt beam="2">  1        2 0.15982271E-01 0.20348413E+03</pdfrwt>
<totfact> 0.44117891E+02</totfact>
</mgrwt>
</event>
<event>
 5    1  0.9955701E-004  0.2651189E+03  0.7818608E-02  0.1162542E+00
         11   -1    0    0    0    0  0.00000000000E+00  0.00000000000E+00  0.10008140204E+04  0.10008140204E+04  0.51100000000E-03 0. -1.
          2   -1    0    0  501    0 -0.00000000000E+00 -0.00000000000E+00 -0.11811932915E+04  0.11811932915E+04  0.25500000000E-02 0. -1.
         11    1    1    2    0    0 -0.10722226620E+03  0.24191462642E+03  0.92606400769E+03  0.96312711891E+03  0.51100000000E-03 0. -1.
         22    1    1    2    0    0 -0.12307511757E+03 -0.41408885712E+02 -0.69210036768E+03  0.70417689491E+03  0.00000000000E+00 0. -1.
          2    1    1    2  501    0  0.23029738377E+03 -0.20050574071E+03 -0.41434291112E+03  0.51470329806E+03  0.25500000000E-02 0. -1.
<mgrwt>
<rscale>  0 0.18554479E+03</rscale>
<asrwt>0</asrwt>
<pdfrwt beam="1">  1       11 0.10000000E+01 0.26511890E+03</pdfrwt>
<pdfrwt beam="2">  1        2 0.18186997E+00 0.18554479E+03</pdfrwt>
<totfact> 0.26194232E+01</totfact>
</mgrwt>
</event>
<event>
 5    1  0.9955701E-004  0.8380889E+02  0.7818608E-02  0.1318577E+00
         11   -1    0    0    0    0  0.00000000000E+00  0.00000000000E+00  0.10003386521E+04  0.10003386521E+04  0.51100000000E-03 0. -1.
          2   -1    0    0  501    0 -0.00000000000E+00 -0.00000000000E+00 -0.14814754527E+02  0.14814754747E+02  0.25500000000E-02 0. -1.
         11    1    1    2    0    0 -0.25336224458E+02 -0.26203909389E+02  0.12707254462E+03  0.13219682573E+03  0.51100000000E-03 0. -1.
         22    1    1    2    0    0  0.82517553286E+02 -0.27356395223E+02  0.17890209724E+03  0.19890570469E+03  0.00000000000E+00 0. -1.
          2    1    1    2  501    0 -0.57181328828E+02  0.53560304612E+02  0.67954925569E+03  0.68405087640E+03  0.25500000000E-02 0. -1.
<mgrwt>
<rscale>  0 0.83808895E+02</rscale>
<asrwt>0</asrwt>
<pdfrwt beam="1">  1       11 0.10000000E+01 0.36449561E+02</pdfrwt>
<pdfrwt beam="2">  1        2 0.22799648E-02 0.83808895E+02</pdfrwt>
<totfact> 0.49361570E+03</totfact>
</mgrwt>
</event>
<event>
 5    1  0.9955701E-004  0.1235123E+03  0.7818608E-02  0.1437820E+00
         11   -1    0    0    0    0  0.00000000000E+00  0.00000000000E+00  0.10003905145E+04  0.10003905145E+04  0.51100000000E-03 0.  1.
         -2   -1    0    0    0  501 -0.00000000000E+00 -0.00000000000E+00 -0.23174086522E+02  0.23174086662E+02  0.25500000000E-02 0.  1.
         11    1    1    2    0    0  0.37476407916E+02  0.10958672322E+03  0.53390719721E+03  0.54632465283E+03  0.51100000000E-03 0.  1.
         22    1    1    2    0    0  0.11768831175E+02  0.17883474290E+02  0.11453921679E+02  0.24279958026E+02  0.00000000000E+00 0.  1.
         -2    1    1    2    0  501 -0.49245239091E+02 -0.12747019751E+03  0.43185530912E+03  0.45295999034E+03  0.25500000000E-02 0.  1.
<mgrwt>
<rscale>  0 0.51421917E+02</rscale>
<asrwt>0</asrwt>
<pdfrwt beam="1">  1       11 0.10000000E+01 0.12351230E+03</pdfrwt>
<pdfrwt beam="2">  1       -2 0.35666363E-02 0.51421917E+02</pdfrwt>
<totfact> 0.21884495E+03</totfact>
</mgrwt>
</event>
<event>
 5    1  0.9955701E-004  0.2696276E+02  0.7818608E-02  0.1740739E+00
         11   -1    0    0    0    0  0.00000000000E+00  0.00000000000E+00  0.10003950433E+04  0.10003950433E+04  0.51100000000E-03 0. -1.
          2   -1    0    0  501    0 -0.00000000000E+00 -0.00000000000E+00 -0.80898261099E+01  0.80898265118E+01  0.25500000000E-02 0. -1.
         11    1    1    2    0    0  0.87530253553E+01  0.40040967592E+02  0.11562471549E+03  0.12267424086E+03  0.51100000000E-03 0. -1.
         22    1    1    2    0    0 -0.58372084389E+01 -0.14015573085E+02  0.88268956272E+01  0.17561986724E+02  0.00000000000E+00 0. -1.
          2    1    1    2  501    0 -0.29158169164E+01 -0.26025394507E+02  0.86785360604E+03  0.86824864219E+03  0.25500000000E-02 0. -1.
<mgrwt>
<rscale>  0 0.20232715E+02</rscale>
<asrwt>0</asrwt>
<pdfrwt beam="1">  1       11 0.10000000E+01 0.26962759E+02</pdfrwt>
<pdfrwt beam="2">  1        2 0.12450803E-02 0.20232715E+02</pdfrwt>
<totfact> 0.86126336E+03</totfact>
</mgrwt>
</event>
<event>
 5    1  0.9955701E-004  0.5717836E+03  0.7818608E-02  0.9965740E-01
         11   -1    0    0    0    0  0.00000000000E+00  0.00000000000E+00  0.10004050637E+04  0.10004050637E+04  0.51100000000E-03 0. -1.
          2   -1    0    0  501    0 -0.00000000000E+00 -0.00000000000E+00 -0.44515347271E+03  0.44515347272E+03  0.25500000000E-02 0. -1.
         11    1    1    2    0    0  0.51934241922E+02 -0.93930561407E+02  0.19641861272E+03  0.22383115796E+03  0.51100000000E-03 0. -1.
         22    1    1    2    0    0 -0.46335772214E+03  0.40103722350E+03  0.33078876443E+02  0.61369817122E+03  0.00000000000E+00 0. -1.
          2    1    1    2  501    0  0.41142348022E+03 -0.30710666209E+03  0.32575410180E+03  0.60802920721E+03  0.25500000000E-02 0. -1.
<mgrwt>
<rscale>  0 0.57178356E+03</rscale>
<asrwt>0</asrwt>
<pdfrwt beam="1">  1       11 0.10000000E+01 0.10733180E+03</pdfrwt>
<pdfrwt beam="2">  1        2 0.68512889E-01 0.57178356E+03</pdfrwt>
<totfact> 0.87403245E+01</totfact>
</mgrwt>
</event>
<event>
 5    1  0.9955701E-004  0.9308575E+02  0.7818608E-02  0.1400961E+00
         11   -1    0    0    0    0  0.00000000000E+00  0.00000000000E+00  0.10001374398E+04  0.10001374398E+04  0.51100000000E-03 0. -1.
          2   -1    0    0  501    0 -0.00000000000E+00 -0.00000000000E+00 -0.17836732171E+02  0.17836732353E+02  0.25500000000E-02 0. -1.
         11    1    1    2    0    0  0.68175125588E+02 -0.52591637319E+02  0.15416495716E+03  0.17658018598E+03  0.51100000000E-03 0. -1.
         22    1    1    2    0    0 -0.20677026898E+02 -0.31555651382E+02  0.10009134969E+03  0.10696530680E+03  0.00000000000E+00 0. -1.
          2    1    1    2  501    0 -0.47498098690E+02  0.84147288701E+02  0.72804440076E+03  0.73442867936E+03  0.25500000000E-02 0. -1.
<mgrwt>
<rscale>  0 0.59260524E+02</rscale>
<asrwt>0</asrwt>
<pdfrwt beam="1">  1       11 0.10000000E+01 0.93085747E+02</pdfrwt>
<pdfrwt beam="2">  1        2 0.27444897E-02 0.59260524E+02</pdfrwt>
<totfact> 0.36922669E+03</totfact>
</mgrwt>
</event>
<event>
 5    1  0.9955701E-004  0.1521457E+03  0.7818608E-02  0.1374483E+00
         11   -1    0    0    0    0  0.00000000000E+00  0.00000000000E+00  0.99991700498E+03  0.99991700498E+03  0.51100000000E-03 0. -1.
          2   -1    0    0  501    0 -0.00000000000E+00 -0.00000000000E+00 -0.35639189622E+02  0.35639189713E+02  0.25500000000E-02 0. -1.
         11    1    1    2    0    0  0.85700377017E+02 -0.12679071733E+03  0.69264437899E+03  0.70934947407E+03  0.51100000000E-03 0. -1.
         22    1    1    2    0    0  0.21133455965E+02  0.19233556435E+02  0.52002140902E+02  0.59336121483E+02  0.00000000000E+00 0.  1.
          2    1    1    2  501    0 -0.10683383298E+03  0.10755716089E+03  0.21963129547E+03  0.26687059914E+03  0.25500000000E-02 0. -1.
<mgrwt>
<rscale>  0 0.65936499E+02</rscale>
<asrwt>0</asrwt>
<pdfrwt beam="1">  1       11 0.10000000E+01 0.15214569E+03</pdfrwt>
<pdfrwt beam="2">  1        2 0.54824970E-02 0.65936499E+02</pdfrwt>
<totfact> 0.15271718E+03</totfact>
</mgrwt>
</event>
<event>
 5    1  0.9955701E-004  0.3942169E+03  0.7818608E-02  0.1121583E+00
         11   -1    0    0    0    0  0.00000000000E+00  0.00000000000E+00  0.10010193944E+04  0.10010193944E+04  0.51100000000E-03 0. -1.
          2   -1    0    0  501    0 -0.00000000000E+00 -0.00000000000E+00 -0.20197783730E+04  0.20197783730E+04  0.25500000000E-02 0. -1.
         11    1    1    2    0    0  0.27077733552E+02  0.39529530812E+03  0.93019630689E+03  0.10110671361E+04  0.51100000000E-03 0. -1.
         22    1    1    2    0    0 -0.12833663734E+03 -0.62808366275E+02 -0.58146273787E+03  0.59876046871E+03  0.00000000000E+00 0. -1.
          2    1    1    2  501    0  0.10125890379E+03 -0.33248694185E+03 -0.13674925476E+04  0.14109701627E+04  0.25500000000E-02 0. -1.
<mgrwt>
<rscale>  0 0.23733179E+03</rscale>
<asrwt>0</asrwt>
<pdfrwt beam="1">  1       11 0.10000000E+01 0.39421685E+03</pdfrwt>
<pdfrwt beam="2">  1        2 0.31105189E+00 0.23733179E+03</pdfrwt>
<totfact> 0.91916989E+00</totfact>
</mgrwt>
</event>
<event>
 5    1  0.9955701E-004  0.1254731E+03  0.7818608E-02  0.1460585E+00
         11   -1    0    0    0    0  0.00000000000E+00  0.00000000000E+00  0.10000730522E+04  0.10000730522E+04  0.51100000000E-03 0. -1.
          2   -1    0    0  501    0 -0.00000000000E+00 -0.00000000000E+00 -0.45902956605E+02  0.45902956676E+02  0.25500000000E-02 0. -1.
         11    1    1    2    0    0  0.10437098246E+03 -0.61297819645E+02  0.68202078428E+03  0.69267818997E+03  0.51100000000E-03 0. -1.
         22    1    1    2    0    0  0.17097409450E+02 -0.50102782368E+01 -0.21947213230E+02  0.28268435869E+02  0.00000000000E+00 0.  1.
          2    1    1    2  501    0 -0.12146839191E+03  0.66308097882E+02  0.29409652452E+03  0.32502938301E+03  0.25500000000E-02 0. -1.
<mgrwt>
<rscale>  0 0.47280859E+02</rscale>
<asrwt>0</asrwt>
<pdfrwt beam="1">  1       11 0.10000000E+01 0.12547310E+03</pdfrwt>
<pdfrwt beam="2">  1        2 0.70625090E-02 0.47280859E+02</pdfrwt>
<totfact> 0.10794217E+03</totfact>
</mgrwt>
</event>
<event>
 5    1  0.9955701E-004  0.8874368E+02  0.7818608E-02  0.1390575E+00
         11   -1    0    0    0    0  0.00000000000E+00  0.00000000000E+00  0.10002058169E+04  0.10002058169E+04  0.51100000000E-03 0. -1.
          2   -1    0    0  501    0 -0.00000000000E+00 -0.00000000000E+00 -0.27560864930E+02  0.27560865048E+02  0.25500000000E-02 0. -1.
         11    1    1    2    0    0  0.97178366961E+02 -0.33789977861E+02  0.46110366385E+03  0.47244257473E+03  0.51100000000E-03 0. -1.
         22    1    1    2    0    0 -0.36284276747E+02 -0.23049504705E+02  0.65187255028E+01  0.43477835599E+02  0.00000000000E+00 0. -1.
          2    1    1    2  501    0 -0.60894090214E+02  0.56839482566E+02  0.50502256258E+03  0.51184627158E+03  0.25500000000E-02 0. -1.
<mgrwt>
<rscale>  0 0.61763800E+02</rscale>
<asrwt>0</asrwt>
<pdfrwt beam="1">  1       11 0.10000000E+01 0.88743677E+02</pdfrwt>
<pdfrwt beam="2">  1        2 0.42410056E-02 0.61763800E+02</pdfrwt>
<totfact> 0.21060840E+03</totfact>
</mgrwt>
</event>
<event>
 5    1  0.9955701E-004  0.1250907E+03  0.7818608E-02  0.1382687E+00
         11   -1    0    0    0    0  0.00000000000E+00  0.00000000000E+00  0.99989260542E+03  0.99989260542E+03  0.51100000000E-03 0. -1.
          2   -1    0    0  501    0 -0.00000000000E+00 -0.00000000000E+00 -0.55499999128E+02  0.55499999187E+02  0.25500000000E-02 0. -1.
         11    1    1    2    0    0  0.34525329988E+02  0.10539001170E+03  0.11097882830E+03  0.15689280834E+03  0.51100000000E-03 0. -1.
         22    1    1    2    0    0  0.32182774681E+02  0.45430376633E+01 -0.18187752739E+02  0.37244657698E+02  0.00000000000E+00 0. -1.
          2    1    1    2  501    0 -0.66708104669E+02 -0.10993304936E+03  0.85160153072E+03  0.86125513857E+03  0.25500000000E-02 0. -1.
<mgrwt>
<rscale>  0 0.63762660E+02</rscale>
<asrwt>0</asrwt>
<pdfrwt beam="1">  1       11 0.10000000E+01 0.12509069E+03</pdfrwt>
<pdfrwt beam="2">  1        2 0.85375442E-02 0.63762660E+02</pdfrwt>
<totfact> 0.87795903E+02</totfact>
</mgrwt>
</event>
<event>
 5    1  0.9955701E-004  0.7634391E+02  0.7818608E-02  0.1339759E+00
         11   -1    0    0    0    0  0.00000000000E+00  0.00000000000E+00  0.10001801364E+04  0.10001801364E+04  0.51100000000E-03 0. -1.
          2   -1    0    0  501    0 -0.00000000000E+00 -0.00000000000E+00 -0.47801741274E+02  0.47801741342E+02  0.25500000000E-02 0. -1.
         11    1    1    2    0    0 -0.31837717393E+02 -0.15709759949E+02  0.82217364376E+02  0.89555188637E+02  0.51100000000E-03 0. -1.
         22    1    1    2    0    0  0.77537060829E+02 -0.71055868738E+00 -0.88784532168E+01  0.78046957835E+02  0.00000000000E+00 0. -1.
          2    1    1    2  501    0 -0.45699343436E+02  0.16420318637E+02  0.87903948400E+03  0.88037973131E+03  0.25500000000E-02 0. -1.
<mgrwt>
<rscale>  0 0.76343912E+02</rscale>
<asrwt>0</asrwt>
<pdfrwt beam="1">  1       11 0.10000000E+01 0.35502631E+02</pdfrwt>
<pdfrwt beam="2">  1        2 0.73554386E-02 0.76343912E+02</pdfrwt>
<totfact> 0.10695285E+03</totfact>
</mgrwt>
</event>
<event>
 5    1  0.9955701E-004  0.6843753E+02  0.7818608E-02  0.1580043E+00
         11   -1    0    0    0    0  0.00000000000E+00  0.00000000000E+00  0.10002715876E+04  0.10002715876E+04  0.51100000000E-03 0.  1.
         -2   -1    0    0    0  501 -0.00000000000E+00 -0.00000000000E+00 -0.82176715975E+01  0.82176719932E+01  0.25500000000E-02 0.  1.
         11    1    1    2    0    0 -0.46014523496E+02 -0.56918195430E+02  0.43802603272E+03  0.44409888841E+03  0.51100000000E-03 0.  1.
         22    1    1    2    0    0  0.14653763146E+02 -0.90337972466E+00  0.13724151340E+02  0.20097293332E+02  0.00000000000E+00 0.  1.
         -2    1    1    2    0  501  0.31360760351E+02  0.57821575154E+02  0.54030373193E+03  0.54429307785E+03  0.25500000000E-02 0.  1.
<mgrwt>
<rscale>  0 0.31698120E+02</rscale>
<asrwt>0</asrwt>
<pdfrwt beam="1">  1       11 0.10000000E+01 0.68437532E+02</pdfrwt>
<pdfrwt beam="2">  1       -2 0.12646005E-02 0.31698120E+02</pdfrwt>
<totfact> 0.86722148E+03</totfact>
</mgrwt>
</event>
<event>
 5    1  0.9955701E-004  0.1807904E+03  0.7818608E-02  0.1422691E+00
         11   -1    0    0    0    0  0.00000000000E+00  0.00000000000E+00  0.10001205124E+04  0.10001205124E+04  0.51100000000E-03 0. -1.
          2   -1    0    0  501    0 -0.00000000000E+00 -0.00000000000E+00 -0.27633983691E+03  0.27633983692E+03  0.25500000000E-02 0. -1.
         11    1    1    2    0    0 -0.18068227681E+03  0.16723098228E+02  0.95679678892E+03  0.97385103710E+03  0.51100000000E-03 0. -1.
         22    1    1    2    0    0  0.16213701789E+02 -0.24811445123E+01 -0.65098250998E+02  0.67132871880E+02  0.00000000000E+00 0. -1.
          2    1    1    2  501    0  0.16446857503E+03 -0.14241953716E+02 -0.16791786244E+03  0.23547644033E+03  0.25500000000E-02 0. -1.
<mgrwt>
<rscale>  0 0.54455529E+02</rscale>
<asrwt>0</asrwt>
<pdfrwt beam="1">  1       11 0.10000000E+01 0.18079040E+03</pdfrwt>
<pdfrwt beam="2">  1        2 0.42518943E-01 0.54455529E+02</pdfrwt>
<totfact> 0.14629851E+02</totfact>
</mgrwt>
</event>
<event>
 5    1  0.9955701E-004  0.9458422E+02  0.7818608E-02  0.1300020E+00
         11   -1    0    0    0    0  0.00000000000E+00  0.00000000000E+00  0.99997784430E+03  0.99997784430E+03  0.51100000000E-03 0. -1.
          2   -1    0    0  501    0 -0.00000000000E+00 -0.00000000000E+00 -0.87544921358E+01  0.87544925071E+01  0.25500000000E-02 0. -1.
         11    1    1    2    0    0 -0.14300997021E+02  0.68998557910E+02  0.42123064231E+03  0.42708380153E+03  0.51100000000E-03 0. -1.
         22    1    1    2    0    0  0.97364387304E+01  0.22066658771E+02  0.14413203697E+03  0.14613616852E+03  0.00000000000E+00 0. -1.
          2    1    1    2  501    0  0.45645582905E+01 -0.91065216682E+02  0.42586067289E+03  0.43551236676E+03  0.25500000000E-02 0. -1.
<mgrwt>
<rscale>  0 0.91179542E+02</rscale>
<asrwt>0</asrwt>
<pdfrwt beam="1">  1       11 0.10000000E+01 0.94584221E+02</pdfrwt>
<pdfrwt beam="2">  1        2 0.13468151E-02 0.91179542E+02</pdfrwt>
<totfact> 0.10171554E+04</totfact>
</mgrwt>
</event>
<event>
 5    1  0.9955701E-004  0.1846365E+03  0.7818608E-02  0.1163390E+00
         11   -1    0    0    0    0  0.00000000000E+00  0.00000000000E+00  0.10000498438E+04  0.10000498438E+04  0.51100000000E-03 0. -1.
          2   -1    0    0  501    0 -0.00000000000E+00 -0.00000000000E+00 -0.55526221800E+02  0.55526221858E+02  0.25500000000E-02 0. -1.
         11    1    1    2    0    0  0.12318901271E+03  0.12780504390E+03  0.80449663157E+03  0.82384737197E+03  0.51100000000E-03 0. -1.
         22    1    1    2    0    0 -0.16980813597E+02  0.14513566882E+01  0.92976696929E+01  0.19413941598E+02  0.00000000000E+00 0. -1.
          2    1    1    2  501    0 -0.10620819911E+03 -0.12925640059E+03  0.13072932077E+03  0.21231475212E+03  0.25500000000E-02 0. -1.
<mgrwt>
<rscale>  0 0.18463648E+03</rscale>
<asrwt>0</asrwt>
<pdfrwt beam="1">  1       11 0.10000000E+01 0.17750961E+03</pdfrwt>
<pdfrwt beam="2">  1        2 0.85429212E-02 0.18463648E+03</pdfrwt>
<totfact> 0.94146195E+02</totfact>
</mgrwt>
</event>
<event>
 5    1  0.9955701E-004  0.1708538E+03  0.7818608E-02  0.1335419E+00
         11   -1    0    0    0    0  0.00000000000E+00  0.00000000000E+00  0.10002340975E+04  0.10002340975E+04  0.51100000000E-03 0.  1.
          2   -1    0    0  501    0 -0.00000000000E+00 -0.00000000000E+00 -0.41086935416E+02  0.41086935495E+02  0.25500000000E-02 0.  1.
         11    1    1    2    0    0  0.13382457118E+03 -0.11215400599E+03  0.57446232729E+03  0.60041194391E+03  0.51100000000E-03 0.  1.
         22    1    1    2    0    0 -0.29767449875E+02 -0.19205424540E+02  0.22860546568E+02  0.42161048294E+02  0.00000000000E+00 0. -1.
          2    1    1    2  501    0 -0.10405712131E+03  0.13135943053E+03  0.36182428825E+03  0.39874804082E+03  0.25500000000E-02 0.  1.
<mgrwt>
<rscale>  0 0.77798074E+02</rscale>
<asrwt>0</asrwt>
<pdfrwt beam="1">  1       11 0.10000000E+01 0.17085378E+03</pdfrwt>
<pdfrwt beam="2">  1        2 0.63225466E-02 0.77798074E+02</pdfrwt>
<totfact> 0.12944953E+03</totfact>
</mgrwt>
</event>
<event>
 5    1  0.9955701E-004  0.8031103E+02  0.7818608E-02  0.1333073E+00
         11   -1    0    0    0    0  0.00000000000E+00  0.00000000000E+00  0.10000501677E+04  0.10000501677E+04  0.51100000000E-03 0.  1.
          2   -1    0    0  501    0 -0.00000000000E+00 -0.00000000000E+00 -0.35824581911E+02  0.35824582002E+02  0.25500000000E-02 0.  1.
         11    1    1    2    0    0  0.11057717920E+02  0.65767962899E+02  0.48634078888E+01  0.66868159882E+02  0.51100000000E-03 0.  1.
         22    1    1    2    0    0  0.24623422047E+00  0.12014561280E+02  0.80757093071E+01  0.14478514939E+02  0.00000000000E+00 0.  1.
          2    1    1    2  501    0 -0.11303952140E+02 -0.77782524178E+02  0.95128646855E+03  0.95452807483E+03  0.25500000000E-02 0.  1.
<mgrwt>
<rscale>  0 0.78599621E+02</rscale>
<asrwt>0</asrwt>
<pdfrwt beam="1">  1       11 0.10000000E+01 0.80311025E+02</pdfrwt>
<pdfrwt beam="2">  1        2 0.55117505E-02 0.78599621E+02</pdfrwt>
<totfact> 0.15417801E+03</totfact>
</mgrwt>
</event>
<event>
 5    1  0.9955701E-004  0.2116581E+02  0.7818608E-02  0.1860514E+00
         11   -1    0    0    0    0  0.00000000000E+00  0.00000000000E+00  0.10004083509E+04  0.10004083509E+04  0.51100000000E-03 0.  1.
          2   -1    0    0  501    0 -0.00000000000E+00 -0.00000000000E+00 -0.19039538280E+01  0.19039555356E+01  0.25500000000E-02 0.  1.
         11    1    1    2    0    0 -0.19017778858E+01 -0.19381924222E+02  0.10122145179E+03  0.10307792222E+03  0.51100000000E-03 0.  1.
         22    1    1    2    0    0 -0.10849517435E+02  0.17431157703E+01  0.35169198213E+02  0.36845935788E+02  0.00000000000E+00 0. -1.
          2    1    1    2  501    0  0.12751295321E+02  0.17638808452E+02  0.86211374706E+03  0.86238844842E+03  0.25500000000E-02 0.  1.
<mgrwt>
<rscale>  0 0.15250691E+02</rscale>
<asrwt>0</asrwt>
<pdfrwt beam="1">  1       11 0.10000000E+01 0.21165808E+02</pdfrwt>
<pdfrwt beam="2">  1        2 0.29303571E-03 0.15250691E+02</pdfrwt>
<totfact> 0.51801338E+04</totfact>
</mgrwt>
</event>
<event>
 5    1  0.9955701E-004  0.4939134E+02  0.7818608E-02  0.1586469E+00
         11   -1    0    0    0    0  0.00000000000E+00  0.00000000000E+00  0.10000997162E+04  0.10000997162E+04  0.51100000000E-03 0. -1.
          2   -1    0    0  501    0 -0.00000000000E+00 -0.00000000000E+00 -0.48774335468E+01  0.48774342133E+01  0.25500000000E-02 0. -1.
         11    1    1    2    0    0  0.35179724668E+02 -0.20496738073E+02  0.13385279483E+03  0.13990818412E+03  0.51100000000E-03 0. -1.
         22    1    1    2    0    0 -0.11211242653E+01 -0.19522848049E+02  0.10036953816E+03  0.10225674895E+03  0.00000000000E+00 0. -1.
          2    1    1    2  501    0 -0.34058600403E+02  0.40019586121E+02  0.76099994964E+03  0.76281221732E+03  0.25500000000E-02 0. -1.
<mgrwt>
<rscale>  0 0.31078092E+02</rscale>
<asrwt>0</asrwt>
<pdfrwt beam="1">  1       11 0.10000000E+01 0.49391340E+02</pdfrwt>
<pdfrwt beam="2">  1        2 0.75044925E-03 0.31078092E+02</pdfrwt>
<totfact> 0.18365200E+04</totfact>
</mgrwt>
</event>
<event>
 5    1  0.9955701E-004  0.2428620E+02  0.7818608E-02  0.1731832E+00
         11   -1    0    0    0    0  0.00000000000E+00  0.00000000000E+00  0.10001058318E+04  0.10001058318E+04  0.51100000000E-03 0. -1.
          2   -1    0    0  501    0 -0.00000000000E+00 -0.00000000000E+00 -0.38311617790E+01  0.38311626276E+01  0.25500000000E-02 0. -1.
         11    1    1    2    0    0 -0.22024910926E+02 -0.18569751294E+02  0.13936364470E+03  0.14231007634E+03  0.51100000000E-03 0. -1.
         22    1    1    2    0    0  0.16087190775E+01  0.21961263503E+02  0.52259242373E+02  0.56709024724E+02  0.00000000000E+00 0. -1.
          2    1    1    2  501    0  0.20416191848E+02 -0.33915122094E+01  0.80465178298E+03  0.80491789339E+03  0.25500000000E-02 0. -1.
<mgrwt>
<rscale>  0 0.20695972E+02</rscale>
<asrwt>0</asrwt>
<pdfrwt beam="1">  1       11 0.10000000E+01 0.24286201E+02</pdfrwt>
<pdfrwt beam="2">  1        2 0.58947193E-03 0.20695972E+02</pdfrwt>
<totfact> 0.22863286E+04</totfact>
</mgrwt>
</event>
<event>
 5    1  0.9955701E-004  0.5607518E+02  0.7818608E-02  0.1586009E+00
         11   -1    0    0    0    0  0.00000000000E+00  0.00000000000E+00  0.10000436796E+04  0.10000436796E+04  0.51100000000E-03 0. -1.
          2   -1    0    0  501    0 -0.00000000000E+00 -0.00000000000E+00 -0.11581757412E+02  0.11581757693E+02  0.25500000000E-02 0. -1.
         11    1    1    2    0    0  0.18663018729E+01  0.54568355347E+02  0.31780523956E+03  0.32246140665E+03  0.51100000000E-03 0. -1.
         22    1    1    2    0    0 -0.17237537003E+02  0.11021590066E+01  0.13012787675E+01  0.17321684758E+02  0.00000000000E+00 0. -1.
          2    1    1    2  501    0  0.15371235130E+02 -0.55670514353E+02  0.66935540381E+03  0.67184234583E+03  0.25500000000E-02 0. -1.
<mgrwt>
<rscale>  0 0.31121878E+02</rscale>
<asrwt>0</asrwt>
<pdfrwt beam="1">  1       11 0.10000000E+01 0.56075177E+02</pdfrwt>
<pdfrwt beam="2">  1        2 0.17818866E-02 0.31121878E+02</pdfrwt>
<totfact> 0.58929316E+03</totfact>
</mgrwt>
</event>
<event>
 5    1  0.9955701E-004  0.3599434E+02  0.7818608E-02  0.1565678E+00
         11   -1    0    0    0    0  0.00000000000E+00  0.00000000000E+00  0.10001786116E+04  0.10001786116E+04  0.51100000000E-03 0. -1.
          2   -1    0    0  501    0 -0.00000000000E+00 -0.00000000000E+00 -0.95161884367E+01  0.95161887783E+01  0.25500000000E-02 0. -1.
         11    1    1    2    0    0 -0.20213174454E+02  0.39177559301E+00  0.17983317210E+02  0.27057819715E+02  0.51100000000E-03 0. -1.
         22    1    1    2    0    0 -0.11434108549E+02 -0.10256943721E+02  0.78712008221E+01  0.17259766371E+02  0.00000000000E+00 0. -1.
          2    1    1    2  501    0  0.31647283003E+02  0.98651681277E+01  0.96480790512E+03  0.96537721428E+03  0.25500000000E-02 0. -1.
<mgrwt>
<rscale>  0 0.33149239E+02</rscale>
<asrwt>0</asrwt>
<pdfrwt beam="1">  1       11 0.10000000E+01 0.35994338E+02</pdfrwt>
<pdfrwt beam="2">  1        2 0.14642905E-02 0.33149239E+02</pdfrwt>
<totfact> 0.77042657E+03</totfact>
</mgrwt>
</event>
<event>
 5    1  0.9955701E-004  0.6173993E+02  0.7818608E-02  0.1418500E+00
         11   -1    0    0    0    0  0.00000000000E+00  0.00000000000E+00  0.10002079801E+04  0.10002079801E+04  0.51100000000E-03 0.  1.
          2   -1    0    0  501    0 -0.00000000000E+00 -0.00000000000E+00 -0.86046511425E+01  0.86046515204E+01  0.25500000000E-02 0.  1.
         11    1    1    2    0    0 -0.50905153677E+02 -0.33022927423E+02  0.36708743910E+03  0.37206859092E+03  0.51100000000E-03 0.  1.
         22    1    1    2    0    0  0.32182256501E+02 -0.37745690078E+02  0.20706535267E+03  0.21292368358E+03  0.00000000000E+00 0.  1.
          2    1    1    2  501    0  0.18722897176E+02  0.70768617501E+02  0.41745053716E+03  0.42382035709E+03  0.25500000000E-02 0.  1.
<mgrwt>
<rscale>  0 0.55339601E+02</rscale>
<asrwt>0</asrwt>
<pdfrwt beam="1">  1       11 0.10000000E+01 0.61739929E+02</pdfrwt>
<pdfrwt beam="2">  1        2 0.13240678E-02 0.55339601E+02</pdfrwt>
<totfact> 0.96300496E+03</totfact>
</mgrwt>
</event>
<event>
 5    1  0.9955701E-004  0.2401136E+03  0.7818608E-02  0.1119717E+00
         11   -1    0    0    0    0  0.00000000000E+00  0.00000000000E+00  0.10000306163E+04  0.10000306163E+04  0.51100000000E-03 0.  1.
          2   -1    0    0  501    0 -0.00000000000E+00 -0.00000000000E+00 -0.58394375542E+02  0.58394375598E+02  0.25500000000E-02 0.  1.
         11    1    1    2    0    0 -0.18176967876E+03  0.13469100757E+03  0.59667162994E+03  0.63812139724E+03  0.51100000000E-03 0.  1.
         22    1    1    2    0    0  0.86293217411E+02 -0.17103292199E+02  0.14216782909E+03  0.16718472898E+03  0.00000000000E+00 0.  1.
          2    1    1    2  501    0  0.95476461353E+02 -0.11758771537E+03  0.20279678171E+03  0.25311886567E+03  0.25500000000E-02 0.  1.
<mgrwt>
<rscale>  0 0.24011358E+03</rscale>
<asrwt>0</asrwt>
<pdfrwt beam="1">  1       11 0.10000000E+01 0.22623413E+03</pdfrwt>
<pdfrwt beam="2">  1        2 0.89840249E-02 0.24011358E+03</pdfrwt>
<totfact> 0.89645288E+02</totfact>
</mgrwt>
</event>
<event>
 5    1  0.9955701E-004  0.2181125E+03  0.7818608E-02  0.1403778E+00
         11   -1    0    0    0    0  0.00000000000E+00  0.00000000000E+00  0.10000597128E+04  0.10000597128E+04  0.51100000000E-03 0. -1.
         -2   -1    0    0    0  501 -0.00000000000E+00 -0.00000000000E+00 -0.13532052862E+03  0.13532052864E+03  0.25500000000E-02 0. -1.
         11    1    1    2    0    0 -0.21653567437E+03 -0.10168614650E+02  0.85405683333E+03  0.88113799916E+03  0.51100000000E-03 0. -1.
         22    1    1    2    0    0 -0.10715432524E+02 -0.11538921036E+02 -0.18279497901E+02  0.24126898606E+02  0.00000000000E+00 0. -1.
         -2    1    1    2    0  501  0.22725110689E+03  0.21707535686E+02  0.28961848718E+02  0.23011534364E+03  0.25500000000E-02 0. -1.
<mgrwt>
<rscale>  0 0.58605561E+02</rscale>
<asrwt>0</asrwt>
<pdfrwt beam="1">  1       11 0.10000000E+01 0.21811249E+03</pdfrwt>
<pdfrwt beam="2">  1       -2 0.20819785E-01 0.58605561E+02</pdfrwt>
<totfact> 0.14958078E+02</totfact>
</mgrwt>
</event>
<event>
 5    1  0.9955701E-004  0.1475119E+03  0.7818608E-02  0.1381243E+00
         11   -1    0    0    0    0  0.00000000000E+00  0.00000000000E+00  0.10000743205E+04  0.10000743205E+04  0.51100000000E-03 0. -1.
          2   -1    0    0  501    0 -0.00000000000E+00 -0.00000000000E+00 -0.74090816397E+02  0.74090816441E+02  0.25500000000E-02 0. -1.
         11    1    1    2    0    0 -0.50619559983E+02  0.13559825992E+03  0.80944660661E+03  0.82228525275E+03  0.51100000000E-03 0. -1.
         22    1    1    2    0    0  0.12276919234E+02  0.25039578881E+02 -0.22628430128E+02  0.35913077096E+02  0.00000000000E+00 0. -1.
          2    1    1    2  501    0  0.38342640750E+02 -0.16063783880E+03  0.13916532766E+03  0.21596680713E+03  0.25500000000E-02 0. -1.
<mgrwt>
<rscale>  0 0.64138230E+02</rscale>
<asrwt>0</asrwt>
<pdfrwt beam="1">  1       11 0.10000000E+01 0.14751187E+03</pdfrwt>
<pdfrwt beam="2">  1        2 0.11399434E-01 0.64138230E+02</pdfrwt>
<totfact> 0.62096757E+02</totfact>
</mgrwt>
</event>
<event>
 5    1  0.9955701E-004  0.1305603E+03  0.7818608E-02  0.1226627E+00
         11   -1    0    0    0    0  0.00000000000E+00  0.00000000000E+00  0.10002106190E+04  0.10002106190E+04  0.51100000000E-03 0. -1.
          2   -1    0    0  501    0 -0.00000000000E+00 -0.00000000000E+00 -0.20814263554E+02  0.20814263710E+02  0.25500000000E-02 0. -1.
         11    1    1    2    0    0  0.12478241685E+03 -0.30491890609E+02  0.33034596429E+03  0.35444162153E+03  0.51100000000E-03 0. -1.
         22    1    1    2    0    0  0.13553213806E+01 -0.17007819781E+02  0.68768580409E+02  0.70853514247E+02  0.00000000000E+00 0.  1.
          2    1    1    2  501    0 -0.12613773823E+03  0.47499710390E+02  0.58028181080E+03  0.59572974699E+03  0.25500000000E-02 0. -1.
<mgrwt>
<rscale>  0 0.13056034E+03</rscale>
<asrwt>0</asrwt>
<pdfrwt beam="1">  1       11 0.10000000E+01 0.17061736E+02</pdfrwt>
<pdfrwt beam="2">  1        2 0.32028688E-02 0.13056034E+03</pdfrwt>
<totfact> 0.32918349E+03</totfact>
</mgrwt>
</event>
<event>
 5    1  0.9955701E-004  0.1083352E+03  0.7818608E-02  0.1549669E+00
         11   -1    0    0    0    0  0.00000000000E+00  0.00000000000E+00  0.10002557363E+04  0.10002557363E+04  0.51100000000E-03 0.  1.
          2   -1    0    0  501    0 -0.00000000000E+00 -0.00000000000E+00 -0.14447319293E+02  0.14447319518E+02  0.25500000000E-02 0.  1.
         11    1    1    2    0    0 -0.10736943879E+03 -0.31754632894E+02  0.52702671194E+03  0.53878911291E+03  0.51100000000E-03 0.  1.
         22    1    1    2    0    0  0.95739634466E+01 -0.58696913483E+01  0.99198915678E+01  0.14983934774E+02  0.00000000000E+00 0. -1.
          2    1    1    2  501    0  0.97795475339E+02  0.37624324242E+02  0.44886181351E+03  0.46093000814E+03  0.25500000000E-02 0.  1.
<mgrwt>
<rscale>  0 0.34879935E+02</rscale>
<asrwt>0</asrwt>
<pdfrwt beam="1">  1       11 0.10000000E+01 0.10833520E+03</pdfrwt>
<pdfrwt beam="2">  1        2 0.22232329E-02 0.34879935E+02</pdfrwt>
<totfact> 0.45048956E+03</totfact>
</mgrwt>
</event>
<event>
 5    1  0.9955701E-004  0.1835428E+03  0.7818608E-02  0.1436781E+00
         11   -1    0    0    0    0  0.00000000000E+00  0.00000000000E+00  0.10000715021E+04  0.10000715021E+04  0.51100000000E-03 0.  1.
          2   -1    0    0  501    0 -0.00000000000E+00 -0.00000000000E+00 -0.53089549624E+02  0.53089549686E+02  0.25500000000E-02 0.  1.
         11    1    1    2    0    0 -0.10027444226E+03 -0.16018717234E+03  0.64157290154E+03  0.66882784178E+03  0.51100000000E-03 0.  1.
         22    1    1    2    0    0  0.94707255641E+01  0.11005142558E+02 -0.14080765730E+02  0.20225621597E+02  0.00000000000E+00 0. -1.
          2    1    1    2  501    0  0.90803716696E+02  0.14918202978E+03  0.31948981668E+03  0.36410758842E+03  0.25500000000E-02 0.  1.
<mgrwt>
<rscale>  0 0.51622651E+02</rscale>
<asrwt>0</asrwt>
<pdfrwt beam="1">  1       11 0.10000000E+01 0.18354276E+03</pdfrwt>
<pdfrwt beam="2">  1        2 0.81682068E-02 0.51622651E+02</pdfrwt>
<totfact> 0.91095761E+02</totfact>
</mgrwt>
</event>
<event>
 5    1  0.9955701E-004  0.1243761E+03  0.7818608E-02  0.1242091E+00
         11   -1    0    0    0    0  0.00000000000E+00  0.00000000000E+00  0.10000536219E+04  0.10000536219E+04  0.51100000000E-03 0.  1.
          2   -1    0    0  501    0 -0.00000000000E+00 -0.00000000000E+00 -0.29619850170E+02  0.29619850280E+02  0.25500000000E-02 0.  1.
         11    1    1    2    0    0 -0.83212046894E+02  0.10843126193E+02  0.10689529404E+03  0.13589857255E+03  0.51100000000E-03 0.  1.
         22    1    1    2    0    0 -0.36791750836E+02  0.12524386030E+01  0.20467894828E+02  0.42120496801E+02  0.00000000000E+00 0.  1.
          2    1    1    2  501    0  0.12000379773E+03 -0.12095564796E+02  0.84307058282E+03  0.85165440279E+03  0.25500000000E-02 0.  1.
<mgrwt>
<rscale>  0 0.12061183E+03</rscale>
<asrwt>0</asrwt>
<pdfrwt beam="1">  1       11 0.10000000E+01 0.12437607E+03</pdfrwt>
<pdfrwt beam="2">  1        2 0.45571443E-02 0.12061183E+03</pdfrwt>
<totfact> 0.20480421E+03</totfact>
</mgrwt>
</event>
<event>
 5    1  0.9955701E-004  0.2136096E+03  0.7818608E-02  0.1380170E+00
         11   -1    0    0    0    0  0.00000000000E+00  0.00000000000E+00  0.10001234804E+04  0.10001234804E+04  0.51100000000E-03 0. -1.
          2   -1    0    0  501    0 -0.00000000000E+00 -0.00000000000E+00 -0.56938389260E+03  0.56938389260E+03  0.25500000000E-02 0. -1.
         11    1    1    2    0    0  0.49840748602E+02 -0.20787015743E+03  0.96527783858E+03  0.98866344537E+03  0.51100000000E-03 0. -1.
         22    1    1    2    0    0 -0.19286288395E+02  0.23347432050E+01 -0.48905640115E+02  0.52622937784E+02  0.00000000000E+00 0.  1.
          2    1    1    2  501    0 -0.30554460207E+02  0.20553541422E+03 -0.48563261068E+03  0.52822098983E+03  0.25500000000E-02 0. -1.
<mgrwt>
<rscale>  0 0.64419048E+02</rscale>
<asrwt>0</asrwt>
<pdfrwt beam="1">  1       11 0.10000000E+01 0.21360961E+03</pdfrwt>
<pdfrwt beam="2">  1        2 0.87608336E-01 0.64419048E+02</pdfrwt>
<totfact> 0.68836085E+01</totfact>
</mgrwt>
</event>
<event>
 5    1  0.9955701E-004  0.2509392E+03  0.7818608E-02  0.1355305E+00
         11   -1    0    0    0    0  0.00000000000E+00  0.00000000000E+00  0.10006011672E+04  0.10006011672E+04  0.51100000000E-03 0. -1.
          2   -1    0    0  501    0 -0.00000000000E+00 -0.00000000000E+00 -0.78033677649E+02  0.78033677690E+02  0.25500000000E-02 0.  1.
         11    1    1    2    0    0  0.12110116414E+03  0.23301303727E+03  0.29964300857E+03  0.39843004415E+03  0.51100000000E-03 0. -1.
         22    1    1    2    0    0  0.12015043953E+01 -0.20295560283E+02  0.17063744443E+02  0.26542885194E+02  0.00000000000E+00 0.  1.
          2    1    1    2  501    0 -0.12230266853E+03 -0.21271747699E+03  0.60586073650E+03  0.65366191551E+03  0.25500000000E-02 0.  1.
<mgrwt>
<rscale>  0 0.71427343E+02</rscale>
<asrwt>0</asrwt>
<pdfrwt beam="1">  1       11 0.10000000E+01 0.25093917E+03</pdfrwt>
<pdfrwt beam="2">  1        2 0.12012398E-01 0.71427343E+02</pdfrwt>
<totfact> 0.58768917E+02</totfact>
</mgrwt>
</event>
<event>
 5    1  0.9955701E-004  0.2967018E+03  0.7818608E-02  0.1267560E+00
         11   -1    0    0    0    0  0.00000000000E+00  0.00000000000E+00  0.10002529539E+04  0.10002529539E+04  0.51100000000E-03 0. -1.
          2   -1    0    0  501    0 -0.00000000000E+00 -0.00000000000E+00 -0.16110015363E+03  0.16110015365E+03  0.25500000000E-02 0. -1.
         11    1    1    2    0    0  0.21403324964E+03  0.24228872137E+03  0.20816076186E+03  0.38450612379E+03  0.51100000000E-03 0. -1.
         22    1    1    2    0    0 -0.13887202254E+02 -0.35469861184E+02 -0.34747808161E+02  0.51559437651E+02  0.00000000000E+00 0.  1.
          2    1    1    2  501    0 -0.20014604738E+03 -0.20681886019E+03  0.66573984657E+03  0.72528754610E+03  0.25500000000E-02 0. -1.
<mgrwt>
<rscale>  0 0.10631003E+03</rscale>
<asrwt>0</asrwt>
<pdfrwt beam="1">  1       11 0.10000000E+01 0.29670178E+03</pdfrwt>
<pdfrwt beam="2">  1        2 0.24790908E-01 0.10631003E+03</pdfrwt>
<totfact> 0.26259869E+02</totfact>
</mgrwt>
</event>
<event>
 5    1  0.9955701E-004  0.1257998E+03  0.7818608E-02  0.1233825E+00
         11   -1    0    0    0    0  0.00000000000E+00  0.00000000000E+00  0.10002431315E+04  0.10002431315E+04  0.51100000000E-03 0. -1.
          2   -1    0    0  501    0 -0.00000000000E+00 -0.00000000000E+00 -0.15860158631E+02  0.15860158836E+02  0.25500000000E-02 0. -1.
         11    1    1    2    0    0  0.10779702135E+03 -0.61540464777E+02  0.55249521867E+03  0.56626706886E+03  0.51100000000E-03 0. -1.
         22    1    1    2    0    0 -0.13579182164E+02  0.37922727350E+01  0.32164517628E+02  0.35118822801E+02  0.00000000000E+00 0. -1.
          2    1    1    2  501    0 -0.94217839186E+02  0.57748192042E+02  0.39972323655E+03  0.41471739866E+03  0.25500000000E-02 0. -1.
<mgrwt>
<rscale>  0 0.12579982E+03</rscale>
<asrwt>0</asrwt>
<pdfrwt beam="1">  1       11 0.10000000E+01 0.12412666E+03</pdfrwt>
<pdfrwt beam="2">  1        2 0.24406176E-02 0.12579982E+03</pdfrwt>
<totfact> 0.47268512E+03</totfact>
</mgrwt>
</event>
<event>
 5    1  0.9955701E-004  0.9815979E+02  0.7818608E-02  0.1284214E+00
         11   -1    0    0    0    0  0.00000000000E+00  0.00000000000E+00  0.10003898601E+04  0.10003898601E+04  0.51100000000E-03 0.  1.
          2   -1    0    0  501    0 -0.00000000000E+00 -0.00000000000E+00 -0.93705243794E+01  0.93705247264E+01  0.25500000000E-02 0.  1.
         11    1    1    2    0    0  0.74388337170E+02 -0.59827140288E+02  0.48147568639E+03  0.49084798869E+03  0.51100000000E-03 0.  1.
         22    1    1    2    0    0 -0.11736012256E+02  0.44359700134E+01  0.38201753818E+02  0.40209275154E+02  0.00000000000E+00 0. -1.
          2    1    1    2  501    0 -0.62652324913E+02  0.55391170274E+02  0.47134189555E+03  0.47870312102E+03  0.25500000000E-02 0.  1.
<mgrwt>
<rscale>  0 0.98159790E+02</rscale>
<asrwt>0</asrwt>
<pdfrwt beam="1">  1       11 0.10000000E+01 0.95461618E+02</pdfrwt>
<pdfrwt beam="2">  1        2 0.14421812E-02 0.98159790E+02</pdfrwt>
<totfact> 0.93639901E+03</totfact>
</mgrwt>
</event>
<event>
 5    1  0.9955701E-004  0.8646830E+02  0.7818608E-02  0.1461367E+00
         11   -1    0    0    0    0  0.00000000000E+00  0.00000000000E+00  0.10002946775E+04  0.10002946775E+04  0.51100000000E-03 0. -1.
         -2   -1    0    0    0  501 -0.00000000000E+00 -0.00000000000E+00 -0.13499987629E+02  0.13499987869E+02  0.25500000000E-02 0.  1.
         11    1    1    2    0    0  0.70588139322E+02 -0.22057128136E+02  0.35175514485E+03  0.35944524513E+03  0.51100000000E-03 0. -1.
         22    1    1    2    0    0  0.23812974999E+02 -0.96845747438E+01  0.23746700175E+02  0.34996493188E+02  0.00000000000E+00 0.  1.
         -2    1    1    2    0  501 -0.94401114321E+02  0.31741702879E+02  0.61129284489E+03  0.61935292710E+03  0.25500000000E-02 0.  1.
<mgrwt>
<rscale>  0 0.47146992E+02</rscale>
<asrwt>0</asrwt>
<pdfrwt beam="1">  1       11 0.10000000E+01 0.86468304E+02</pdfrwt>
<pdfrwt beam="2">  1       -2 0.20775332E-02 0.47146992E+02</pdfrwt>
<totfact> 0.46641543E+03</totfact>
</mgrwt>
</event>
<event>
 5    1  0.9955701E-004  0.8483903E+02  0.7818608E-02  0.1471315E+00
         11   -1    0    0    0    0  0.00000000000E+00  0.00000000000E+00  0.10002326618E+04  0.10002326618E+04  0.51100000000E-03 0.  1.
         -2   -1    0    0    0  501 -0.00000000000E+00 -0.00000000000E+00 -0.41813154179E+02  0.41813154256E+02  0.25500000000E-02 0.  1.
         11    1    1    2    0    0 -0.72351901486E+02  0.49661060201E+02  0.37156529840E+03  0.38178762359E+03  0.51100000000E-03 0.  1.
         22    1    1    2    0    0 -0.77952045670E+01 -0.23110448835E+02 -0.29426941657E+02  0.38220452049E+02  0.00000000000E+00 0.  1.
         -2    1    1    2    0  501  0.80147106053E+02 -0.26550611366E+02  0.61628115089E+03  0.62203774043E+03  0.25500000000E-02 0.  1.
<mgrwt>
<rscale>  0 0.45488443E+02</rscale>
<asrwt>0</asrwt>
<pdfrwt beam="1">  1       11 0.10000000E+01 0.84839028E+02</pdfrwt>
<pdfrwt beam="2">  1       -2 0.64342894E-02 0.45488443E+02</pdfrwt>
<totfact> 0.91382426E+02</totfact>
</mgrwt>
</event>
<event>
 5    1  0.9955701E-004  0.2373789E+03  0.7818608E-02  0.1438509E+00
         11   -1    0    0    0    0  0.00000000000E+00  0.00000000000E+00  0.10002029589E+04  0.10002029589E+04  0.51100000000E-03 0. -1.
         -2   -1    0    0    0  501 -0.00000000000E+00 -0.00000000000E+00 -0.10759038774E+03  0.10759038777E+03  0.25500000000E-02 0.  1.
         11    1    1    2    0    0 -0.12484001563E+03  0.19957187900E+03  0.77434949755E+03  0.80933992163E+03  0.51100000000E-03 0. -1.
         22    1    1    2    0    0 -0.90454612151E+01  0.64021306909E+01 -0.15251409729E+02  0.18852404215E+02  0.00000000000E+00 0. -1.
         -2    1    1    2    0  501  0.13388547685E+03 -0.20597400969E+03  0.13351448334E+03  0.27960102083E+03  0.25500000000E-02 0.  1.
<mgrwt>
<rscale>  0 0.51289378E+02</rscale>
<asrwt>0</asrwt>
<pdfrwt beam="1">  1       11 0.10000000E+01 0.23737892E+03</pdfrwt>
<pdfrwt beam="2">  1       -2 0.16555726E-01 0.51289378E+02</pdfrwt>
<totfact> 0.21623960E+02</totfact>
</mgrwt>
</event>
<event>
 5    1  0.9955701E-004  0.1420630E+03  0.7818608E-02  0.1431684E+00
         11   -1    0    0    0    0  0.00000000000E+00  0.00000000000E+00  0.10003747445E+04  0.10003747445E+04  0.51100000000E-03 0.  1.
         -2   -1    0    0    0  501 -0.00000000000E+00 -0.00000000000E+00 -0.43444022491E+02  0.43444022566E+02  0.25500000000E-02 0. -1.
         11    1    1    2    0    0 -0.13317087900E+03 -0.59883607194E+02  0.82468881990E+03  0.83751547991E+03  0.51100000000E-03 0.  1.
         22    1    1    2    0    0  0.18742667780E+02  0.53559031337E+01 -0.43352480166E+01  0.19969167966E+02  0.00000000000E+00 0.  1.
         -2    1    1    2    0  501  0.11442821122E+03  0.54527704060E+02  0.13657715014E+03  0.18633411920E+03  0.25500000000E-02 0. -1.
<mgrwt>
<rscale>  0 0.52623391E+02</rscale>
<asrwt>0</asrwt>
<pdfrwt beam="1">  1       11 0.10000000E+01 0.14206304E+03</pdfrwt>
<pdfrwt beam="2">  1       -2 0.66862003E-02 0.52623391E+02</pdfrwt>
<totfact> 0.87630027E+02</totfact>
</mgrwt>
</event>
<event>
 5    1  0.9955701E-004  0.6218267E+03  0.7818608E-02  0.9861129E-01
         11   -1    0    0    0    0  0.00000000000E+00  0.00000000000E+00  0.10003659498E+04  0.10003659498E+04  0.51100000000E-03 0. -1.
          2   -1    0    0  501    0 -0.00000000000E+00 -0.00000000000E+00 -0.86975684037E+03  0.86975684038E+03  0.25500000000E-02 0. -1.
         11    1    1    2    0    0 -0.54089604287E+03  0.25962960509E+03  0.77137226935E+03  0.97723653173E+03  0.51100000000E-03 0. -1.
         22    1    1    2    0    0  0.65655495022E+02 -0.96156561220E+02 -0.89030436301E+02  0.14657130306E+03  0.00000000000E+00 0. -1.
          2    1    1    2  501    0  0.47524054785E+03 -0.16347304387E+03 -0.55173272359E+03  0.74631495542E+03  0.25500000000E-02 0. -1.
<mgrwt>
<rscale>  0 0.62182670E+03</rscale>
<asrwt>0</asrwt>
<pdfrwt beam="1">  1       11 0.10000000E+01 0.59998005E+03</pdfrwt>
<pdfrwt beam="2">  1        2 0.13385771E+00 0.62182670E+03</pdfrwt>
<totfact> 0.38446756E+01</totfact>
</mgrwt>
</event>
<event>
 5    1  0.9955701E-004  0.1230157E+03  0.7818608E-02  0.1480972E+00
         11   -1    0    0    0    0  0.00000000000E+00  0.00000000000E+00  0.10001593684E+04  0.10001593684E+04  0.51100000000E-03 0. -1.
          2   -1    0    0  501    0 -0.00000000000E+00 -0.00000000000E+00 -0.20811188942E+02  0.20811189099E+02  0.25500000000E-02 0. -1.
         11    1    1    2    0    0 -0.64649438348E+02 -0.10822953640E+03  0.62020171480E+03  0.63288494173E+03  0.51100000000E-03 0. -1.
         22    1    1    2    0    0 -0.74459350206E+01  0.13828529413E+02  0.84828087061E+01  0.17850160156E+02  0.00000000000E+00 0. -1.
          2    1    1    2  501    0  0.72095373369E+02  0.94401006985E+02  0.35066365595E+03  0.37023545562E+03  0.25500000000E-02 0. -1.
<mgrwt>
<rscale>  0 0.43955123E+02</rscale>
<asrwt>0</asrwt>
<pdfrwt beam="1">  1       11 0.10000000E+01 0.12301574E+03</pdfrwt>
<pdfrwt beam="2">  1        2 0.32022315E-02 0.43955123E+02</pdfrwt>
<totfact> 0.29044554E+03</totfact>
</mgrwt>
</event>
<event>
 5    1  0.9955701E-004  0.2029456E+03  0.7818608E-02  0.1355053E+00
         11   -1    0    0    0    0  0.00000000000E+00  0.00000000000E+00  0.10002177972E+04  0.10002177972E+04  0.51100000000E-03 0.  1.
          2   -1    0    0  501    0 -0.00000000000E+00 -0.00000000000E+00 -0.38644778527E+03  0.38644778528E+03  0.25500000000E-02 0.  1.
         11    1    1    2    0    0  0.15331893322E+03  0.13182175007E+03  0.94726272911E+03  0.96860226463E+03  0.51100000000E-03 0.  1.
         22    1    1    2    0    0  0.12543723673E+02  0.21848046658E+02 -0.44396394363E+02  0.51046272917E+02  0.00000000000E+00 0.  1.
          2    1    1    2  501    0 -0.16586265690E+03 -0.15366979672E+03 -0.28909632284E+03  0.36701704492E+03  0.25500000000E-02 0.  1.
<mgrwt>
<rscale>  0 0.71503754E+02</rscale>
<asrwt>0</asrwt>
<pdfrwt beam="1">  1       11 0.10000000E+01 0.20294556E+03</pdfrwt>
<pdfrwt beam="2">  1        2 0.59466453E-01 0.71503754E+02</pdfrwt>
<totfact> 0.10368922E+02</totfact>
</mgrwt>
</event>
<event>
 5    1  0.9955701E-004  0.1809314E+03  0.7818608E-02  0.1309659E+00
         11   -1    0    0    0    0  0.00000000000E+00  0.00000000000E+00  0.10001941036E+04  0.10001941036E+04  0.51100000000E-03 0.  1.
          2   -1    0    0  501    0 -0.00000000000E+00 -0.00000000000E+00 -0.48442537874E+03  0.48442537875E+03  0.25500000000E-02 0. -1.
         11    1    1    2    0    0 -0.84617719567E+02 -0.15970170320E+03  0.95472744969E+03  0.97168374262E+03  0.51100000000E-03 0.  1.
         22    1    1    2    0    0  0.31060256046E+02 -0.28377332919E+02 -0.12679028111E+02  0.43940531210E+02  0.00000000000E+00 0.  1.
          2    1    1    2  501    0  0.53557463521E+02  0.18807903612E+03 -0.42627969675E+03  0.46899520849E+03  0.25500000000E-02 0. -1.
<mgrwt>
<rscale>  0 0.87247113E+02</rscale>
<asrwt>0</asrwt>
<pdfrwt beam="1">  1       11 0.10000000E+01 0.18093141E+03</pdfrwt>
<pdfrwt beam="2">  1        2 0.74541445E-01 0.87247113E+02</pdfrwt>
<totfact> 0.81579072E+01</totfact>
</mgrwt>
</event>
<event>
 5    1  0.9955701E-004  0.1368930E+03  0.7818608E-02  0.1309006E+00
         11   -1    0    0    0    0  0.00000000000E+00  0.00000000000E+00  0.10001689160E+04  0.10001689160E+04  0.51100000000E-03 0.  1.
         -2   -1    0    0    0  501 -0.00000000000E+00 -0.00000000000E+00 -0.64611127319E+02  0.64611127369E+02  0.25500000000E-02 0. -1.
         11    1    1    2    0    0 -0.80707528527E+02 -0.13253697788E+03  0.78351164758E+03  0.79873040355E+03  0.51100000000E-03 0.  1.
         22    1    1    2    0    0  0.43241187171E+02  0.35483857106E+02 -0.24550967197E+02  0.61087268505E+02  0.00000000000E+00 0.  1.
         -2    1    1    2    0  501  0.37466341355E+02  0.97053120772E+02  0.17659710827E+03  0.20496237128E+03  0.25500000000E-02 0. -1.
<mgrwt>
<rscale>  0 0.87506171E+02</rscale>
<asrwt>0</asrwt>
<pdfrwt beam="1">  1       11 0.10000000E+01 0.13689299E+03</pdfrwt>
<pdfrwt beam="2">  1       -2 0.99418522E-02 0.87506171E+02</pdfrwt>
<totfact> 0.50064065E+02</totfact>
</mgrwt>
</event>
<event>
 5    1  0.9955701E-004  0.3556925E+02  0.7818608E-02  0.1756598E+00
         11   -1    0    0    0    0  0.00000000000E+00  0.00000000000E+00  0.10000342666E+04  0.10000342666E+04  0.51100000000E-03 0.  1.
          2   -1    0    0  501    0 -0.00000000000E+00 -0.00000000000E+00 -0.36295406630E+01  0.36295415588E+01  0.25500000000E-02 0.  1.
         11    1    1    2    0    0 -0.17485001741E+02 -0.38873778141E+02  0.16165117123E+03  0.16717654462E+03  0.51100000000E-03 0.  1.
         22    1    1    2    0    0 -0.22685558330E+01  0.10385189955E+02  0.58365755724E+02  0.59325879321E+02  0.00000000000E+00 0.  1.
          2    1    1    2  501    0  0.19753557574E+02  0.28488588186E+02  0.77638779897E+03  0.77716138420E+03  0.25500000000E-02 0.  1.
<mgrwt>
<rscale>  0 0.19444887E+02</rscale>
<asrwt>0</asrwt>
<pdfrwt beam="1">  1       11 0.10000000E+01 0.35569247E+02</pdfrwt>
<pdfrwt beam="2">  1        2 0.55841006E-03 0.19444887E+02</pdfrwt>
<totfact> 0.24131122E+04</totfact>
</mgrwt>
</event>
<event>
 5    1  0.9955701E-004  0.1852293E+03  0.7818608E-02  0.1327780E+00
         11   -1    0    0    0    0  0.00000000000E+00  0.00000000000E+00  0.99980001966E+03  0.99980001966E+03  0.51100000000E-03 0. -1.
          2   -1    0    0  501    0 -0.00000000000E+00 -0.00000000000E+00 -0.38650061769E+03  0.38650061770E+03  0.25500000000E-02 0. -1.
         11    1    1    2    0    0  0.16634894383E+03 -0.82306626077E+02  0.95913838355E+03  0.97693028953E+03  0.51100000000E-03 0. -1.
         22    1    1    2    0    0  0.41414940520E+01  0.34694927872E+02 -0.10370009514E+03  0.10942851422E+03  0.00000000000E+00 0.  1.
          2    1    1    2  501    0 -0.17049043788E+03  0.47611698205E+02 -0.24213888644E+03  0.29994183361E+03  0.25500000000E-02 0. -1.
<mgrwt>
<rscale>  0 0.80449606E+02</rscale>
<asrwt>0</asrwt>
<pdfrwt beam="1">  1       11 0.10000000E+01 0.18522925E+03</pdfrwt>
<pdfrwt beam="2">  1        2 0.59449741E-01 0.80449606E+02</pdfrwt>
<totfact> 0.10369579E+02</totfact>
</mgrwt>
</event>
<event>
 5    1  0.9955701E-004  0.1684730E+03  0.7818608E-02  0.1447949E+00
         11   -1    0    0    0    0  0.00000000000E+00  0.00000000000E+00  0.10001273626E+04  0.10001273626E+04  0.51100000000E-03 0. -1.
         -2   -1    0    0    0  501 -0.00000000000E+00 -0.00000000000E+00 -0.37845001536E+02  0.37845001622E+02  0.25500000000E-02 0. -1.
         11    1    1    2    0    0 -0.48215311268E+02  0.15248999691E+03  0.33860417614E+03  0.37447390229E+03  0.51100000000E-03 0. -1.
         22    1    1    2    0    0 -0.11996593180E+01  0.14506025862E+02 -0.13908871465E+01  0.14621851314E+02  0.00000000000E+00 0.  1.
         -2    1    1    2    0  501  0.49414970586E+02 -0.16699602277E+03  0.62506907208E+03  0.64887661062E+03  0.25500000000E-02 0. -1.
<mgrwt>
<rscale>  0 0.49519847E+02</rscale>
<asrwt>0</asrwt>
<pdfrwt beam="1">  1       11 0.10000000E+01 0.16847298E+03</pdfrwt>
<pdfrwt beam="2">  1       -2 0.58230493E-02 0.49519847E+02</pdfrwt>
<totfact> 0.10682433E+03</totfact>
</mgrwt>
</event>
<event>
 5    1  0.9955701E-004  0.1153262E+03  0.7818608E-02  0.1450408E+00
         11   -1    0    0    0    0  0.00000000000E+00  0.00000000000E+00  0.10000497248E+04  0.10000497248E+04  0.51100000000E-03 0.  1.
          2   -1    0    0  501    0 -0.00000000000E+00 -0.00000000000E+00 -0.47249877932E+02  0.47249878001E+02  0.25500000000E-02 0.  1.
         11    1    1    2    0    0  0.12098800379E+03 -0.19198515289E+02  0.72740951619E+03  0.73765254985E+03  0.51100000000E-03 0.  1.
         22    1    1    2    0    0 -0.20709236123E+02  0.26734933442E+01 -0.28983464170E+02  0.35721999143E+02  0.00000000000E+00 0. -1.
          2    1    1    2  501    0 -0.10027876767E+03  0.16525021944E+02  0.25437379486E+03  0.27392505382E+03  0.25500000000E-02 0.  1.
<mgrwt>
<rscale>  0 0.49072775E+02</rscale>
<asrwt>0</asrwt>
<pdfrwt beam="1">  1       11 0.10000000E+01 0.11532621E+03</pdfrwt>
<pdfrwt beam="2">  1        2 0.72695732E-02 0.49072775E+02</pdfrwt>
<totfact> 0.10454128E+03</totfact>
</mgrwt>
</event>
<event>
 5    1  0.9955701E-004  0.7350025E+02  0.7818608E-02  0.1348579E+00
         11   -1    0    0    0    0  0.00000000000E+00  0.00000000000E+00  0.10001455190E+04  0.10001455190E+04  0.51100000000E-03 0.  1.
         -2   -1    0    0    0  501 -0.00000000000E+00 -0.00000000000E+00 -0.17777986367E+02  0.17777986549E+02  0.25500000000E-02 0.  1.
         11    1    1    2    0    0  0.39692581357E+02  0.36507427249E+02  0.29810648207E+03  0.30294515660E+03  0.51100000000E-03 0.  1.
         22    1    1    2    0    0 -0.16450679929E+01  0.67484542392E+02  0.10222540881E+03  0.12250266902E+03  0.00000000000E+00 0.  1.
         -2    1    1    2    0  501 -0.38047513364E+02 -0.10399196964E+03  0.58203564176E+03  0.59247567993E+03  0.25500000000E-02 0.  1.
<mgrwt>
<rscale>  0 0.73500247E+02</rscale>
<asrwt>0</asrwt>
<pdfrwt beam="1">  1       11 0.10000000E+01 0.53928594E+02</pdfrwt>
<pdfrwt beam="2">  1       -2 0.27354728E-02 0.73500247E+02</pdfrwt>
<totfact> 0.33570791E+03</totfact>
</mgrwt>
</event>
<event>
 5    1  0.9955701E-004  0.9296760E+02  0.7818608E-02  0.1532821E+00
         11   -1    0    0    0    0  0.00000000000E+00  0.00000000000E+00  0.10000771626E+04  0.10000771626E+04  0.51100000000E-03 0. -1.
          2   -1    0    0  501    0 -0.00000000000E+00 -0.00000000000E+00 -0.11061101459E+02  0.11061101753E+02  0.25500000000E-02 0. -1.
         11    1    1    2    0    0  0.81355087967E+02 -0.37323664158E+02  0.52973705221E+03  0.53724580103E+03  0.51100000000E-03 0. -1.
         22    1    1    2    0    0  0.12536834802E+02  0.74836764110E+01  0.28871212252E+02  0.32353122514E+02  0.00000000000E+00 0. -1.
          2    1    1    2  501    0 -0.93891922770E+02  0.29839987747E+02  0.43040779668E+03  0.44153934080E+03  0.25500000000E-02 0. -1.
<mgrwt>
<rscale>  0 0.36842680E+02</rscale>
<asrwt>0</asrwt>
<pdfrwt beam="1">  1       11 0.10000000E+01 0.92967596E+02</pdfrwt>
<pdfrwt beam="2">  1        2 0.17018392E-02 0.36842680E+02</pdfrwt>
<totfact> 0.64446023E+03</totfact>
</mgrwt>
</event>
<event>
 5    1  0.9955701E-004  0.3172784E+02  0.7818608E-02  0.1697677E+00
         11   -1    0    0    0    0  0.00000000000E+00  0.00000000000E+00  0.10000473679E+04  0.10000473679E+04  0.51100000000E-03 0.  1.
          2   -1    0    0  501    0 -0.00000000000E+00 -0.00000000000E+00 -0.12275823368E+02  0.12275823633E+02  0.25500000000E-02 0.  1.
         11    1    1    2    0    0  0.24704126912E+02  0.16044132143E+02  0.16720787220E+03  0.16978274526E+03  0.51100000000E-03 0.  1.
         22    1    1    2    0    0  0.83240990993E+01 -0.13819106446E+02 -0.45508784762E+01  0.16762124677E+02  0.00000000000E+00 0.  1.
          2    1    1    2  501    0 -0.33028226012E+02 -0.22250256967E+01  0.82511455076E+03  0.82577832155E+03  0.25500000000E-02 0.  1.
<mgrwt>
<rscale>  0 0.22624100E+02</rscale>
<asrwt>0</asrwt>
<pdfrwt beam="1">  1       11 0.10000000E+01 0.31727841E+02</pdfrwt>
<pdfrwt beam="2">  1        2 0.18886776E-02 0.22624100E+02</pdfrwt>
<totfact> 0.51556823E+03</totfact>
</mgrwt>
</event>
<event>
 5    1  0.9955701E-004  0.1183626E+03  0.7818608E-02  0.1273025E+00
         11   -1    0    0    0    0  0.00000000000E+00  0.00000000000E+00  0.10002629871E+04  0.10002629871E+04  0.51100000000E-03 0.  1.
          2   -1    0    0  501    0 -0.00000000000E+00 -0.00000000000E+00 -0.13916656562E+02  0.13916656796E+02  0.25500000000E-02 0.  1.
         11    1    1    2    0    0  0.25841536406E+02 -0.39782249983E+02  0.12157116848E+03  0.13049889433E+03  0.51100000000E-03 0.  1.
         22    1    1    2    0    0  0.70189830408E+02  0.10743633822E+01  0.22861043956E+03  0.23914535251E+03  0.00000000000E+00 0.  1.
          2    1    1    2  501    0 -0.96031366814E+02  0.38707886600E+02  0.63616472254E+03  0.64453539710E+03  0.25500000000E-02 0.  1.
<mgrwt>
<rscale>  0 0.10353900E+03</rscale>
<asrwt>0</asrwt>
<pdfrwt beam="1">  1       11 0.10000000E+01 0.11836262E+03</pdfrwt>
<pdfrwt beam="2">  1        2 0.21415871E-02 0.10353900E+03</pdfrwt>
<totfact> 0.55131132E+03</totfact>
</mgrwt>
</event>
<event>
 5    1  0.9955701E-004  0.2192781E+03  0.7818608E-02  0.1134422E+00
         11   -1    0    0    0    0  0.00000000000E+00  0.00000000000E+00  0.10002129905E+04  0.10002129905E+04  0.51100000000E-03 0. -1.
          2   -1    0    0  501    0 -0.00000000000E+00 -0.00000000000E+00 -0.49819037809E+02  0.49819037875E+02  0.25500000000E-02 0. -1.
         11    1    1    2    0    0  0.41163607988E+02  0.21200095184E+03  0.58867748217E+03  0.62704068785E+03  0.51100000000E-03 0. -1.
         22    1    1    2    0    0 -0.98170625033E+01 -0.82941112366E+01  0.16287041062E+02  0.20746920349E+02  0.00000000000E+00 0.  1.
          2    1    1    2  501    0 -0.31346545484E+02 -0.20370684060E+03  0.34542942945E+03  0.40224442017E+03  0.25500000000E-02 0. -1.
<mgrwt>
<rscale>  0 0.21927806E+03</rscale>
<asrwt>0</asrwt>
<pdfrwt beam="1">  1       11 0.10000000E+01 0.21596029E+03</pdfrwt>
<pdfrwt beam="2">  1        2 0.76660996E-02 0.21927806E+03</pdfrwt>
<totfact> 0.10908292E+03</totfact>
</mgrwt>
</event>
<event>
 5    1  0.9955701E-004  0.3272639E+03  0.7818608E-02  0.1072968E+00
         11   -1    0    0    0    0  0.00000000000E+00  0.00000000000E+00  0.10000631245E+04  0.10000631245E+04  0.51100000000E-03 0.  1.
          2   -1    0    0  501    0 -0.00000000000E+00 -0.00000000000E+00 -0.56153277044E+03  0.56153277045E+03  0.25500000000E-02 0.  1.
         11    1    1    2    0    0  0.35991837787E+03 -0.94739708389E+02 -0.14700710968E+03  0.40015989476E+03  0.51100000000E-03 0.  1.
         22    1    1    2    0    0 -0.23671635268E+03 -0.22200673211E+03 -0.14519679789E+03  0.35553302357E+03  0.00000000000E+00 0.  1.
          2    1    1    2  501    0 -0.12320202519E+03  0.31674644050E+03  0.73073426164E+03  0.80590297662E+03  0.25500000000E-02 0.  1.
<mgrwt>
<rscale>  0 0.32589548E+03</rscale>
<asrwt>0</asrwt>
<pdfrwt beam="1">  1       11 0.10000000E+01 0.32726391E+03</pdfrwt>
<pdfrwt beam="2">  1        2 0.86395108E-01 0.32589548E+03</pdfrwt>
<totfact> 0.67684394E+01</totfact>
</mgrwt>
</event>
<event>
 5    1  0.9955701E-004  0.4775553E+03  0.7818608E-02  0.1333884E+00
         11   -1    0    0    0    0  0.00000000000E+00  0.00000000000E+00  0.10002123013E+04  0.10002123013E+04  0.51100000000E-03 0.  1.
          2   -1    0    0  501    0 -0.00000000000E+00 -0.00000000000E+00 -0.28837538573E+03  0.28837538574E+03  0.25500000000E-02 0.  1.
         11    1    1    2    0    0  0.30899894245E+03  0.36445453255E+03  0.18994132935E+03  0.51418397615E+03  0.51100000000E-03 0.  1.
         22    1    1    2    0    0 -0.10121837783E+02  0.79085612403E+01 -0.37090947299E+02  0.39252201372E+02  0.00000000000E+00 0. -1.
          2    1    1    2  501    0 -0.29887710466E+03 -0.37236309379E+03  0.55898653357E+03  0.73515150957E+03  0.25500000000E-02 0.  1.
<mgrwt>
<rscale>  0 0.78321444E+02</rscale>
<asrwt>0</asrwt>
<pdfrwt beam="1">  1       11 0.10000000E+01 0.47755527E+03</pdfrwt>
<pdfrwt beam="2">  1        2 0.44374862E-01 0.78321444E+02</pdfrwt>
<totfact> 0.14059129E+02</totfact>
</mgrwt>
</event>
<event>
 5    1  0.9955701E-004  0.1991149E+03  0.7818608E-02  0.1288614E+00
         11   -1    0    0    0    0  0.00000000000E+00  0.00000000000E+00  0.10000369484E+04  0.10000369484E+04  0.51100000000E-03 0.  1.
          2   -1    0    0  501    0 -0.00000000000E+00 -0.00000000000E+00 -0.13434063924E+03  0.13434063926E+03  0.25500000000E-02 0.  1.
         11    1    1    2    0    0 -0.99457119424E+02 -0.16869448265E+03  0.81410539503E+03  0.83732738000E+03  0.51100000000E-03 0.  1.
         22    1    1    2    0    0 -0.46411096790E+02 -0.11882278256E+01 -0.33778088624E+02  0.57413944837E+02  0.00000000000E+00 0.  1.
          2    1    1    2  501    0  0.14586821621E+03  0.16988271047E+03  0.85369002734E+02  0.23963626281E+03  0.25500000000E-02 0.  1.
<mgrwt>
<rscale>  0 0.96146606E+02</rscale>
<asrwt>0</asrwt>
<pdfrwt beam="1">  1       11 0.10000000E+01 0.19911492E+03</pdfrwt>
<pdfrwt beam="2">  1        2 0.20668554E-01 0.96146606E+02</pdfrwt>
<totfact> 0.32001425E+02</totfact>
</mgrwt>
</event>
<event>
 5    1  0.9955701E-004  0.1577900E+03  0.7818608E-02  0.1349197E+00
         11   -1    0    0    0    0  0.00000000000E+00  0.00000000000E+00  0.10001749630E+04  0.10001749630E+04  0.51100000000E-03 0.  1.
          2   -1    0    0  501    0 -0.00000000000E+00 -0.00000000000E+00 -0.82228935057E+02  0.82228935097E+02  0.25500000000E-02 0.  1.
         11    1    1    2    0    0 -0.29209883847E+02 -0.15724614621E+03  0.82432930229E+03  0.83970135550E+03  0.51100000000E-03 0.  1.
         22    1    1    2    0    0  0.33414308662E+02  0.65852383917E+01 -0.31823741384E+02  0.46611499694E+02  0.00000000000E+00 0.  1.
          2    1    1    2  501    0 -0.42044248151E+01  0.15066090782E+03  0.12544046706E+03  0.19609104293E+03  0.25500000000E-02 0.  1.
<mgrwt>
<rscale>  0 0.73306617E+02</rscale>
<asrwt>0</asrwt>
<pdfrwt beam="1">  1       11 0.10000000E+01 0.15779003E+03</pdfrwt>
<pdfrwt beam="2">  1        2 0.12652818E-01 0.73306617E+02</pdfrwt>
<totfact> 0.55375348E+02</totfact>
</mgrwt>
</event>
<event>
 5    1  0.9955701E-004  0.1423312E+03  0.7818608E-02  0.1210226E+00
         11   -1    0    0    0    0  0.00000000000E+00  0.00000000000E+00  0.10002501375E+04  0.10002501375E+04  0.51100000000E-03 0. -1.
          2   -1    0    0  501    0 -0.00000000000E+00 -0.00000000000E+00 -0.36140339535E+02  0.36140339625E+02  0.25500000000E-02 0. -1.
         11    1    1    2    0    0  0.53885059145E+02  0.41048550449E+02  0.28355118166E+03  0.29153019691E+03  0.51100000000E-03 0. -1.
         22    1    1    2    0    0 -0.54064818037E+02  0.11498682272E+03  0.44121271878E+03  0.45914446220E+03  0.00000000000E+00 0. -1.
          2    1    1    2  501    0  0.17975889199E+00 -0.15603537317E+03  0.23934589748E+03  0.28571581797E+03  0.25500000000E-02 0. -1.
<mgrwt>
<rscale>  0 0.14233117E+03</rscale>
<asrwt>0</asrwt>
<pdfrwt beam="1">  1       11 0.10000000E+01 0.67739081E+02</pdfrwt>
<pdfrwt beam="2">  1        2 0.55614429E-02 0.14233117E+03</pdfrwt>
<totfact> 0.16016093E+03</totfact>
</mgrwt>
</event>
<event>
 5    1  0.9955701E-004  0.1413716E+03  0.7818608E-02  0.1481017E+00
         11   -1    0    0    0    0  0.00000000000E+00  0.00000000000E+00  0.10001874953E+04  0.10001874953E+04  0.51100000000E-03 0.  1.
          2   -1    0    0  501    0 -0.00000000000E+00 -0.00000000000E+00 -0.29097331629E+02  0.29097331741E+02  0.25500000000E-02 0.  1.
         11    1    1    2    0    0  0.82326930108E+02  0.12099406654E+03  0.29749313580E+03  0.33154102824E+03  0.51100000000E-03 0.  1.
         22    1    1    2    0    0  0.53284381864E+01 -0.12580189200E+02  0.46631845634E+01  0.14436021061E+02  0.00000000000E+00 0.  1.
          2    1    1    2  501    0 -0.87655368295E+02 -0.10841387734E+03  0.66893384336E+03  0.68330777779E+03  0.25500000000E-02 0.  1.
<mgrwt>
<rscale>  0 0.43948085E+02</rscale>
<asrwt>0</asrwt>
<pdfrwt beam="1">  1       11 0.10000000E+01 0.14137159E+03</pdfrwt>
<pdfrwt beam="2">  1        2 0.44773518E-02 0.43948085E+02</pdfrwt>
<totfact> 0.18916774E+03</totfact>
</mgrwt>
</event>
<event>
 5    1  0.9955701E-004  0.9065133E+02  0.7818608E-02  0.1333642E+00
         11   -1    0    0    0    0  0.00000000000E+00  0.00000000000E+00  0.10005883047E+04  0.10005883047E+04  0.51100000000E-03 0. -1.
          2   -1    0    0  501    0 -0.00000000000E+00 -0.00000000000E+00 -0.17623813333E+02  0.17623813518E+02  0.25500000000E-02 0.  1.
         11    1    1    2    0    0 -0.20188823532E+02  0.79276397391E+02  0.20219426840E+03  0.21811661549E+03  0.51100000000E-03 0. -1.
         22    1    1    2    0    0  0.66138653563E+02  0.14971271744E+02  0.24790766715E+03  0.25701492546E+03  0.00000000000E+00 0.  1.
          2    1    1    2  501    0 -0.45949830031E+02 -0.94247669134E+02  0.53286255578E+03  0.54308057725E+03  0.25500000000E-02 0.  1.
<mgrwt>
<rscale>  0 0.78404339E+02</rscale>
<asrwt>0</asrwt>
<pdfrwt beam="1">  1       11 0.10000000E+01 0.90651330E+02</pdfrwt>
<pdfrwt beam="2">  1        2 0.27129509E-02 0.78404339E+02</pdfrwt>
<totfact> 0.38826865E+03</totfact>
</mgrwt>
</event>
<event>
 5    1  0.9955701E-004  0.3314558E+03  0.7818608E-02  0.1293353E+00
         11   -1    0    0    0    0  0.00000000000E+00  0.00000000000E+00  0.10002483699E+04  0.10002483699E+04  0.51100000000E-03 0.  1.
          2   -1    0    0  501    0 -0.00000000000E+00 -0.00000000000E+00 -0.46528133786E+03  0.46528133787E+03  0.25500000000E-02 0.  1.
         11    1    1    2    0    0  0.44668132335E+02 -0.33070807357E+03  0.89531860938E+03  0.95548861022E+03  0.51100000000E-03 0.  1.
         22    1    1    2    0    0 -0.72637340484E+01  0.25673075477E+02 -0.11136478554E+03  0.11451630493E+03  0.00000000000E+00 0. -1.
          2    1    1    2  501    0 -0.37404398287E+02  0.30503499809E+03 -0.24898679180E+03  0.39552479261E+03  0.25500000000E-02 0.  1.
<mgrwt>
<rscale>  0 0.94040034E+02</rscale>
<asrwt>0</asrwt>
<pdfrwt beam="1">  1       11 0.10000000E+01 0.33145580E+03</pdfrwt>
<pdfrwt beam="2">  1        2 0.71599521E-01 0.94040034E+02</pdfrwt>
<totfact> 0.85105916E+01</totfact>
</mgrwt>
</event>
<event>
 5    1  0.9955701E-004  0.6489971E+02  0.7818608E-02  0.1527771E+00
         11   -1    0    0    0    0  0.00000000000E+00  0.00000000000E+00  0.10003291488E+04  0.10003291488E+04  0.51100000000E-03 0. -1.
          2   -1    0    0  501    0 -0.00000000000E+00 -0.00000000000E+00 -0.14611806729E+02  0.14611806951E+02  0.25500000000E-02 0. -1.
         11    1    1    2    0    0 -0.15800955691E+02 -0.57506636845E+02  0.26106620776E+03  0.26779142689E+03  0.51100000000E-03 0. -1.
         22    1    1    2    0    0 -0.21621733156E+02  0.25094643431E+00  0.25011377079E+01  0.21767361085E+02  0.00000000000E+00 0. -1.
          2    1    1    2  501    0  0.37422688846E+02  0.57255690410E+02  0.72214999658E+03  0.72538216775E+03  0.25500000000E-02 0. -1.
<mgrwt>
<rscale>  0 0.37461153E+02</rscale>
<asrwt>0</asrwt>
<pdfrwt beam="1">  1       11 0.10000000E+01 0.64899710E+02</pdfrwt>
<pdfrwt beam="2">  1        2 0.22487101E-02 0.37461153E+02</pdfrwt>
<totfact> 0.44888829E+03</totfact>
</mgrwt>
</event>
<event>
 5    1  0.9955701E-004  0.3520582E+02  0.7818608E-02  0.1709132E+00
         11   -1    0    0    0    0  0.00000000000E+00  0.00000000000E+00  0.99988640687E+03  0.99988640687E+03  0.51100000000E-03 0. -1.
          2   -1    0    0  501    0 -0.00000000000E+00 -0.00000000000E+00 -0.67911404074E+01  0.67911408862E+01  0.25500000000E-02 0. -1.
         11    1    1    2    0    0 -0.84073812124E+01  0.41544171484E+02  0.89760155551E+02  0.99264735773E+02  0.51100000000E-03 0. -1.
         22    1    1    2    0    0  0.11815960805E+02 -0.69024712976E+01  0.25946454352E+02  0.29333931431E+02  0.00000000000E+00 0.  1.
          2    1    1    2  501    0 -0.34085795930E+01 -0.34641700187E+02  0.87738865656E+03  0.87807888056E+03  0.25500000000E-02 0. -1.
<mgrwt>
<rscale>  0 0.21949213E+02</rscale>
<asrwt>0</asrwt>
<pdfrwt beam="1">  1       11 0.10000000E+01 0.35205815E+02</pdfrwt>
<pdfrwt beam="2">  1        2 0.10446722E-02 0.21949213E+02</pdfrwt>
<totfact> 0.11006575E+04</totfact>
</mgrwt>
</event>
<event>
 5    1  0.9955701E-004  0.1538725E+03  0.7818608E-02  0.1287004E+00
         11   -1    0    0    0    0  0.00000000000E+00  0.00000000000E+00  0.10006940490E+04  0.10006940490E+04  0.51100000000E-03 0.  1.
          2   -1    0    0  501    0 -0.00000000000E+00 -0.00000000000E+00 -0.72430501906E+02  0.72430501951E+02  0.25500000000E-02 0.  1.
         11    1    1    2    0    0  0.11548679300E+03 -0.11854785827E+03  0.78995446176E+03  0.80710522592E+03  0.51100000000E-03 0.  1.
         22    1    1    2    0    0 -0.60944047960E+02  0.24437552167E+01 -0.18206914960E+02  0.63652499351E+02  0.00000000000E+00 0.  1.
          2    1    1    2  501    0 -0.54542745043E+02  0.11610410305E+03  0.15651600031E+03  0.20236682569E+03  0.25500000000E-02 0.  1.
<mgrwt>
<rscale>  0 0.96876988E+02</rscale>
<asrwt>0</asrwt>
<pdfrwt beam="1">  1       11 0.10000000E+01 0.15387253E+03</pdfrwt>
<pdfrwt beam="2">  1        2 0.11150888E-01 0.96876988E+02</pdfrwt>
<totfact> 0.65373576E+02</totfact>
</mgrwt>
</event>
<event>
 5    1  0.9955701E-004  0.3475227E+02  0.7818608E-02  0.1550812E+00
         11   -1    0    0    0    0  0.00000000000E+00  0.00000000000E+00  0.10004002205E+04  0.10004002205E+04  0.51100000000E-03 0. -1.
          2   -1    0    0  501    0 -0.00000000000E+00 -0.00000000000E+00 -0.78509455825E+01  0.78509459967E+01  0.25500000000E-02 0. -1.
         11    1    1    2    0    0  0.33264220992E+02  0.38181660934E+01  0.17053632644E+03  0.17379219035E+03  0.51100000000E-03 0. -1.
         22    1    1    2    0    0 -0.10192633228E+02  0.33569020361E+02  0.49355668302E+02  0.60553702559E+02  0.00000000000E+00 0. -1.
          2    1    1    2  501    0 -0.23071587764E+02 -0.37387186454E+02  0.77265728014E+03  0.77390527356E+03  0.25500000000E-02 0. -1.
<mgrwt>
<rscale>  0 0.34752272E+02</rscale>
<asrwt>0</asrwt>
<pdfrwt beam="1">  1       11 0.10000000E+01 0.33482651E+02</pdfrwt>
<pdfrwt beam="2">  1        2 0.12083212E-02 0.34752272E+02</pdfrwt>
<totfact> 0.10010320E+04</totfact>
</mgrwt>
</event>
<event>
 5    1  0.9955701E-004  0.1252677E+03  0.7818608E-02  0.1502319E+00
         11   -1    0    0    0    0  0.00000000000E+00  0.00000000000E+00  0.10004051968E+04  0.10004051968E+04  0.51100000000E-03 0. -1.
          2   -1    0    0  501    0 -0.00000000000E+00 -0.00000000000E+00 -0.17673222108E+02  0.17673222292E+02  0.25500000000E-02 0. -1.
         11    1    1    2    0    0  0.10950898804E+03  0.64973713769E+02  0.54052498409E+03  0.55532068246E+03  0.51100000000E-03 0. -1.
         22    1    1    2    0    0 -0.10526932284E+02  0.81229066964E+01  0.40329480642E+02  0.42464866953E+02  0.00000000000E+00 0. -1.
          2    1    1    2  501    0 -0.98982055755E+02 -0.73096620466E+02  0.40187750998E+03  0.42029286969E+03  0.25500000000E-02 0. -1.
<mgrwt>
<rscale>  0 0.40812089E+02</rscale>
<asrwt>0</asrwt>
<pdfrwt beam="1">  1       11 0.10000000E+01 0.12526769E+03</pdfrwt>
<pdfrwt beam="2">  1        2 0.27200589E-02 0.40812089E+02</pdfrwt>
<totfact> 0.35507106E+03</totfact>
</mgrwt>
</event>
<event>
 5    1  0.9955701E-004  0.3237185E+03  0.7818608E-02  0.1204452E+00
         11   -1    0    0    0    0  0.00000000000E+00  0.00000000000E+00  0.99998370777E+03  0.99998370777E+03  0.51100000000E-03 0. -1.
          2   -1    0    0  501    0 -0.00000000000E+00 -0.00000000000E+00 -0.42798136531E+03  0.42798136531E+03  0.25500000000E-02 0. -1.
         11    1    1    2    0    0 -0.90318097854E+02  0.30636900415E+03  0.81081865897E+03  0.87146211807E+03  0.51100000000E-03 0. -1.
         22    1    1    2    0    0 -0.64695139533E+02  0.15718483048E+02 -0.18298502370E+03  0.19472044240E+03  0.00000000000E+00 0. -1.
          2    1    1    2  501    0  0.15501323739E+03 -0.32208748720E+03 -0.55831292799E+02  0.36178251262E+03  0.25500000000E-02 0. -1.
<mgrwt>
<rscale>  0 0.14680699E+03</rscale>
<asrwt>0</asrwt>
<pdfrwt beam="1">  1       11 0.10000000E+01 0.32371853E+03</pdfrwt>
<pdfrwt beam="2">  1        2 0.65842212E-01 0.14680699E+03</pdfrwt>
<totfact> 0.92727221E+01</totfact>
</mgrwt>
</event>
<event>
 5    1  0.9955701E-004  0.1981845E+03  0.7818608E-02  0.1457244E+00
         11   -1    0    0    0    0  0.00000000000E+00  0.00000000000E+00  0.10003993018E+04  0.10003993018E+04  0.51100000000E-03 0. -1.
          2   -1    0    0  501    0 -0.00000000000E+00 -0.00000000000E+00 -0.25068606234E+03  0.25068606235E+03  0.25500000000E-02 0. -1.
         11    1    1    2    0    0  0.14920777713E+03 -0.13076432317E+03  0.94561335964E+03  0.96620230537E+03  0.51100000000E-03 0. -1.
         22    1    1    2    0    0  0.30277067128E+01  0.11153662368E+02 -0.38479579306E+01  0.12181049725E+02  0.00000000000E+00 0. -1.
          2    1    1    2  501    0 -0.15223548384E+03  0.11961066080E+03 -0.19205216225E+03  0.27270200906E+03  0.25500000000E-02 0. -1.
<mgrwt>
<rscale>  0 0.47858936E+02</rscale>
<asrwt>0</asrwt>
<pdfrwt beam="1">  1       11 0.10000000E+01 0.19818450E+03</pdfrwt>
<pdfrwt beam="2">  1        2 0.38582485E-01 0.47858936E+02</pdfrwt>
<totfact> 0.16126805E+02</totfact>
</mgrwt>
</event>
<event>
 5    1  0.9955701E-004  0.2998661E+03  0.7818608E-02  0.1386161E+00
         11   -1    0    0    0    0  0.00000000000E+00  0.00000000000E+00  0.10001221619E+04  0.10001221619E+04  0.51100000000E-03 0.  1.
         -2   -1    0    0    0  501 -0.00000000000E+00 -0.00000000000E+00 -0.21923345929E+03  0.21923345930E+03  0.25500000000E-02 0. -1.
         11    1    1    2    0    0  0.29548463971E+03 -0.43400110215E+02  0.84013801639E+03  0.89164265737E+03  0.51100000000E-03 0.  1.
         22    1    1    2    0    0  0.86455836639E+01 -0.99508957608E+01  0.58409525445E+00  0.13194984297E+02  0.00000000000E+00 0.  1.
         -2    1    1    2    0  501 -0.30413022338E+03  0.53351005976E+02 -0.59833409017E+02  0.31451797954E+03  0.25500000000E-02 0. -1.
<mgrwt>
<rscale>  0 0.62871695E+02</rscale>
<asrwt>0</asrwt>
<pdfrwt beam="1">  1       11 0.10000000E+01 0.29986611E+03</pdfrwt>
<pdfrwt beam="2">  1       -2 0.33732344E-01 0.62871695E+02</pdfrwt>
<totfact> 0.65043837E+01</totfact>
</mgrwt>
</event>
<event>
 5    1  0.9955701E-004  0.3691684E+03  0.7818608E-02  0.1210222E+00
         11   -1    0    0    0    0  0.00000000000E+00  0.00000000000E+00  0.10002185405E+04  0.10002185405E+04  0.51100000000E-03 0. -1.
          2   -1    0    0  501    0 -0.00000000000E+00 -0.00000000000E+00 -0.43948100270E+03  0.43948100270E+03  0.25500000000E-02 0. -1.
         11    1    1    2    0    0  0.36562317754E+03 -0.44283085579E+02  0.83883399089E+03  0.91612431684E+03  0.51100000000E-03 0. -1.
         22    1    1    2    0    0  0.10125409803E+01 -0.54868048240E+02 -0.74833409226E+02  0.92798529586E+02  0.00000000000E+00 0. -1.
          2    1    1    2  501    0 -0.36663571852E+03  0.99151133819E+02 -0.20326304390E+03  0.43077669674E+03  0.25500000000E-02 0. -1.
<mgrwt>
<rscale>  0 0.14233411E+03</rscale>
<asrwt>0</asrwt>
<pdfrwt beam="1">  1       11 0.10000000E+01 0.36916841E+03</pdfrwt>
<pdfrwt beam="2">  1        2 0.67627236E-01 0.14233411E+03</pdfrwt>
<totfact> 0.90113494E+01</totfact>
</mgrwt>
</event>
<event>
 5    1  0.9955701E-004  0.9489079E+02  0.7818608E-02  0.1529695E+00
         11   -1    0    0    0    0  0.00000000000E+00  0.00000000000E+00  0.10002097947E+04  0.10002097947E+04  0.51100000000E-03 0. -1.
          2   -1    0    0  501    0 -0.00000000000E+00 -0.00000000000E+00 -0.41492774761E+02  0.41492774839E+02  0.25500000000E-02 0. -1.
         11    1    1    2    0    0 -0.87881106718E+02 -0.43256187935E+02  0.42349926172E+03  0.43467897509E+03  0.51100000000E-03 0. -1.
         22    1    1    2    0    0  0.11060421792E+02 -0.95337500229E+01 -0.30427470392E+02  0.33749907765E+02  0.00000000000E+00 0. -1.
          2    1    1    2  501    0  0.76820684926E+02  0.52789937958E+02  0.56564522861E+03  0.57327368668E+03  0.25500000000E-02 0. -1.
<mgrwt>
<rscale>  0 0.37223878E+02</rscale>
<asrwt>0</asrwt>
<pdfrwt beam="1">  1       11 0.10000000E+01 0.94890789E+02</pdfrwt>
<pdfrwt beam="2">  1        2 0.63848429E-02 0.37223878E+02</pdfrwt>
<totfact> 0.11932811E+03</totfact>
</mgrwt>
</event>
<event>
 5    1  0.9955701E-004  0.1553395E+03  0.7818608E-02  0.1293177E+00
         11   -1    0    0    0    0  0.00000000000E+00  0.00000000000E+00  0.10001782640E+04  0.10001782640E+04  0.51100000000E-03 0. -1.
          2   -1    0    0  501    0 -0.00000000000E+00 -0.00000000000E+00 -0.37673575987E+02  0.37673576073E+02  0.25500000000E-02 0. -1.
         11    1    1    2    0    0 -0.27192649619E+02  0.15164845234E+03  0.53099489715E+03  0.55289445113E+03  0.51100000000E-03 0. -1.
         22    1    1    2    0    0 -0.56114102036E+02 -0.10145943784E+02  0.11746152317E+03  0.13057159740E+03  0.00000000000E+00 0. -1.
          2    1    1    2  501    0  0.83306751656E+02 -0.14150250856E+03  0.31404826770E+03  0.35438579155E+03  0.25500000000E-02 0. -1.
<mgrwt>
<rscale>  0 0.94117333E+02</rscale>
<asrwt>0</asrwt>
<pdfrwt beam="1">  1       11 0.10000000E+01 0.15533947E+03</pdfrwt>
<pdfrwt beam="2">  1        2 0.57969678E-02 0.94117333E+02</pdfrwt>
<totfact> 0.14685857E+03</totfact>
</mgrwt>
</event>
<event>
 5    1  0.1660714E-003  0.1731273E+03  0.7818608E-02  0.1174625E+00
         11   -1    0    0    0    0  0.00000000000E+00  0.00000000000E+00  0.10006428396E+04  0.10006428396E+04  0.51100000000E-03 0.  1.
          2   -1    0    0  501    0 -0.00000000000E+00 -0.00000000000E+00 -0.69258143129E+03  0.69258143130E+03  0.25500000000E-02 0. -1.
         11    1    1    2    0    0 -0.17021614700E+03 -0.33747734839E+01  0.98238632389E+03  0.99702949563E+03  0.51100000000E-03 0.  1.
         22    1    1    2    0    0  0.21761369175E+02 -0.10120654844E+02 -0.10005627900E+03  0.10289433323E+03  0.00000000000E+00 0.  1.
          2    1    1    2  501    0  0.14845477782E+03  0.13495428327E+02 -0.57426863654E+03  0.59330044208E+03  0.25500000000E-02 0. -1.
<mgrwt>
<rscale>  0 0.17312733E+03</rscale>
<asrwt>0</asrwt>
<pdfrwt beam="1">  1       11 0.10000000E+01 0.17024960E+03</pdfrwt>
<pdfrwt beam="2">  1        2 0.10661948E+00 0.17312733E+03</pdfrwt>
<totfact> 0.53706634E+01</totfact>
</mgrwt>
</event>
<event>
 5    1  0.1162233E-003  0.2261577E+03  0.7818608E-02  0.1359135E+00
         11   -1    0    0    0    0  0.00000000000E+00  0.00000000000E+00  0.10001010743E+04  0.10001010743E+04  0.51100000000E-03 0. -1.
          2   -1    0    0  501    0 -0.00000000000E+00 -0.00000000000E+00 -0.45810302680E+03  0.45810302681E+03  0.25500000000E-02 0. -1.
         11    1    1    2    0    0  0.29248102450E+02 -0.22440237260E+03  0.95149859363E+03  0.97803959531E+03  0.51100000000E-03 0. -1.
         22    1    1    2    0    0  0.20525207138E+02  0.74677300947E+01 -0.12866236710E+02  0.25349382002E+02  0.00000000000E+00 0. -1.
          2    1    1    2  501    0 -0.49773309588E+02  0.21693464251E+03 -0.39663430939E+03  0.45481512382E+03  0.25500000000E-02 0. -1.
<mgrwt>
<rscale>  0 0.70282450E+02</rscale>
<asrwt>0</asrwt>
<pdfrwt beam="1">  1       11 0.10000000E+01 0.22615767E+03</pdfrwt>
<pdfrwt beam="2">  1        2 0.70484510E-01 0.70282450E+02</pdfrwt>
<totfact> 0.86787647E+01</totfact>
</mgrwt>
</event>
<event>
 5    1  0.9955701E-004  0.2142393E+03  0.7818608E-02  0.1282369E+00
         11   -1    0    0    0    0  0.00000000000E+00  0.00000000000E+00  0.10003305988E+04  0.10003305988E+04  0.51100000000E-03 0.  1.
          2   -1    0    0  501    0 -0.00000000000E+00 -0.00000000000E+00 -0.23853702214E+03  0.23853702215E+03  0.25500000000E-02 0.  1.
         11    1    1    2    0    0 -0.48132839249E+02 -0.20290659232E+03  0.77310431716E+03  0.80073599933E+03  0.51100000000E-03 0.  1.
         22    1    1    2    0    0 -0.36840359202E+02 -0.27155231489E+02 -0.14969200369E+03  0.15653215208E+03  0.00000000000E+00 0.  1.
          2    1    1    2  501    0  0.84973198452E+02  0.23006182381E+03  0.13838126319E+03  0.28159946953E+03  0.25500000000E-02 0.  1.
<mgrwt>
<rscale>  0 0.99020661E+02</rscale>
<asrwt>0</asrwt>
<pdfrwt beam="1">  1       11 0.10000000E+01 0.21423931E+03</pdfrwt>
<pdfrwt beam="2">  1        2 0.36710135E-01 0.99020661E+02</pdfrwt>
<totfact> 0.17197485E+02</totfact>
</mgrwt>
</event>
<event>
 5    1  0.9955701E-004  0.3436029E+03  0.7818608E-02  0.1085760E+00
         11   -1    0    0    0    0  0.00000000000E+00  0.00000000000E+00  0.10000282020E+04  0.10000282020E+04  0.51100000000E-03 0.  1.
          2   -1    0    0  501    0 -0.00000000000E+00 -0.00000000000E+00 -0.63761143103E+03  0.63761143104E+03  0.25500000000E-02 0.  1.
         11    1    1    2    0    0  0.35799998210E+03  0.27810931604E+02  0.79260318164E+03  0.87014782574E+03  0.51100000000E-03 0.  1.
         22    1    1    2    0    0 -0.99416955698E+02 -0.24037512570E+03 -0.32569986130E+03  0.41682650082E+03  0.00000000000E+00 0.  1.
          2    1    1    2  501    0 -0.25858302640E+03  0.21256419410E+03 -0.10448654938E+03  0.35066530647E+03  0.25500000000E-02 0.  1.
<mgrwt>
<rscale>  0 0.29896318E+03</rscale>
<asrwt>0</asrwt>
<pdfrwt beam="1">  1       11 0.10000000E+01 0.34360289E+03</pdfrwt>
<pdfrwt beam="2">  1        2 0.98096830E-01 0.29896318E+03</pdfrwt>
<totfact> 0.58429400E+01</totfact>
</mgrwt>
</event>
<event>
 5    1  0.9955701E-004  0.1407673E+03  0.7818608E-02  0.1292250E+00
         11   -1    0    0    0    0  0.00000000000E+00  0.00000000000E+00  0.10002418157E+04  0.10002418157E+04  0.51100000000E-03 0.  1.
          2   -1    0    0  501    0 -0.00000000000E+00 -0.00000000000E+00 -0.37079391543E+02  0.37079391631E+02  0.25500000000E-02 0.  1.
         11    1    1    2    0    0  0.14234124078E+03 -0.38867151530E+02  0.62282185266E+03  0.64006151614E+03  0.51100000000E-03 0.  1.
         22    1    1    2    0    0 -0.38594983227E+02 -0.50391211651E+02  0.71644998753E+02  0.95717567814E+02  0.00000000000E+00 0.  1.
          2    1    1    2  501    0 -0.10374625755E+03  0.89258363181E+02  0.26869557278E+03  0.30154212341E+03  0.25500000000E-02 0.  1.
<mgrwt>
<rscale>  0 0.94524875E+02</rscale>
<asrwt>0</asrwt>
<pdfrwt beam="1">  1       11 0.10000000E+01 0.14076732E+03</pdfrwt>
<pdfrwt beam="2">  1        2 0.57059011E-02 0.94524875E+02</pdfrwt>
<totfact> 0.14991413E+03</totfact>
</mgrwt>
</event>
<event>
 5    1  0.9955701E-004  0.2593725E+03  0.7818608E-02  0.1120749E+00
         11   -1    0    0    0    0  0.00000000000E+00  0.00000000000E+00  0.10003018113E+04  0.10003018113E+04  0.51100000000E-03 0. -1.
          2   -1    0    0  501    0 -0.00000000000E+00 -0.00000000000E+00 -0.77194107304E+02  0.77194107346E+02  0.25500000000E-02 0. -1.
         11    1    1    2    0    0 -0.72882523219E+02  0.18537989599E+02  0.33038977436E+03  0.33884055580E+03  0.51100000000E-03 0. -1.
         22    1    1    2    0    0 -0.11255925436E+03  0.13155196422E+03  0.38574537753E+03  0.42281792928E+03  0.00000000000E+00 0. -1.
          2    1    1    2  501    0  0.18544177758E+03 -0.15008995382E+03  0.20697255208E+03  0.31583743355E+03  0.25500000000E-02 0. -1.
<mgrwt>
<rscale>  0 0.23857000E+03</rscale>
<asrwt>0</asrwt>
<pdfrwt beam="1">  1       11 0.10000000E+01 0.25937250E+03</pdfrwt>
<pdfrwt beam="2">  1        2 0.11879600E-01 0.23857000E+03</pdfrwt>
<totfact> 0.63353411E+02</totfact>
</mgrwt>
</event>
<event>
 5    1  0.9955701E-004  0.1332718E+03  0.7818608E-02  0.1488484E+00
         11   -1    0    0    0    0  0.00000000000E+00  0.00000000000E+00  0.10003786129E+04  0.10003786129E+04  0.51100000000E-03 0. -1.
          2   -1    0    0  501    0 -0.00000000000E+00 -0.00000000000E+00 -0.24972895916E+02  0.24972896046E+02  0.25500000000E-02 0. -1.
         11    1    1    2    0    0  0.46991194942E+02 -0.12480215790E+03  0.66804554376E+03  0.68122580658E+03  0.51100000000E-03 0. -1.
         22    1    1    2    0    0 -0.13034880712E+02 -0.43850871718E+01  0.70625598648E+01  0.15460170003E+02  0.00000000000E+00 0. -1.
          2    1    1    2  501    0 -0.33956314230E+02  0.12918724507E+03  0.30029761335E+03  0.32866553235E+03  0.25500000000E-02 0. -1.
<mgrwt>
<rscale>  0 0.42811789E+02</rscale>
<asrwt>0</asrwt>
<pdfrwt beam="1">  1       11 0.10000000E+01 0.13327184E+03</pdfrwt>
<pdfrwt beam="2">  1        2 0.38434385E-02 0.42811789E+02</pdfrwt>
<totfact> 0.22899430E+03</totfact>
</mgrwt>
</event>
<event>
 5    1  0.9955701E-004  0.5858818E+02  0.7818608E-02  0.1543595E+00
         11   -1    0    0    0    0  0.00000000000E+00  0.00000000000E+00  0.10001529340E+04  0.10001529340E+04  0.51100000000E-03 0.  1.
          2   -1    0    0  501    0 -0.00000000000E+00 -0.00000000000E+00 -0.12021612368E+02  0.12021612639E+02  0.25500000000E-02 0.  1.
         11    1    1    2    0    0  0.90152813291E+01  0.75576518847E+02  0.29920988110E+03  0.30873878675E+03  0.51100000000E-03 0.  1.
         22    1    1    2    0    0 -0.35624499428E+01 -0.21299554564E+02  0.12772335926E+02  0.25089731749E+02  0.00000000000E+00 0.  1.
          2    1    1    2  501    0 -0.54528313863E+01 -0.54276964283E+02  0.67614910457E+03  0.67834602810E+03  0.25500000000E-02 0.  1.
<mgrwt>
<rscale>  0 0.35570149E+02</rscale>
<asrwt>0</asrwt>
<pdfrwt beam="1">  1       11 0.10000000E+01 0.58588176E+02</pdfrwt>
<pdfrwt beam="2">  1        2 0.18497616E-02 0.35570149E+02</pdfrwt>
<totfact> 0.57437426E+03</totfact>
</mgrwt>
</event>
<event>
 5    1  0.9955701E-004  0.1522322E+03  0.7818608E-02  0.1197757E+00
         11   -1    0    0    0    0  0.00000000000E+00  0.00000000000E+00  0.10000840794E+04  0.10000840794E+04  0.51100000000E-03 0. -1.
          2   -1    0    0  501    0 -0.00000000000E+00 -0.00000000000E+00 -0.29394001516E+02  0.29394001627E+02  0.25500000000E-02 0. -1.
         11    1    1    2    0    0 -0.14386846124E+03 -0.43446269165E+02  0.72527632807E+03  0.74068310667E+03  0.51100000000E-03 0. -1.
         22    1    1    2    0    0  0.17490199009E+02  0.15455941645E+01  0.17184545486E+02  0.24568364338E+02  0.00000000000E+00 0.  1.
          2    1    1    2  501    0  0.12637826223E+03  0.41900675000E+02  0.22822920436E+03  0.26422661005E+03  0.25500000000E-02 0. -1.
<mgrwt>
<rscale>  0 0.15223215E+03</rscale>
<asrwt>0</asrwt>
<pdfrwt beam="1">  1       11 0.10000000E+01 0.15028544E+03</pdfrwt>
<pdfrwt beam="2">  1        2 0.45225342E-02 0.15223215E+03</pdfrwt>
<totfact> 0.21105008E+03</totfact>
</mgrwt>
</event>
<event>
 5    1  0.9955701E-004  0.2505738E+02  0.7818608E-02  0.1670867E+00
         11   -1    0    0    0    0  0.00000000000E+00  0.00000000000E+00  0.10001219824E+04  0.10001219824E+04  0.51100000000E-03 0.  1.
          2   -1    0    0  501    0 -0.00000000000E+00 -0.00000000000E+00 -0.57379027225E+01  0.57379032891E+01  0.25500000000E-02 0.  1.
         11    1    1    2    0    0  0.26781882798E+02 -0.86289323167E+01  0.66255043910E+02  0.71982348968E+02  0.51100000000E-03 0.  1.
         22    1    1    2    0    0 -0.17973698864E+02 -0.15320336339E+02  0.49165592088E+02  0.54543762263E+02  0.00000000000E+00 0.  1.
          2    1    1    2  501    0 -0.88081839338E+01  0.23949268656E+02  0.87896344371E+03  0.87933377449E+03  0.25500000000E-02 0.  1.
<mgrwt>
<rscale>  0 0.24326566E+02</rscale>
<asrwt>0</asrwt>
<pdfrwt beam="1">  1       11 0.10000000E+01 0.25057377E+02</pdfrwt>
<pdfrwt beam="2">  1        2 0.88286196E-03 0.24326566E+02</pdfrwt>
<totfact> 0.14031294E+04</totfact>
</mgrwt>
</event>
<event>
 5    1  0.9955701E-004  0.1556717E+03  0.7818608E-02  0.1398271E+00
         11   -1    0    0    0    0  0.00000000000E+00  0.00000000000E+00  0.10001908067E+04  0.10001908067E+04  0.51100000000E-03 0. -1.
          2   -1    0    0  501    0 -0.00000000000E+00 -0.00000000000E+00 -0.28718312426E+02  0.28718312539E+02  0.25500000000E-02 0. -1.
         11    1    1    2    0    0 -0.11001341852E+03  0.11571231280E+03  0.42564785997E+03  0.45460795449E+03  0.51100000000E-03 0. -1.
         22    1    1    2    0    0  0.21169695845E+02  0.91057849854E+01  0.44867308447E+02  0.50439535184E+02  0.00000000000E+00 0. -1.
          2    1    1    2  501    0  0.88843722673E+02 -0.12481809779E+03  0.50095732582E+03  0.52386162953E+03  0.25500000000E-02 0. -1.
<mgrwt>
<rscale>  0 0.59895336E+02</rscale>
<asrwt>0</asrwt>
<pdfrwt beam="1">  1       11 0.10000000E+01 0.15567175E+03</pdfrwt>
<pdfrwt beam="2">  1        2 0.44190448E-02 0.59895336E+02</pdfrwt>
<totfact> 0.19910501E+03</totfact>
</mgrwt>
</event>
<event>
 5    1  0.9955701E-004  0.1163440E+03  0.7818608E-02  0.1510931E+00
         11   -1    0    0    0    0  0.00000000000E+00  0.00000000000E+00  0.10000393839E+04  0.10000393839E+04  0.51100000000E-03 0. -1.
          2   -1    0    0  501    0 -0.00000000000E+00 -0.00000000000E+00 -0.19381630618E+02  0.19381630786E+02  0.25500000000E-02 0. -1.
         11    1    1    2    0    0 -0.10004972238E+03 -0.70215025873E+02  0.60672679388E+03  0.61891639114E+03  0.51100000000E-03 0. -1.
         22    1    1    2    0    0  0.11775070384E+02  0.66048681147E+01  0.28467927991E+01  0.13797854710E+02  0.00000000000E+00 0. -1.
          2    1    1    2  501    0  0.88274652000E+02  0.63610157758E+02  0.37108416661E+03  0.38670676884E+03  0.25500000000E-02 0. -1.
<mgrwt>
<rscale>  0 0.39632790E+02</rscale>
<asrwt>0</asrwt>
<pdfrwt beam="1">  1       11 0.10000000E+01 0.11634397E+03</pdfrwt>
<pdfrwt beam="2">  1        2 0.29819067E-02 0.39632790E+02</pdfrwt>
<totfact> 0.31396615E+03</totfact>
</mgrwt>
</event>
<event>
 5    1  0.9955701E-004  0.6880403E+02  0.7818608E-02  0.1364208E+00
         11   -1    0    0    0    0  0.00000000000E+00  0.00000000000E+00  0.10000853592E+04  0.10000853592E+04  0.51100000000E-03 0. -1.
          2   -1    0    0  501    0 -0.00000000000E+00 -0.00000000000E+00 -0.20232574097E+02  0.20232574257E+02  0.25500000000E-02 0. -1.
         11    1    1    2    0    0 -0.43084508927E+02  0.17153557726E+02  0.21815461633E+03  0.22302904761E+03  0.51100000000E-03 0. -1.
         22    1    1    2    0    0 -0.42906812803E+02 -0.51798742744E+02  0.62005399700E+02  0.91481003092E+02  0.00000000000E+00 0. -1.
          2    1    1    2  501    0  0.85991321729E+02  0.34645185018E+02  0.69969276911E+03  0.70580788279E+03  0.25500000000E-02 0. -1.
<mgrwt>
<rscale>  0 0.68804035E+02</rscale>
<asrwt>0</asrwt>
<pdfrwt beam="1">  1       11 0.10000000E+01 0.46373694E+02</pdfrwt>
<pdfrwt beam="2">  1        2 0.31129693E-02 0.68804035E+02</pdfrwt>
<totfact> 0.31874351E+03</totfact>
</mgrwt>
</event>
<event>
 5    1  0.9955701E-004  0.2072297E+03  0.7818608E-02  0.1143779E+00
         11   -1    0    0    0    0  0.00000000000E+00  0.00000000000E+00  0.99992049041E+03  0.99992049041E+03  0.51100000000E-03 0. -1.
         -2   -1    0    0    0  501 -0.00000000000E+00 -0.00000000000E+00 -0.56347707380E+02  0.56347707438E+02  0.25500000000E-02 0. -1.
         11    1    1    2    0    0  0.89624141724E+01 -0.11406858974E+02  0.85705207230E+02  0.86924241993E+02  0.51100000000E-03 0. -1.
         22    1    1    2    0    0 -0.30191880375E+02 -0.20194752121E+03  0.23879169069E+03  0.31419074223E+03  0.00000000000E+00 0. -1.
         -2    1    1    2    0  501  0.21229466202E+02  0.21335438019E+03  0.61907588512E+03  0.65515321362E+03  0.25500000000E-02 0. -1.
<mgrwt>
<rscale>  0 0.20722969E+03</rscale>
<asrwt>0</asrwt>
<pdfrwt beam="1">  1       11 0.10000000E+01 0.14506595E+02</pdfrwt>
<pdfrwt beam="2">  1       -2 0.86681886E-02 0.20722969E+03</pdfrwt>
<totfact> 0.65524630E+02</totfact>
</mgrwt>
</event>
<event>
 5    1  0.9955701E-004  0.1925474E+03  0.7818608E-02  0.1419772E+00
         11   -1    0    0    0    0  0.00000000000E+00  0.00000000000E+00  0.10004266903E+04  0.10004266903E+04  0.51100000000E-03 0. -1.
          2   -1    0    0  501    0 -0.00000000000E+00 -0.00000000000E+00 -0.51761957161E+02  0.51761957224E+02  0.25500000000E-02 0. -1.
         11    1    1    2    0    0  0.60737215155E+02 -0.18727801586E+03  0.48926852675E+03  0.52739525576E+03  0.51100000000E-03 0. -1.
         22    1    1    2    0    0  0.97977169304E+01  0.12331475163E+02 -0.10175372351E+02  0.18750966354E+02  0.00000000000E+00 0. -1.
          2    1    1    2  501    0 -0.70534932085E+02  0.17494654070E+03  0.46957157870E+03  0.50604242537E+03  0.25500000000E-02 0. -1.
<mgrwt>
<rscale>  0 0.55069127E+02</rscale>
<asrwt>0</asrwt>
<pdfrwt beam="1">  1       11 0.10000000E+01 0.19254744E+03</pdfrwt>
<pdfrwt beam="2">  1        2 0.79667757E-02 0.55069127E+02</pdfrwt>
<totfact> 0.94406164E+02</totfact>
</mgrwt>
</event>
<event>
 5    1  0.9955701E-004  0.4951492E+02  0.7818608E-02  0.1447976E+00
         11   -1    0    0    0    0  0.00000000000E+00  0.00000000000E+00  0.10004045635E+04  0.10004045635E+04  0.51100000000E-03 0. -1.
          2   -1    0    0  501    0 -0.00000000000E+00 -0.00000000000E+00 -0.11060090637E+02  0.11060090931E+02  0.25500000000E-02 0. -1.
         11    1    1    2    0    0 -0.83023182731E+01  0.74214350069E+01 -0.37681400140E+00  0.11142180008E+02  0.51100000000E-03 0. -1.
         22    1    1    2    0    0  0.34838960180E+02  0.35258513563E+02  0.12993183676E+03  0.13906544549E+03  0.00000000000E+00 0.  1.
          2    1    1    2  501    0 -0.26536641907E+02 -0.42679948569E+02  0.85978945013E+03  0.86125702896E+03  0.25500000000E-02 0. -1.
<mgrwt>
<rscale>  0 0.49514916E+02</rscale>
<asrwt>0</asrwt>
<pdfrwt beam="1">  1       11 0.10000000E+01 0.11135812E+02</pdfrwt>
<pdfrwt beam="2">  1        2 0.17022408E-02 0.49514916E+02</pdfrwt>
<totfact> 0.67642891E+03</totfact>
</mgrwt>
</event>
<event>
 5    1  0.9955701E-004  0.3891122E+03  0.7818608E-02  0.1183893E+00
         11   -1    0    0    0    0  0.00000000000E+00  0.00000000000E+00  0.10010976901E+04  0.10010976901E+04  0.51100000000E-03 0. -1.
          2   -1    0    0  501    0 -0.00000000000E+00 -0.00000000000E+00 -0.11647386587E+04  0.11647386587E+04  0.25500000000E-02 0. -1.
         11    1    1    2    0    0  0.15232061196E+03 -0.35650065105E+03  0.90612078550E+03  0.98557047487E+03  0.51100000000E-03 0. -1.
         22    1    1    2    0    0  0.68551698968E+02 -0.10819354013E+02 -0.12958806232E+03  0.14700156376E+03  0.00000000000E+00 0. -1.
          2    1    1    2  501    0 -0.22087231092E+03  0.36732000507E+03 -0.94017369175E+03  0.10332643101E+04  0.25500000000E-02 0. -1.
<mgrwt>
<rscale>  0 0.16433040E+03</rscale>
<asrwt>0</asrwt>
<pdfrwt beam="1">  1       11 0.10000000E+01 0.38911216E+03</pdfrwt>
<pdfrwt beam="2">  1        2 0.17938725E+00 0.16433040E+03</pdfrwt>
<totfact> 0.26941122E+01</totfact>
</mgrwt>
</event>
<event>
 5    1  0.9955701E-004  0.1896040E+03  0.7818608E-02  0.1470481E+00
         11   -1    0    0    0    0  0.00000000000E+00  0.00000000000E+00  0.10003450714E+04  0.10003450714E+04  0.51100000000E-03 0. -1.
          2   -1    0    0  501    0 -0.00000000000E+00 -0.00000000000E+00 -0.61621876471E+02  0.61621876523E+02  0.25500000000E-02 0. -1.
         11    1    1    2    0    0  0.18360806063E+03 -0.49142669812E+02  0.79019472345E+03  0.81273281151E+03  0.51100000000E-03 0. -1.
         22    1    1    2    0    0 -0.51174615740E+01 -0.97129012919E+01  0.25829320973E+01  0.11278315596E+02  0.00000000000E+00 0. -1.
          2    1    1    2  501    0 -0.17849059905E+03  0.58855571104E+02  0.14594553942E+03  0.23795582087E+03  0.25500000000E-02 0. -1.
<mgrwt>
<rscale>  0 0.45624330E+02</rscale>
<asrwt>0</asrwt>
<pdfrwt beam="1">  1       11 0.10000000E+01 0.18960399E+03</pdfrwt>
<pdfrwt beam="2">  1        2 0.94835598E-02 0.45624330E+02</pdfrwt>
<totfact> 0.75363230E+02</totfact>
</mgrwt>
</event>
<event>
 5    1  0.9955701E-004  0.2023081E+03  0.7818608E-02  0.1359535E+00
         11   -1    0    0    0    0  0.00000000000E+00  0.00000000000E+00  0.10001887324E+04  0.10001887324E+04  0.51100000000E-03 0.  1.
          2   -1    0    0  501    0 -0.00000000000E+00 -0.00000000000E+00 -0.24702722266E+03  0.24702722267E+03  0.25500000000E-02 0.  1.
         11    1    1    2    0    0 -0.16158459683E+02 -0.20255595460E+03  0.91860314018E+03  0.94080908781E+03  0.51100000000E-03 0.  1.
         22    1    1    2    0    0 -0.20298854409E+02  0.13420853483E+02 -0.10008993799E+03  0.10300562357E+03  0.00000000000E+00 0.  1.
          2    1    1    2  501    0  0.36457314092E+02  0.18913510111E+03 -0.65351692442E+02  0.20340124369E+03  0.25500000000E-02 0.  1.
<mgrwt>
<rscale>  0 0.70164421E+02</rscale>
<asrwt>0</asrwt>
<pdfrwt beam="1">  1       11 0.10000000E+01 0.20230813E+03</pdfrwt>
<pdfrwt beam="2">  1        2 0.38011360E-01 0.70164421E+02</pdfrwt>
<totfact> 0.16490709E+02</totfact>
</mgrwt>
</event>
<event>
 5    1  0.9955701E-004  0.1829316E+03  0.7818608E-02  0.1485221E+00
         11   -1    0    0    0    0  0.00000000000E+00  0.00000000000E+00  0.99988365756E+03  0.99988365756E+03  0.51100000000E-03 0. -1.
          2   -1    0    0  501    0 -0.00000000000E+00 -0.00000000000E+00 -0.79240324979E+02  0.79240325020E+02  0.25500000000E-02 0. -1.
         11    1    1    2    0    0  0.18081623272E+03 -0.41044555175E+02  0.76242687804E+03  0.78464890868E+03  0.51100000000E-03 0. -1.
         22    1    1    2    0    0 -0.10235731100E+02  0.55262173102E+00 -0.33292575887E+02  0.34834913393E+02  0.00000000000E+00 0.  1.
          2    1    1    2  501    0 -0.17058050163E+03  0.40491933444E+02  0.19150903043E+03  0.25964016051E+03  0.25500000000E-02 0. -1.
<mgrwt>
<rscale>  0 0.43303185E+02</rscale>
<asrwt>0</asrwt>
<pdfrwt beam="1">  1       11 0.10000000E+01 0.18293162E+03</pdfrwt>
<pdfrwt beam="2">  1        2 0.12189401E-01 0.43303185E+02</pdfrwt>
<totfact> 0.55932203E+02</totfact>
</mgrwt>
</event>
<event>
 5    1  0.9955701E-004  0.1280907E+03  0.7818608E-02  0.1516075E+00
         11   -1    0    0    0    0  0.00000000000E+00  0.00000000000E+00  0.10001662347E+04  0.10001662347E+04  0.51100000000E-03 0. -1.
          2   -1    0    0  501    0 -0.00000000000E+00 -0.00000000000E+00 -0.34749354630E+02  0.34749354724E+02  0.25500000000E-02 0. -1.
         11    1    1    2    0    0 -0.65828508761E+02 -0.11893216923E+03  0.33529924029E+03  0.36180634873E+03  0.51100000000E-03 0. -1.
         22    1    1    2    0    0  0.27337898296E+01  0.11524841191E+02 -0.13262005674E+02  0.17781348818E+02  0.00000000000E+00 0.  1.
          2    1    1    2  501    0  0.63094718931E+02  0.10740732804E+03  0.64337964544E+03  0.65532789186E+03  0.25500000000E-02 0. -1.
<mgrwt>
<rscale>  0 0.38951101E+02</rscale>
<asrwt>0</asrwt>
<pdfrwt beam="1">  1       11 0.10000000E+01 0.12809073E+03</pdfrwt>
<pdfrwt beam="2">  1        2 0.53469431E-02 0.38951101E+02</pdfrwt>
<totfact> 0.14929602E+03</totfact>
</mgrwt>
</event>
<event>
 5    1  0.9955701E-004  0.1348516E+03  0.7818608E-02  0.1514055E+00
         11   -1    0    0    0    0  0.00000000000E+00  0.00000000000E+00  0.10000818811E+04  0.10000818811E+04  0.51100000000E-03 0. -1.
          2   -1    0    0  501    0 -0.00000000000E+00 -0.00000000000E+00 -0.27622067719E+02  0.27622067837E+02  0.25500000000E-02 0. -1.
         11    1    1    2    0    0 -0.13206274297E+03 -0.41369937381E+02  0.68168549249E+03  0.69559122369E+03  0.51100000000E-03 0. -1.
         22    1    1    2    0    0  0.84787562635E+01  0.76276702680E+01 -0.28525987231E+01  0.11756189050E+02  0.00000000000E+00 0. -1.
          2    1    1    2  501    0  0.12358398670E+03  0.33742267113E+02  0.29362691965E+03  0.32035653624E+03  0.25500000000E-02 0. -1.
<mgrwt>
<rscale>  0 0.39216860E+02</rscale>
<asrwt>0</asrwt>
<pdfrwt beam="1">  1       11 0.10000000E+01 0.13485155E+03</pdfrwt>
<pdfrwt beam="2">  1        2 0.42498967E-02 0.39216860E+02</pdfrwt>
<totfact> 0.19934206E+03</totfact>
</mgrwt>
</event>
<event>
 5    1  0.9955701E-004  0.1289932E+03  0.7818608E-02  0.1228957E+00
         11   -1    0    0    0    0  0.00000000000E+00  0.00000000000E+00  0.10001452058E+04  0.10001452058E+04  0.51100000000E-03 0. -1.
          2   -1    0    0  501    0 -0.00000000000E+00 -0.00000000000E+00 -0.33672305307E+02  0.33672305404E+02  0.25500000000E-02 0. -1.
         11    1    1    2    0    0  0.11589557731E+03  0.53289255124E+02  0.57887350219E+03  0.59276138630E+03  0.51100000000E-03 0. -1.
         22    1    1    2    0    0  0.16799976138E+02 -0.56363089571E+02  0.21742616835E+03  0.22524026227E+03  0.00000000000E+00 0. -1.
          2    1    1    2  501    0 -0.13269555345E+03  0.30738344468E+01  0.17017322995E+03  0.21581586263E+03  0.25500000000E-02 0. -1.
<mgrwt>
<rscale>  0 0.12899320E+03</rscale>
<asrwt>0</asrwt>
<pdfrwt beam="1">  1       11 0.10000000E+01 0.58813579E+02</pdfrwt>
<pdfrwt beam="2">  1        2 0.51811067E-02 0.12899320E+03</pdfrwt>
<totfact> 0.17422927E+03</totfact>
</mgrwt>
</event>
<event>
 5    1  0.9955701E-004  0.1884361E+03  0.7818608E-02  0.1159879E+00
         11   -1    0    0    0    0  0.00000000000E+00  0.00000000000E+00  0.10000047315E+04  0.10000047315E+04  0.51100000000E-03 0. -1.
          2   -1    0    0  501    0 -0.00000000000E+00 -0.00000000000E+00 -0.49496836849E+02  0.49496836914E+02  0.25500000000E-02 0. -1.
         11    1    1    2    0    0 -0.13858039468E+03 -0.14061702077E+03  0.68946594791E+03  0.71717568674E+03  0.51100000000E-03 0. -1.
         22    1    1    2    0    0  0.14936517412E+01  0.15932340143E+02  0.44655937725E+02  0.47436517916E+02  0.00000000000E+00 0.  1.
          2    1    1    2  501    0  0.13708674294E+03  0.12468468063E+03  0.21638600899E+03  0.28488936373E+03  0.25500000000E-02 0. -1.
<mgrwt>
<rscale>  0 0.18843612E+03</rscale>
<asrwt>0</asrwt>
<pdfrwt beam="1">  1       11 0.10000000E+01 0.16002202E+02</pdfrwt>
<pdfrwt beam="2">  1        2 0.76149338E-02 0.18843612E+03</pdfrwt>
<totfact> 0.10902639E+03</totfact>
</mgrwt>
</event>
<event>
 5    1  0.9955701E-004  0.1419050E+03  0.7818608E-02  0.1353140E+00
         11   -1    0    0    0    0  0.00000000000E+00  0.00000000000E+00  0.10000977112E+04  0.10000977112E+04  0.51100000000E-03 0. -1.
         -2   -1    0    0    0  501 -0.00000000000E+00 -0.00000000000E+00 -0.15748176981E+03  0.15748176983E+03  0.25500000000E-02 0. -1.
         11    1    1    2    0    0  0.24275925485E+02 -0.14710748978E+03  0.86288352290E+03  0.87566997676E+03  0.51100000000E-03 0. -1.
         22    1    1    2    0    0 -0.14086470213E+02  0.33801016999E+02 -0.12317788167E+03  0.12850575055E+03  0.00000000000E+00 0. -1.
         -2    1    1    2    0  501 -0.10189455272E+02  0.11330647278E+03  0.10291030019E+03  0.15340375375E+03  0.25500000000E-02 0. -1.
<mgrwt>
<rscale>  0 0.72086009E+02</rscale>
<asrwt>0</asrwt>
<pdfrwt beam="1">  1       11 0.10000000E+01 0.14190501E+03</pdfrwt>
<pdfrwt beam="2">  1       -2 0.24230331E-01 0.72086009E+02</pdfrwt>
<totfact> 0.11673067E+02</totfact>
</mgrwt>
</event>
<event>
 5    1  0.9955701E-004  0.2670145E+03  0.7818608E-02  0.1312329E+00
         11   -1    0    0    0    0  0.00000000000E+00  0.00000000000E+00  0.10000226883E+04  0.10000226883E+04  0.51100000000E-03 0.  1.
          2   -1    0    0  501    0 -0.00000000000E+00 -0.00000000000E+00 -0.36176739248E+03  0.36176739248E+03  0.25500000000E-02 0.  1.
         11    1    1    2    0    0  0.14787416431E+03  0.21974656904E+03  0.87106079375E+03  0.91044067873E+03  0.51100000000E-03 0.  1.
         22    1    1    2    0    0  0.25775310894E+02  0.10485753039E+02 -0.14824016702E+03  0.15082925706E+03  0.00000000000E+00 0.  1.
          2    1    1    2  501    0 -0.17364947521E+03 -0.23023232208E+03 -0.84565330875E+02  0.30052014502E+03  0.25500000000E-02 0.  1.
<mgrwt>
<rscale>  0 0.86198011E+02</rscale>
<asrwt>0</asrwt>
<pdfrwt beam="1">  1       11 0.10000000E+01 0.26701453E+03</pdfrwt>
<pdfrwt beam="2">  1        2 0.55657783E-01 0.86198011E+02</pdfrwt>
<totfact> 0.11108598E+02</totfact>
</mgrwt>
</event>
<event>
 5    1  0.9955701E-004  0.1115241E+03  0.7818608E-02  0.1263801E+00
         11   -1    0    0    0    0  0.00000000000E+00  0.00000000000E+00  0.10001289526E+04  0.10001289526E+04  0.51100000000E-03 0.  1.
         -2   -1    0    0    0  501 -0.00000000000E+00 -0.00000000000E+00 -0.19139821807E+02  0.19139821977E+02  0.25500000000E-02 0. -1.
         11    1    1    2    0    0  0.14907413364E+02 -0.53821877168E+02  0.88104534721E+02  0.10431411445E+03  0.51100000000E-03 0.  1.
         22    1    1    2    0    0 -0.11340904255E+02 -0.54392773180E+02  0.97386037963E+02  0.11212149782E+03  0.00000000000E+00 0.  1.
         -2    1    1    2    0  501 -0.35665091092E+01  0.10821465035E+03  0.79549855809E+03  0.80283316229E+03  0.25500000000E-02 0. -1.
<mgrwt>
<rscale>  0 0.10827341E+03</rscale>
<asrwt>0</asrwt>
<pdfrwt beam="1">  1       11 0.10000000E+01 0.11152409E+03</pdfrwt>
<pdfrwt beam="2">  1       -2 0.29449676E-02 0.10827341E+03</pdfrwt>
<totfact> 0.31607721E+03</totfact>
</mgrwt>
</event>
<event>
 5    1  0.9955701E-004  0.2326215E+03  0.7818608E-02  0.1243751E+00
         11   -1    0    0    0    0  0.00000000000E+00  0.00000000000E+00  0.10002229193E+04  0.10002229193E+04  0.51100000000E-03 0. -1.
          2   -1    0    0  501    0 -0.00000000000E+00 -0.00000000000E+00 -0.14171363837E+03  0.14171363840E+03  0.25500000000E-02 0. -1.
         11    1    1    2    0    0 -0.34564059455E+02 -0.20060489929E+03  0.92411599233E+01  0.20377045630E+03  0.51100000000E-03 0. -1.
         22    1    1    2    0    0  0.48874254597E+02 -0.37322888227E+02  0.59183044841E+01  0.61779584622E+02  0.00000000000E+00 0. -1.
          2    1    1    2  501    0 -0.14310195142E+02  0.23792778751E+03  0.84334981648E+03  0.87638651674E+03  0.25500000000E-02 0. -1.
<mgrwt>
<rscale>  0 0.11960417E+03</rscale>
<asrwt>0</asrwt>
<pdfrwt beam="1">  1       11 0.10000000E+01 0.23262150E+03</pdfrwt>
<pdfrwt beam="2">  1        2 0.21806958E-01 0.11960417E+03</pdfrwt>
<totfact> 0.30364662E+02</totfact>
</mgrwt>
</event>
<event>
 5    1  0.9955701E-004  0.3199537E+03  0.7818608E-02  0.1173418E+00
         11   -1    0    0    0    0  0.00000000000E+00  0.00000000000E+00  0.10002874327E+04  0.10002874327E+04  0.51100000000E-03 0.  1.
          2   -1    0    0  501    0 -0.00000000000E+00 -0.00000000000E+00 -0.91664565079E+03  0.91664565079E+03  0.25500000000E-02 0.  1.
         11    1    1    2    0    0 -0.37700843994E+02  0.32224591418E+03  0.92162207281E+03  0.97706244833E+03  0.51100000000E-03 0.  1.
         22    1    1    2    0    0 -0.59326239014E+02 -0.74163181511E+02 -0.50299122846E+03  0.51187884898E+03  0.00000000000E+00 0.  1.
          2    1    1    2  501    0  0.97027083008E+02 -0.24808273267E+03 -0.33498906244E+03  0.42799178619E+03  0.25500000000E-02 0.  1.
<mgrwt>
<rscale>  0 0.17431812E+03</rscale>
<asrwt>0</asrwt>
<pdfrwt beam="1">  1       11 0.10000000E+01 0.31995368E+03</pdfrwt>
<pdfrwt beam="2">  1        2 0.14106294E+00 0.17431812E+03</pdfrwt>
<totfact> 0.37757410E+01</totfact>
</mgrwt>
</event>
<event>
 5    1  0.9955701E-004  0.1565869E+03  0.7818608E-02  0.1498869E+00
         11   -1    0    0    0    0  0.00000000000E+00  0.00000000000E+00  0.10001097693E+04  0.10001097693E+04  0.51100000000E-03 0. -1.
         -2   -1    0    0    0  501 -0.00000000000E+00 -0.00000000000E+00 -0.37365128372E+02  0.37365128460E+02  0.25500000000E-02 0. -1.
         11    1    1    2    0    0 -0.15180222189E+03 -0.24308585411E+02  0.51365622153E+03  0.53616931637E+03  0.51100000000E-03 0. -1.
         22    1    1    2    0    0 -0.75102584223E+01  0.78887098108E+01 -0.10182783615E+02  0.14910560224E+02  0.00000000000E+00 0. -1.
         -2    1    1    2    0  501  0.15931248031E+03  0.16419875601E+02  0.45927120301E+03  0.48639502117E+03  0.25500000000E-02 0. -1.
<mgrwt>
<rscale>  0 0.41298241E+02</rscale>
<asrwt>0</asrwt>
<pdfrwt beam="1">  1       11 0.10000000E+01 0.15658688E+03</pdfrwt>
<pdfrwt beam="2">  1       -2 0.57491121E-02 0.41298241E+02</pdfrwt>
<totfact> 0.10668005E+03</totfact>
</mgrwt>
</event>
<event>
 5    1  0.1087470E-003  0.2230753E+03  0.7818608E-02  0.1321556E+00
         11   -1    0    0    0    0  0.00000000000E+00  0.00000000000E+00  0.10006861635E+04  0.10006861635E+04  0.51100000000E-03 0. -1.
         -2   -1    0    0    0  501 -0.00000000000E+00 -0.00000000000E+00 -0.45033871632E+03  0.45033871633E+03  0.25500000000E-02 0.  1.
         11    1    1    2    0    0 -0.16264125905E+03  0.15199566930E+03  0.94448620352E+03  0.97036542151E+03  0.51100000000E-03 0. -1.
         22    1    1    2    0    0 -0.28389281505E+02 -0.11579653690E+02 -0.89691313136E+02  0.94786978726E+02  0.00000000000E+00 0.  1.
         -2    1    1    2    0  501  0.19103054056E+03 -0.14041601561E+03 -0.30444744317E+03  0.38587247962E+03  0.25500000000E-02 0.  1.
<mgrwt>
<rscale>  0 0.82701285E+02</rscale>
<asrwt>0</asrwt>
<pdfrwt beam="1">  1       11 0.10000000E+01 0.22307527E+03</pdfrwt>
<pdfrwt beam="2">  1       -2 0.69330417E-01 0.82701285E+02</pdfrwt>
<totfact> 0.16067368E+01</totfact>
</mgrwt>
</event>
<event>
 5    1  0.9955701E-004  0.1509142E+03  0.7818608E-02  0.1477077E+00
         11   -1    0    0    0    0  0.00000000000E+00  0.00000000000E+00  0.10000745405E+04  0.10000745405E+04  0.51100000000E-03 0.  1.
          2   -1    0    0  501    0 -0.00000000000E+00 -0.00000000000E+00 -0.61901452402E+02  0.61901452454E+02  0.25500000000E-02 0.  1.
         11    1    1    2    0    0 -0.81053989520E+02 -0.12707020611E+03  0.86821017755E+03  0.88119549414E+03  0.51100000000E-03 0.  1.
         22    1    1    2    0    0 -0.11876374745E+02  0.56687472269E+01  0.14342204890E+01  0.13237823107E+02  0.00000000000E+00 0.  1.
          2    1    1    2  501    0  0.92930364265E+02  0.12140145889E+03  0.68528690103E+02  0.16754267575E+03  0.25500000000E-02 0.  1.
<mgrwt>
<rscale>  0 0.44564739E+02</rscale>
<asrwt>0</asrwt>
<pdfrwt beam="1">  1       11 0.10000000E+01 0.15091421E+03</pdfrwt>
<pdfrwt beam="2">  1        2 0.95240100E-02 0.44564739E+02</pdfrwt>
<totfact> 0.74843549E+02</totfact>
</mgrwt>
</event>
<event>
 5    1  0.9955701E-004  0.3859203E+02  0.7818608E-02  0.1524530E+00
         11   -1    0    0    0    0  0.00000000000E+00  0.00000000000E+00  0.10000403082E+04  0.10000403082E+04  0.51100000000E-03 0. -1.
          2   -1    0    0  501    0 -0.00000000000E+00 -0.00000000000E+00 -0.24963861712E+01  0.24963874736E+01  0.25500000000E-02 0. -1.
         11    1    1    2    0    0 -0.12000698275E+02 -0.24416634070E+02  0.14183660624E+03  0.14442233777E+03  0.51100000000E-03 0. -1.
         22    1    1    2    0    0 -0.61617050007E+01 -0.88091388076E+01  0.36954512436E+02  0.38486407009E+02  0.00000000000E+00 0. -1.
          2    1    1    2  501    0  0.18162403276E+02  0.33225772878E+02  0.81875280338E+03  0.81962795092E+03  0.25500000000E-02 0. -1.
<mgrwt>
<rscale>  0 0.37865880E+02</rscale>
<asrwt>0</asrwt>
<pdfrwt beam="1">  1       11 0.10000000E+01 0.38592030E+02</pdfrwt>
<pdfrwt beam="2">  1        2 0.38407498E-03 0.37865880E+02</pdfrwt>
<totfact> 0.46966313E+04</totfact>
</mgrwt>
</event>
<event>
 5    1  0.9955701E-004  0.2049686E+03  0.7818608E-02  0.1145613E+00
         11   -1    0    0    0    0  0.00000000000E+00  0.00000000000E+00  0.10001101737E+04  0.10001101737E+04  0.51100000000E-03 0. -1.
          2   -1    0    0  501    0 -0.00000000000E+00 -0.00000000000E+00 -0.95068552477E+02  0.95068552511E+02  0.25500000000E-02 0. -1.
         11    1    1    2    0    0  0.65805815794E+02  0.66533658195E+02  0.21737131687E+03  0.23665887362E+03  0.51100000000E-03 0. -1.
         22    1    1    2    0    0 -0.80941094757E+02 -0.20742235357E+03  0.83247110760E+02  0.23770901335E+03  0.00000000000E+00 0. -1.
          2    1    1    2  501    0  0.15135278963E+02  0.14088869537E+03  0.60442319359E+03  0.62081083923E+03  0.25500000000E-02 0. -1.
<mgrwt>
<rscale>  0 0.20496861E+03</rscale>
<asrwt>0</asrwt>
<pdfrwt beam="1">  1       11 0.10000000E+01 0.93579555E+02</pdfrwt>
<pdfrwt beam="2">  1        2 0.14627542E-01 0.20496861E+03</pdfrwt>
<totfact> 0.48997465E+02</totfact>
</mgrwt>
</event>
<event>
 5    1  0.9955701E-004  0.1546200E+03  0.7818608E-02  0.1506370E+00
         11   -1    0    0    0    0  0.00000000000E+00  0.00000000000E+00  0.10001615208E+04  0.10001615208E+04  0.51100000000E-03 0. -1.
         -2   -1    0    0    0  501 -0.00000000000E+00 -0.00000000000E+00 -0.30790452024E+02  0.30790452130E+02  0.25500000000E-02 0.  1.
         11    1    1    2    0    0  0.11390784148E+03 -0.10073570968E+03  0.66007044486E+03  0.67735933723E+03  0.51100000000E-03 0. -1.
         22    1    1    2    0    0  0.10401350969E+02 -0.12682031659E+01  0.16625378320E+02  0.19651962893E+02  0.00000000000E+00 0.  1.
         -2    1    1    2    0  501 -0.12430919245E+03  0.10200391284E+03  0.29267524559E+03  0.33394067280E+03  0.25500000000E-02 0.  1.
<mgrwt>
<rscale>  0 0.40251299E+02</rscale>
<asrwt>0</asrwt>
<pdfrwt beam="1">  1       11 0.10000000E+01 0.15462000E+03</pdfrwt>
<pdfrwt beam="2">  1       -2 0.47377576E-02 0.40251299E+02</pdfrwt>
<totfact> 0.14088186E+03</totfact>
</mgrwt>
</event>
<event>
 5    1  0.9955701E-004  0.2049107E+03  0.7818608E-02  0.1145661E+00
         11   -1    0    0    0    0  0.00000000000E+00  0.00000000000E+00  0.99992653748E+03  0.99992653748E+03  0.51100000000E-03 0.  1.
          2   -1    0    0  501    0 -0.00000000000E+00 -0.00000000000E+00 -0.98488339488E+03  0.98488339488E+03  0.25500000000E-02 0.  1.
         11    1    1    2    0    0 -0.62038357798E+02  0.31088136595E+02  0.25688875742E+02  0.73994245806E+02  0.51100000000E-03 0.  1.
         22    1    1    2    0    0  0.32041870415E+02  0.20214092771E+03 -0.93493945127E+03  0.95707858280E+03  0.00000000000E+00 0.  1.
          2    1    1    2  501    0  0.29996487383E+02 -0.23322906430E+03  0.92429371813E+03  0.95373710375E+03  0.25500000000E-02 0.  1.
<mgrwt>
<rscale>  0 0.20491072E+03</rscale>
<asrwt>0</asrwt>
<pdfrwt beam="1">  1       11 0.10000000E+01 0.69391859E+02</pdfrwt>
<pdfrwt beam="2">  1        2 0.15150939E+00 0.20491072E+03</pdfrwt>
<totfact> 0.34008766E+01</totfact>
</mgrwt>
</event>
<event>
 5    1  0.9955701E-004  0.1455903E+03  0.7818608E-02  0.1421667E+00
         11   -1    0    0    0    0  0.00000000000E+00  0.00000000000E+00  0.10005163418E+04  0.10005163418E+04  0.51100000000E-03 0. -1.
          2   -1    0    0  501    0 -0.00000000000E+00 -0.00000000000E+00 -0.13912702290E+03  0.13912702292E+03  0.25500000000E-02 0. -1.
         11    1    1    2    0    0 -0.13411653537E+03  0.59791834212E+02  0.87444647979E+03  0.88668988633E+03  0.51100000000E-03 0. -1.
         22    1    1    2    0    0  0.16180833557E+02  0.12633678666E+02 -0.91564906062E+02  0.93837951989E+02  0.00000000000E+00 0. -1.
          2    1    1    2  501    0  0.11793570182E+03 -0.72425512878E+02  0.78507745145E+02  0.15911552637E+03  0.25500000000E-02 0. -1.
<mgrwt>
<rscale>  0 0.54669791E+02</rscale>
<asrwt>0</asrwt>
<pdfrwt beam="1">  1       11 0.10000000E+01 0.14559033E+03</pdfrwt>
<pdfrwt beam="2">  1        2 0.21415209E-01 0.54669791E+02</pdfrwt>
<totfact> 0.30112719E+02</totfact>
</mgrwt>
</event>
<event>
 5    1  0.9955701E-004  0.7135885E+02  0.7818608E-02  0.1606463E+00
         11   -1    0    0    0    0  0.00000000000E+00  0.00000000000E+00  0.10004381153E+04  0.10004381153E+04  0.51100000000E-03 0.  1.
         -2   -1    0    0    0  501 -0.00000000000E+00 -0.00000000000E+00 -0.88082305622E+01  0.88082309313E+01  0.25500000000E-02 0. -1.
         11    1    1    2    0    0 -0.22926543964E+02  0.60469532155E+02  0.28836245267E+03  0.29552511712E+03  0.51100000000E-03 0.  1.
         22    1    1    2    0    0  0.20741215225E+01  0.11813691665E+02  0.80503174474E+01  0.14445514939E+02  0.00000000000E+00 0. -1.
         -2    1    1    2    0  501  0.20852422441E+02 -0.72283223820E+02  0.69521711465E+03  0.69927571421E+03  0.25500000000E-02 0. -1.
<mgrwt>
<rscale>  0 0.29255857E+02</rscale>
<asrwt>0</asrwt>
<pdfrwt beam="1">  1       11 0.10000000E+01 0.71358850E+02</pdfrwt>
<pdfrwt beam="2">  1       -2 0.13557061E-02 0.29255857E+02</pdfrwt>
<totfact> 0.77567020E+03</totfact>
</mgrwt>
</event>
<event>
 5    1  0.9955701E-004  0.1723781E+03  0.7818608E-02  0.1303850E+00
         11   -1    0    0    0    0  0.00000000000E+00  0.00000000000E+00  0.10000421355E+04  0.10000421355E+04  0.51100000000E-03 0. -1.
         -2   -1    0    0    0  501 -0.00000000000E+00 -0.00000000000E+00 -0.46183798883E+02  0.46183798954E+02  0.25500000000E-02 0.  1.
         11    1    1    2    0    0 -0.88418241257E+02 -0.12745083051E+03  0.45397314576E+03  0.47974276092E+03  0.51100000000E-03 0. -1.
         22    1    1    2    0    0 -0.37109222537E+02 -0.28122685190E+02  0.28823154689E+02  0.54760880799E+02  0.00000000000E+00 0. -1.
         -2    1    1    2    0  501  0.12552746379E+03  0.15557351570E+03  0.47106203614E+03  0.51172229271E+03  0.25500000000E-02 0.  1.
<mgrwt>
<rscale>  0 0.89589041E+02</rscale>
<asrwt>0</asrwt>
<pdfrwt beam="1">  1       11 0.10000000E+01 0.17237813E+03</pdfrwt>
<pdfrwt beam="2">  1       -2 0.71054990E-02 0.89589041E+02</pdfrwt>
<totfact> 0.83939841E+02</totfact>
</mgrwt>
</event>
<event>
 5    1  0.9955701E-004  0.6834950E+02  0.7818608E-02  0.1605809E+00
         11   -1    0    0    0    0  0.00000000000E+00  0.00000000000E+00  0.10001792371E+04  0.10001792371E+04  0.51100000000E-03 0.  1.
          2   -1    0    0  501    0 -0.00000000000E+00 -0.00000000000E+00 -0.10179969809E+02  0.10179970128E+02  0.25500000000E-02 0.  1.
         11    1    1    2    0    0  0.61298297021E+02 -0.10854436832E+02  0.37070063412E+03  0.37589128768E+03  0.51100000000E-03 0.  1.
         22    1    1    2    0    0  0.98892656053E+01 -0.77616999345E+01  0.19168366314E+01  0.12716753625E+02  0.00000000000E+00 0.  1.
          2    1    1    2  501    0 -0.71187562626E+02  0.18616136767E+02  0.61738179652E+03  0.62175116590E+03  0.25500000000E-02 0.  1.
<mgrwt>
<rscale>  0 0.29313008E+02</rscale>
<asrwt>0</asrwt>
<pdfrwt beam="1">  1       11 0.10000000E+01 0.68349499E+02</pdfrwt>
<pdfrwt beam="2">  1        2 0.15664299E-02 0.29313008E+02</pdfrwt>
<totfact> 0.68951824E+03</totfact>
</mgrwt>
</event>
<event>
 5    1  0.9955701E-004  0.5073901E+02  0.7818608E-02  0.1604316E+00
         11   -1    0    0    0    0  0.00000000000E+00  0.00000000000E+00  0.10001862559E+04  0.10001862559E+04  0.51100000000E-03 0.  1.
          2   -1    0    0  501    0 -0.00000000000E+00 -0.00000000000E+00 -0.19546090882E+02  0.19546091048E+02  0.25500000000E-02 0.  1.
         11    1    1    2    0    0  0.36372118818E+02  0.24389353516E+02  0.73736403250E+02  0.85760298255E+02  0.51100000000E-03 0.  1.
         22    1    1    2    0    0  0.13540812553E+02 -0.10421036813E+02 -0.70977309116E+01  0.18502145739E+02  0.00000000000E+00 0.  1.
          2    1    1    2  501    0 -0.49912931371E+02 -0.13968316703E+02  0.91400149272E+03  0.91546990300E+03  0.25500000000E-02 0.  1.
<mgrwt>
<rscale>  0 0.29444122E+02</rscale>
<asrwt>0</asrwt>
<pdfrwt beam="1">  1       11 0.10000000E+01 0.50739012E+02</pdfrwt>
<pdfrwt beam="2">  1        2 0.30076509E-02 0.29444122E+02</pdfrwt>
<totfact> 0.29742121E+03</totfact>
</mgrwt>
</event>
<event>
 5    1  0.9955701E-004  0.1662069E+03  0.7818608E-02  0.1184364E+00
         11   -1    0    0    0    0  0.00000000000E+00  0.00000000000E+00  0.10001459284E+04  0.10001459284E+04  0.51100000000E-03 0.  1.
          2   -1    0    0  501    0 -0.00000000000E+00 -0.00000000000E+00 -0.67767642904E+02  0.67767642952E+02  0.25500000000E-02 0.  1.
         11    1    1    2    0    0 -0.17297139933E+02 -0.17962158308E+02  0.91060893333E+02  0.94413539684E+02  0.51100000000E-03 0.  1.
         22    1    1    2    0    0 -0.76999302423E+02 -0.11609349598E+03  0.78936694784E+03  0.80156520055E+03  0.00000000000E+00 0.  1.
          2    1    1    2  501    0  0.94296442356E+02  0.13405565429E+03  0.51950444351E+02  0.17193483115E+03  0.25500000000E-02 0.  1.
<mgrwt>
<rscale>  0 0.16389856E+03</rscale>
<asrwt>0</asrwt>
<pdfrwt beam="1">  1       11 0.10000000E+01 0.16620686E+03</pdfrwt>
<pdfrwt beam="2">  1        2 0.10427312E-01 0.16389856E+03</pdfrwt>
<totfact> 0.73006890E+02</totfact>
</mgrwt>
</event>
<event>
 5    1  0.9955701E-004  0.1841097E+03  0.7818608E-02  0.1433489E+00
         11   -1    0    0    0    0  0.00000000000E+00  0.00000000000E+00  0.99963299846E+03  0.99963299846E+03  0.51100000000E-03 0. -1.
          2   -1    0    0  501    0 -0.00000000000E+00 -0.00000000000E+00 -0.76317258821E+02  0.76317258863E+02  0.25500000000E-02 0. -1.
         11    1    1    2    0    0  0.18064376297E+03  0.55109160679E+02  0.69903324789E+03  0.72409714151E+03  0.51100000000E-03 0. -1.
         22    1    1    2    0    0 -0.13761949778E+02 -0.55464068823E+01 -0.35875342879E+02  0.38822598029E+02  0.00000000000E+00 0. -1.
          2    1    1    2  501    0 -0.16688181319E+03 -0.49562753797E+02  0.26015783463E+03  0.31303051778E+03  0.25500000000E-02 0. -1.
<mgrwt>
<rscale>  0 0.52266084E+02</rscale>
<asrwt>0</asrwt>
<pdfrwt beam="1">  1       11 0.10000000E+01 0.18410973E+03</pdfrwt>
<pdfrwt beam="2">  1        2 0.11736807E-01 0.52266084E+02</pdfrwt>
<totfact> 0.59203229E+02</totfact>
</mgrwt>
</event>
<event>
 5    1  0.9955701E-004  0.1934258E+03  0.7818608E-02  0.1443266E+00
         11   -1    0    0    0    0  0.00000000000E+00  0.00000000000E+00  0.10000676047E+04  0.10000676047E+04  0.51100000000E-03 0. -1.
          2   -1    0    0  501    0 -0.00000000000E+00 -0.00000000000E+00 -0.60142931756E+02  0.60142931810E+02  0.25500000000E-02 0. -1.
         11    1    1    2    0    0  0.11921319791E+03 -0.14764954105E+03  0.64039516884E+03  0.66792076312E+03  0.51100000000E-03 0. -1.
         22    1    1    2    0    0  0.22327106031E+01 -0.12934361025E+02 -0.14311550590E+02  0.19419144472E+02  0.00000000000E+00 0. -1.
          2    1    1    2  501    0 -0.12144590851E+03  0.16058390208E+03  0.31384105474E+03  0.37287062896E+03  0.25500000000E-02 0. -1.
<mgrwt>
<rscale>  0 0.50386895E+02</rscale>
<asrwt>0</asrwt>
<pdfrwt beam="1">  1       11 0.10000000E+01 0.19342579E+03</pdfrwt>
<pdfrwt beam="2">  1        2 0.92533840E-02 0.50386895E+02</pdfrwt>
<totfact> 0.78220079E+02</totfact>
</mgrwt>
</event>
<event>
 5    1  0.9955701E-004  0.1048872E+03  0.7818608E-02  0.1270342E+00
         11   -1    0    0    0    0  0.00000000000E+00  0.00000000000E+00  0.10002942657E+04  0.10002942657E+04  0.51100000000E-03 0. -1.
          2   -1    0    0  501    0 -0.00000000000E+00 -0.00000000000E+00 -0.21469188536E+02  0.21469188687E+02  0.25500000000E-02 0. -1.
         11    1    1    2    0    0  0.59220246967E+01 -0.63056143355E+02  0.16254691538E+03  0.17444955515E+03  0.51100000000E-03 0. -1.
         22    1    1    2    0    0  0.95550136414E+02 -0.15327713701E+02  0.29354759128E+03  0.30908729467E+03  0.00000000000E+00 0. -1.
          2    1    1    2  501    0 -0.10147216111E+03  0.78383857056E+02  0.52273057047E+03  0.53822660454E+03  0.25500000000E-02 0. -1.
<mgrwt>
<rscale>  0 0.10488717E+03</rscale>
<asrwt>0</asrwt>
<pdfrwt beam="1">  1       11 0.10000000E+01 0.63333653E+02</pdfrwt>
<pdfrwt beam="2">  1        2 0.33039239E-02 0.10488717E+03</pdfrwt>
<totfact> 0.30882277E+03</totfact>
</mgrwt>
</event>
<event>
 5    1  0.9955701E-004  0.2417391E+03  0.7818608E-02  0.1242957E+00
         11   -1    0    0    0    0  0.00000000000E+00  0.00000000000E+00  0.10000366346E+04  0.10000366346E+04  0.51100000000E-03 0. -1.
          2   -1    0    0  501    0 -0.00000000000E+00 -0.00000000000E+00 -0.49453050261E+03  0.49453050262E+03  0.25500000000E-02 0. -1.
         11    1    1    2    0    0 -0.21753052900E+03 -0.99987058074E+02  0.91608773335E+03  0.94685462349E+03  0.51100000000E-03 0. -1.
         22    1    1    2    0    0 -0.59136872968E+02 -0.78291801747E+01 -0.11038185997E+03  0.12546960116E+03  0.00000000000E+00 0.  1.
          2    1    1    2  501    0  0.27666740197E+03  0.10781623825E+03 -0.30019974135E+03  0.42224291262E+03  0.25500000000E-02 0. -1.
<mgrwt>
<rscale>  0 0.12008510E+03</rscale>
<asrwt>0</asrwt>
<pdfrwt beam="1">  1       11 0.10000000E+01 0.24173905E+03</pdfrwt>
<pdfrwt beam="2">  1        2 0.76084401E-01 0.12008510E+03</pdfrwt>
<totfact> 0.79454468E+01</totfact>
</mgrwt>
</event>
<event>
 5    1  0.9955701E-004  0.4636750E+02  0.7818608E-02  0.1525912E+00
         11   -1    0    0    0    0  0.00000000000E+00  0.00000000000E+00  0.10003129106E+04  0.10003129106E+04  0.51100000000E-03 0.  1.
          2   -1    0    0  501    0 -0.00000000000E+00 -0.00000000000E+00 -0.10963580672E+02  0.10963580968E+02  0.25500000000E-02 0.  1.
         11    1    1    2    0    0  0.15948842311E+02  0.44885463645E+02  0.27818185133E+03  0.28223077938E+03  0.51100000000E-03 0.  1.
         22    1    1    2    0    0  0.24773082689E+02 -0.18031902097E+02  0.20976403063E+02  0.37133066189E+02  0.00000000000E+00 0. -1.
          2    1    1    2  501    0 -0.40721925000E+02 -0.26853561547E+02  0.69019107553E+03  0.69191264600E+03  0.25500000000E-02 0.  1.
<mgrwt>
<rscale>  0 0.37692625E+02</rscale>
<asrwt>0</asrwt>
<pdfrwt beam="1">  1       11 0.10000000E+01 0.46367500E+02</pdfrwt>
<pdfrwt beam="2">  1        2 0.16872325E-02 0.37692625E+02</pdfrwt>
<totfact> 0.65433474E+03</totfact>
</mgrwt>
</event>
<event>
 5    1  0.9955701E-004  0.7983347E+02  0.7818608E-02  0.1612325E+00
         11   -1    0    0    0    0  0.00000000000E+00  0.00000000000E+00  0.99992777179E+03  0.99992777179E+03  0.51100000000E-03 0. -1.
          2   -1    0    0  501    0 -0.00000000000E+00 -0.00000000000E+00 -0.74983000345E+01  0.74983004681E+01  0.25500000000E-02 0. -1.
         11    1    1    2    0    0 -0.61923316056E+02 -0.55752365462E+02  0.45155321784E+03  0.45917658027E+03  0.51100000000E-03 0. -1.
         22    1    1    2    0    0  0.10205490777E+02 -0.17471646839E+01  0.35117223333E+02  0.36611801391E+02  0.00000000000E+00 0. -1.
          2    1    1    2  501    0  0.51717825279E+02  0.57499530146E+02  0.50575903057E+03  0.51163769059E+03  0.25500000000E-02 0. -1.
<mgrwt>
<rscale>  0 0.28750524E+02</rscale>
<asrwt>0</asrwt>
<pdfrwt beam="1">  1       11 0.10000000E+01 0.79833465E+02</pdfrwt>
<pdfrwt beam="2">  1        2 0.11535013E-02 0.28750524E+02</pdfrwt>
<totfact> 0.10248857E+04</totfact>
</mgrwt>
</event>
<event>
 5    1  0.9955701E-004  0.1977192E+03  0.7818608E-02  0.1284373E+00
         11   -1    0    0    0    0  0.00000000000E+00  0.00000000000E+00  0.10002196924E+04  0.10002196924E+04  0.51100000000E-03 0. -1.
          2   -1    0    0  501    0 -0.00000000000E+00 -0.00000000000E+00 -0.21514549744E+03  0.21514549745E+03  0.25500000000E-02 0. -1.
         11    1    1    2    0    0  0.52360567574E+02 -0.18784056848E+03  0.83481686348E+03  0.85728927659E+03  0.51100000000E-03 0. -1.
         22    1    1    2    0    0  0.47722152634E+02 -0.95028453395E+01 -0.11707710894E+03  0.12678626644E+03  0.00000000000E+00 0.  1.
          2    1    1    2  501    0 -0.10008272021E+03  0.19734341382E+03  0.67334440455E+02  0.23128964685E+03  0.25500000000E-02 0. -1.
<mgrwt>
<rscale>  0 0.98085861E+02</rscale>
<asrwt>0</asrwt>
<pdfrwt beam="1">  1       11 0.10000000E+01 0.19771916E+03</pdfrwt>
<pdfrwt beam="2">  1        2 0.33106578E-01 0.98085861E+02</pdfrwt>
<totfact> 0.19185656E+02</totfact>
</mgrwt>
</event>
<event>
 5    1  0.9955701E-004  0.2928538E+03  0.7818608E-02  0.1278998E+00
         11   -1    0    0    0    0  0.00000000000E+00  0.00000000000E+00  0.10003480128E+04  0.10003480128E+04  0.51100000000E-03 0. -1.
          2   -1    0    0  501    0 -0.00000000000E+00 -0.00000000000E+00 -0.54615375857E+03  0.54615375858E+03  0.25500000000E-02 0. -1.
         11    1    1    2    0    0  0.29135046447E+03  0.19740670283E+02  0.92048520911E+03  0.96569550449E+03  0.51100000000E-03 0. -1.
         22    1    1    2    0    0  0.16240790773E+02  0.30519193887E+02 -0.44069754744E+02  0.56011853778E+02  0.00000000000E+00 0. -1.
          2    1    1    2  501    0 -0.30759125524E+03 -0.50259864170E+02 -0.42222120010E+03  0.52479441314E+03  0.25500000000E-02 0. -1.
<mgrwt>
<rscale>  0 0.10061997E+03</rscale>
<asrwt>0</asrwt>
<pdfrwt beam="1">  1       11 0.10000000E+01 0.29285384E+03</pdfrwt>
<pdfrwt beam="2">  1        2 0.84052894E-01 0.10061997E+03</pdfrwt>
<totfact> 0.71437899E+01</totfact>
</mgrwt>
</event>
<event>
 5    1  0.9955701E-004  0.5902702E+02  0.7818608E-02  0.1533483E+00
         11   -1    0    0    0    0  0.00000000000E+00  0.00000000000E+00  0.10003433182E+04  0.10003433182E+04  0.51100000000E-03 0. -1.
          2   -1    0    0  501    0 -0.00000000000E+00 -0.00000000000E+00 -0.94016516079E+01  0.94016519537E+01  0.25500000000E-02 0. -1.
         11    1    1    2    0    0 -0.71715248766E+02 -0.25841698520E+01  0.37624719876E+03  0.38302964561E+03  0.51100000000E-03 0. -1.
         22    1    1    2    0    0  0.18105458740E+02  0.14015120697E+02  0.22882912872E+02  0.32370649450E+02  0.00000000000E+00 0. -1.
          2    1    1    2  501    0  0.53609790026E+02 -0.11430950845E+02  0.59181155497E+03  0.59434467510E+03  0.25500000000E-02 0. -1.
<mgrwt>
<rscale>  0 0.36762585E+02</rscale>
<asrwt>0</asrwt>
<pdfrwt beam="1">  1       11 0.10000000E+01 0.59027018E+02</pdfrwt>
<pdfrwt beam="2">  1        2 0.14469045E-02 0.36762585E+02</pdfrwt>
<totfact> 0.79752107E+03</totfact>
</mgrwt>
</event>
<event>
 5    1  0.9955701E-004  0.8778812E+02  0.7818608E-02  0.1500474E+00
         11   -1    0    0    0    0  0.00000000000E+00  0.00000000000E+00  0.99976797888E+03  0.99976797888E+03  0.51100000000E-03 0. -1.
          2   -1    0    0  501    0 -0.00000000000E+00 -0.00000000000E+00 -0.73658202149E+02  0.73658202194E+02  0.25500000000E-02 0.  1.
         11    1    1    2    0    0 -0.65372279556E+02  0.50864578958E+02  0.46065762020E+03  0.46804506554E+03  0.51100000000E-03 0. -1.
         22    1    1    2    0    0 -0.17877923454E+02 -0.70419949394E+01 -0.64418528378E+02  0.67223185273E+02  0.00000000000E+00 0.  1.
          2    1    1    2  501    0  0.83250203010E+02 -0.43822584019E+02  0.52987068491E+03  0.53815793026E+03  0.25500000000E-02 0.  1.
<mgrwt>
<rscale>  0 0.41071086E+02</rscale>
<asrwt>0</asrwt>
<pdfrwt beam="1">  1       11 0.10000000E+01 0.87788120E+02</pdfrwt>
<pdfrwt beam="2">  1        2 0.11329402E-01 0.41071086E+02</pdfrwt>
<totfact> 0.60647012E+02</totfact>
</mgrwt>
</event>
<event>
 5    1  0.9955701E-004  0.1808519E+03  0.7818608E-02  0.1326922E+00
         11   -1    0    0    0    0  0.00000000000E+00  0.00000000000E+00  0.10003724044E+04  0.10003724044E+04  0.51100000000E-03 0. -1.
          2   -1    0    0  501    0 -0.00000000000E+00 -0.00000000000E+00 -0.10403757887E+03  0.10403757890E+03  0.25500000000E-02 0. -1.
         11    1    1    2    0    0 -0.18327617546E+03 -0.13186225691E+02  0.88440748847E+03  0.90329432562E+03  0.51100000000E-03 0. -1.
         22    1    1    2    0    0  0.26349674412E+02 -0.24616410542E+02 -0.11853911561E+02  0.37957716329E+02  0.00000000000E+00 0. -1.
          2    1    1    2  501    0  0.15692650105E+03  0.37802636232E+02  0.23781248640E+02  0.16315794137E+03  0.25500000000E-02 0. -1.
<mgrwt>
<rscale>  0 0.80755131E+02</rscale>
<asrwt>0</asrwt>
<pdfrwt beam="1">  1       11 0.10000000E+01 0.18085186E+03</pdfrwt>
<pdfrwt beam="2">  1        2 0.16011742E-01 0.80755131E+02</pdfrwt>
<totfact> 0.42381019E+02</totfact>
</mgrwt>
</event>
<event>
 5    1  0.9955701E-004  0.1400369E+03  0.7818608E-02  0.1392238E+00
         11   -1    0    0    0    0  0.00000000000E+00  0.00000000000E+00  0.10004240337E+04  0.10004240337E+04  0.51100000000E-03 0. -1.
          2   -1    0    0  501    0 -0.00000000000E+00 -0.00000000000E+00 -0.38880455680E+02  0.38880455764E+02  0.25500000000E-02 0. -1.
         11    1    1    2    0    0 -0.12213501392E+03  0.98481135335E+02  0.35825471160E+03  0.39110348250E+03  0.51100000000E-03 0. -1.
         22    1    1    2    0    0  0.25995856179E+02 -0.68391772621E+01 -0.34443455514E+01  0.27100228788E+02  0.00000000000E+00 0.  1.
          2    1    1    2  501    0  0.96139157741E+02 -0.91641958073E+02  0.60673321200E+03  0.62110077820E+03  0.25500000000E-02 0. -1.
<mgrwt>
<rscale>  0 0.61353512E+02</rscale>
<asrwt>0</asrwt>
<pdfrwt beam="1">  1       11 0.10000000E+01 0.14003689E+03</pdfrwt>
<pdfrwt beam="2">  1        2 0.59841448E-02 0.61353512E+02</pdfrwt>
<totfact> 0.13583034E+03</totfact>
</mgrwt>
</event>
<event>
 5    1  0.9955701E-004  0.1319548E+03  0.7818608E-02  0.1411936E+00
         11   -1    0    0    0    0  0.00000000000E+00  0.00000000000E+00  0.10005370502E+04  0.10005370502E+04  0.51100000000E-03 0. -1.
          2   -1    0    0  501    0 -0.00000000000E+00 -0.00000000000E+00 -0.27109051378E+02  0.27109051498E+02  0.25500000000E-02 0. -1.
         11    1    1    2    0    0 -0.13240738565E+03 -0.34194949870E+02  0.69737049188E+03  0.71065224500E+03  0.51100000000E-03 0. -1.
         22    1    1    2    0    0  0.99562142242E+01  0.22296810191E+02  0.15694898743E+02  0.29027638432E+02  0.00000000000E+00 0. -1.
          2    1    1    2  501    0  0.12245117142E+03  0.11898139679E+02  0.26036260818E+03  0.28796621825E+03  0.25500000000E-02 0. -1.
<mgrwt>
<rscale>  0 0.56764148E+02</rscale>
<asrwt>0</asrwt>
<pdfrwt beam="1">  1       11 0.10000000E+01 0.13195484E+03</pdfrwt>
<pdfrwt beam="2">  1        2 0.41728630E-02 0.56764148E+02</pdfrwt>
<totfact> 0.21304463E+03</totfact>
</mgrwt>
</event>
<event>
 5    1  0.9955701E-004  0.8292419E+02  0.7818608E-02  0.1494448E+00
         11   -1    0    0    0    0  0.00000000000E+00  0.00000000000E+00  0.10003015535E+04  0.10003015535E+04  0.51100000000E-03 0. -1.
          2   -1    0    0  501    0 -0.00000000000E+00 -0.00000000000E+00 -0.13656527481E+02  0.13656527719E+02  0.25500000000E-02 0. -1.
         11    1    1    2    0    0 -0.88365540371E+02  0.48649535666E+01  0.31524100559E+03  0.32742789756E+03  0.51100000000E-03 0. -1.
         22    1    1    2    0    0  0.10458042432E+02  0.18446697092E+02  0.17234225575E+02  0.27325259675E+02  0.00000000000E+00 0. -1.
          2    1    1    2  501    0  0.77907497938E+02 -0.23311650659E+02  0.65416979481E+03  0.65920492393E+03  0.25500000000E-02 0. -1.
<mgrwt>
<rscale>  0 0.41933341E+02</rscale>
<asrwt>0</asrwt>
<pdfrwt beam="1">  1       11 0.10000000E+01 0.82924189E+02</pdfrwt>
<pdfrwt beam="2">  1        2 0.21016378E-02 0.41933341E+02</pdfrwt>
<totfact> 0.49906217E+03</totfact>
</mgrwt>
</event>
<event>
 5    1  0.9955701E-004  0.1025659E+03  0.7818608E-02  0.1524885E+00
         11   -1    0    0    0    0  0.00000000000E+00  0.00000000000E+00  0.99998908446E+03  0.99998908446E+03  0.51100000000E-03 0. -1.
          2   -1    0    0  501    0 -0.00000000000E+00 -0.00000000000E+00 -0.90676236852E+02  0.90676236888E+02  0.25500000000E-02 0. -1.
         11    1    1    2    0    0 -0.96906612278E+02 -0.58030029770E+02 -0.34594053405E+02  0.11813180939E+03  0.51100000000E-03 0. -1.
         22    1    1    2    0    0  0.51788131435E+01  0.12949481934E+02 -0.73751311963E+01  0.15776620300E+02  0.00000000000E+00 0.  1.
          2    1    1    2  501    0  0.91727799134E+02  0.45080547836E+02  0.95128203221E+03  0.95675689166E+03  0.25500000000E-02 0. -1.
<mgrwt>
<rscale>  0 0.37821305E+02</rscale>
<asrwt>0</asrwt>
<pdfrwt beam="1">  1       11 0.10000000E+01 0.10256594E+03</pdfrwt>
<pdfrwt beam="2">  1        2 0.13950038E-01 0.37821305E+02</pdfrwt>
<totfact> 0.47497976E+02</totfact>
</mgrwt>
</event>
<event>
 5    1  0.9955701E-004  0.5123159E+02  0.7818608E-02  0.1553853E+00
         11   -1    0    0    0    0  0.00000000000E+00  0.00000000000E+00  0.10000527164E+04  0.10000527164E+04  0.51100000000E-03 0.  1.
          2   -1    0    0  501    0 -0.00000000000E+00 -0.00000000000E+00 -0.13960410766E+02  0.13960410999E+02  0.25500000000E-02 0. -1.
         11    1    1    2    0    0  0.62908592269E+02 -0.11583971845E+02  0.17919727084E+03  0.19027175634E+03  0.51100000000E-03 0.  1.
         22    1    1    2    0    0 -0.13577984455E+02  0.18711811675E+02  0.98344638787E+01  0.25123897743E+02  0.00000000000E+00 0. -1.
          2    1    1    2  501    0 -0.49330607814E+02 -0.71278398299E+01  0.79706057096E+03  0.79861747336E+03  0.25500000000E-02 0. -1.
<mgrwt>
<rscale>  0 0.34415528E+02</rscale>
<asrwt>0</asrwt>
<pdfrwt beam="1">  1       11 0.10000000E+01 0.51231594E+02</pdfrwt>
<pdfrwt beam="2">  1        2 0.21478687E-02 0.34415528E+02</pdfrwt>
<totfact> 0.47011021E+03</totfact>
</mgrwt>
</event>
<event>
 5    1  0.9955701E-004  0.1854412E+03  0.7818608E-02  0.1421443E+00
         11   -1    0    0    0    0  0.00000000000E+00  0.00000000000E+00  0.10001922104E+04  0.10001922104E+04  0.51100000000E-03 0. -1.
         -2   -1    0    0    0  501 -0.00000000000E+00 -0.00000000000E+00 -0.53466638572E+02  0.53466638633E+02  0.25500000000E-02 0. -1.
         11    1    1    2    0    0  0.12203102024E+02 -0.18333056777E+03  0.29742980364E+03  0.34960477810E+03  0.51100000000E-03 0. -1.
         22    1    1    2    0    0  0.16112678550E+02 -0.10201834813E+01 -0.99281095145E+01  0.18953272617E+02  0.00000000000E+00 0.  1.
         -2    1    1    2    0  501 -0.28315780573E+02  0.18435075125E+03  0.65922387774E+03  0.68510079835E+03  0.25500000000E-02 0. -1.
<mgrwt>
<rscale>  0 0.54716874E+02</rscale>
<asrwt>0</asrwt>
<pdfrwt beam="1">  1       11 0.10000000E+01 0.18544121E+03</pdfrwt>
<pdfrwt beam="2">  1       -2 0.82272175E-02 0.54716874E+02</pdfrwt>
<totfact> 0.64467077E+02</totfact>
</mgrwt>
</event>
<event>
 5    1  0.9955701E-004  0.6723572E+03  0.7818608E-02  0.1207858E+00
         11   -1    0    0    0    0  0.00000000000E+00  0.00000000000E+00  0.10001968916E+04  0.10001968916E+04  0.51100000000E-03 0.  1.
         -2   -1    0    0    0  501 -0.00000000000E+00 -0.00000000000E+00 -0.81286097863E+03  0.81286097864E+03  0.25500000000E-02 0. -1.
         11    1    1    2    0    0  0.67319025572E+03 -0.14681369247E+02  0.63508681371E+03  0.92560030463E+03  0.51100000000E-03 0.  1.
         22    1    1    2    0    0 -0.53196289253E+01 -0.30441400167E+02 -0.15292147385E+03  0.15601267404E+03  0.00000000000E+00 0.  1.
         -2    1    1    2    0  501 -0.66787062679E+03  0.45122769414E+02 -0.29482942688E+03  0.73144489157E+03  0.25500000000E-02 0. -1.
<mgrwt>
<rscale>  0 0.14414457E+03</rscale>
<asrwt>0</asrwt>
<pdfrwt beam="1">  1       11 0.10000000E+01 0.67235719E+03</pdfrwt>
<pdfrwt beam="2">  1       -2 0.12508015E+00 0.14414457E+03</pdfrwt>
<totfact> 0.41817440E+00</totfact>
</mgrwt>
</event>
<event>
 5    1  0.9955701E-004  0.1050257E+03  0.7818608E-02  0.1498582E+00
         11   -1    0    0    0    0  0.00000000000E+00  0.00000000000E+00  0.10005824655E+04  0.10005824655E+04  0.51100000000E-03 0. -1.
          2   -1    0    0  501    0 -0.00000000000E+00 -0.00000000000E+00 -0.18280161929E+02  0.18280162107E+02  0.25500000000E-02 0. -1.
         11    1    1    2    0    0 -0.21142610123E+02 -0.10574332501E+03  0.23314830227E+03  0.25687894347E+03  0.51100000000E-03 0. -1.
         22    1    1    2    0    0  0.16208474592E+02  0.14299894419E+01  0.21969639740E+02  0.27339067078E+02  0.00000000000E+00 0. -1.
          2    1    1    2  501    0  0.49341355308E+01  0.10431333557E+03  0.72718436156E+03  0.73464461706E+03  0.25500000000E-02 0. -1.
<mgrwt>
<rscale>  0 0.41339049E+02</rscale>
<asrwt>0</asrwt>
<pdfrwt beam="1">  1       11 0.10000000E+01 0.10502565E+03</pdfrwt>
<pdfrwt beam="2">  1        2 0.28139706E-02 0.41339049E+02</pdfrwt>
<totfact> 0.34041404E+03</totfact>
</mgrwt>
</event>
<event>
 5    1  0.9955701E-004  0.7896009E+02  0.7818608E-02  0.1536898E+00
         11   -1    0    0    0    0  0.00000000000E+00  0.00000000000E+00  0.10003080388E+04  0.10003080388E+04  0.51100000000E-03 0. -1.
          2   -1    0    0  501    0 -0.00000000000E+00 -0.00000000000E+00 -0.77700219961E+01  0.77700224146E+01  0.25500000000E-02 0. -1.
         11    1    1    2    0    0 -0.51322192892E+02  0.57092100882E+02  0.38213108000E+03  0.38976613214E+03  0.51100000000E-03 0. -1.
         22    1    1    2    0    0 -0.14282442956E+02 -0.87267179657E+01  0.86753409136E+02  0.88353255627E+02  0.00000000000E+00 0. -1.
          2    1    1    2  501    0  0.65604635847E+02 -0.48365382916E+02  0.52365352764E+03  0.52995867341E+03  0.25500000000E-02 0. -1.
<mgrwt>
<rscale>  0 0.36353728E+02</rscale>
<asrwt>0</asrwt>
<pdfrwt beam="1">  1       11 0.10000000E+01 0.78960090E+02</pdfrwt>
<pdfrwt beam="2">  1        2 0.11957562E-02 0.36353728E+02</pdfrwt>
<totfact> 0.10237283E+04</totfact>
</mgrwt>
</event>
<event>
 5    1  0.9955701E-004  0.4237236E+02  0.7818608E-02  0.1541121E+00
         11   -1    0    0    0    0  0.00000000000E+00  0.00000000000E+00  0.10004785668E+04  0.10004785668E+04  0.51100000000E-03 0.  1.
          2   -1    0    0  501    0 -0.00000000000E+00 -0.00000000000E+00 -0.69047736600E+01  0.69047741309E+01  0.25500000000E-02 0.  1.
         11    1    1    2    0    0  0.57613925473E+02 -0.94656703418E+01  0.20130819570E+03  0.20960427710E+03  0.51100000000E-03 0.  1.
         22    1    1    2    0    0 -0.25989011028E+02  0.26364551238E+02  0.14954951460E+03  0.15406354394E+03  0.00000000000E+00 0.  1.
          2    1    1    2  501    0 -0.31624914446E+02 -0.16898880896E+02  0.64271608289E+03  0.64371551993E+03  0.25500000000E-02 0.  1.
<mgrwt>
<rscale>  0 0.35856762E+02</rscale>
<asrwt>0</asrwt>
<pdfrwt beam="1">  1       11 0.10000000E+01 0.42372358E+02</pdfrwt>
<pdfrwt beam="2">  1        2 0.10627812E-02 0.35856762E+02</pdfrwt>
<totfact> 0.11934958E+04</totfact>
</mgrwt>
</event>
<event>
 5    1  0.9955701E-004  0.1118586E+03  0.7818608E-02  0.1427141E+00
         11   -1    0    0    0    0  0.00000000000E+00  0.00000000000E+00  0.10008019757E+04  0.10008019757E+04  0.51100000000E-03 0.  1.
          2   -1    0    0  501    0 -0.00000000000E+00 -0.00000000000E+00 -0.18232014225E+02  0.18232014403E+02  0.25500000000E-02 0.  1.
         11    1    1    2    0    0  0.83605379407E+02  0.67769810050E+02  0.58076244411E+03  0.59065016982E+03  0.51100000000E-03 0.  1.
         22    1    1    2    0    0  0.23772933789E+02 -0.95640181696E+01  0.54447921875E+02  0.60176399203E+02  0.00000000000E+00 0.  1.
          2    1    1    2  501    0 -0.10737831320E+03 -0.58205791880E+02  0.34735959551E+03  0.36820742110E+03  0.25500000000E-02 0.  1.
<mgrwt>
<rscale>  0 0.53538180E+02</rscale>
<asrwt>0</asrwt>
<pdfrwt beam="1">  1       11 0.10000000E+01 0.11185856E+03</pdfrwt>
<pdfrwt beam="2">  1        2 0.28071747E-02 0.53538180E+02</pdfrwt>
<totfact> 0.35374046E+03</totfact>
</mgrwt>
</event>
<event>
 5    1  0.9955701E-004  0.1233371E+03  0.7818608E-02  0.1249305E+00
         11   -1    0    0    0    0  0.00000000000E+00  0.00000000000E+00  0.10004166813E+04  0.10004166813E+04  0.51100000000E-03 0. -1.
          2   -1    0    0  501    0 -0.00000000000E+00 -0.00000000000E+00 -0.73077689088E+02  0.73077689133E+02  0.25500000000E-02 0. -1.
         11    1    1    2    0    0 -0.20679950148E+02  0.11695770090E+03  0.56767134969E+03  0.57996338281E+03  0.51100000000E-03 0. -1.
         22    1    1    2    0    0 -0.10898417048E+03 -0.12427981270E+02  0.14972954917E+02  0.11070769401E+03  0.00000000000E+00 0. -1.
          2    1    1    2  501    0  0.12966412063E+03 -0.10452971963E+03  0.34469468756E+03  0.38282329358E+03  0.25500000000E-02 0. -1.
<mgrwt>
<rscale>  0 0.11631384E+03</rscale>
<asrwt>0</asrwt>
<pdfrwt beam="1">  1       11 0.10000000E+01 0.12333713E+03</pdfrwt>
<pdfrwt beam="2">  1        2 0.11247406E-01 0.11631384E+03</pdfrwt>
<totfact> 0.65369544E+02</totfact>
</mgrwt>
</event>
<event>
 5    1  0.9955701E-004  0.6315320E+02  0.7818608E-02  0.1654876E+00
         11   -1    0    0    0    0  0.00000000000E+00  0.00000000000E+00  0.10001300887E+04  0.10001300887E+04  0.51100000000E-03 0.  1.
          2   -1    0    0  501    0 -0.00000000000E+00 -0.00000000000E+00 -0.13120207043E+02  0.13120207291E+02  0.25500000000E-02 0.  1.
         11    1    1    2    0    0  0.55413105778E+02  0.43030854864E+02  0.33265964389E+03  0.33997750725E+03  0.51100000000E-03 0.  1.
         22    1    1    2    0    0 -0.96558019668E+01 -0.34135557575E+01 -0.48275343894E+01  0.11322188958E+02  0.00000000000E+00 0. -1.
          2    1    1    2  501    0 -0.45757303811E+02 -0.39617299107E+02  0.65917777212E+03  0.66195059975E+03  0.25500000000E-02 0.  1.
<mgrwt>
<rscale>  0 0.25431844E+02</rscale>
<asrwt>0</asrwt>
<pdfrwt beam="1">  1       11 0.10000000E+01 0.63153197E+02</pdfrwt>
<pdfrwt beam="2">  1        2 0.20187559E-02 0.25431844E+02</pdfrwt>
<totfact> 0.48366484E+03</totfact>
</mgrwt>
</event>
<event>
 5    1  0.9955701E-004  0.5722419E+02  0.7818608E-02  0.1447914E+00
         11   -1    0    0    0    0  0.00000000000E+00  0.00000000000E+00  0.10002580391E+04  0.10002580391E+04  0.51100000000E-03 0.  1.
          2   -1    0    0  501    0 -0.00000000000E+00 -0.00000000000E+00 -0.87515014199E+01  0.87515017914E+01  0.25500000000E-02 0.  1.
         11    1    1    2    0    0 -0.33649494403E+02 -0.27875664555E+02  0.16292191444E+03  0.16867984868E+03  0.51100000000E-03 0.  1.
         22    1    1    2    0    0 -0.34868201518E+02  0.24930351574E+02  0.10372174280E+03  0.11222973686E+03  0.00000000000E+00 0.  1.
          2    1    1    2  501    0  0.68517695921E+02  0.29453129808E+01  0.72486288047E+03  0.72809995537E+03  0.25500000000E-02 0.  1.
<mgrwt>
<rscale>  0 0.49526262E+02</rscale>
<asrwt>0</asrwt>
<pdfrwt beam="1">  1       11 0.10000000E+01 0.57224188E+02</pdfrwt>
<pdfrwt beam="2">  1        2 0.13467322E-02 0.49526262E+02</pdfrwt>
<totfact> 0.92402998E+03</totfact>
</mgrwt>
</event>
<event>
 5    1  0.9955701E-004  0.2179558E+02  0.7818608E-02  0.1842758E+00
         11   -1    0    0    0    0  0.00000000000E+00  0.00000000000E+00  0.10003403191E+04  0.10003403191E+04  0.51100000000E-03 0.  1.
         -2   -1    0    0    0  501 -0.00000000000E+00 -0.00000000000E+00 -0.20096131145E+01  0.20096147324E+01  0.25500000000E-02 0.  1.
         11    1    1    2    0    0 -0.16128959194E+02 -0.37426536493E+01  0.90024293438E+02  0.91534278772E+02  0.51100000000E-03 0.  1.
         22    1    1    2    0    0 -0.62986363496E+01  0.96796127638E+01  0.29165561017E+02  0.31368737185E+02  0.00000000000E+00 0.  1.
         -2    1    1    2    0  501  0.22427595543E+02 -0.59369591145E+01  0.87914085149E+03  0.87944691784E+03  0.25500000000E-02 0.  1.
<mgrwt>
<rscale>  0 0.15865246E+02</rscale>
<asrwt>0</asrwt>
<pdfrwt beam="1">  1       11 0.10000000E+01 0.21795582E+02</pdfrwt>
<pdfrwt beam="2">  1       -2 0.30927658E-03 0.15865246E+02</pdfrwt>
<totfact> 0.47973910E+04</totfact>
</mgrwt>
</event>
<event>
 5    1  0.9955701E-004  0.3150552E+03  0.7818608E-02  0.1216311E+00
         11   -1    0    0    0    0  0.00000000000E+00  0.00000000000E+00  0.10001977440E+04  0.10001977440E+04  0.51100000000E-03 0.  1.
          2   -1    0    0  501    0 -0.00000000000E+00 -0.00000000000E+00 -0.21785970216E+03  0.21785970218E+03  0.25500000000E-02 0.  1.
         11    1    1    2    0    0 -0.19856742381E+03  0.25007305474E+03  0.76375980923E+03  0.82782522352E+03  0.51100000000E-03 0.  1.
         22    1    1    2    0    0  0.57435049546E+02  0.18291014916E+02 -0.51208477780E+02  0.79092694603E+02  0.00000000000E+00 0. -1.
          2    1    1    2  501    0  0.14113237427E+03 -0.26836406966E+03  0.69786710362E+02  0.31113952802E+03  0.25500000000E-02 0.  1.
<mgrwt>
<rscale>  0 0.13780661E+03</rscale>
<asrwt>0</asrwt>
<pdfrwt beam="1">  1       11 0.10000000E+01 0.31505522E+03</pdfrwt>
<pdfrwt beam="2">  1        2 0.33523504E-01 0.13780661E+03</pdfrwt>
<totfact> 0.19040858E+02</totfact>
</mgrwt>
</event>
<event>
 5    1  0.9955701E-004  0.9575295E+02  0.7818608E-02  0.1327135E+00
         11   -1    0    0    0    0  0.00000000000E+00  0.00000000000E+00  0.10000551628E+04  0.10000551628E+04  0.51100000000E-03 0. -1.
          2   -1    0    0  501    0 -0.00000000000E+00 -0.00000000000E+00 -0.24213906678E+02  0.24213906812E+02  0.25500000000E-02 0. -1.
         11    1    1    2    0    0 -0.10230742223E+03 -0.68697820890E+01  0.56803755857E+03  0.57721804415E+03  0.51100000000E-03 0. -1.
         22    1    1    2    0    0  0.29918192761E+02 -0.61040419029E+02  0.82267597941E+02  0.10671920485E+03  0.00000000000E+00 0. -1.
          2    1    1    2  501    0  0.72389229474E+02  0.67910201118E+02  0.32553609957E+03  0.34033182057E+03  0.25500000000E-02 0. -1.
<mgrwt>
<rscale>  0 0.80679057E+02</rscale>
<asrwt>0</asrwt>
<pdfrwt beam="1">  1       11 0.10000000E+01 0.95752954E+02</pdfrwt>
<pdfrwt beam="2">  1        2 0.37254218E-02 0.80679057E+02</pdfrwt>
<totfact> 0.25642043E+03</totfact>
</mgrwt>
</event>
<event>
 5    1  0.9955701E-004  0.1718608E+03  0.7818608E-02  0.1469381E+00
         11   -1    0    0    0    0  0.00000000000E+00  0.00000000000E+00  0.10004277714E+04  0.10004277714E+04  0.51100000000E-03 0.  1.
          2   -1    0    0  501    0 -0.00000000000E+00 -0.00000000000E+00 -0.21609571679E+03  0.21609571680E+03  0.25500000000E-02 0.  1.
         11    1    1    2    0    0  0.16357284789E+03  0.53176124693E+02  0.94224139796E+03  0.95781137435E+03  0.51100000000E-03 0.  1.
         22    1    1    2    0    0  0.10820660752E+01 -0.12159819398E+02 -0.63231725762E+02  0.64399403861E+02  0.00000000000E+00 0.  1.
          2    1    1    2  501    0 -0.16465491397E+03 -0.41016305295E+02 -0.94677617572E+02  0.19431271000E+03  0.25500000000E-02 0.  1.
<mgrwt>
<rscale>  0 0.45804528E+02</rscale>
<asrwt>0</asrwt>
<pdfrwt beam="1">  1       11 0.10000000E+01 0.17186085E+03</pdfrwt>
<pdfrwt beam="2">  1        2 0.33259715E-01 0.45804528E+02</pdfrwt>
<totfact> 0.18772421E+02</totfact>
</mgrwt>
</event>
<event>
 5    1  0.9955701E-004  0.9234538E+02  0.7818608E-02  0.1373538E+00
         11   -1    0    0    0    0  0.00000000000E+00  0.00000000000E+00  0.10002035148E+04  0.10002035148E+04  0.51100000000E-03 0. -1.
          2   -1    0    0  501    0 -0.00000000000E+00 -0.00000000000E+00 -0.57244419182E+02  0.57244419239E+02  0.25500000000E-02 0. -1.
         11    1    1    2    0    0  0.90605905123E+02 -0.13272809049E+02  0.51054597387E+03  0.51869334769E+03  0.51100000000E-03 0. -1.
         22    1    1    2    0    0  0.33122746969E+01  0.47331887743E+02 -0.36156147317E+02  0.59653547672E+02  0.00000000000E+00 0. -1.
          2    1    1    2  501    0 -0.93918179820E+02 -0.34059078695E+02  0.46856926902E+03  0.47910103864E+03  0.25500000000E-02 0. -1.
<mgrwt>
<rscale>  0 0.66193432E+02</rscale>
<asrwt>0</asrwt>
<pdfrwt beam="1">  1       11 0.10000000E+01 0.92345377E+02</pdfrwt>
<pdfrwt beam="2">  1        2 0.88086258E-02 0.66193432E+02</pdfrwt>
<totfact> 0.84756644E+02</totfact>
</mgrwt>
</event>
<event>
 5    1  0.9955701E-004  0.1954710E+03  0.7818608E-02  0.1403552E+00
         11   -1    0    0    0    0  0.00000000000E+00  0.00000000000E+00  0.10002235974E+04  0.10002235974E+04  0.51100000000E-03 0. -1.
         -2   -1    0    0    0  501 -0.00000000000E+00 -0.00000000000E+00 -0.12383122836E+03  0.12383122838E+03  0.25500000000E-02 0.  1.
         11    1    1    2    0    0  0.16561463169E+03  0.10481979045E+03  0.84609226360E+03  0.86849727301E+03  0.51100000000E-03 0. -1.
         22    1    1    2    0    0  0.60368898856E+01 -0.16534708154E+02 -0.45034882558E+02  0.48352675834E+02  0.00000000000E+00 0.  1.
         -2    1    1    2    0  501 -0.17165152157E+03 -0.88285082299E+02  0.75334988045E+02  0.20720487698E+03  0.25500000000E-02 0.  1.
<mgrwt>
<rscale>  0 0.58657800E+02</rscale>
<asrwt>0</asrwt>
<pdfrwt beam="1">  1       11 0.10000000E+01 0.19547102E+03</pdfrwt>
<pdfrwt beam="2">  1       -2 0.19055217E-01 0.58657800E+02</pdfrwt>
<totfact> 0.17322074E+02</totfact>
</mgrwt>
</event>
<event>
 5    1  0.9955701E-004  0.2618195E+03  0.7818608E-02  0.1269938E+00
         11   -1    0    0    0    0  0.00000000000E+00  0.00000000000E+00  0.10001685976E+04  0.10001685976E+04  0.51100000000E-03 0. -1.
          2   -1    0    0  501    0 -0.00000000000E+00 -0.00000000000E+00 -0.29450887571E+03  0.29450887572E+03  0.25500000000E-02 0. -1.
         11    1    1    2    0    0 -0.62547106346E+02 -0.24726109023E+03  0.73295204846E+03  0.77605985117E+03  0.51100000000E-03 0. -1.
         22    1    1    2    0    0 -0.32933088202E+02 -0.26359702507E+02 -0.18426667679E+03  0.18903341077E+03  0.00000000000E+00 0. -1.
          2    1    1    2  501    0  0.95480194548E+02  0.27362079274E+03  0.15697435025E+03  0.32958421141E+03  0.25500000000E-02 0. -1.
<mgrwt>
<rscale>  0 0.10509226E+03</rscale>
<asrwt>0</asrwt>
<pdfrwt beam="1">  1       11 0.10000000E+01 0.26181949E+03</pdfrwt>
<pdfrwt beam="2">  1        2 0.45316696E-01 0.10509226E+03</pdfrwt>
<totfact> 0.13787053E+02</totfact>
</mgrwt>
</event>
<event>
 5    1  0.9955701E-004  0.1861200E+03  0.7818608E-02  0.1457505E+00
         11   -1    0    0    0    0  0.00000000000E+00  0.00000000000E+00  0.10001738668E+04  0.10001738668E+04  0.51100000000E-03 0. -1.
          2   -1    0    0  501    0 -0.00000000000E+00 -0.00000000000E+00 -0.51021055817E+02  0.51021055881E+02  0.25500000000E-02 0. -1.
         11    1    1    2    0    0  0.15101362850E+03 -0.10412685490E+03  0.67883961253E+03  0.70318613286E+03  0.51100000000E-03 0. -1.
         22    1    1    2    0    0  0.32312851052E+01 -0.11850454211E+02 -0.37276518889E+01  0.12836271151E+02  0.00000000000E+00 0.  1.
          2    1    1    2  501    0 -0.15424491361E+03  0.11597730912E+03  0.27404085029E+03  0.33517251862E+03  0.25500000000E-02 0. -1.
<mgrwt>
<rscale>  0 0.47813492E+02</rscale>
<asrwt>0</asrwt>
<pdfrwt beam="1">  1       11 0.10000000E+01 0.18612001E+03</pdfrwt>
<pdfrwt beam="2">  1        2 0.78507577E-02 0.47813492E+02</pdfrwt>
<totfact> 0.94958684E+02</totfact>
</mgrwt>
</event>
<event>
 5    1  0.9955701E-004  0.2400017E+02  0.7818608E-02  0.1717067E+00
         11   -1    0    0    0    0  0.00000000000E+00  0.00000000000E+00  0.99990397346E+03  0.99990397346E+03  0.51100000000E-03 0.  1.
          2   -1    0    0  501    0 -0.00000000000E+00 -0.00000000000E+00 -0.92923883292E+01  0.92923886790E+01  0.25500000000E-02 0.  1.
         11    1    1    2    0    0  0.22848005935E+02  0.39889529358E+01  0.12076931265E+03  0.12297629853E+03  0.51100000000E-03 0.  1.
         22    1    1    2    0    0 -0.89646358179E+01  0.17044405079E+02  0.35761001450E+01  0.19587366646E+02  0.00000000000E+00 0.  1.
          2    1    1    2  501    0 -0.13883370117E+02 -0.21033358015E+02  0.86626617233E+03  0.86663269696E+03  0.25500000000E-02 0.  1.
<mgrwt>
<rscale>  0 0.21498807E+02</rscale>
<asrwt>0</asrwt>
<pdfrwt beam="1">  1       11 0.10000000E+01 0.24000170E+02</pdfrwt>
<pdfrwt beam="2">  1        2 0.14294609E-02 0.21498807E+02</pdfrwt>
<totfact> 0.73019704E+03</totfact>
</mgrwt>
</event>
<event>
 5    1  0.9955701E-004  0.4519165E+03  0.7818608E-02  0.1027152E+00
         11   -1    0    0    0    0  0.00000000000E+00  0.00000000000E+00  0.10002852535E+04  0.10002852535E+04  0.51100000000E-03 0. -1.
          2   -1    0    0  501    0 -0.00000000000E+00 -0.00000000000E+00 -0.43373120862E+03  0.43373120863E+03  0.25500000000E-02 0.  1.
         11    1    1    2    0    0 -0.48143742093E+02  0.90329474384E+02  0.45719055601E+03  0.46850873882E+03  0.51100000000E-03 0. -1.
         22    1    1    2    0    0 -0.10639763100E+03  0.40418229578E+03 -0.55939270604E+02  0.42167877122E+03  0.00000000000E+00 0. -1.
          2    1    1    2  501    0  0.15454137309E+03 -0.49451177016E+03  0.16530275947E+03  0.54382895208E+03  0.25500000000E-02 0.  1.
<mgrwt>
<rscale>  0 0.45191648E+03</rscale>
<asrwt>0</asrwt>
<pdfrwt beam="1">  1       11 0.10000000E+01 0.10235836E+03</pdfrwt>
<pdfrwt beam="2">  1        2 0.66746911E-01 0.45191648E+03</pdfrwt>
<totfact> 0.90278204E+01</totfact>
</mgrwt>
</event>
<event>
 5    1  0.9955701E-004  0.8793252E+02  0.7818608E-02  0.1422328E+00
         11   -1    0    0    0    0  0.00000000000E+00  0.00000000000E+00  0.10002621760E+04  0.10002621760E+04  0.51100000000E-03 0. -1.
          2   -1    0    0  501    0 -0.00000000000E+00 -0.00000000000E+00 -0.26464457547E+02  0.26464457670E+02  0.25500000000E-02 0. -1.
         11    1    1    2    0    0  0.87024865284E+02 -0.32255859654E+02  0.16964194589E+03  0.19337051860E+03  0.51100000000E-03 0. -1.
         22    1    1    2    0    0 -0.21294493425E+02 -0.26271391237E+02  0.11337339331E+02  0.35667586277E+02  0.00000000000E+00 0. -1.
          2    1    1    2  501    0 -0.65730371859E+02  0.58527250891E+02  0.79281843320E+03  0.79768852876E+03  0.25500000000E-02 0. -1.
<mgrwt>
<rscale>  0 0.54531459E+02</rscale>
<asrwt>0</asrwt>
<pdfrwt beam="1">  1       11 0.10000000E+01 0.87932518E+02</pdfrwt>
<pdfrwt beam="2">  1        2 0.40725223E-02 0.54531459E+02</pdfrwt>
<totfact> 0.21882238E+03</totfact>
</mgrwt>
</event>
<event>
 5    1  0.9955701E-004  0.1550409E+03  0.7818608E-02  0.1231598E+00
         11   -1    0    0    0    0  0.00000000000E+00  0.00000000000E+00  0.10000790404E+04  0.10000790404E+04  0.51100000000E-03 0. -1.
          2   -1    0    0  501    0 -0.00000000000E+00 -0.00000000000E+00 -0.13697452202E+03  0.13697452204E+03  0.25500000000E-02 0. -1.
         11    1    1    2    0    0  0.15764089824E+03 -0.28767840312E+02  0.86969856150E+03  0.88433807410E+03  0.51100000000E-03 0. -1.
         22    1    1    2    0    0 -0.66578547163E+02 -0.80462511163E+02 -0.29846266191E+02  0.10861730180E+03  0.00000000000E+00 0. -1.
          2    1    1    2  501    0 -0.91062351080E+02  0.10923035148E+03  0.23252223027E+02  0.14409818649E+03  0.25500000000E-02 0. -1.
<mgrwt>
<rscale>  0 0.12724733E+03</rscale>
<asrwt>0</asrwt>
<pdfrwt beam="1">  1       11 0.10000000E+01 0.15504090E+03</pdfrwt>
<pdfrwt beam="2">  1        2 0.21074668E-01 0.12724733E+03</pdfrwt>
<totfact> 0.31608959E+02</totfact>
</mgrwt>
</event>
<event>
 5    1  0.9955701E-004  0.1297127E+03  0.7818608E-02  0.1374385E+00
         11   -1    0    0    0    0  0.00000000000E+00  0.00000000000E+00  0.10003344010E+04  0.10003344010E+04  0.51100000000E-03 0.  1.
          2   -1    0    0  501    0 -0.00000000000E+00 -0.00000000000E+00 -0.41735655227E+02  0.41735655305E+02  0.25500000000E-02 0.  1.
         11    1    1    2    0    0  0.13268794115E+03  0.12851164016E+02  0.50978494236E+03  0.52692687310E+03  0.51100000000E-03 0.  1.
         22    1    1    2    0    0 -0.61007138335E+01 -0.32984999335E+02 -0.12921261481E+02  0.35947015017E+02  0.00000000000E+00 0.  1.
          2    1    1    2  501    0 -0.12658722731E+03  0.20133835319E+02  0.46173506491E+03  0.47919616820E+03  0.25500000000E-02 0.  1.
<mgrwt>
<rscale>  0 0.65963152E+02</rscale>
<asrwt>0</asrwt>
<pdfrwt beam="1">  1       11 0.10000000E+01 0.12971266E+03</pdfrwt>
<pdfrwt beam="2">  1        2 0.64230170E-02 0.65963152E+02</pdfrwt>
<totfact> 0.12511219E+03</totfact>
</mgrwt>
</event>
<event>
 5    1  0.9955701E-004  0.9618060E+02  0.7818608E-02  0.1388037E+00
         11   -1    0    0    0    0  0.00000000000E+00  0.00000000000E+00  0.10001770385E+04  0.10001770385E+04  0.51100000000E-03 0. -1.
         -2   -1    0    0    0  501 -0.00000000000E+00 -0.00000000000E+00 -0.16956336084E+02  0.16956336275E+02  0.25500000000E-02 0.  1.
         11    1    1    2    0    0  0.11950783051E+03 -0.44588603528E+01  0.57291504837E+03  0.58526374879E+03  0.51100000000E-03 0. -1.
         22    1    1    2    0    0 -0.40059494531E+02  0.58245913554E+01  0.58099203900E+02  0.70811061709E+02  0.00000000000E+00 0.  1.
         -2    1    1    2    0  501 -0.79448335984E+02 -0.13657310027E+01  0.35220645016E+03  0.36105856429E+03  0.25500000000E-02 0.  1.
<mgrwt>
<rscale>  0 0.62397581E+02</rscale>
<asrwt>0</asrwt>
<pdfrwt beam="1">  1       11 0.10000000E+01 0.96180596E+02</pdfrwt>
<pdfrwt beam="2">  1       -2 0.26091289E-02 0.62397581E+02</pdfrwt>
<totfact> 0.35161824E+03</totfact>
</mgrwt>
</event>
<event>
 5    1  0.9955701E-004  0.5707791E+02  0.7818608E-02  0.1524852E+00
         11   -1    0    0    0    0  0.00000000000E+00  0.00000000000E+00  0.99996689191E+03  0.99996689191E+03  0.51100000000E-03 0. -1.
          2   -1    0    0  501    0 -0.00000000000E+00 -0.00000000000E+00 -0.76836736210E+01  0.76836740442E+01  0.25500000000E-02 0. -1.
         11    1    1    2    0    0  0.49096485681E+02  0.49855066543E+02  0.27156980520E+03  0.28043921206E+03  0.51100000000E-03 0. -1.
         22    1    1    2    0    0 -0.61900749939E+00 -0.25059158977E+02  0.72424784178E+02  0.76640028589E+02  0.00000000000E+00 0. -1.
          2    1    1    2  501    0 -0.48477478182E+02 -0.24795907566E+02  0.64828862891E+03  0.65057132530E+03  0.25500000000E-02 0. -1.
<mgrwt>
<rscale>  0 0.37825388E+02</rscale>
<asrwt>0</asrwt>
<pdfrwt beam="1">  1       11 0.10000000E+01 0.57077908E+02</pdfrwt>
<pdfrwt beam="2">  1        2 0.11820645E-02 0.37825388E+02</pdfrwt>
<totfact> 0.10472703E+04</totfact>
</mgrwt>
</event>
<event>
 5    1  0.9955701E-004  0.1838821E+03  0.7818608E-02  0.1405530E+00
         11   -1    0    0    0    0  0.00000000000E+00  0.00000000000E+00  0.10000328992E+04  0.10000328992E+04  0.51100000000E-03 0.  1.
          2   -1    0    0  501    0 -0.00000000000E+00 -0.00000000000E+00 -0.16138807847E+03  0.16138807850E+03  0.25500000000E-02 0.  1.
         11    1    1    2    0    0 -0.11923342785E+03 -0.14111600468E+03  0.91119845273E+03  0.92973811224E+03  0.51100000000E-03 0.  1.
         22    1    1    2    0    0  0.18284936174E+02 -0.22502827364E+01 -0.51968774631E+02  0.55137611482E+02  0.00000000000E+00 0. -1.
          2    1    1    2  501    0  0.10094849167E+03  0.14336628742E+03 -0.20584857377E+02  0.17654525397E+03  0.25500000000E-02 0.  1.
<mgrwt>
<rscale>  0 0.58203418E+02</rscale>
<asrwt>0</asrwt>
<pdfrwt beam="1">  1       11 0.10000000E+01 0.18388206E+03</pdfrwt>
<pdfrwt beam="2">  1        2 0.24829751E-01 0.58203418E+02</pdfrwt>
<totfact> 0.25724270E+02</totfact>
</mgrwt>
</event>
<event>
 5    1  0.9955701E-004  0.9180341E+02  0.7818608E-02  0.1373145E+00
         11   -1    0    0    0    0  0.00000000000E+00  0.00000000000E+00  0.10004784487E+04  0.10004784487E+04  0.51100000000E-03 0. -1.
          2   -1    0    0  501    0 -0.00000000000E+00 -0.00000000000E+00 -0.18699676380E+02  0.18699676553E+02  0.25500000000E-02 0.  1.
         11    1    1    2    0    0 -0.18135011035E+02  0.84536743550E+02  0.49840938428E+03  0.50585299641E+03  0.51100000000E-03 0. -1.
         22    1    1    2    0    0  0.43308313296E+02  0.20423341346E+02  0.61922342142E+02  0.78275790182E+02  0.00000000000E+00 0.  1.
          2    1    1    2  501    0 -0.25173302262E+02 -0.10496008490E+03  0.42144704585E+03  0.43504933861E+03  0.25500000000E-02 0.  1.
<mgrwt>
<rscale>  0 0.66300576E+02</rscale>
<asrwt>0</asrwt>
<pdfrwt beam="1">  1       11 0.10000000E+01 0.91803411E+02</pdfrwt>
<pdfrwt beam="2">  1        2 0.28782497E-02 0.66300576E+02</pdfrwt>
<totfact> 0.35177983E+03</totfact>
</mgrwt>
</event>
<event>
 5    1  0.9955701E-004  0.1241275E+03  0.7818608E-02  0.1309216E+00
         11   -1    0    0    0    0  0.00000000000E+00  0.00000000000E+00  0.99994626685E+03  0.99994626685E+03  0.51100000000E-03 0. -1.
          2   -1    0    0  501    0 -0.00000000000E+00 -0.00000000000E+00 -0.27501109751E+02  0.27501109869E+02  0.25500000000E-02 0.  1.
         11    1    1    2    0    0 -0.40520655997E+02 -0.10409017253E+03  0.41967900680E+03  0.43428925422E+03  0.51100000000E-03 0. -1.
         22    1    1    2    0    0 -0.60523796235E+02 -0.11308945619E+02  0.14738770194E+03  0.15973151488E+03  0.00000000000E+00 0. -1.
          2    1    1    2  501    0  0.10104445223E+03  0.11539911815E+03  0.40537844836E+03  0.43342660762E+03  0.25500000000E-02 0.  1.
<mgrwt>
<rscale>  0 0.87422456E+02</rscale>
<asrwt>0</asrwt>
<pdfrwt beam="1">  1       11 0.10000000E+01 0.12412745E+03</pdfrwt>
<pdfrwt beam="2">  1        2 0.42307125E-02 0.87422456E+02</pdfrwt>
<totfact> 0.21899411E+03</totfact>
</mgrwt>
</event>
<event>
 5    1  0.9955701E-004  0.2111422E+03  0.7818608E-02  0.1140665E+00
         11   -1    0    0    0    0  0.00000000000E+00  0.00000000000E+00  0.10000633909E+04  0.10000633909E+04  0.51100000000E-03 0. -1.
          2   -1    0    0  501    0 -0.00000000000E+00 -0.00000000000E+00 -0.19253812885E+03  0.19253812887E+03  0.25500000000E-02 0. -1.
         11    1    1    2    0    0  0.14599286985E+03 -0.14900672947E+03  0.92687634337E+03  0.95006140821E+03  0.51100000000E-03 0. -1.
         22    1    1    2    0    0 -0.56260373019E+01  0.15608524626E+02 -0.37327065564E+01  0.17006217538E+02  0.00000000000E+00 0.  1.
          2    1    1    2  501    0 -0.14036683255E+03  0.13339820485E+03 -0.11561837481E+03  0.22553389398E+03  0.25500000000E-02 0. -1.
<mgrwt>
<rscale>  0 0.21114219E+03</rscale>
<asrwt>0</asrwt>
<pdfrwt beam="1">  1       11 0.10000000E+01 0.20860710E+03</pdfrwt>
<pdfrwt beam="2">  1        2 0.29623127E-01 0.21114219E+03</pdfrwt>
<totfact> 0.21928141E+02</totfact>
</mgrwt>
</event>
<event>
 5    1  0.9955701E-004  0.2196741E+02  0.7818608E-02  0.1744671E+00
         11   -1    0    0    0    0  0.00000000000E+00  0.00000000000E+00  0.10004264668E+04  0.10004264668E+04  0.51100000000E-03 0. -1.
          2   -1    0    0  501    0 -0.00000000000E+00 -0.00000000000E+00 -0.49682894649E+01  0.49682901193E+01  0.25500000000E-02 0. -1.
         11    1    1    2    0    0 -0.20023504194E+02 -0.76032183250E+01  0.10568809116E+03  0.10783655346E+03  0.51100000000E-03 0. -1.
         22    1    1    2    0    0  0.11893015750E+02 -0.13867755696E+02  0.18550364532E+02  0.26036023044E+02  0.00000000000E+00 0. -1.
          2    1    1    2  501    0  0.81304884436E+01  0.21470974021E+02  0.87121972166E+03  0.87152218043E+03  0.25500000000E-02 0. -1.
<mgrwt>
<rscale>  0 0.20033066E+02</rscale>
<asrwt>0</asrwt>
<pdfrwt beam="1">  1       11 0.10000000E+01 0.21967413E+02</pdfrwt>
<pdfrwt beam="2">  1        2 0.76467822E-03 0.20033066E+02</pdfrwt>
<totfact> 0.16155219E+04</totfact>
</mgrwt>
</event>
<event>
 5    1  0.9955701E-004  0.7269226E+02  0.7818608E-02  0.1351170E+00
         11   -1    0    0    0    0  0.00000000000E+00  0.00000000000E+00  0.99996452061E+03  0.99996452061E+03  0.51100000000E-03 0. -1.
          2   -1    0    0  501    0 -0.00000000000E+00 -0.00000000000E+00 -0.68387819593E+01  0.68387824347E+01  0.25500000000E-02 0. -1.
         11    1    1    2    0    0 -0.11164895000E+02  0.66478221250E+02  0.21573327506E+03  0.22601958930E+03  0.51100000000E-03 0. -1.
         22    1    1    2    0    0  0.84246687041E+01 -0.11161546237E+02  0.81522818559E+02  0.82713512215E+02  0.00000000000E+00 0. -1.
          2    1    1    2  501    0  0.27402262961E+01 -0.55316675013E+02  0.69586964503E+03  0.69807020152E+03  0.25500000000E-02 0. -1.
<mgrwt>
<rscale>  0 0.72692264E+02</rscale>
<asrwt>0</asrwt>
<pdfrwt beam="1">  1       11 0.10000000E+01 0.67409297E+02</pdfrwt>
<pdfrwt beam="2">  1        2 0.10520830E-02 0.72692264E+02</pdfrwt>
<totfact> 0.13740925E+04</totfact>
</mgrwt>
</event>
<event>
 5    1  0.9955701E-004  0.2548316E+03  0.7818608E-02  0.1110289E+00
         11   -1    0    0    0    0  0.00000000000E+00  0.00000000000E+00  0.10001383191E+04  0.10001383191E+04  0.51100000000E-03 0.  1.
         -2   -1    0    0    0  501 -0.00000000000E+00 -0.00000000000E+00 -0.19627405828E+03  0.19627405829E+03  0.25500000000E-02 0. -1.
         11    1    1    2    0    0 -0.24653717140E+03  0.59485013257E+02  0.89154751589E+03  0.92691748110E+03  0.51100000000E-03 0.  1.
         22    1    1    2    0    0  0.15200510905E+02 -0.27730221519E+01  0.62722900033E+00  0.15464106824E+02  0.00000000000E+00 0.  1.
         -2    1    1    2    0  501  0.23133666049E+03 -0.56711991105E+02 -0.88310484028E+02  0.25403078951E+03  0.25500000000E-02 0. -1.
<mgrwt>
<rscale>  0 0.25483160E+03</rscale>
<asrwt>0</asrwt>
<pdfrwt beam="1">  1       11 0.10000000E+01 0.25361199E+03</pdfrwt>
<pdfrwt beam="2">  1       -2 0.30200185E-01 0.25483160E+03</pdfrwt>
<totfact> 0.81383412E+01</totfact>
</mgrwt>
</event>
<event>
 5    1  0.9955701E-004  0.4331945E+02  0.7818608E-02  0.1485114E+00
         11   -1    0    0    0    0  0.00000000000E+00  0.00000000000E+00  0.10000896357E+04  0.10000896357E+04  0.51100000000E-03 0.  1.
          2   -1    0    0  501    0 -0.00000000000E+00 -0.00000000000E+00 -0.59074997701E+01  0.59075003204E+01  0.25500000000E-02 0.  1.
         11    1    1    2    0    0  0.22636970103E+02  0.59224603706E+00  0.11870522457E+03  0.12084582538E+03  0.51100000000E-03 0.  1.
         22    1    1    2    0    0 -0.28169219277E+02 -0.35304701269E+02  0.11059367449E+03  0.11946082070E+03  0.00000000000E+00 0.  1.
          2    1    1    2  501    0  0.55322491738E+01  0.34712455232E+02  0.76488323692E+03  0.76569048999E+03  0.25500000000E-02 0.  1.
<mgrwt>
<rscale>  0 0.43319454E+02</rscale>
<asrwt>0</asrwt>
<pdfrwt beam="1">  1       11 0.10000000E+01 0.22644728E+02</pdfrwt>
<pdfrwt beam="2">  1        2 0.90892760E-03 0.43319454E+02</pdfrwt>
<totfact> 0.15252222E+04</totfact>
</mgrwt>
</event>
<event>
 5    1  0.9955701E-004  0.1173061E+03  0.7818608E-02  0.1247608E+00
         11   -1    0    0    0    0  0.00000000000E+00  0.00000000000E+00  0.99997057539E+03  0.99997057539E+03  0.51100000000E-03 0. -1.
          2   -1    0    0  501    0 -0.00000000000E+00 -0.00000000000E+00 -0.30776146475E+02  0.30776146581E+02  0.25500000000E-02 0. -1.
         11    1    1    2    0    0 -0.79196375675E+02 -0.33683788762E+02  0.35054923745E+03  0.36095904397E+03  0.51100000000E-03 0. -1.
         22    1    1    2    0    0  0.61533501602E+02  0.13758555077E+03  0.38608513204E+03  0.41446095689E+03  0.00000000000E+00 0. -1.
          2    1    1    2  501    0  0.17662874074E+02 -0.10390176201E+03  0.23256005942E+03  0.25532672112E+03  0.25500000000E-02 0. -1.
<mgrwt>
<rscale>  0 0.11730612E+03</rscale>
<asrwt>0</asrwt>
<pdfrwt beam="1">  1       11 0.10000000E+01 0.86061975E+02</pdfrwt>
<pdfrwt beam="2">  1        2 0.47346523E-02 0.11730612E+03</pdfrwt>
<totfact> 0.19435354E+03</totfact>
</mgrwt>
</event>
<event>
 5    1  0.9955701E-004  0.1715695E+03  0.7818608E-02  0.1419689E+00
         11   -1    0    0    0    0  0.00000000000E+00  0.00000000000E+00  0.99987255262E+03  0.99987255262E+03  0.51100000000E-03 0. -1.
         -2   -1    0    0    0  501 -0.00000000000E+00 -0.00000000000E+00 -0.81132515680E+02  0.81132515720E+02  0.25500000000E-02 0. -1.
         11    1    1    2    0    0 -0.41734990981E+02 -0.17485886068E+03  0.56102835827E+03  0.58912668368E+03  0.51100000000E-03 0. -1.
         22    1    1    2    0    0  0.75008570750E+01  0.16017692552E+02 -0.49970315578E+02  0.53008129287E+02  0.00000000000E+00 0. -1.
         -2    1    1    2    0  501  0.34234133906E+02  0.15884116813E+03  0.40768199424E+03  0.43887025537E+03  0.25500000000E-02 0. -1.
<mgrwt>
<rscale>  0 0.55086725E+02</rscale>
<asrwt>0</asrwt>
<pdfrwt beam="1">  1       11 0.10000000E+01 0.17156954E+03</pdfrwt>
<pdfrwt beam="2">  1       -2 0.12480334E-01 0.55086725E+02</pdfrwt>
<totfact> 0.34014726E+02</totfact>
</mgrwt>
</event>
<event>
 5    1  0.9955701E-004  0.5078773E+02  0.7818608E-02  0.1620749E+00
         11   -1    0    0    0    0  0.00000000000E+00  0.00000000000E+00  0.10001826745E+04  0.10001826745E+04  0.51100000000E-03 0. -1.
          2   -1    0    0  501    0 -0.00000000000E+00 -0.00000000000E+00 -0.54389254270E+01  0.54389260248E+01  0.25500000000E-02 0. -1.
         11    1    1    2    0    0  0.60707178868E+02  0.10959988437E+02  0.23961555301E+03  0.24742897195E+03  0.51100000000E-03 0. -1.
         22    1    1    2    0    0 -0.12291243069E+02 -0.94229264029E+01  0.91730570942E+02  0.93028833398E+02  0.00000000000E+00 0.  1.
          2    1    1    2  501    0 -0.48415935799E+02 -0.15370620343E+01  0.66339762515E+03  0.66516379521E+03  0.25500000000E-02 0. -1.
<mgrwt>
<rscale>  0 0.28046042E+02</rscale>
<asrwt>0</asrwt>
<pdfrwt beam="1">  1       11 0.10000000E+01 0.50787734E+02</pdfrwt>
<pdfrwt beam="2">  1        2 0.83691063E-03 0.28046042E+02</pdfrwt>
<totfact> 0.15542342E+04</totfact>
</mgrwt>
</event>
<event>
 5    1  0.9955701E-004  0.7506134E+02  0.7818608E-02  0.1556400E+00
         11   -1    0    0    0    0  0.00000000000E+00  0.00000000000E+00  0.99992212047E+03  0.99992212047E+03  0.51100000000E-03 0.  1.
          2   -1    0    0  501    0 -0.00000000000E+00 -0.00000000000E+00 -0.56454476982E+02  0.56454477040E+02  0.25500000000E-02 0.  1.
         11    1    1    2    0    0 -0.78862839560E+02 -0.18808371924E+02 -0.54573284434E+00  0.81076507957E+02  0.51100000000E-03 0.  1.
         22    1    1    2    0    0  0.10392634141E+02 -0.11533545021E+02 -0.99249590562E+01  0.18426456996E+02  0.00000000000E+00 0.  1.
          2    1    1    2  501    0  0.68470205420E+02  0.30341916946E+02  0.95393833539E+03  0.95687363256E+03  0.25500000000E-02 0.  1.
<mgrwt>
<rscale>  0 0.34137019E+02</rscale>
<asrwt>0</asrwt>
<pdfrwt beam="1">  1       11 0.10000000E+01 0.75061338E+02</pdfrwt>
<pdfrwt beam="2">  1        2 0.86846275E-02 0.34137019E+02</pdfrwt>
<totfact> 0.81627286E+02</totfact>
</mgrwt>
</event>
<event>
 5    1  0.9955701E-004  0.1437518E+03  0.7818608E-02  0.1394633E+00
         11   -1    0    0    0    0  0.00000000000E+00  0.00000000000E+00  0.10004831413E+04  0.10004831413E+04  0.51100000000E-03 0. -1.
          2   -1    0    0  501    0 -0.00000000000E+00 -0.00000000000E+00 -0.57508254541E+02  0.57508254597E+02  0.25500000000E-02 0.  1.
         11    1    1    2    0    0 -0.10486484042E+03  0.92959642530E+02  0.73117556093E+03  0.74448360009E+03  0.51100000000E-03 0. -1.
         22    1    1    2    0    0 -0.25414826361E+02 -0.37445783674E+01 -0.20333634715E+02  0.32762661168E+02  0.00000000000E+00 0.  1.
          2    1    1    2  501    0  0.13027966678E+03 -0.89215064163E+02  0.23213296057E+03  0.28074513467E+03  0.25500000000E-02 0.  1.
<mgrwt>
<rscale>  0 0.60768981E+02</rscale>
<asrwt>0</asrwt>
<pdfrwt beam="1">  1       11 0.10000000E+01 0.14375178E+03</pdfrwt>
<pdfrwt beam="2">  1        2 0.88516981E-02 0.60768981E+02</pdfrwt>
<totfact> 0.83717512E+02</totfact>
</mgrwt>
</event>
<event>
 5    1  0.9955701E-004  0.3911436E+02  0.7818608E-02  0.1739830E+00
         11   -1    0    0    0    0  0.00000000000E+00  0.00000000000E+00  0.10001767951E+04  0.10001767951E+04  0.51100000000E-03 0. -1.
          2   -1    0    0  501    0 -0.00000000000E+00 -0.00000000000E+00 -0.39396870980E+01  0.39396879232E+01  0.25500000000E-02 0. -1.
         11    1    1    2    0    0 -0.47187356248E+02 -0.70430027169E+01  0.25939468951E+03  0.26374581593E+03  0.51100000000E-03 0. -1.
         22    1    1    2    0    0  0.10454739357E+02  0.11154612618E+01  0.20285313860E+02  0.22848190022E+02  0.00000000000E+00 0. -1.
          2    1    1    2  501    0  0.36732616891E+02  0.59275414551E+01  0.71655710468E+03  0.71752247711E+03  0.25500000000E-02 0. -1.
<mgrwt>
<rscale>  0 0.20279330E+02</rscale>
<asrwt>0</asrwt>
<pdfrwt beam="1">  1       11 0.10000000E+01 0.39114360E+02</pdfrwt>
<pdfrwt beam="2">  1        2 0.60621291E-03 0.20279330E+02</pdfrwt>
<totfact> 0.21925980E+04</totfact>
</mgrwt>
</event>
<event>
 5    1  0.9955701E-004  0.2630834E+03  0.7818608E-02  0.1324156E+00
         11   -1    0    0    0    0  0.00000000000E+00  0.00000000000E+00  0.99986034147E+03  0.99986034147E+03  0.51100000000E-03 0.  1.
          2   -1    0    0  501    0 -0.00000000000E+00 -0.00000000000E+00 -0.24391132944E+03  0.24391132946E+03  0.25500000000E-02 0.  1.
         11    1    1    2    0    0  0.20658394021E+03  0.16124409461E+03  0.81228255168E+03  0.85351012072E+03  0.51100000000E-03 0.  1.
         22    1    1    2    0    0 -0.10202709512E+02  0.23264097732E+02 -0.11222635629E+03  0.11506549687E+03  0.00000000000E+00 0. -1.
          2    1    1    2  501    0 -0.19638123070E+03 -0.18450819235E+03  0.55892816639E+02  0.27519605334E+03  0.25500000000E-02 0.  1.
<mgrwt>
<rscale>  0 0.81750314E+02</rscale>
<asrwt>0</asrwt>
<pdfrwt beam="1">  1       11 0.10000000E+01 0.26308342E+03</pdfrwt>
<pdfrwt beam="2">  1        2 0.37519578E-01 0.81750314E+02</pdfrwt>
<totfact> 0.16757887E+02</totfact>
</mgrwt>
</event>
<event>
 5    1  0.9955701E-004  0.4433105E+02  0.7818608E-02  0.1569426E+00
         11   -1    0    0    0    0  0.00000000000E+00  0.00000000000E+00  0.10002402203E+04  0.10002402203E+04  0.51100000000E-03 0.  1.
         -2   -1    0    0    0  501 -0.00000000000E+00 -0.00000000000E+00 -0.15206610069E+02  0.15206610283E+02  0.25500000000E-02 0.  1.
         11    1    1    2    0    0  0.30356502883E+02 -0.12781096186E+02  0.19875010099E+03  0.20146085558E+03  0.51100000000E-03 0.  1.
         22    1    1    2    0    0  0.84572874587E+01 -0.22686484093E+02 -0.16803782447E+01  0.24269856668E+02  0.00000000000E+00 0.  1.
         -2    1    1    2    0  501 -0.38813790341E+02  0.35467580279E+02  0.78796388744E+03  0.78971611829E+03  0.25500000000E-02 0.  1.
<mgrwt>
<rscale>  0 0.32761650E+02</rscale>
<asrwt>0</asrwt>
<pdfrwt beam="1">  1       11 0.10000000E+01 0.44331049E+02</pdfrwt>
<pdfrwt beam="2">  1       -2 0.23400404E-02 0.32761650E+02</pdfrwt>
<totfact> 0.37206978E+03</totfact>
</mgrwt>
</event>
<event>
 5    1  0.9955701E-004  0.1685740E+03  0.7818608E-02  0.1472889E+00
         11   -1    0    0    0    0  0.00000000000E+00  0.00000000000E+00  0.10003511628E+04  0.10003511628E+04  0.51100000000E-03 0.  1.
          2   -1    0    0  501    0 -0.00000000000E+00 -0.00000000000E+00 -0.87722288959E+02  0.87722288996E+02  0.25500000000E-02 0.  1.
         11    1    1    2    0    0 -0.16774109875E+03 -0.19026657084E+02  0.82735678670E+03  0.84440413452E+03  0.51100000000E-03 0.  1.
         22    1    1    2    0    0  0.28862569160E+01 -0.11789339714E+02 -0.35160929050E+02  0.37196907688E+02  0.00000000000E+00 0. -1.
          2    1    1    2  501    0  0.16485484183E+03  0.30815996797E+02  0.12043301623E+03  0.20647240963E+03  0.25500000000E-02 0.  1.
<mgrwt>
<rscale>  0 0.45233475E+02</rscale>
<asrwt>0</asrwt>
<pdfrwt beam="1">  1       11 0.10000000E+01 0.16857397E+03</pdfrwt>
<pdfrwt beam="2">  1        2 0.13500476E-01 0.45233475E+02</pdfrwt>
<totfact> 0.49880878E+02</totfact>
</mgrwt>
</event>
<event>
 5    1  0.9955701E-004  0.1869360E+03  0.7818608E-02  0.1471597E+00
         11   -1    0    0    0    0  0.00000000000E+00  0.00000000000E+00  0.10001891410E+04  0.10001891410E+04  0.51100000000E-03 0. -1.
          2   -1    0    0  501    0 -0.00000000000E+00 -0.00000000000E+00 -0.90877400426E+02  0.90877400462E+02  0.25500000000E-02 0. -1.
         11    1    1    2    0    0  0.11754792986E+03  0.14409492266E+03  0.85624029145E+03  0.87620106097E+03  0.51100000000E-03 0. -1.
         22    1    1    2    0    0  0.10954859494E+02  0.14220181611E+01 -0.51506021928E+01  0.12188510374E+02  0.00000000000E+00 0.  1.
          2    1    1    2  501    0 -0.12850278935E+03 -0.14551694082E+03  0.58222051281E+02  0.20267697008E+03  0.25500000000E-02 0. -1.
<mgrwt>
<rscale>  0 0.45442701E+02</rscale>
<asrwt>0</asrwt>
<pdfrwt beam="1">  1       11 0.10000000E+01 0.18693604E+03</pdfrwt>
<pdfrwt beam="2">  1        2 0.13983783E-01 0.45442701E+02</pdfrwt>
<totfact> 0.47933373E+02</totfact>
</mgrwt>
</event>
<event>
 5    1  0.9955701E-004  0.1769669E+03  0.7818608E-02  0.1383393E+00
         11   -1    0    0    0    0  0.00000000000E+00  0.00000000000E+00  0.10002051993E+04  0.10002051993E+04  0.51100000000E-03 0.  1.
          2   -1    0    0  501    0 -0.00000000000E+00 -0.00000000000E+00 -0.14883493847E+03  0.14883493849E+03  0.25500000000E-02 0.  1.
         11    1    1    2    0    0 -0.17640824078E+03 -0.37562090227E+01  0.91422156488E+03  0.93109346803E+03  0.51100000000E-03 0.  1.
         22    1    1    2    0    0 -0.84718587044E+01  0.21213846848E+02 -0.94313763535E+01  0.24713367798E+02  0.00000000000E+00 0.  1.
          2    1    1    2  501    0  0.18488009948E+03 -0.17457637826E+02 -0.53419927705E+02  0.19323330196E+03  0.25500000000E-02 0.  1.
<mgrwt>
<rscale>  0 0.63580211E+02</rscale>
<asrwt>0</asrwt>
<pdfrwt beam="1">  1       11 0.10000000E+01 0.17696689E+03</pdfrwt>
<pdfrwt beam="2">  1        2 0.22902381E-01 0.63580211E+02</pdfrwt>
<totfact> 0.28159957E+02</totfact>
</mgrwt>
</event>
<event>
 5    1  0.9955701E-004  0.1714678E+03  0.7818608E-02  0.1353770E+00
         11   -1    0    0    0    0  0.00000000000E+00  0.00000000000E+00  0.10000240784E+04  0.10000240784E+04  0.51100000000E-03 0. -1.
          2   -1    0    0  501    0 -0.00000000000E+00 -0.00000000000E+00 -0.19306959138E+03  0.19306959140E+03  0.25500000000E-02 0. -1.
         11    1    1    2    0    0 -0.76940957498E+02 -0.15396925721E+03  0.93641669526E+03  0.95210433791E+03  0.51100000000E-03 0. -1.
         22    1    1    2    0    0 -0.19775763467E+02  0.22749886534E+02 -0.52918511385E+02  0.60901617426E+02  0.00000000000E+00 0.  1.
          2    1    1    2  501    0  0.96716720964E+02  0.13121937068E+03 -0.76543696877E+02  0.18008771444E+03  0.25500000000E-02 0. -1.
<mgrwt>
<rscale>  0 0.71893393E+02</rscale>
<asrwt>0</asrwt>
<pdfrwt beam="1">  1       11 0.10000000E+01 0.17146776E+03</pdfrwt>
<pdfrwt beam="2">  1        2 0.29703728E-01 0.71893393E+02</pdfrwt>
<totfact> 0.21382187E+02</totfact>
</mgrwt>
</event>
<event>
 5    1  0.9955701E-004  0.1482167E+03  0.7818608E-02  0.1480105E+00
         11   -1    0    0    0    0  0.00000000000E+00  0.00000000000E+00  0.99988824880E+03  0.99988824880E+03  0.51100000000E-03 0. -1.
          2   -1    0    0  501    0 -0.00000000000E+00 -0.00000000000E+00 -0.29148820108E+02  0.29148820220E+02  0.25500000000E-02 0. -1.
         11    1    1    2    0    0  0.77314587345E+01 -0.15158965898E+03  0.63690838003E+03  0.65474535868E+03  0.51100000000E-03 0. -1.
         22    1    1    2    0    0  0.84990460229E+01  0.99889516194E+01  0.21583845452E+01  0.13291785493E+02  0.00000000000E+00 0.  1.
          2    1    1    2  501    0 -0.16230504757E+02  0.14160070736E+03  0.33167266412E+03  0.36099992485E+03  0.25500000000E-02 0. -1.
<mgrwt>
<rscale>  0 0.44089869E+02</rscale>
<asrwt>0</asrwt>
<pdfrwt beam="1">  1       11 0.10000000E+01 0.14821667E+03</pdfrwt>
<pdfrwt beam="2">  1        2 0.44839326E-02 0.44089869E+02</pdfrwt>
<totfact> 0.18888586E+03</totfact>
</mgrwt>
</event>
<event>
 5    1  0.9955701E-004  0.1454434E+03  0.7818608E-02  0.1517936E+00
         11   -1    0    0    0    0  0.00000000000E+00  0.00000000000E+00  0.10002162130E+04  0.10002162131E+04  0.51100000000E-03 0. -1.
          2   -1    0    0  501    0 -0.00000000000E+00 -0.00000000000E+00 -0.31425992495E+02  0.31425992599E+02  0.25500000000E-02 0. -1.
         11    1    1    2    0    0  0.14106705060E+03  0.15055194902E+02  0.26899966205E+03  0.30411739483E+03  0.51100000000E-03 0. -1.
         22    1    1    2    0    0  0.58631210992E+01 -0.84707851370E+01 -0.19945910035E+01  0.10493273233E+02  0.00000000000E+00 0. -1.
          2    1    1    2  501    0 -0.14693017170E+03 -0.65844097653E+01  0.70178514951E+03  0.71703153758E+03  0.25500000000E-02 0. -1.
<mgrwt>
<rscale>  0 0.38708540E+02</rscale>
<asrwt>0</asrwt>
<pdfrwt beam="1">  1       11 0.10000000E+01 0.14544336E+03</pdfrwt>
<pdfrwt beam="2">  1        2 0.48358133E-02 0.38708540E+02</pdfrwt>
<totfact> 0.16914874E+03</totfact>
</mgrwt>
</event>
<event>
 5    1  0.9955701E-004  0.6401217E+02  0.7818608E-02  0.1470082E+00
         11   -1    0    0    0    0  0.00000000000E+00  0.00000000000E+00  0.10003278768E+04  0.10003278768E+04  0.51100000000E-03 0. -1.
          2   -1    0    0  501    0 -0.00000000000E+00 -0.00000000000E+00 -0.11151782724E+02  0.11151783015E+02  0.25500000000E-02 0. -1.
         11    1    1    2    0    0  0.27169221827E+02  0.74747463517E+02  0.37431569540E+03  0.38267164742E+03  0.51100000000E-03 0. -1.
         22    1    1    2    0    0  0.79173108633E+01 -0.45481770931E+02  0.82889052460E+02  0.94878186724E+02  0.00000000000E+00 0. -1.
          2    1    1    2  501    0 -0.35086532691E+02 -0.29265692585E+02  0.53197134619E+03  0.53392982564E+03  0.25500000000E-02 0. -1.
<mgrwt>
<rscale>  0 0.45689666E+02</rscale>
<asrwt>0</asrwt>
<pdfrwt beam="1">  1       11 0.10000000E+01 0.64012169E+02</pdfrwt>
<pdfrwt beam="2">  1        2 0.17162214E-02 0.45689666E+02</pdfrwt>
<totfact> 0.66057424E+03</totfact>
</mgrwt>
</event>
<event>
 5    1  0.9968097E-004  0.1870996E+03  0.7818608E-02  0.1161104E+00
         11   -1    0    0    0    0  0.00000000000E+00  0.00000000000E+00  0.99996207356E+03  0.99996207356E+03  0.51100000000E-03 0.  1.
         -2   -1    0    0    0  501 -0.00000000000E+00 -0.00000000000E+00 -0.30697773708E+03  0.30697773709E+03  0.25500000000E-02 0. -1.
         11    1    1    2    0    0 -0.18113831047E+03 -0.30602929928E+01  0.96219274640E+03  0.97909924632E+03  0.51100000000E-03 0.  1.
         22    1    1    2    0    0  0.30907340255E+02  0.16061417802E+02 -0.35712320617E+02  0.49885896477E+02  0.00000000000E+00 0. -1.
         -2    1    1    2    0  501  0.15023097021E+03 -0.13001124809E+02 -0.23349608930E+03  0.27795466785E+03  0.25500000000E-02 0. -1.
<mgrwt>
<rscale>  0 0.18709962E+03</rscale>
<asrwt>0</asrwt>
<pdfrwt beam="1">  1       11 0.10000000E+01 0.18116416E+03</pdfrwt>
<pdfrwt beam="2">  1       -2 0.47225552E-01 0.18709962E+03</pdfrwt>
<totfact> 0.34877269E+01</totfact>
</mgrwt>
</event>
<event>
 5    1  0.9955701E-004  0.3013069E+02  0.7818608E-02  0.1700119E+00
         11   -1    0    0    0    0  0.00000000000E+00  0.00000000000E+00  0.10003741285E+04  0.10003741285E+04  0.51100000000E-03 0. -1.
          2   -1    0    0  501    0 -0.00000000000E+00 -0.00000000000E+00 -0.13789683838E+02  0.13789684074E+02  0.25500000000E-02 0. -1.
         11    1    1    2    0    0 -0.17441086286E+02 -0.34113910985E+02  0.55210123785E+02  0.67201995373E+02  0.51100000000E-03 0. -1.
         22    1    1    2    0    0 -0.60998942498E+01  0.15619723429E+02  0.17545041903E+01  0.16860093559E+02  0.00000000000E+00 0. -1.
          2    1    1    2  501    0  0.23540980536E+02  0.18494187556E+02  0.92961981664E+03  0.93010172360E+03  0.25500000000E-02 0. -1.
<mgrwt>
<rscale>  0 0.22477720E+02</rscale>
<asrwt>0</asrwt>
<pdfrwt beam="1">  1       11 0.10000000E+01 0.30130689E+02</pdfrwt>
<pdfrwt beam="2">  1        2 0.21222835E-02 0.22477720E+02</pdfrwt>
<totfact> 0.44356513E+03</totfact>
</mgrwt>
</event>
<event>
 5    1  0.9955701E-004  0.8471959E+02  0.7818608E-02  0.1506312E+00
         11   -1    0    0    0    0  0.00000000000E+00  0.00000000000E+00  0.10002045157E+04  0.10002045157E+04  0.51100000000E-03 0. -1.
          2   -1    0    0  501    0 -0.00000000000E+00 -0.00000000000E+00 -0.33678435287E+02  0.33678435384E+02  0.25500000000E-02 0. -1.
         11    1    1    2    0    0 -0.40879973426E+02 -0.75818110369E+02  0.43672401243E+03  0.44513753056E+03  0.51100000000E-03 0. -1.
         22    1    1    2    0    0  0.18272951304E+02 -0.56666314395E+01 -0.22770007240E+02  0.29740287338E+02  0.00000000000E+00 0. -1.
          2    1    1    2  501    0  0.22607022122E+02  0.81484741809E+02  0.55257207524E+03  0.55900513319E+03  0.25500000000E-02 0. -1.
<mgrwt>
<rscale>  0 0.40259232E+02</rscale>
<asrwt>0</asrwt>
<pdfrwt beam="1">  1       11 0.10000000E+01 0.84719591E+02</pdfrwt>
<pdfrwt beam="2">  1        2 0.51823573E-02 0.40259232E+02</pdfrwt>
<totfact> 0.15580759E+03</totfact>
</mgrwt>
</event>
<event>
 5    1  0.9955701E-004  0.3234919E+03  0.7818608E-02  0.1074053E+00
         11   -1    0    0    0    0  0.00000000000E+00  0.00000000000E+00  0.10002229150E+04  0.10002229150E+04  0.51100000000E-03 0. -1.
          2   -1    0    0  501    0 -0.00000000000E+00 -0.00000000000E+00 -0.84005650050E+03  0.84005650050E+03  0.25500000000E-02 0. -1.
         11    1    1    2    0    0 -0.23556017276E+02 -0.31786568412E+03  0.94184015650E+03  0.99431200309E+03  0.51100000000E-03 0. -1.
         22    1    1    2    0    0 -0.69655558924E+01  0.25996059389E+02 -0.10509739401E+03  0.10848859986E+03  0.00000000000E+00 0.  1.
          2    1    1    2  501    0  0.30521573168E+02  0.29186962473E+03 -0.67657634800E+03  0.73747881254E+03  0.25500000000E-02 0. -1.
<mgrwt>
<rscale>  0 0.32349192E+03</rscale>
<asrwt>0</asrwt>
<pdfrwt beam="1">  1       11 0.10000000E+01 0.31873732E+03</pdfrwt>
<pdfrwt beam="2">  1        2 0.12926827E+00 0.32349192E+03</pdfrwt>
<totfact> 0.41316912E+01</totfact>
</mgrwt>
</event>
<event>
 5    1  0.9955701E-004  0.5168946E+02  0.7818608E-02  0.1529034E+00
         11   -1    0    0    0    0  0.00000000000E+00  0.00000000000E+00  0.10001585252E+04  0.10001585252E+04  0.51100000000E-03 0.  1.
          2   -1    0    0  501    0 -0.00000000000E+00 -0.00000000000E+00 -0.13780938972E+02  0.13780939208E+02  0.25500000000E-02 0.  1.
         11    1    1    2    0    0  0.60506290216E+02  0.97479579413E+01  0.36564194381E+03  0.37074258578E+03  0.51100000000E-03 0.  1.
         22    1    1    2    0    0 -0.19723244692E+02  0.18327109304E+02  0.74769246279E+01  0.27942686315E+02  0.00000000000E+00 0.  1.
          2    1    1    2  501    0 -0.40783045524E+02 -0.28075067245E+02  0.61325871779E+03  0.61525419231E+03  0.25500000000E-02 0.  1.
<mgrwt>
<rscale>  0 0.37305152E+02</rscale>
<asrwt>0</asrwt>
<pdfrwt beam="1">  1       11 0.10000000E+01 0.51689461E+02</pdfrwt>
<pdfrwt beam="2">  1        2 0.21204805E-02 0.37305152E+02</pdfrwt>
<totfact> 0.48426858E+03</totfact>
</mgrwt>
</event>
<event>
 5    1  0.9955701E-004  0.2216494E+03  0.7818608E-02  0.1132659E+00
         11   -1    0    0    0    0  0.00000000000E+00  0.00000000000E+00  0.10002480139E+04  0.10002480139E+04  0.51100000000E-03 0.  1.
          2   -1    0    0  501    0 -0.00000000000E+00 -0.00000000000E+00 -0.98436661909E+02  0.98436661942E+02  0.25500000000E-02 0.  1.
         11    1    1    2    0    0  0.17891470998E+03 -0.11877845582E+03  0.84221461446E+03  0.86916296046E+03  0.51100000000E-03 0.  1.
         22    1    1    2    0    0 -0.24627816499E+02  0.11754437961E+02 -0.10290668564E+02  0.29164944998E+02  0.00000000000E+00 0. -1.
          2    1    1    2  501    0 -0.15428689348E+03  0.10702401786E+03  0.69887406069E+02  0.20035677037E+03  0.25500000000E-02 0.  1.
<mgrwt>
<rscale>  0 0.22164938E+03</rscale>
<asrwt>0</asrwt>
<pdfrwt beam="1">  1       11 0.10000000E+01 0.21475287E+03</pdfrwt>
<pdfrwt beam="2">  1        2 0.15147857E-01 0.22164938E+03</pdfrwt>
<totfact> 0.47145415E+02</totfact>
</mgrwt>
</event>
<event>
 5    1  0.9955701E-004  0.1494989E+03  0.7818608E-02  0.1257988E+00
         11   -1    0    0    0    0  0.00000000000E+00  0.00000000000E+00  0.10000794957E+04  0.10000794957E+04  0.51100000000E-03 0. -1.
          2   -1    0    0  501    0 -0.00000000000E+00 -0.00000000000E+00 -0.31810423988E+03  0.31810423989E+03  0.25500000000E-02 0. -1.
         11    1    1    2    0    0  0.16254051278E+03  0.76432288522E+02  0.83136976354E+03  0.85055099597E+03  0.51100000000E-03 0. -1.
         22    1    1    2    0    0 -0.80672603390E+02 -0.19600083044E+02 -0.28641356231E+03  0.29820288541E+03  0.00000000000E+00 0. -1.
          2    1    1    2  501    0 -0.81867909389E+02 -0.56832205478E+02  0.13701905456E+03  0.16942985418E+03  0.25500000000E-02 0. -1.
<mgrwt>
<rscale>  0 0.11140608E+03</rscale>
<asrwt>0</asrwt>
<pdfrwt beam="1">  1       11 0.10000000E+01 0.14949885E+03</pdfrwt>
<pdfrwt beam="2">  1        2 0.48943003E-01 0.11140608E+03</pdfrwt>
<totfact> 0.12719303E+02</totfact>
</mgrwt>
</event>
<event>
 5    1  0.9955701E-004  0.8374727E+02  0.7818608E-02  0.1496768E+00
         11   -1    0    0    0    0  0.00000000000E+00  0.00000000000E+00  0.10000798697E+04  0.10000798697E+04  0.51100000000E-03 0.  1.
          2   -1    0    0  501    0 -0.00000000000E+00 -0.00000000000E+00 -0.90728609018E+01  0.90728612601E+01  0.25500000000E-02 0.  1.
         11    1    1    2    0    0 -0.81731351455E+02 -0.30348842526E+02  0.48396178244E+03  0.49175204414E+03  0.51100000000E-03 0.  1.
         22    1    1    2    0    0  0.14073223419E+02 -0.15128835120E+02  0.78723113210E+02  0.81389592842E+02  0.00000000000E+00 0.  1.
          2    1    1    2  501    0  0.67658128037E+02  0.45477677646E+02  0.42832211313E+03  0.43601109396E+03  0.25500000000E-02 0.  1.
<mgrwt>
<rscale>  0 0.41598364E+02</rscale>
<asrwt>0</asrwt>
<pdfrwt beam="1">  1       11 0.10000000E+01 0.83747275E+02</pdfrwt>
<pdfrwt beam="2">  1        2 0.13959362E-02 0.41598364E+02</pdfrwt>
<totfact> 0.85481510E+03</totfact>
</mgrwt>
</event>
<event>
 5    1  0.9955701E-004  0.1435402E+03  0.7818608E-02  0.1364272E+00
         11   -1    0    0    0    0  0.00000000000E+00  0.00000000000E+00  0.10001646577E+04  0.10001646577E+04  0.51100000000E-03 0. -1.
         -2   -1    0    0    0  501 -0.00000000000E+00 -0.00000000000E+00 -0.72906723655E+02  0.72906723699E+02  0.25500000000E-02 0.  1.
         11    1    1    2    0    0  0.12730656487E+03  0.63360399662E+02  0.46733721740E+03  0.48849316932E+03  0.51100000000E-03 0. -1.
         22    1    1    2    0    0  0.15346131022E+02 -0.29172584609E+02 -0.46692145581E+02  0.57155051300E+02  0.00000000000E+00 0.  1.
         -2    1    1    2    0  501 -0.14265269590E+03 -0.34187815053E+02  0.50661286218E+03  0.52742316074E+03  0.25500000000E-02 0.  1.
<mgrwt>
<rscale>  0 0.68785749E+02</rscale>
<asrwt>0</asrwt>
<pdfrwt beam="1">  1       11 0.10000000E+01 0.14354022E+03</pdfrwt>
<pdfrwt beam="2">  1       -2 0.11218266E-01 0.68785749E+02</pdfrwt>
<totfact> 0.40799819E+02</totfact>
</mgrwt>
</event>
<event>
 5    1  0.9955701E-004  0.3845884E+02  0.7818608E-02  0.1535446E+00
         11   -1    0    0    0    0  0.00000000000E+00  0.00000000000E+00  0.10001562223E+04  0.10001562223E+04  0.51100000000E-03 0. -1.
          2   -1    0    0  501    0 -0.00000000000E+00 -0.00000000000E+00 -0.34125906741E+01  0.34125916268E+01  0.25500000000E-02 0. -1.
         11    1    1    2    0    0 -0.17358939882E+02  0.84237017193E+01  0.46031105349E+02  0.49911463657E+02  0.51100000000E-03 0. -1.
         22    1    1    2    0    0 -0.11826166971E+02  0.13540652226E+02  0.72860194687E+02  0.75045422630E+02  0.00000000000E+00 0. -1.
          2    1    1    2  501    0  0.29185106853E+02 -0.21964353945E+02  0.87785233164E+03  0.87861192769E+03  0.25500000000E-02 0. -1.
<mgrwt>
<rscale>  0 0.36526748E+02</rscale>
<asrwt>0</asrwt>
<pdfrwt beam="1">  1       11 0.10000000E+01 0.38458838E+02</pdfrwt>
<pdfrwt beam="2">  1        2 0.52509603E-03 0.36526748E+02</pdfrwt>
<totfact> 0.30639938E+04</totfact>
</mgrwt>
</event>
<event>
 5    1  0.9955701E-004  0.6550501E+02  0.7818608E-02  0.1464140E+00
         11   -1    0    0    0    0  0.00000000000E+00  0.00000000000E+00  0.10001432005E+04  0.10001432005E+04  0.51100000000E-03 0. -1.
         -2   -1    0    0    0  501 -0.00000000000E+00 -0.00000000000E+00 -0.86341134818E+01  0.86341138583E+01  0.25500000000E-02 0. -1.
         11    1    1    2    0    0  0.51966681852E+02 -0.22864571693E+02  0.29240383871E+03  0.29786461615E+03  0.51100000000E-03 0. -1.
         22    1    1    2    0    0 -0.16957676938E+01 -0.33216452439E+02  0.72114883709E+02  0.79415142089E+02  0.00000000000E+00 0. -1.
         -2    1    1    2    0  501 -0.50270914158E+02  0.56081024133E+02  0.62699036462E+03  0.63149755614E+03  0.25500000000E-02 0. -1.
<mgrwt>
<rscale>  0 0.46676296E+02</rscale>
<asrwt>0</asrwt>
<pdfrwt beam="1">  1       11 0.10000000E+01 0.65505012E+02</pdfrwt>
<pdfrwt beam="2">  1       -2 0.13285154E-02 0.46676296E+02</pdfrwt>
<totfact> 0.87138065E+03</totfact>
</mgrwt>
</event>
<event>
 5    1  0.9955701E-004  0.2654910E+03  0.7818608E-02  0.1368536E+00
         11   -1    0    0    0    0  0.00000000000E+00  0.00000000000E+00  0.10002284358E+04  0.10002284358E+04  0.51100000000E-03 0. -1.
          2   -1    0    0  501    0 -0.00000000000E+00 -0.00000000000E+00 -0.76570445286E+02  0.76570445329E+02  0.25500000000E-02 0. -1.
         11    1    1    2    0    0 -0.20523017581E+03  0.16878948326E+03  0.51167731127E+03  0.57656134590E+03  0.51100000000E-03 0. -1.
         22    1    1    2    0    0 -0.10319094414E+02 -0.13760952914E+02  0.16064793275E+02  0.23535613814E+02  0.00000000000E+00 0. -1.
          2    1    1    2  501    0  0.21554927022E+03 -0.15502853034E+03  0.39591588599E+03  0.47670192143E+03  0.25500000000E-02 0. -1.
<mgrwt>
<rscale>  0 0.67575907E+02</rscale>
<asrwt>0</asrwt>
<pdfrwt beam="1">  1       11 0.10000000E+01 0.26549099E+03</pdfrwt>
<pdfrwt beam="2">  1        2 0.11782759E-01 0.67575907E+02</pdfrwt>
<totfact> 0.59916523E+02</totfact>
</mgrwt>
</event>
<event>
 5    1  0.9955701E-004  0.1690232E+03  0.7818608E-02  0.1421354E+00
         11   -1    0    0    0    0  0.00000000000E+00  0.00000000000E+00  0.10002152092E+04  0.10002152092E+04  0.51100000000E-03 0. -1.
          2   -1    0    0  501    0 -0.00000000000E+00 -0.00000000000E+00 -0.13406966313E+03  0.13406966316E+03  0.25500000000E-02 0. -1.
         11    1    1    2    0    0  0.17069432024E+03  0.21039023723E+02  0.81221142880E+03  0.83022081193E+03  0.51100000000E-03 0. -1.
         22    1    1    2    0    0 -0.15657085760E+02  0.83089538192E+01 -0.89249562476E+02  0.90992678003E+02  0.00000000000E+00 0. -1.
          2    1    1    2  501    0 -0.15503723448E+03 -0.29347977542E+02  0.14318367975E+03  0.21307138244E+03  0.25500000000E-02 0. -1.
<mgrwt>
<rscale>  0 0.54735468E+02</rscale>
<asrwt>0</asrwt>
<pdfrwt beam="1">  1       11 0.10000000E+01 0.16902319E+03</pdfrwt>
<pdfrwt beam="2">  1        2 0.20630540E-01 0.54735468E+02</pdfrwt>
<totfact> 0.31365901E+02</totfact>
</mgrwt>
</event>
<event>
 5    1  0.9955701E-004  0.1339772E+03  0.7818608E-02  0.1422170E+00
         11   -1    0    0    0    0  0.00000000000E+00  0.00000000000E+00  0.99985010835E+03  0.99985010835E+03  0.51100000000E-03 0. -1.
          2   -1    0    0  501    0 -0.00000000000E+00 -0.00000000000E+00 -0.46157240865E+02  0.46157240936E+02  0.25500000000E-02 0. -1.
         11    1    1    2    0    0  0.79168152869E+02 -0.11496873134E+03  0.79587236298E+03  0.80802117779E+03  0.51100000000E-03 0. -1.
         22    1    1    2    0    0 -0.13762693768E+02  0.17447586343E+02 -0.16589313879E+02  0.27731486508E+02  0.00000000000E+00 0. -1.
          2    1    1    2  501    0 -0.65405459101E+02  0.97521144995E+02  0.17440981839E+03  0.21025468499E+03  0.25500000000E-02 0. -1.
<mgrwt>
<rscale>  0 0.54564463E+02</rscale>
<asrwt>0</asrwt>
<pdfrwt beam="1">  1       11 0.10000000E+01 0.13397724E+03</pdfrwt>
<pdfrwt beam="2">  1        2 0.71000494E-02 0.54564463E+02</pdfrwt>
<totfact> 0.10863867E+03</totfact>
</mgrwt>
</event>
<event>
 5    1  0.9955701E-004  0.9086122E+02  0.7818608E-02  0.1300779E+00
         11   -1    0    0    0    0  0.00000000000E+00  0.00000000000E+00  0.10003486596E+04  0.10003486596E+04  0.51100000000E-03 0. -1.
          2   -1    0    0  501    0 -0.00000000000E+00 -0.00000000000E+00 -0.11616378227E+02  0.11616378506E+02  0.25500000000E-02 0. -1.
         11    1    1    2    0    0 -0.13368691175E+02 -0.99787368782E+02  0.39995761512E+03  0.41243464302E+03  0.51100000000E-03 0. -1.
         22    1    1    2    0    0  0.24621538703E+02  0.18852155365E+02  0.14229566473E+03  0.14563543570E+03  0.00000000000E+00 0. -1.
          2    1    1    2  501    0 -0.11252847528E+02  0.80935213417E+02  0.44647900152E+03  0.45389495938E+03  0.25500000000E-02 0. -1.
<mgrwt>
<rscale>  0 0.90861216E+02</rscale>
<asrwt>0</asrwt>
<pdfrwt beam="1">  1       11 0.10000000E+01 0.31010062E+02</pdfrwt>
<pdfrwt beam="2">  1        2 0.17877582E-02 0.90861216E+02</pdfrwt>
<totfact> 0.69210486E+03</totfact>
</mgrwt>
</event>
<event>
 5    1  0.9955701E-004  0.3196717E+03  0.7818608E-02  0.1075800E+00
         11   -1    0    0    0    0  0.00000000000E+00  0.00000000000E+00  0.10001054725E+04  0.10001054725E+04  0.51100000000E-03 0. -1.
          2   -1    0    0  501    0 -0.00000000000E+00 -0.00000000000E+00 -0.60366726719E+03  0.60366726720E+03  0.25500000000E-02 0. -1.
         11    1    1    2    0    0  0.14068923596E+03  0.98596262592E+02  0.79896215987E+03  0.81722409229E+03  0.51100000000E-03 0. -1.
         22    1    1    2    0    0 -0.33266334961E+03 -0.19881143414E+03 -0.41728466568E+03  0.56948870290E+03  0.00000000000E+00 0. -1.
          2    1    1    2  501    0  0.19197411365E+03  0.10021517155E+03  0.14760711130E+02  0.21705994453E+03  0.25500000000E-02 0. -1.
<mgrwt>
<rscale>  0 0.31967172E+03</rscale>
<asrwt>0</asrwt>
<pdfrwt beam="1">  1       11 0.10000000E+01 0.17179838E+03</pdfrwt>
<pdfrwt beam="2">  1        2 0.92881680E-01 0.31967172E+03</pdfrwt>
<totfact> 0.62228627E+01</totfact>
</mgrwt>
</event>
<event>
 5    1  0.9955701E-004  0.1317589E+03  0.7818608E-02  0.1346144E+00
         11   -1    0    0    0    0  0.00000000000E+00  0.00000000000E+00  0.99994233916E+03  0.99994233916E+03  0.51100000000E-03 0. -1.
          2   -1    0    0  501    0 -0.00000000000E+00 -0.00000000000E+00 -0.72014031343E+02  0.72014031388E+02  0.25500000000E-02 0. -1.
         11    1    1    2    0    0  0.11414991039E+03 -0.43948496590E+02  0.63048944017E+03  0.64224497395E+03  0.51100000000E-03 0. -1.
         22    1    1    2    0    0  0.30869295704E+02 -0.28281086617E+02 -0.38417491160E+02  0.56821095594E+02  0.00000000000E+00 0. -1.
          2    1    1    2  501    0 -0.14501920610E+03  0.72229583207E+02  0.33585635881E+03  0.37289030101E+03  0.25500000000E-02 0. -1.
<mgrwt>
<rscale>  0 0.74270948E+02</rscale>
<asrwt>0</asrwt>
<pdfrwt beam="1">  1       11 0.10000000E+01 0.13175892E+03</pdfrwt>
<pdfrwt beam="2">  1        2 0.11078443E-01 0.74270948E+02</pdfrwt>
<totfact> 0.64838711E+02</totfact>
</mgrwt>
</event>
<event>
 5    1  0.9955701E-004  0.1055013E+03  0.7818608E-02  0.1318142E+00
         11   -1    0    0    0    0  0.00000000000E+00  0.00000000000E+00  0.10001025025E+04  0.10001025025E+04  0.51100000000E-03 0. -1.
          2   -1    0    0  501    0 -0.00000000000E+00 -0.00000000000E+00 -0.39282955145E+02  0.39282955228E+02  0.25500000000E-02 0. -1.
         11    1    1    2    0    0 -0.15890333279E+02 -0.89423619442E+02  0.50280111708E+03  0.51093840112E+03  0.51100000000E-03 0. -1.
         22    1    1    2    0    0  0.74381255677E+01 -0.66421505766E+02  0.30761187475E+02  0.73575762280E+02  0.00000000000E+00 0. -1.
          2    1    1    2  501    0  0.84522077111E+01  0.15584512521E+03  0.42725724277E+03  0.45487129429E+03  0.25500000000E-02 0. -1.
<mgrwt>
<rscale>  0 0.83972362E+02</rscale>
<asrwt>0</asrwt>
<pdfrwt beam="1">  1       11 0.10000000E+01 0.10550131E+03</pdfrwt>
<pdfrwt beam="2">  1        2 0.60441509E-02 0.83972362E+02</pdfrwt>
<totfact> 0.13791908E+03</totfact>
</mgrwt>
</event>
<event>
 5    1  0.9955701E-004  0.8835215E+02  0.7818608E-02  0.1550045E+00
         11   -1    0    0    0    0  0.00000000000E+00  0.00000000000E+00  0.10005735895E+04  0.10005735895E+04  0.51100000000E-03 0.  1.
          2   -1    0    0  501    0 -0.00000000000E+00 -0.00000000000E+00 -0.19319923867E+02  0.19319924036E+02  0.25500000000E-02 0.  1.
         11    1    1    2    0    0  0.95421083075E+02 -0.26686157759E+02  0.20390909721E+03  0.22670741945E+03  0.51100000000E-03 0.  1.
         22    1    1    2    0    0 -0.11434514248E+02  0.76125824984E+01  0.29921651634E+01  0.14058896854E+02  0.00000000000E+00 0.  1.
          2    1    1    2  501    0 -0.83986568828E+02  0.19073575260E+02  0.77435240324E+03  0.77912719721E+03  0.25500000000E-02 0.  1.
<mgrwt>
<rscale>  0 0.34837835E+02</rscale>
<asrwt>0</asrwt>
<pdfrwt beam="1">  1       11 0.10000000E+01 0.88352150E+02</pdfrwt>
<pdfrwt beam="2">  1        2 0.29740008E-02 0.34837835E+02</pdfrwt>
<totfact> 0.30932820E+03</totfact>
</mgrwt>
</event>
<event>
 5    1  0.9955701E-004  0.1656555E+03  0.7818608E-02  0.1182456E+00
         11   -1    0    0    0    0  0.00000000000E+00  0.00000000000E+00  0.10004260892E+04  0.10004260892E+04  0.51100000000E-03 0.  1.
          2   -1    0    0  501    0 -0.00000000000E+00 -0.00000000000E+00 -0.12899935956E+03  0.12899935959E+03  0.25500000000E-02 0.  1.
         11    1    1    2    0    0  0.69787514452E+02  0.14433483726E+03  0.93747767090E+03  0.95108739128E+03  0.51100000000E-03 0.  1.
         22    1    1    2    0    0 -0.15043229949E+02 -0.62309907310E+01 -0.12100552231E+02  0.20286630501E+02  0.00000000000E+00 0.  1.
          2    1    1    2  501    0 -0.54744284503E+02 -0.13810384653E+03 -0.53950388997E+02  0.15805142704E+03  0.25500000000E-02 0.  1.
<mgrwt>
<rscale>  0 0.16565547E+03</rscale>
<asrwt>0</asrwt>
<pdfrwt beam="1">  1       11 0.10000000E+01 0.16032106E+03</pdfrwt>
<pdfrwt beam="2">  1        2 0.19854511E-01 0.16565547E+03</pdfrwt>
<totfact> 0.34092866E+02</totfact>
</mgrwt>
</event>
<event>
 5    1  0.9955701E-004  0.1149453E+03  0.7818608E-02  0.1381150E+00
         11   -1    0    0    0    0  0.00000000000E+00  0.00000000000E+00  0.10004071946E+04  0.10004071946E+04  0.51100000000E-03 0.  1.
          2   -1    0    0  501    0 -0.00000000000E+00 -0.00000000000E+00 -0.32400714564E+02  0.32400714665E+02  0.25500000000E-02 0.  1.
         11    1    1    2    0    0  0.12356873468E+03 -0.28105170714E+02  0.45594060262E+03  0.47322401242E+03  0.51100000000E-03 0.  1.
         22    1    1    2    0    0 -0.27483110839E+02 -0.22965663300E+02 -0.27352583988E+00  0.35816447180E+02  0.00000000000E+00 0.  1.
          2    1    1    2  501    0 -0.96085623839E+02  0.51070834014E+02  0.51233940322E+03  0.52376744963E+03  0.25500000000E-02 0.  1.
<mgrwt>
<rscale>  0 0.64162368E+02</rscale>
<asrwt>0</asrwt>
<pdfrwt beam="1">  1       11 0.10000000E+01 0.11494528E+03</pdfrwt>
<pdfrwt beam="2">  1        2 0.49867549E-02 0.64162368E+02</pdfrwt>
<totfact> 0.17181733E+03</totfact>
</mgrwt>
</event>
<event>
 5    1  0.9955701E-004  0.4173533E+02  0.7818608E-02  0.1495816E+00
         11   -1    0    0    0    0  0.00000000000E+00  0.00000000000E+00  0.10001961267E+04  0.10001961267E+04  0.51100000000E-03 0.  1.
          2   -1    0    0  501    0 -0.00000000000E+00 -0.00000000000E+00 -0.96915675175E+01  0.96915678530E+01  0.25500000000E-02 0.  1.
         11    1    1    2    0    0 -0.15513280520E+02 -0.78102069034E+01  0.10788930588E+02  0.20446570076E+02  0.51100000000E-03 0.  1.
         22    1    1    2    0    0 -0.40086506995E+02  0.28594320292E+01  0.97452293803E+02  0.10541372758E+03  0.00000000000E+00 0.  1.
          2    1    1    2  501    0  0.55599787515E+02  0.49507748742E+01  0.88226333479E+03  0.88402739690E+03  0.25500000000E-02 0.  1.
<mgrwt>
<rscale>  0 0.41735327E+02</rscale>
<asrwt>0</asrwt>
<pdfrwt beam="1">  1       11 0.10000000E+01 0.17368405E+02</pdfrwt>
<pdfrwt beam="2">  1        2 0.14913028E-02 0.41735327E+02</pdfrwt>
<totfact> 0.78362588E+03</totfact>
</mgrwt>
</event>
<event>
 5    1  0.9955701E-004  0.2276662E+03  0.7818608E-02  0.1270576E+00
         11   -1    0    0    0    0  0.00000000000E+00  0.00000000000E+00  0.10005987404E+04  0.10005987404E+04  0.51100000000E-03 0. -1.
          2   -1    0    0  501    0 -0.00000000000E+00 -0.00000000000E+00 -0.70970351414E+02  0.70970351459E+02  0.25500000000E-02 0. -1.
         11    1    1    2    0    0  0.19849589131E+03 -0.11592039157E+03  0.59037562334E+03  0.63354678808E+03  0.51100000000E-03 0. -1.
         22    1    1    2    0    0  0.17165302991E+02  0.45053693780E+02  0.41564864546E+02  0.63656271605E+02  0.00000000000E+00 0. -1.
          2    1    1    2  501    0 -0.21566119430E+03  0.70866697791E+02  0.29768790111E+03  0.37436603219E+03  0.25500000000E-02 0. -1.
<mgrwt>
<rscale>  0 0.10476854E+03</rscale>
<asrwt>0</asrwt>
<pdfrwt beam="1">  1       11 0.10000000E+01 0.22766622E+03</pdfrwt>
<pdfrwt beam="2">  1        2 0.10925053E-01 0.10476854E+03</pdfrwt>
<totfact> 0.67306249E+02</totfact>
</mgrwt>
</event>
<event>
 5    1  0.9955701E-004  0.2682029E+03  0.7818608E-02  0.1173810E+00
         11   -1    0    0    0    0  0.00000000000E+00  0.00000000000E+00  0.99992380289E+03  0.99992380289E+03  0.51100000000E-03 0.  1.
          2   -1    0    0  501    0 -0.00000000000E+00 -0.00000000000E+00 -0.28389378580E+03  0.28389378581E+03  0.25500000000E-02 0.  1.
         11    1    1    2    0    0  0.35063298362E+02 -0.23563120587E+03  0.13861605160E+03  0.27561913908E+03  0.51100000000E-03 0.  1.
         22    1    1    2    0    0  0.11249237518E+03 -0.82515656341E+01 -0.17240606740E+03  0.20602542292E+03  0.00000000000E+00 0.  1.
          2    1    1    2  501    0 -0.14755567354E+03  0.24388277150E+03  0.74982003290E+03  0.80217302670E+03  0.25500000000E-02 0.  1.
<mgrwt>
<rscale>  0 0.17393053E+03</rscale>
<asrwt>0</asrwt>
<pdfrwt beam="1">  1       11 0.10000000E+01 0.26820293E+03</pdfrwt>
<pdfrwt beam="2">  1        2 0.43672638E-01 0.17393053E+03</pdfrwt>
<totfact> 0.14380846E+02</totfact>
</mgrwt>
</event>
<event>
 5    1  0.9955701E-004  0.1646171E+03  0.7818608E-02  0.1330512E+00
         11   -1    0    0    0    0  0.00000000000E+00  0.00000000000E+00  0.10001511684E+04  0.10001511684E+04  0.51100000000E-03 0. -1.
         -2   -1    0    0    0  501 -0.00000000000E+00 -0.00000000000E+00 -0.12632654217E+03  0.12632654220E+03  0.25500000000E-02 0.  1.
         11    1    1    2    0    0  0.13449533166E+03 -0.91343247729E+02  0.87851664884E+03  0.89343387301E+03  0.51100000000E-03 0. -1.
         22    1    1    2    0    0  0.37493085482E+02  0.82110134550E+01 -0.16224350135E+02  0.41669914066E+02  0.00000000000E+00 0.  1.
         -2    1    1    2    0  501 -0.17198841715E+03  0.83132234274E+02  0.11532327483E+02  0.19137392349E+03  0.25500000000E-02 0.  1.
<mgrwt>
<rscale>  0 0.79487605E+02</rscale>
<asrwt>0</asrwt>
<pdfrwt beam="1">  1       11 0.10000000E+01 0.16461713E+03</pdfrwt>
<pdfrwt beam="2">  1       -2 0.19437790E-01 0.79487605E+02</pdfrwt>
<totfact> 0.16996120E+02</totfact>
</mgrwt>
</event>
<event>
 5    1  0.9955701E-004  0.1367290E+03  0.7818608E-02  0.1217799E+00
         11   -1    0    0    0    0  0.00000000000E+00  0.00000000000E+00  0.10005263263E+04  0.10005263263E+04  0.51100000000E-03 0. -1.
          2   -1    0    0  501    0 -0.00000000000E+00 -0.00000000000E+00 -0.17065525477E+03  0.17065525479E+03  0.25500000000E-02 0. -1.
         11    1    1    2    0    0  0.56924735923E+02  0.11421289451E+02  0.18071854146E+03  0.18981586509E+03  0.51100000000E-03 0. -1.
         22    1    1    2    0    0  0.81816168047E+02 -0.10839828040E+03 -0.12762044067E+03  0.18636268249E+03  0.00000000000E+00 0. -1.
          2    1    1    2  501    0 -0.13874090397E+03  0.96976990952E+02  0.77677297077E+03  0.79500303354E+03  0.25500000000E-02 0. -1.
<mgrwt>
<rscale>  0 0.13672901E+03</rscale>
<asrwt>0</asrwt>
<pdfrwt beam="1">  1       11 0.10000000E+01 0.58059206E+02</pdfrwt>
<pdfrwt beam="2">  1        2 0.26268472E-01 0.13672901E+03</pdfrwt>
<totfact> 0.24804789E+02</totfact>
</mgrwt>
</event>
<event>
 5    1  0.9955701E-004  0.3023805E+02  0.7818608E-02  0.1601945E+00
         11   -1    0    0    0    0  0.00000000000E+00  0.00000000000E+00  0.99991156467E+03  0.99991156467E+03  0.51100000000E-03 0. -1.
          2   -1    0    0  501    0 -0.00000000000E+00 -0.00000000000E+00 -0.79682549167E+01  0.79682553247E+01  0.25500000000E-02 0. -1.
         11    1    1    2    0    0 -0.37716643108E+02 -0.17083102131E+02  0.68177132506E+02  0.79765274040E+02  0.51100000000E-03 0. -1.
         22    1    1    2    0    0  0.26861014081E+02 -0.11144783416E+02  0.10977568194E+03  0.11356240848E+03  0.00000000000E+00 0. -1.
          2    1    1    2  501    0  0.10855629027E+02  0.28227885547E+02  0.81399049531E+03  0.81455213747E+03  0.25500000000E-02 0. -1.
<mgrwt>
<rscale>  0 0.29654014E+02</rscale>
<asrwt>0</asrwt>
<pdfrwt beam="1">  1       11 0.10000000E+01 0.30238053E+02</pdfrwt>
<pdfrwt beam="2">  1        2 0.12257770E-02 0.29654014E+02</pdfrwt>
<totfact> 0.95231758E+03</totfact>
</mgrwt>
</event>
<event>
 5    1  0.9955701E-004  0.2840809E+02  0.7818608E-02  0.1718363E+00
         11   -1    0    0    0    0  0.00000000000E+00  0.00000000000E+00  0.99999627223E+03  0.99999627223E+03  0.51100000000E-03 0. -1.
          2   -1    0    0  501    0 -0.00000000000E+00 -0.00000000000E+00 -0.38610291583E+01  0.38610300004E+01  0.25500000000E-02 0. -1.
         11    1    1    2    0    0  0.29489044613E+02 -0.15011788165E+02  0.17711804010E+03  0.18018256759E+03  0.51100000000E-03 0. -1.
         22    1    1    2    0    0 -0.13783208124E+02 -0.84375265013E+01  0.29364216331E+02  0.33517545858E+02  0.00000000000E+00 0. -1.
          2    1    1    2  501    0 -0.15705836489E+02  0.23449314666E+02  0.78965298665E+03  0.79015718878E+03  0.25500000000E-02 0. -1.
<mgrwt>
<rscale>  0 0.21426499E+02</rscale>
<asrwt>0</asrwt>
<pdfrwt beam="1">  1       11 0.10000000E+01 0.28408094E+02</pdfrwt>
<pdfrwt beam="2">  1        2 0.59400232E-03 0.21426499E+02</pdfrwt>
<totfact> 0.22841546E+04</totfact>
</mgrwt>
</event>
<event>
 5    1  0.9955701E-004  0.1468631E+03  0.7818608E-02  0.1458891E+00
         11   -1    0    0    0    0  0.00000000000E+00  0.00000000000E+00  0.10002586400E+04  0.10002586400E+04  0.51100000000E-03 0. -1.
          2   -1    0    0  501    0 -0.00000000000E+00 -0.00000000000E+00 -0.29446946921E+02  0.29446947031E+02  0.25500000000E-02 0. -1.
         11    1    1    2    0    0  0.17314862036E+02 -0.14817084002E+03  0.60217862520E+03  0.62038173646E+03  0.51100000000E-03 0. -1.
         22    1    1    2    0    0  0.13373811592E+02  0.76557323391E+01  0.20631556403E+01  0.15547529879E+02  0.00000000000E+00 0.  1.
          2    1    1    2  501    0 -0.30688673628E+02  0.14051510768E+03  0.36656991225E+03  0.39377632071E+03  0.25500000000E-02 0. -1.
<mgrwt>
<rscale>  0 0.47572732E+02</rscale>
<asrwt>0</asrwt>
<pdfrwt beam="1">  1       11 0.10000000E+01 0.14686309E+03</pdfrwt>
<pdfrwt beam="2">  1        2 0.45314711E-02 0.47572732E+02</pdfrwt>
<totfact> 0.18799608E+03</totfact>
</mgrwt>
</event>
<event>
 5    1  0.9955701E-004  0.2733501E+03  0.7818608E-02  0.1314852E+00
         11   -1    0    0    0    0  0.00000000000E+00  0.00000000000E+00  0.10002086524E+04  0.10002086524E+04  0.51100000000E-03 0.  1.
          2   -1    0    0  501    0 -0.00000000000E+00 -0.00000000000E+00 -0.18160558048E+03  0.18160558050E+03  0.25500000000E-02 0.  1.
         11    1    1    2    0    0 -0.54316957299E+02 -0.26547273128E+03  0.69958531181E+03  0.75023043887E+03  0.51100000000E-03 0.  1.
         22    1    1    2    0    0  0.22763714604E+02 -0.13702599248E+02 -0.81952154719E+02  0.86151631394E+02  0.00000000000E+00 0.  1.
          2    1    1    2  501    0  0.31553242695E+02  0.27917533053E+03  0.20096991478E+03  0.34543216259E+03  0.25500000000E-02 0.  1.
<mgrwt>
<rscale>  0 0.85222204E+02</rscale>
<asrwt>0</asrwt>
<pdfrwt beam="1">  1       11 0.10000000E+01 0.27335007E+03</pdfrwt>
<pdfrwt beam="2">  1        2 0.27945149E-01 0.85222204E+02</pdfrwt>
<totfact> 0.22921966E+02</totfact>
</mgrwt>
</event>
<event>
 5    1  0.9955701E-004  0.7901314E+02  0.7818608E-02  0.1522162E+00
         11   -1    0    0    0    0  0.00000000000E+00  0.00000000000E+00  0.10000306405E+04  0.10000306405E+04  0.51100000000E-03 0. -1.
          2   -1    0    0  501    0 -0.00000000000E+00 -0.00000000000E+00 -0.63738340317E+02  0.63738340368E+02  0.25500000000E-02 0. -1.
         11    1    1    2    0    0  0.84066869438E+02 -0.36071273670E+01  0.26895523741E+02  0.88338095420E+02  0.51100000000E-03 0. -1.
         22    1    1    2    0    0 -0.64238952956E+01  0.17279583306E+02 -0.28654548632E+02  0.34072475509E+02  0.00000000000E+00 0.  1.
          2    1    1    2  501    0 -0.77642974142E+02 -0.13672455939E+02  0.93805132506E+03  0.94135840993E+03  0.25500000000E-02 0. -1.
<mgrwt>
<rscale>  0 0.38165548E+02</rscale>
<asrwt>0</asrwt>
<pdfrwt beam="1">  1       11 0.10000000E+01 0.79013140E+02</pdfrwt>
<pdfrwt beam="2">  1        2 0.98061987E-02 0.38165548E+02</pdfrwt>
<totfact> 0.71395295E+02</totfact>
</mgrwt>
</event>
<event>
 5    1  0.9955701E-004  0.2812781E+02  0.7818608E-02  0.1797440E+00
         11   -1    0    0    0    0  0.00000000000E+00  0.00000000000E+00  0.10004292588E+04  0.10004292588E+04  0.51100000000E-03 0. -1.
          2   -1    0    0  501    0 -0.00000000000E+00 -0.00000000000E+00 -0.45905978665E+01  0.45905985748E+01  0.25500000000E-02 0. -1.
         11    1    1    2    0    0  0.85337169702E+01 -0.26664129206E+02  0.12458928142E+03  0.12769608121E+03  0.51100000000E-03 0. -1.
         22    1    1    2    0    0 -0.10902110783E+02 -0.16660397548E+01  0.80444256026E+01  0.13650805517E+02  0.00000000000E+00 0. -1.
          2    1    1    2  501    0  0.23683938132E+01  0.28330168961E+02  0.86320495391E+03  0.86367297065E+03  0.25500000000E-02 0. -1.
<mgrwt>
<rscale>  0 0.17612847E+02</rscale>
<asrwt>0</asrwt>
<pdfrwt beam="1">  1       11 0.10000000E+01 0.28127812E+02</pdfrwt>
<pdfrwt beam="2">  1        2 0.70654902E-03 0.17612847E+02</pdfrwt>
<totfact> 0.17317215E+04</totfact>
</mgrwt>
</event>
<event>
 5    1  0.9955701E-004  0.1513331E+03  0.7818608E-02  0.1230294E+00
         11   -1    0    0    0    0  0.00000000000E+00  0.00000000000E+00  0.10001849227E+04  0.10001849227E+04  0.51100000000E-03 0. -1.
          2   -1    0    0  501    0 -0.00000000000E+00 -0.00000000000E+00 -0.18026808905E+03  0.18026808906E+03  0.25500000000E-02 0. -1.
         11    1    1    2    0    0  0.12077362524E+03 -0.95885509191E+02  0.82154159261E+03  0.83588927964E+03  0.51100000000E-03 0. -1.
         22    1    1    2    0    0 -0.25003544576E+01  0.14510424097E+03 -0.10567690161E+03  0.17952465027E+03  0.00000000000E+00 0. -1.
          2    1    1    2  501    0 -0.11827327079E+03 -0.49218731779E+02  0.10405214262E+03  0.16503908183E+03  0.25500000000E-02 0. -1.
<mgrwt>
<rscale>  0 0.12810562E+03</rscale>
<asrwt>0</asrwt>
<pdfrwt beam="1">  1       11 0.10000000E+01 0.15133307E+03</pdfrwt>
<pdfrwt beam="2">  1        2 0.27738680E-01 0.12810562E+03</pdfrwt>
<totfact> 0.23335761E+02</totfact>
</mgrwt>
</event>
<event>
 5    1  0.9955701E-004  0.8317419E+02  0.7818608E-02  0.1584326E+00
         11   -1    0    0    0    0  0.00000000000E+00  0.00000000000E+00  0.10000514983E+04  0.10000514983E+04  0.51100000000E-03 0. -1.
          2   -1    0    0  501    0 -0.00000000000E+00 -0.00000000000E+00 -0.91251596280E+01  0.91251599843E+01  0.25500000000E-02 0. -1.
         11    1    1    2    0    0  0.76005748480E+02 -0.49535683892E+02  0.40797501393E+03  0.41794050985E+03  0.51100000000E-03 0. -1.
         22    1    1    2    0    0 -0.95626908697E+01  0.68550737074E+01  0.23947573594E+02  0.26681892235E+02  0.00000000000E+00 0.  1.
          2    1    1    2  501    0 -0.66443057611E+02  0.42680610185E+02  0.55900375111E+03  0.56455425616E+03  0.25500000000E-02 0. -1.
<mgrwt>
<rscale>  0 0.31282922E+02</rscale>
<asrwt>0</asrwt>
<pdfrwt beam="1">  1       11 0.10000000E+01 0.83174192E+02</pdfrwt>
<pdfrwt beam="2">  1        2 0.14039430E-02 0.31282922E+02</pdfrwt>
<totfact> 0.80538492E+03</totfact>
</mgrwt>
</event>
<event>
 5    1  0.9955701E-004  0.1355636E+03  0.7818608E-02  0.1444063E+00
         11   -1    0    0    0    0  0.00000000000E+00  0.00000000000E+00  0.10000749033E+04  0.10000749033E+04  0.51100000000E-03 0. -1.
          2   -1    0    0  501    0 -0.00000000000E+00 -0.00000000000E+00 -0.26017302489E+02  0.26017302614E+02  0.25500000000E-02 0. -1.
         11    1    1    2    0    0 -0.13653750190E+03 -0.52114034142E+02  0.32905909327E+03  0.36005311948E+03  0.51100000000E-03 0. -1.
         22    1    1    2    0    0  0.10792239406E+02  0.15170231890E+02  0.19510469447E+02  0.26967884326E+02  0.00000000000E+00 0. -1.
          2    1    1    2  501    0  0.12574526250E+03  0.36943802252E+02  0.62548803814E+03  0.63907120216E+03  0.25500000000E-02 0. -1.
<mgrwt>
<rscale>  0 0.50237871E+02</rscale>
<asrwt>0</asrwt>
<pdfrwt beam="1">  1       11 0.10000000E+01 0.13556362E+03</pdfrwt>
<pdfrwt beam="2">  1        2 0.40029616E-02 0.50237871E+02</pdfrwt>
<totfact> 0.22161060E+03</totfact>
</mgrwt>
</event>
<event>
 5    1  0.9955701E-004  0.3708371E+02  0.7818608E-02  0.1757147E+00
         11   -1    0    0    0    0  0.00000000000E+00  0.00000000000E+00  0.10002766269E+04  0.10002766269E+04  0.51100000000E-03 0. -1.
         -2   -1    0    0    0  501 -0.00000000000E+00 -0.00000000000E+00 -0.40041400774E+01  0.40041408894E+01  0.25500000000E-02 0. -1.
         11    1    1    2    0    0 -0.32113870030E+02  0.92769787482E+01  0.14401208569E+03  0.14784060271E+03  0.51100000000E-03 0. -1.
         22    1    1    2    0    0 -0.67873945453E+00  0.10145520437E+02  0.13943152903E+02  0.17256992353E+02  0.00000000000E+00 0. -1.
         -2    1    1    2    0  501  0.32792609485E+02 -0.19422499185E+02  0.83831724822E+03  0.83918317272E+03  0.25500000000E-02 0. -1.
<mgrwt>
<rscale>  0 0.19418403E+02</rscale>
<asrwt>0</asrwt>
<pdfrwt beam="1">  1       11 0.10000000E+01 0.37083711E+02</pdfrwt>
<pdfrwt beam="2">  1       -2 0.61619200E-03 0.19418403E+02</pdfrwt>
<totfact> 0.20471906E+04</totfact>
</mgrwt>
</event>
<event>
 5    1  0.9955701E-004  0.8788414E+02  0.7818608E-02  0.1412686E+00
         11   -1    0    0    0    0  0.00000000000E+00  0.00000000000E+00  0.10007943563E+04  0.10007943563E+04  0.51100000000E-03 0.  1.
          2   -1    0    0  501    0 -0.00000000000E+00 -0.00000000000E+00 -0.18231875418E+02  0.18231875596E+02  0.25500000000E-02 0.  1.
         11    1    1    2    0    0  0.78522433505E+02 -0.82371924282E+02  0.39724818246E+03  0.41322757040E+03  0.51100000000E-03 0.  1.
         22    1    1    2    0    0 -0.30717397398E+02  0.19623474849E+02  0.37361819533E+02  0.52197172594E+02  0.00000000000E+00 0.  1.
          2    1    1    2  501    0 -0.47805036107E+02  0.62748449433E+02  0.54795247886E+03  0.55360148887E+03  0.25500000000E-02 0.  1.
<mgrwt>
<rscale>  0 0.56598759E+02</rscale>
<asrwt>0</asrwt>
<pdfrwt beam="1">  1       11 0.10000000E+01 0.87884137E+02</pdfrwt>
<pdfrwt beam="2">  1        2 0.28071319E-02 0.56598759E+02</pdfrwt>
<totfact> 0.35631780E+03</totfact>
</mgrwt>
</event>
<event>
 5    1  0.9955701E-004  0.1749374E+03  0.7818608E-02  0.1447814E+00
         11   -1    0    0    0    0  0.00000000000E+00  0.00000000000E+00  0.10001285870E+04  0.10001285870E+04  0.51100000000E-03 0. -1.
         -2   -1    0    0    0  501 -0.00000000000E+00 -0.00000000000E+00 -0.34079857974E+02  0.34079858070E+02  0.25500000000E-02 0.  1.
         11    1    1    2    0    0  0.48839043432E+02 -0.17452726494E+03  0.49645271730E+03  0.52849817302E+03  0.51100000000E-03 0. -1.
         22    1    1    2    0    0  0.31373956085E+01  0.13676381164E+02  0.14244711955E+02  0.19994961156E+02  0.00000000000E+00 0. -1.
         -2    1    1    2    0  501 -0.51976439041E+02  0.16085088378E+03  0.45535129978E+03  0.48571531090E+03  0.25500000000E-02 0.  1.
<mgrwt>
<rscale>  0 0.49544487E+02</rscale>
<asrwt>0</asrwt>
<pdfrwt beam="1">  1       11 0.10000000E+01 0.17493743E+03</pdfrwt>
<pdfrwt beam="2">  1       -2 0.52437291E-02 0.49544487E+02</pdfrwt>
<totfact> 0.12458039E+03</totfact>
</mgrwt>
</event>
<event>
 5    1  0.9955701E-004  0.8605345E+02  0.7818608E-02  0.1573478E+00
         11   -1    0    0    0    0  0.00000000000E+00  0.00000000000E+00  0.10000380434E+04  0.10000380434E+04  0.51100000000E-03 0.  1.
          2   -1    0    0  501    0 -0.00000000000E+00 -0.00000000000E+00 -0.12005243829E+02  0.12005244100E+02  0.25500000000E-02 0.  1.
         11    1    1    2    0    0  0.86155988245E+02 -0.35980922061E+02  0.40692485481E+03  0.41749888446E+03  0.51100000000E-03 0.  1.
         22    1    1    2    0    0 -0.89060990789E+01  0.82810951985E+01  0.59093084757E+01  0.13520912142E+02  0.00000000000E+00 0.  1.
          2    1    1    2  501    0 -0.77249889166E+02  0.27699826862E+02  0.57519863628E+03  0.58102349089E+03  0.25500000000E-02 0.  1.
<mgrwt>
<rscale>  0 0.32349868E+02</rscale>
<asrwt>0</asrwt>
<pdfrwt beam="1">  1       11 0.10000000E+01 0.86053449E+02</pdfrwt>
<pdfrwt beam="2">  1        2 0.18470308E-02 0.32349868E+02</pdfrwt>
<totfact> 0.56618308E+03</totfact>
</mgrwt>
</event>
<event>
 5    1  0.9955701E-004  0.4189587E+02  0.7818608E-02  0.1494706E+00
         11   -1    0    0    0    0  0.00000000000E+00  0.00000000000E+00  0.10002301753E+04  0.10002301753E+04  0.51100000000E-03 0.  1.
          2   -1    0    0  501    0 -0.00000000000E+00 -0.00000000000E+00 -0.45201279129E+01  0.45201286321E+01  0.25500000000E-02 0.  1.
         11    1    1    2    0    0  0.13174983549E+02 -0.65181023974E+01  0.52898100189E+02  0.54902412098E+02  0.51100000000E-03 0.  1.
         22    1    1    2    0    0 -0.11936990508E+02  0.41763545904E+02  0.14770675740E+03  0.15396094209E+03  0.00000000000E+00 0.  1.
          2    1    1    2  501    0 -0.12379930413E+01 -0.35245443507E+02  0.79510518980E+03  0.79588694974E+03  0.25500000000E-02 0.  1.
<mgrwt>
<rscale>  0 0.41895867E+02</rscale>
<asrwt>0</asrwt>
<pdfrwt beam="1">  1       11 0.10000000E+01 0.14699186E+02</pdfrwt>
<pdfrwt beam="2">  1        2 0.69556439E-03 0.41895867E+02</pdfrwt>
<totfact> 0.21676193E+04</totfact>
</mgrwt>
</event>
<event>
 5    1  0.9955701E-004  0.2602167E+02  0.7818608E-02  0.1782106E+00
         11   -1    0    0    0    0  0.00000000000E+00  0.00000000000E+00  0.10001103136E+04  0.10001103136E+04  0.51100000000E-03 0. -1.
          2   -1    0    0  501    0 -0.00000000000E+00 -0.00000000000E+00 -0.31253831617E+01  0.31253842020E+01  0.25500000000E-02 0. -1.
         11    1    1    2    0    0  0.11946509474E+02 -0.32298804486E+02  0.12869967109E+03  0.13322738907E+03  0.51100000000E-03 0. -1.
         22    1    1    2    0    0  0.37007013337E+01  0.12281345578E+02  0.61514271909E+02  0.62837347876E+02  0.00000000000E+00 0.  1.
          2    1    1    2  501    0 -0.15647210808E+02  0.20017458908E+02  0.80677098740E+03  0.80717096082E+03  0.25500000000E-02 0. -1.
<mgrwt>
<rscale>  0 0.18269495E+02</rscale>
<asrwt>0</asrwt>
<pdfrwt beam="1">  1       11 0.10000000E+01 0.26021672E+02</pdfrwt>
<pdfrwt beam="2">  1        2 0.48088129E-03 0.18269495E+02</pdfrwt>
<totfact> 0.28809985E+04</totfact>
</mgrwt>
</event>
<event>
 5    1  0.9955701E-004  0.1269399E+03  0.7818608E-02  0.1278386E+00
         11   -1    0    0    0    0  0.00000000000E+00  0.00000000000E+00  0.10000642315E+04  0.10000642315E+04  0.51100000000E-03 0. -1.
          2   -1    0    0  501    0 -0.00000000000E+00 -0.00000000000E+00 -0.34238885905E+02  0.34238886000E+02  0.25500000000E-02 0. -1.
         11    1    1    2    0    0  0.10375742207E+03 -0.64434298548E+02  0.48278072297E+03  0.49799057013E+03  0.51100000000E-03 0. -1.
         22    1    1    2    0    0 -0.36261692423E+02 -0.71560727791E+02  0.14430777850E+03  0.16510779217E+03  0.00000000000E+00 0. -1.
          2    1    1    2  501    0 -0.67495729650E+02  0.13599502634E+03  0.33873684409E+03  0.37120475517E+03  0.25500000000E-02 0. -1.
<mgrwt>
<rscale>  0 0.10091381E+03</rscale>
<asrwt>0</asrwt>
<pdfrwt beam="1">  1       11 0.10000000E+01 0.12693995E+03</pdfrwt>
<pdfrwt beam="2">  1        2 0.52678591E-02 0.10091381E+03</pdfrwt>
<totfact> 0.16703200E+03</totfact>
</mgrwt>
</event>
<event>
 5    1  0.9955701E-004  0.5888236E+02  0.7818608E-02  0.1402583E+00
         11   -1    0    0    0    0  0.00000000000E+00  0.00000000000E+00  0.10001200008E+04  0.10001200008E+04  0.51100000000E-03 0. -1.
          2   -1    0    0  501    0 -0.00000000000E+00 -0.00000000000E+00 -0.11357574675E+02  0.11357574961E+02  0.25500000000E-02 0. -1.
         11    1    1    2    0    0 -0.65843612650E+01  0.54884801771E+02  0.10256881840E+03  0.11651634129E+03  0.51100000000E-03 0. -1.
         22    1    1    2    0    0  0.19752980307E+02  0.29362061687E+02  0.16552525244E+03  0.16926582671E+03  0.00000000000E+00 0. -1.
          2    1    1    2  501    0 -0.13168619042E+02 -0.84246863458E+02  0.72066835531E+03  0.72569540779E+03  0.25500000000E-02 0. -1.
<mgrwt>
<rscale>  0 0.58882363E+02</rscale>
<asrwt>0</asrwt>
<pdfrwt beam="1">  1       11 0.10000000E+01 0.35388005E+02</pdfrwt>
<pdfrwt beam="2">  1        2 0.17475288E-02 0.58882363E+02</pdfrwt>
<totfact> 0.67090921E+03</totfact>
</mgrwt>
</event>
<event>
 5    1  0.9955701E-004  0.6875183E+02  0.7818608E-02  0.1381805E+00
         11   -1    0    0    0    0  0.00000000000E+00  0.00000000000E+00  0.99992613412E+03  0.99992613412E+03  0.51100000000E-03 0. -1.
          2   -1    0    0  501    0 -0.00000000000E+00 -0.00000000000E+00 -0.69861066418E+01  0.69861071072E+01  0.25500000000E-02 0. -1.
         11    1    1    2    0    0  0.21401398900E+02 -0.46737185280E+02  0.13320660609E+03  0.14278089603E+03  0.51100000000E-03 0. -1.
         22    1    1    2    0    0 -0.49306683849E+01 -0.15098558200E+02  0.68628313733E+02  0.70442340934E+02  0.00000000000E+00 0.  1.
          2    1    1    2  501    0 -0.16470730515E+02  0.61835743480E+02  0.79110510766E+03  0.79368900427E+03  0.25500000000E-02 0. -1.
<mgrwt>
<rscale>  0 0.63991751E+02</rscale>
<asrwt>0</asrwt>
<pdfrwt beam="1">  1       11 0.10000000E+01 0.68751828E+02</pdfrwt>
<pdfrwt beam="2">  1        2 0.10747063E-02 0.63991751E+02</pdfrwt>
<totfact> 0.13069144E+04</totfact>
</mgrwt>
</event>
<event>
 5    1  0.9955701E-004  0.2890391E+03  0.7818608E-02  0.1318991E+00
         11   -1    0    0    0    0  0.00000000000E+00  0.00000000000E+00  0.10003584498E+04  0.10003584498E+04  0.51100000000E-03 0.  1.
          2   -1    0    0  501    0 -0.00000000000E+00 -0.00000000000E+00 -0.13544981471E+03  0.13544981474E+03  0.25500000000E-02 0.  1.
         11    1    1    2    0    0  0.21237541430E+03 -0.20040980787E+03  0.74839729717E+03  0.80334670106E+03  0.51100000000E-03 0.  1.
         22    1    1    2    0    0  0.46561173335E+01  0.23759123549E+02 -0.89176975459E+01  0.25801176523E+02  0.00000000000E+00 0.  1.
          2    1    1    2  501    0 -0.21703153163E+03  0.17665068432E+03  0.12542903549E+03  0.30666038698E+03  0.25500000000E-02 0.  1.
<mgrwt>
<rscale>  0 0.83653714E+02</rscale>
<asrwt>0</asrwt>
<pdfrwt beam="1">  1       11 0.10000000E+01 0.28903915E+03</pdfrwt>
<pdfrwt beam="2">  1        2 0.20845902E-01 0.83653714E+02</pdfrwt>
<totfact> 0.31539344E+02</totfact>
</mgrwt>
</event>
<event>
 5    1  0.9955701E-004  0.1403563E+03  0.7818608E-02  0.1410218E+00
         11   -1    0    0    0    0  0.00000000000E+00  0.00000000000E+00  0.10002548818E+04  0.10002548818E+04  0.51100000000E-03 0.  1.
          2   -1    0    0  501    0 -0.00000000000E+00 -0.00000000000E+00 -0.45448843454E+02  0.45448843525E+02  0.25500000000E-02 0.  1.
         11    1    1    2    0    0 -0.64458428629E+02  0.13039212882E+03  0.78415082776E+03  0.79752712616E+03  0.51100000000E-03 0.  1.
         22    1    1    2    0    0  0.19370162847E+02 -0.12888712118E+02 -0.12140652360E+02  0.26243428673E+02  0.00000000000E+00 0.  1.
          2    1    1    2  501    0  0.45088265783E+02 -0.11750341670E+03  0.18279586292E+03  0.22193317047E+03  0.25500000000E-02 0.  1.
<mgrwt>
<rscale>  0 0.57145214E+02</rscale>
<asrwt>0</asrwt>
<pdfrwt beam="1">  1       11 0.10000000E+01 0.14035628E+03</pdfrwt>
<pdfrwt beam="2">  1        2 0.69939117E-02 0.57145214E+02</pdfrwt>
<totfact> 0.11112661E+03</totfact>
</mgrwt>
</event>
<event>
 5    1  0.9955701E-004  0.1344072E+03  0.7818608E-02  0.1221059E+00
         11   -1    0    0    0    0  0.00000000000E+00  0.00000000000E+00  0.99993332448E+03  0.99993332448E+03  0.51100000000E-03 0.  1.
          2   -1    0    0  501    0 -0.00000000000E+00 -0.00000000000E+00 -0.33327041533E+02  0.33327041631E+02  0.25500000000E-02 0.  1.
         11    1    1    2    0    0  0.78769453822E+02 -0.11161900174E+03  0.77054560691E+03  0.78256243249E+03  0.51100000000E-03 0.  1.
         22    1    1    2    0    0 -0.13174275869E+02 -0.52894889324E+01  0.52048259745E+02  0.53949620761E+02  0.00000000000E+00 0. -1.
          2    1    1    2  501    0 -0.65595177953E+02  0.11690849067E+03  0.14401241629E+03  0.19674831286E+03  0.25500000000E-02 0.  1.
<mgrwt>
<rscale>  0 0.13440719E+03</rscale>
<asrwt>0</asrwt>
<pdfrwt beam="1">  1       11 0.10000000E+01 0.14196487E+02</pdfrwt>
<pdfrwt beam="2">  1        2 0.51268952E-02 0.13440719E+03</pdfrwt>
<totfact> 0.17722735E+03</totfact>
</mgrwt>
</event>
<event>
 5    1  0.9955701E-004  0.1480803E+03  0.7818608E-02  0.1202852E+00
         11   -1    0    0    0    0  0.00000000000E+00  0.00000000000E+00  0.10000701075E+04  0.10000701075E+04  0.51100000000E-03 0. -1.
         -2   -1    0    0    0  501 -0.00000000000E+00 -0.00000000000E+00 -0.40083149104E+02  0.40083149185E+02  0.25500000000E-02 0. -1.
         11    1    1    2    0    0 -0.73045899554E+02 -0.12667759750E+03  0.83101468989E+03  0.84378215907E+03  0.51100000000E-03 0. -1.
         22    1    1    2    0    0  0.25651042960E+01  0.18929595446E+02  0.13169809904E+02  0.23202440318E+02  0.00000000000E+00 0.  1.
         -2    1    1    2    0  501  0.70480795258E+02  0.10774800206E+03  0.11580245862E+03  0.17316865731E+03  0.25500000000E-02 0. -1.
<mgrwt>
<rscale>  0 0.14808026E+03</rscale>
<asrwt>0</asrwt>
<pdfrwt beam="1">  1       11 0.10000000E+01 0.14622899E+03</pdfrwt>
<pdfrwt beam="2">  1       -2 0.61670705E-02 0.14808026E+03</pdfrwt>
<totfact> 0.10835730E+03</totfact>
</mgrwt>
</event>
<event>
 5    1  0.9955701E-004  0.1022316E+03  0.7818608E-02  0.1463851E+00
         11   -1    0    0    0    0  0.00000000000E+00  0.00000000000E+00  0.10003937772E+04  0.10003937772E+04  0.51100000000E-03 0. -1.
          2   -1    0    0  501    0 -0.00000000000E+00 -0.00000000000E+00 -0.21020752339E+02  0.21020752493E+02  0.25500000000E-02 0. -1.
         11    1    1    2    0    0 -0.11235210487E+03  0.14886078120E+02  0.48621815211E+03  0.49925212291E+03  0.51100000000E-03 0. -1.
         22    1    1    2    0    0  0.17647026478E+02 -0.12027065468E+02  0.14421826694E+01  0.21404385956E+02  0.00000000000E+00 0. -1.
          2    1    1    2  501    0  0.94705078395E+02 -0.28590126517E+01  0.49171269010E+03  0.50075802085E+03  0.25500000000E-02 0. -1.
<mgrwt>
<rscale>  0 0.46725058E+02</rscale>
<asrwt>0</asrwt>
<pdfrwt beam="1">  1       11 0.10000000E+01 0.10223161E+03</pdfrwt>
<pdfrwt beam="2">  1        2 0.32352353E-02 0.46725058E+02</pdfrwt>
<totfact> 0.28891439E+03</totfact>
</mgrwt>
</event>
<event>
 5    1  0.9955701E-004  0.1602264E+03  0.7818608E-02  0.1436326E+00
         11   -1    0    0    0    0  0.00000000000E+00  0.00000000000E+00  0.99996414369E+03  0.99996414369E+03  0.51100000000E-03 0. -1.
         -2   -1    0    0    0  501 -0.00000000000E+00 -0.00000000000E+00 -0.44515488618E+02  0.44515488691E+02  0.25500000000E-02 0.  1.
         11    1    1    2    0    0 -0.16198904512E+03 -0.39066574449E+02  0.63146657473E+03  0.65308244730E+03  0.51100000000E-03 0. -1.
         22    1    1    2    0    0  0.14367980454E+02  0.84900987600E+01 -0.13699871949E+02  0.21591830184E+02  0.00000000000E+00 0.  1.
         -2    1    1    2    0  501  0.14762106466E+03  0.30576475689E+02  0.33768195230E+03  0.36980535490E+03  0.25500000000E-02 0.  1.
<mgrwt>
<rscale>  0 0.51710821E+02</rscale>
<asrwt>0</asrwt>
<pdfrwt beam="1">  1       11 0.10000000E+01 0.16022644E+03</pdfrwt>
<pdfrwt beam="2">  1       -2 0.68482910E-02 0.51710821E+02</pdfrwt>
<totfact> 0.84419144E+02</totfact>
</mgrwt>
</event>
<event>
 5    1  0.9955701E-004  0.2037597E+03  0.7818608E-02  0.1463931E+00
         11   -1    0    0    0    0  0.00000000000E+00  0.00000000000E+00  0.10001388771E+04  0.10001388771E+04  0.51100000000E-03 0.  1.
          2   -1    0    0  501    0 -0.00000000000E+00 -0.00000000000E+00 -0.18650900211E+03  0.18650900212E+03  0.25500000000E-02 0. -1.
         11    1    1    2    0    0 -0.91415735713E+02  0.18264626848E+03  0.92132946623E+03  0.94369724036E+03  0.51100000000E-03 0.  1.
         22    1    1    2    0    0 -0.42739073721E+01 -0.98187359461E+01 -0.27914007441E+02  0.29897586378E+02  0.00000000000E+00 0.  1.
          2    1    1    2  501    0  0.95689643085E+02 -0.17282753253E+03 -0.79785583781E+02  0.21305305250E+03  0.25500000000E-02 0. -1.
<mgrwt>
<rscale>  0 0.46711651E+02</rscale>
<asrwt>0</asrwt>
<pdfrwt beam="1">  1       11 0.10000000E+01 0.20375967E+03</pdfrwt>
<pdfrwt beam="2">  1        2 0.28697677E-01 0.46711651E+02</pdfrwt>
<totfact> 0.21900091E+02</totfact>
</mgrwt>
</event>
<event>
 5    1  0.9955701E-004  0.3339446E+02  0.7818608E-02  0.1590319E+00
         11   -1    0    0    0    0  0.00000000000E+00  0.00000000000E+00  0.10002083737E+04  0.10002083737E+04  0.51100000000E-03 0.  1.
          2   -1    0    0  501    0 -0.00000000000E+00 -0.00000000000E+00 -0.51631830407E+02  0.51631830470E+02  0.25500000000E-02 0.  1.
         11    1    1    2    0    0 -0.21895312029E+01 -0.31261948964E+02 -0.10435399053E+02  0.33030305079E+02  0.51100000000E-03 0.  1.
         22    1    1    2    0    0  0.26923494944E+02  0.85556221704E+01 -0.22874280353E+02  0.36349772384E+02  0.00000000000E+00 0.  1.
          2    1    1    2  501    0 -0.24733963741E+02  0.22706326794E+02  0.98188622273E+03  0.98246012674E+03  0.25500000000E-02 0.  1.
<mgrwt>
<rscale>  0 0.30714808E+02</rscale>
<asrwt>0</asrwt>
<pdfrwt beam="1">  1       11 0.10000000E+01 0.33394461E+02</pdfrwt>
<pdfrwt beam="2">  1        2 0.79450135E-02 0.30714808E+02</pdfrwt>
<totfact> 0.89840161E+02</totfact>
</mgrwt>
</event>
<event>
 5    1  0.9955701E-004  0.1678900E+03  0.7818608E-02  0.1446745E+00
         11   -1    0    0    0    0  0.00000000000E+00  0.00000000000E+00  0.10004774632E+04  0.10004774632E+04  0.51100000000E-03 0. -1.
          2   -1    0    0  501    0 -0.00000000000E+00 -0.00000000000E+00 -0.40938060915E+02  0.40938060994E+02  0.25500000000E-02 0. -1.
         11    1    1    2    0    0  0.26310518995E+02  0.17392204403E+03  0.45956872468E+03  0.49208183620E+03  0.51100000000E-03 0. -1.
         22    1    1    2    0    0  0.16615397110E+01 -0.14642759282E+02 -0.76299522554E+01  0.16594796926E+02  0.00000000000E+00 0. -1.
          2    1    1    2  501    0 -0.27972058706E+02 -0.15927928475E+03  0.50760062981E+03  0.53273889103E+03  0.25500000000E-02 0. -1.
<mgrwt>
<rscale>  0 0.49740807E+02</rscale>
<asrwt>0</asrwt>
<pdfrwt beam="1">  1       11 0.10000000E+01 0.16789000E+03</pdfrwt>
<pdfrwt beam="2">  1        2 0.63011702E-02 0.49740807E+02</pdfrwt>
<totfact> 0.12485010E+03</totfact>
</mgrwt>
</event>
<event>
 5    1  0.9955701E-004  0.1359625E+03  0.7818608E-02  0.1348057E+00
         11   -1    0    0    0    0  0.00000000000E+00  0.00000000000E+00  0.10003856732E+04  0.10003856732E+04  0.51100000000E-03 0.  1.
          2   -1    0    0  501    0 -0.00000000000E+00 -0.00000000000E+00 -0.80109132262E+02  0.80109132303E+02  0.25500000000E-02 0.  1.
         11    1    1    2    0    0 -0.96221484101E+01  0.10224337886E+03  0.39316278689E+02  0.10996392149E+03  0.51100000000E-03 0.  1.
         22    1    1    2    0    0  0.89443606865E+01  0.38896266908E+02 -0.29224967606E+02  0.49467361957E+02  0.00000000000E+00 0. -1.
          2    1    1    2  501    0  0.67778772363E+00 -0.14113964576E+03  0.91018522983E+03  0.92106352202E+03  0.25500000000E-02 0.  1.
<mgrwt>
<rscale>  0 0.73664471E+02</rscale>
<asrwt>0</asrwt>
<pdfrwt beam="1">  1       11 0.10000000E+01 0.13596253E+03</pdfrwt>
<pdfrwt beam="2">  1        2 0.12329235E-01 0.73664471E+02</pdfrwt>
<totfact> 0.57101726E+02</totfact>
</mgrwt>
</event>
<event>
 5    1  0.9955701E-004  0.4342719E+03  0.7818608E-02  0.1305578E+00
         11   -1    0    0    0    0  0.00000000000E+00  0.00000000000E+00  0.10008479608E+04  0.10008479608E+04  0.51100000000E-03 0. -1.
          2   -1    0    0  501    0 -0.00000000000E+00 -0.00000000000E+00 -0.13973904616E+04  0.13973904616E+04  0.25500000000E-02 0.  1.
         11    1    1    2    0    0 -0.35606343292E+03 -0.24760004105E+03  0.91124629126E+03  0.10091861830E+04  0.51100000000E-03 0. -1.
         22    1    1    2    0    0 -0.79287440443E+01 -0.16373332564E+02 -0.61493798613E+02  0.64128295387E+02  0.00000000000E+00 0. -1.
          2    1    1    2  501    0  0.36399217697E+03  0.26397337361E+03 -0.12462949935E+04  0.13249239441E+04  0.25500000000E-02 0.  1.
<mgrwt>
<rscale>  0 0.88883632E+02</rscale>
<asrwt>0</asrwt>
<pdfrwt beam="1">  1       11 0.10000000E+01 0.43427190E+03</pdfrwt>
<pdfrwt beam="2">  1        2 0.21516544E+00 0.88883632E+02</pdfrwt>
<totfact> 0.21033856E+01</totfact>
</mgrwt>
</event>
<event>
 5    1  0.9955701E-004  0.1599114E+03  0.7818608E-02  0.1405032E+00
         11   -1    0    0    0    0  0.00000000000E+00  0.00000000000E+00  0.10002075550E+04  0.10002075550E+04  0.51100000000E-03 0. -1.
          2   -1    0    0  501    0 -0.00000000000E+00 -0.00000000000E+00 -0.15523642947E+03  0.15523642950E+03  0.25500000000E-02 0. -1.
         11    1    1    2    0    0 -0.16061699287E+03 -0.40670195457E+01  0.93904933582E+03  0.95269513180E+03  0.51100000000E-03 0. -1.
         22    1    1    2    0    0  0.13164761094E+02 -0.16703146597E+02 -0.38162970259E+02  0.43688881193E+02  0.00000000000E+00 0.  1.
          2    1    1    2  501    0  0.14745223177E+03  0.20770166143E+02 -0.55915240046E+02  0.15905997150E+03  0.25500000000E-02 0. -1.
<mgrwt>
<rscale>  0 0.58317358E+02</rscale>
<asrwt>0</asrwt>
<pdfrwt beam="1">  1       11 0.10000000E+01 0.15991142E+03</pdfrwt>
<pdfrwt beam="2">  1        2 0.23887484E-01 0.58317358E+02</pdfrwt>
<totfact> 0.26819310E+02</totfact>
</mgrwt>
</event>
<event>
 5    1  0.9955701E-004  0.2141954E+03  0.7818608E-02  0.1377840E+00
         11   -1    0    0    0    0  0.00000000000E+00  0.00000000000E+00  0.10003450244E+04  0.10003450244E+04  0.51100000000E-03 0. -1.
          2   -1    0    0  501    0 -0.00000000000E+00 -0.00000000000E+00 -0.73434789699E+02  0.73434789744E+02  0.25500000000E-02 0. -1.
         11    1    1    2    0    0  0.18494782839E+03  0.11383250973E+03  0.67202434250E+03  0.70624376557E+03  0.51100000000E-03 0. -1.
         22    1    1    2    0    0 -0.17092780181E+02  0.98866882912E+01 -0.16190983570E+02  0.25535420275E+02  0.00000000000E+00 0. -1.
          2    1    1    2  501    0 -0.16785504821E+03 -0.12371919803E+03  0.27107687578E+03  0.34200062830E+03  0.25500000000E-02 0. -1.
<mgrwt>
<rscale>  0 0.65034848E+02</rscale>
<asrwt>0</asrwt>
<pdfrwt beam="1">  1       11 0.10000000E+01 0.21419544E+03</pdfrwt>
<pdfrwt beam="2">  1        2 0.11301558E-01 0.65034848E+02</pdfrwt>
<totfact> 0.62788083E+02</totfact>
</mgrwt>
</event>
<event>
 5    1  0.9955701E-004  0.8629640E+02  0.7818608E-02  0.1595028E+00
         11   -1    0    0    0    0  0.00000000000E+00  0.00000000000E+00  0.10002862045E+04  0.10002862045E+04  0.51100000000E-03 0. -1.
         -2   -1    0    0    0  501 -0.00000000000E+00 -0.00000000000E+00 -0.10523669135E+02  0.10523669444E+02  0.25500000000E-02 0.  1.
         11    1    1    2    0    0 -0.39784065705E+02  0.76930239974E+02  0.43626227437E+03  0.44477612992E+03  0.51100000000E-03 0. -1.
         22    1    1    2    0    0 -0.89773079065E+01 -0.56810200433E+01  0.69249723462E+01  0.12681533345E+02  0.00000000000E+00 0.  1.
         -2    1    1    2    0  501  0.48761373611E+02 -0.71249219930E+02  0.54657528870E+03  0.55335221073E+03  0.25500000000E-02 0.  1.
<mgrwt>
<rscale>  0 0.30278689E+02</rscale>
<asrwt>0</asrwt>
<pdfrwt beam="1">  1       11 0.10000000E+01 0.86296402E+02</pdfrwt>
<pdfrwt beam="2">  1       -2 0.16194894E-02 0.30278689E+02</pdfrwt>
<totfact> 0.61143057E+03</totfact>
</mgrwt>
</event>
<event>
 5    1  0.9955701E-004  0.3698934E+02  0.7818608E-02  0.1684562E+00
         11   -1    0    0    0    0  0.00000000000E+00  0.00000000000E+00  0.10000525665E+04  0.10000525665E+04  0.51100000000E-03 0. -1.
          2   -1    0    0  501    0 -0.00000000000E+00 -0.00000000000E+00 -0.54449917169E+01  0.54449923140E+01  0.25500000000E-02 0. -1.
         11    1    1    2    0    0  0.13938261085E+02  0.31843730546E+02  0.12381927328E+03  0.12860602915E+03  0.51100000000E-03 0. -1.
         22    1    1    2    0    0 -0.35945813595E+02 -0.23791077151E+02  0.15964343853E+03  0.16536064929E+03  0.00000000000E+00 0. -1.
          2    1    1    2  501    0  0.22007552511E+02 -0.80526533951E+01  0.71114486293E+03  0.71153088034E+03  0.25500000000E-02 0. -1.
<mgrwt>
<rscale>  0 0.23434539E+02</rscale>
<asrwt>0</asrwt>
<pdfrwt beam="1">  1       11 0.10000000E+01 0.36989336E+02</pdfrwt>
<pdfrwt beam="2">  1        2 0.83773509E-03 0.23434539E+02</pdfrwt>
<totfact> 0.14897970E+04</totfact>
</mgrwt>
</event>
<event>
 5    1  0.9955701E-004  0.7169177E+03  0.7818608E-02  0.1285699E+00
         11   -1    0    0    0    0  0.00000000000E+00  0.00000000000E+00  0.10003722520E+04  0.10003722520E+04  0.51100000000E-03 0. -1.
          2   -1    0    0  501    0 -0.00000000000E+00 -0.00000000000E+00 -0.55642794590E+03  0.55642794590E+03  0.25500000000E-02 0.  1.
         11    1    1    2    0    0  0.32851308792E+03 -0.64342048242E+03  0.37109824269E+03  0.81217280911E+03  0.51100000000E-03 0. -1.
         22    1    1    2    0    0 -0.65055697122E+01  0.11546185718E+02 -0.25412280837E+02  0.28660440668E+02  0.00000000000E+00 0. -1.
          2    1    1    2  501    0 -0.32200751820E+03  0.63187429670E+03  0.98258344270E+02  0.71596694815E+03  0.25500000000E-02 0.  1.
<mgrwt>
<rscale>  0 0.97473945E+02</rscale>
<asrwt>0</asrwt>
<pdfrwt beam="1">  1       11 0.10000000E+01 0.71691766E+03</pdfrwt>
<pdfrwt beam="2">  1        2 0.85636163E-01 0.97473945E+02</pdfrwt>
<totfact> 0.70024103E+01</totfact>
</mgrwt>
</event>
<event>
 5    1  0.9955701E-004  0.1699592E+03  0.7818608E-02  0.1177890E+00
         11   -1    0    0    0    0  0.00000000000E+00  0.00000000000E+00  0.10000035902E+04  0.10000035902E+04  0.51100000000E-03 0.  1.
          2   -1    0    0  501    0 -0.00000000000E+00 -0.00000000000E+00 -0.11494033556E+03  0.11494033559E+03  0.25500000000E-02 0.  1.
         11    1    1    2    0    0  0.83836043880E+02  0.14277491763E+03  0.92553891203E+03  0.94023158692E+03  0.51100000000E-03 0.  1.
         22    1    1    2    0    0  0.33878813084E+01 -0.13622989571E+02 -0.47841302685E+01  0.14830761512E+02  0.00000000000E+00 0. -1.
          2    1    1    2  501    0 -0.87223925189E+02 -0.12915192806E+03 -0.35691527166E+02  0.15988157731E+03  0.25500000000E-02 0.  1.
<mgrwt>
<rscale>  0 0.16995918E+03</rscale>
<asrwt>0</asrwt>
<pdfrwt beam="1">  1       11 0.10000000E+01 0.16556920E+03</pdfrwt>
<pdfrwt beam="2">  1        2 0.17683192E-01 0.16995918E+03</pdfrwt>
<totfact> 0.38966707E+02</totfact>
</mgrwt>
</event>
<event>
 5    1  0.9955701E-004  0.1196207E+03  0.7818608E-02  0.1243724E+00
         11   -1    0    0    0    0  0.00000000000E+00  0.00000000000E+00  0.10004565407E+04  0.10004565407E+04  0.51100000000E-03 0. -1.
          2   -1    0    0  501    0 -0.00000000000E+00 -0.00000000000E+00 -0.11968438831E+03  0.11968438833E+03  0.25500000000E-02 0. -1.
         11    1    1    2    0    0 -0.42241612885E+02  0.77149800390E+02  0.47226090092E+03  0.48038193564E+03  0.51100000000E-03 0. -1.
         22    1    1    2    0    0 -0.42814641586E+02 -0.11563295758E+03 -0.76987699009E+02  0.14536567755E+03  0.00000000000E+00 0. -1.
          2    1    1    2  501    0  0.85056254470E+02  0.38483157188E+02  0.48549895044E+03  0.49439331579E+03  0.25500000000E-02 0. -1.
<mgrwt>
<rscale>  0 0.11962067E+03</rscale>
<asrwt>0</asrwt>
<pdfrwt beam="1">  1       11 0.10000000E+01 0.87957067E+02</pdfrwt>
<pdfrwt beam="2">  1        2 0.18421389E-01 0.11962067E+03</pdfrwt>
<totfact> 0.36718379E+02</totfact>
</mgrwt>
</event>
<event>
 5    1  0.9955701E-004  0.9806397E+02  0.7818608E-02  0.1458417E+00
         11   -1    0    0    0    0  0.00000000000E+00  0.00000000000E+00  0.10001068481E+04  0.10001068481E+04  0.51100000000E-03 0. -1.
          2   -1    0    0  501    0 -0.00000000000E+00 -0.00000000000E+00 -0.16735866742E+02  0.16735866936E+02  0.25500000000E-02 0. -1.
         11    1    1    2    0    0  0.59410332413E+02 -0.97911888538E+02  0.27706586341E+03  0.29980296560E+03  0.51100000000E-03 0. -1.
         22    1    1    2    0    0 -0.18308368657E+02  0.14181394663E+02  0.65322828155E+02  0.69306422470E+02  0.00000000000E+00 0.  1.
          2    1    1    2  501    0 -0.41101963755E+02  0.83730493875E+02  0.64098228981E+03  0.64773332699E+03  0.25500000000E-02 0. -1.
<mgrwt>
<rscale>  0 0.47654977E+02</rscale>
<asrwt>0</asrwt>
<pdfrwt beam="1">  1       11 0.10000000E+01 0.98063972E+02</pdfrwt>
<pdfrwt beam="2">  1        2 0.25750238E-02 0.47654977E+02</pdfrwt>
<totfact> 0.38978559E+03</totfact>
</mgrwt>
</event>
<event>
 5    1  0.9955701E-004  0.1765825E+03  0.7818608E-02  0.1390704E+00
         11   -1    0    0    0    0  0.00000000000E+00  0.00000000000E+00  0.10002129261E+04  0.10002129261E+04  0.51100000000E-03 0. -1.
          2   -1    0    0  501    0 -0.00000000000E+00 -0.00000000000E+00 -0.10139883986E+03  0.10139883989E+03  0.25500000000E-02 0. -1.
         11    1    1    2    0    0 -0.39392897515E+02  0.17235854220E+03  0.88297619966E+03  0.90050332404E+03  0.51100000000E-03 0. -1.
         22    1    1    2    0    0  0.21427968017E+02  0.25662439076E+01 -0.92556565859E+01  0.23482133634E+02  0.00000000000E+00 0.  1.
          2    1    1    2  501    0  0.17964929497E+02 -0.17492478611E+03  0.25093543160E+02  0.17762630831E+03  0.25500000000E-02 0. -1.
<mgrwt>
<rscale>  0 0.61732030E+02</rscale>
<asrwt>0</asrwt>
<pdfrwt beam="1">  1       11 0.10000000E+01 0.17658254E+03</pdfrwt>
<pdfrwt beam="2">  1        2 0.15603143E-01 0.61732030E+02</pdfrwt>
<totfact> 0.43070154E+02</totfact>
</mgrwt>
</event>
<event>
 5    1  0.9955701E-004  0.2537840E+03  0.7818608E-02  0.1231905E+00
         11   -1    0    0    0    0  0.00000000000E+00  0.00000000000E+00  0.10001174232E+04  0.10001174232E+04  0.51100000000E-03 0.  1.
          2   -1    0    0  501    0 -0.00000000000E+00 -0.00000000000E+00 -0.20010328655E+03  0.20010328657E+03  0.25500000000E-02 0.  1.
         11    1    1    2    0    0  0.30997371664E+01 -0.26348240260E+03  0.86494140182E+03  0.90418815156E+03  0.51100000000E-03 0.  1.
         22    1    1    2    0    0  0.19872919158E+02  0.60416480740E+02 -0.66015283838E+02  0.91668433831E+02  0.00000000000E+00 0.  1.
          2    1    1    2  501    0 -0.22972656324E+02  0.20306592186E+03  0.10880187130E+01  0.20436412442E+03  0.25500000000E-02 0.  1.
<mgrwt>
<rscale>  0 0.12704688E+03</rscale>
<asrwt>0</asrwt>
<pdfrwt beam="1">  1       11 0.10000000E+01 0.25378398E+03</pdfrwt>
<pdfrwt beam="2">  1        2 0.30788735E-01 0.12704688E+03</pdfrwt>
<totfact> 0.20838151E+02</totfact>
</mgrwt>
</event>
<event>
 5    1  0.9955701E-004  0.2970100E+03  0.7818608E-02  0.1104974E+00
         11   -1    0    0    0    0  0.00000000000E+00  0.00000000000E+00  0.10002680359E+04  0.10002680359E+04  0.51100000000E-03 0.  1.
          2   -1    0    0  501    0 -0.00000000000E+00 -0.00000000000E+00 -0.19771356696E+03  0.19771356697E+03  0.25500000000E-02 0.  1.
         11    1    1    2    0    0 -0.21888285607E+03  0.18652879847E+03  0.33020156892E+03  0.43787643629E+03  0.51100000000E-03 0.  1.
         22    1    1    2    0    0  0.16086677383E+03  0.16996817044E+03  0.17383602568E+03  0.29152403281E+03  0.00000000000E+00 0.  1.
          2    1    1    2  501    0  0.58016082241E+02 -0.35649696891E+03  0.29851687432E+03  0.46858113374E+03  0.25500000000E-02 0.  1.
<mgrwt>
<rscale>  0 0.26364275E+03</rscale>
<asrwt>0</asrwt>
<pdfrwt beam="1">  1       11 0.10000000E+01 0.29700995E+03</pdfrwt>
<pdfrwt beam="2">  1        2 0.30425624E-01 0.26364275E+03</pdfrwt>
<totfact> 0.21365112E+02</totfact>
</mgrwt>
</event>
<event>
 5    1  0.9955701E-004  0.3044465E+02  0.7818608E-02  0.1593225E+00
         11   -1    0    0    0    0  0.00000000000E+00  0.00000000000E+00  0.10001233486E+04  0.10001233486E+04  0.51100000000E-03 0. -1.
          2   -1    0    0  501    0 -0.00000000000E+00 -0.00000000000E+00 -0.48699598900E+01  0.48699605576E+01  0.25500000000E-02 0. -1.
         11    1    1    2    0    0  0.15003532400E+02 -0.87634858780E+01  0.55761960211E+02  0.58406342772E+02  0.51100000000E-03 0. -1.
         22    1    1    2    0    0  0.42484520480E+01  0.30634508069E+02  0.69072211082E+02  0.75680200668E+02  0.00000000000E+00 0. -1.
          2    1    1    2  501    0 -0.19251984448E+02 -0.21871022191E+02  0.87041921740E+03  0.87090676570E+03  0.25500000000E-02 0. -1.
<mgrwt>
<rscale>  0 0.30444648E+02</rscale>
<asrwt>0</asrwt>
<pdfrwt beam="1">  1       11 0.10000000E+01 0.17375413E+02</pdfrwt>
<pdfrwt beam="2">  1        2 0.74931704E-03 0.30444648E+02</pdfrwt>
<totfact> 0.18317660E+04</totfact>
</mgrwt>
</event>
<event>
 5    1  0.9955701E-004  0.1871780E+03  0.7818608E-02  0.1405914E+00
         11   -1    0    0    0    0  0.00000000000E+00  0.00000000000E+00  0.10000725433E+04  0.10000725433E+04  0.51100000000E-03 0. -1.
          2   -1    0    0  501    0 -0.00000000000E+00 -0.00000000000E+00 -0.14434386021E+03  0.14434386023E+03  0.25500000000E-02 0. -1.
         11    1    1    2    0    0  0.13689568322E+03  0.12866123281E+03  0.91836455208E+03  0.93738337484E+03  0.51100000000E-03 0. -1.
         22    1    1    2    0    0  0.32293676167E+01 -0.17752626905E+02 -0.12858486855E+01  0.18089720398E+02  0.00000000000E+00 0. -1.
          2    1    1    2  501    0 -0.14012505084E+03 -0.11090860590E+03 -0.61350020333E+02  0.18894330826E+03  0.25500000000E-02 0. -1.
<mgrwt>
<rscale>  0 0.58115684E+02</rscale>
<asrwt>0</asrwt>
<pdfrwt beam="1">  1       11 0.10000000E+01 0.18717800E+03</pdfrwt>
<pdfrwt beam="2">  1        2 0.22208358E-01 0.58115684E+02</pdfrwt>
<totfact> 0.29016596E+02</totfact>
</mgrwt>
</event>
<event>
 5    1  0.9955701E-004  0.6538276E+02  0.7818608E-02  0.1444660E+00
         11   -1    0    0    0    0  0.00000000000E+00  0.00000000000E+00  0.10003815216E+04  0.10003815216E+04  0.51100000000E-03 0.  1.
         -2   -1    0    0    0  501 -0.00000000000E+00 -0.00000000000E+00 -0.16191490428E+02  0.16191490629E+02  0.25500000000E-02 0.  1.
         11    1    1    2    0    0  0.41916452184E+02 -0.14681185557E+02  0.15206457865E+03  0.15841768290E+03  0.51100000000E-03 0.  1.
         22    1    1    2    0    0  0.36848594200E+02  0.10911840819E+02  0.22162432955E+02  0.44362829024E+02  0.00000000000E+00 0.  1.
         -2    1    1    2    0  501 -0.78765046384E+02  0.37693447377E+01  0.80996301961E+03  0.81379250035E+03  0.25500000000E-02 0.  1.
<mgrwt>
<rscale>  0 0.50126611E+02</rscale>
<asrwt>0</asrwt>
<pdfrwt beam="1">  1       11 0.10000000E+01 0.65382760E+02</pdfrwt>
<pdfrwt beam="2">  1       -2 0.24919488E-02 0.50126611E+02</pdfrwt>
<totfact> 0.36398974E+03</totfact>
</mgrwt>
</event>
<event>
 5    1  0.9955701E-004  0.1376713E+03  0.7818608E-02  0.1431699E+00
         11   -1    0    0    0    0  0.00000000000E+00  0.00000000000E+00  0.10003909903E+04  0.10003909903E+04  0.51100000000E-03 0. -1.
          2   -1    0    0  501    0 -0.00000000000E+00 -0.00000000000E+00 -0.32680393240E+02  0.32680393339E+02  0.25500000000E-02 0. -1.
         11    1    1    2    0    0 -0.11128182017E+03  0.86508800166E+02  0.77321629568E+03  0.78595855865E+03  0.51100000000E-03 0. -1.
         22    1    1    2    0    0  0.18783425377E+01 -0.20024596181E+02  0.97611303969E+01  0.22356034745E+02  0.00000000000E+00 0. -1.
          2    1    1    2  501    0  0.10940347763E+03 -0.66484203985E+02  0.18473317102E+03  0.22475679029E+03  0.25500000000E-02 0. -1.
<mgrwt>
<rscale>  0 0.52620476E+02</rscale>
<asrwt>0</asrwt>
<pdfrwt beam="1">  1       11 0.10000000E+01 0.13767133E+03</pdfrwt>
<pdfrwt beam="2">  1        2 0.50297185E-02 0.52620476E+02</pdfrwt>
<totfact> 0.16654221E+03</totfact>
</mgrwt>
</event>
<event>
 5    1  0.9955701E-004  0.4142308E+03  0.7818608E-02  0.1038960E+00
         11   -1    0    0    0    0  0.00000000000E+00  0.00000000000E+00  0.10000692720E+04  0.10000692720E+04  0.51100000000E-03 0. -1.
          2   -1    0    0  501    0 -0.00000000000E+00 -0.00000000000E+00 -0.79560005728E+03  0.79560005729E+03  0.25500000000E-02 0. -1.
         11    1    1    2    0    0  0.30977044400E+03  0.26133694785E+03  0.89948547735E+03  0.98657430143E+03  0.51100000000E-03 0. -1.
         22    1    1    2    0    0 -0.19562572881E+02 -0.84679538384E+00 -0.67446550903E+02  0.70231392901E+02  0.00000000000E+00 0. -1.
          2    1    1    2  501    0 -0.29020787112E+03 -0.26049015246E+03 -0.62756971172E+03  0.73886363496E+03  0.25500000000E-02 0. -1.
<mgrwt>
<rscale>  0 0.41423080E+03</rscale>
<asrwt>0</asrwt>
<pdfrwt beam="1">  1       11 0.10000000E+01 0.40528352E+03</pdfrwt>
<pdfrwt beam="2">  1        2 0.12240848E+00 0.41423080E+03</pdfrwt>
<totfact> 0.43960156E+01</totfact>
</mgrwt>
</event>
<event>
 5    1  0.9955701E-004  0.1711933E+03  0.7818608E-02  0.1337132E+00
         11   -1    0    0    0    0  0.00000000000E+00  0.00000000000E+00  0.10005365517E+04  0.10005365517E+04  0.51100000000E-03 0.  1.
          2   -1    0    0  501    0 -0.00000000000E+00 -0.00000000000E+00 -0.83851784858E+02  0.83851784897E+02  0.25500000000E-02 0.  1.
         11    1    1    2    0    0 -0.18288363683E+03  0.14361402889E+02  0.71656406998E+03  0.73967340151E+03  0.51100000000E-03 0.  1.
         22    1    1    2    0    0  0.33879235874E+02 -0.80874299435E+01 -0.45537240867E+02  0.57331051380E+02  0.00000000000E+00 0.  1.
          2    1    1    2  501    0  0.14900440096E+03 -0.62739729459E+01  0.24565793776E+03  0.28738388374E+03  0.25500000000E-02 0.  1.
<mgrwt>
<rscale>  0 0.77219552E+02</rscale>
<asrwt>0</asrwt>
<pdfrwt beam="1">  1       11 0.10000000E+01 0.17119328E+03</pdfrwt>
<pdfrwt beam="2">  1        2 0.12907196E-01 0.77219552E+02</pdfrwt>
<totfact> 0.54259657E+02</totfact>
</mgrwt>
</event>
<event>
 5    1  0.9955701E-004  0.4456005E+03  0.7818608E-02  0.1184635E+00
         11   -1    0    0    0    0  0.00000000000E+00  0.00000000000E+00  0.99985827893E+03  0.99985827893E+03  0.51100000000E-03 0. -1.
          2   -1    0    0  501    0 -0.00000000000E+00 -0.00000000000E+00 -0.40975927184E+03  0.40975927185E+03  0.25500000000E-02 0. -1.
         11    1    1    2    0    0 -0.11835775126E+03  0.43304074509E+03  0.74025706199E+03  0.86574439762E+03  0.51100000000E-03 0. -1.
         22    1    1    2    0    0  0.60079161243E+02 -0.16803634913E+01 -0.84462401395E+02  0.10366400767E+03  0.00000000000E+00 0. -1.
          2    1    1    2  501    0  0.58278590022E+02 -0.43136038160E+03 -0.65695653508E+02  0.44020914548E+03  0.25500000000E-02 0. -1.
<mgrwt>
<rscale>  0 0.16365137E+03</rscale>
<asrwt>0</asrwt>
<pdfrwt beam="1">  1       11 0.10000000E+01 0.44560047E+03</pdfrwt>
<pdfrwt beam="2">  1        2 0.63030952E-01 0.16365137E+03</pdfrwt>
<totfact> 0.97110128E+01</totfact>
</mgrwt>
</event>
<event>
 5    1  0.9955701E-004  0.1714229E+03  0.7818608E-02  0.1176372E+00
         11   -1    0    0    0    0  0.00000000000E+00  0.00000000000E+00  0.99997415953E+03  0.99997415953E+03  0.51100000000E-03 0. -1.
          2   -1    0    0  501    0 -0.00000000000E+00 -0.00000000000E+00 -0.74801456649E+02  0.74801456692E+02  0.25500000000E-02 0. -1.
         11    1    1    2    0    0 -0.64433699257E+02  0.15391022490E+03  0.88248156065E+03  0.89811678740E+03  0.51100000000E-03 0. -1.
         22    1    1    2    0    0  0.31561750422E+02 -0.32088925621E+02  0.15325506496E+02  0.47546970319E+02  0.00000000000E+00 0.  1.
          2    1    1    2  501    0  0.32871948835E+02 -0.12182129928E+03  0.27365635733E+02  0.12911185850E+03  0.25500000000E-02 0. -1.
<mgrwt>
<rscale>  0 0.17142289E+03</rscale>
<asrwt>0</asrwt>
<pdfrwt beam="1">  1       11 0.10000000E+01 0.16685341E+03</pdfrwt>
<pdfrwt beam="2">  1        2 0.11507619E-01 0.17142289E+03</pdfrwt>
<totfact> 0.64867017E+02</totfact>
</mgrwt>
</event>
<event>
 5    1  0.9955701E-004  0.2706196E+03  0.7818608E-02  0.1265741E+00
         11   -1    0    0    0    0  0.00000000000E+00  0.00000000000E+00  0.99988865899E+03  0.99988865899E+03  0.51100000000E-03 0. -1.
          2   -1    0    0  501    0 -0.00000000000E+00 -0.00000000000E+00 -0.38949474752E+03  0.38949474752E+03  0.25500000000E-02 0.  1.
         11    1    1    2    0    0 -0.15175109647E+02 -0.27384980058E+03  0.90160215385E+03  0.94239611685E+03  0.51100000000E-03 0. -1.
         22    1    1    2    0    0  0.22428819667E+02  0.36108890351E+02 -0.17903424423E+03  0.18401131628E+03  0.00000000000E+00 0.  1.
          2    1    1    2  501    0 -0.72537100200E+01  0.23774091023E+03 -0.11217399815E+03  0.26297597338E+03  0.25500000000E-02 0.  1.
<mgrwt>
<rscale>  0 0.10725398E+03</rscale>
<asrwt>0</asrwt>
<pdfrwt beam="1">  1       11 0.10000000E+01 0.27061964E+03</pdfrwt>
<pdfrwt beam="2">  1        2 0.59915595E-01 0.10725398E+03</pdfrwt>
<totfact> 0.10275795E+02</totfact>
</mgrwt>
</event>
<event>
 5    1  0.9955701E-004  0.3459899E+03  0.7818608E-02  0.1216936E+00
         11   -1    0    0    0    0  0.00000000000E+00  0.00000000000E+00  0.10003026176E+04  0.10003026176E+04  0.51100000000E-03 0. -1.
          2   -1    0    0  501    0 -0.00000000000E+00 -0.00000000000E+00 -0.19239222145E+03  0.19239222146E+03  0.25500000000E-02 0. -1.
         11    1    1    2    0    0 -0.56158552564E+02  0.34203400786E+03  0.12416578073E+03  0.36818227370E+03  0.51100000000E-03 0. -1.
         22    1    1    2    0    0 -0.53004165024E+02 -0.12795658988E+02 -0.35581785166E+01  0.54642758287E+02  0.00000000000E+00 0.  1.
          2    1    1    2  501    0  0.10916271759E+03 -0.32923834888E+03  0.68730279393E+03  0.76986980706E+03  0.25500000000E-02 0. -1.
<mgrwt>
<rscale>  0 0.13735250E+03</rscale>
<asrwt>0</asrwt>
<pdfrwt beam="1">  1       11 0.10000000E+01 0.34598995E+03</pdfrwt>
<pdfrwt beam="2">  1        2 0.29607760E-01 0.13735250E+03</pdfrwt>
<totfact> 0.21771447E+02</totfact>
</mgrwt>
</event>
<event>
 5    1  0.9955701E-004  0.9946897E+02  0.7818608E-02  0.1400361E+00
         11   -1    0    0    0    0  0.00000000000E+00  0.00000000000E+00  0.10003466254E+04  0.10003466254E+04  0.51100000000E-03 0. -1.
          2   -1    0    0  501    0 -0.00000000000E+00 -0.00000000000E+00 -0.38434508383E+02  0.38434508468E+02  0.25500000000E-02 0. -1.
         11    1    1    2    0    0 -0.99185712568E+02 -0.13953861222E+02  0.58536455294E+03  0.59387218799E+03  0.51100000000E-03 0. -1.
         22    1    1    2    0    0  0.90947300787E+01 -0.34287987314E+02 -0.16261989275E+02  0.39023486318E+02  0.00000000000E+00 0. -1.
          2    1    1    2  501    0  0.90090982490E+02  0.48241848535E+02  0.39280955334E+03  0.40588545955E+03  0.25500000000E-02 0. -1.
<mgrwt>
<rscale>  0 0.59401414E+02</rscale>
<asrwt>0</asrwt>
<pdfrwt beam="1">  1       11 0.10000000E+01 0.99468970E+02</pdfrwt>
<pdfrwt beam="2">  1        2 0.59150507E-02 0.59401414E+02</pdfrwt>
<totfact> 0.13740418E+03</totfact>
</mgrwt>
</event>
<event>
 5    1  0.9955701E-004  0.7880200E+02  0.7818608E-02  0.1357191E+00
         11   -1    0    0    0    0  0.00000000000E+00  0.00000000000E+00  0.10005740804E+04  0.10005740804E+04  0.51100000000E-03 0.  1.
         -2   -1    0    0    0  501 -0.00000000000E+00 -0.00000000000E+00 -0.69438476113E+01  0.69438480795E+01  0.25500000000E-02 0. -1.
         11    1    1    2    0    0  0.45254863588E+02 -0.28910686544E+02  0.22637730013E+03  0.23265964946E+03  0.51100000000E-03 0.  1.
         22    1    1    2    0    0  0.22554745576E+02  0.83420466052E+01  0.70034540308E+02  0.74048248634E+02  0.00000000000E+00 0.  1.
         -2    1    1    2    0  501 -0.67809609164E+02  0.20568639938E+02  0.69721839236E+03  0.70081003039E+03  0.25500000000E-02 0. -1.
<mgrwt>
<rscale>  0 0.70860511E+02</rscale>
<asrwt>0</asrwt>
<pdfrwt beam="1">  1       11 0.10000000E+01 0.78802003E+02</pdfrwt>
<pdfrwt beam="2">  1       -2 0.10688975E-02 0.70860511E+02</pdfrwt>
<totfact> 0.12704596E+04</totfact>
</mgrwt>
</event>
<event>
 5    1  0.9955701E-004  0.9625118E+03  0.7818608E-02  0.1066060E+00
         11   -1    0    0    0    0  0.00000000000E+00  0.00000000000E+00  0.10009542780E+04  0.10009542780E+04  0.51100000000E-03 0. -1.
          2   -1    0    0  501    0 -0.00000000000E+00 -0.00000000000E+00 -0.14372676812E+04  0.14372676812E+04  0.25500000000E-02 0. -1.
         11    1    1    2    0    0  0.63727538152E+03  0.68471661867E+03  0.34018283999E+03  0.99532965615E+03  0.51100000000E-03 0. -1.
         22    1    1    2    0    0  0.11986161479E+03  0.18819351939E+02 -0.26121600911E+03  0.28801871141E+03  0.00000000000E+00 0. -1.
          2    1    1    2  501    0 -0.75713699632E+03 -0.70353597061E+03 -0.51528023411E+03  0.11548735917E+04  0.25500000000E-02 0. -1.
<mgrwt>
<rscale>  0 0.34173319E+03</rscale>
<asrwt>0</asrwt>
<pdfrwt beam="1">  1       11 0.10000000E+01 0.96251177E+03</pdfrwt>
<pdfrwt beam="2">  1        2 0.22132911E+00 0.34173319E+03</pdfrwt>
<totfact> 0.18161687E+01</totfact>
</mgrwt>
</event>
<event>
 5    1  0.9955701E-004  0.1508440E+03  0.7818608E-02  0.1412380E+00
         11   -1    0    0    0    0  0.00000000000E+00  0.00000000000E+00  0.10001494881E+04  0.10001494881E+04  0.51100000000E-03 0. -1.
         -2   -1    0    0    0  501 -0.00000000000E+00 -0.00000000000E+00 -0.74962376166E+02  0.74962376209E+02  0.25500000000E-02 0.  1.
         11    1    1    2    0    0 -0.11054268123E+03  0.10773611046E+03  0.69733580503E+03  0.71421563890E+03  0.51100000000E-03 0. -1.
         22    1    1    2    0    0 -0.45246239364E+01 -0.20800864979E+02 -0.46393386767E+02  0.51044045111E+02  0.00000000000E+00 0.  1.
         -2    1    1    2    0  501  0.11506730517E+03 -0.86935245481E+02  0.27424469371E+03  0.30985218033E+03  0.25500000000E-02 0.  1.
<mgrwt>
<rscale>  0 0.56666203E+02</rscale>
<asrwt>0</asrwt>
<pdfrwt beam="1">  1       11 0.10000000E+01 0.15084402E+03</pdfrwt>
<pdfrwt beam="2">  1       -2 0.11534397E-01 0.56666203E+02</pdfrwt>
<totfact> 0.38540076E+02</totfact>
</mgrwt>
</event>
<event>
 5    1  0.9955701E-004  0.1030176E+03  0.7818608E-02  0.1373242E+00
         11   -1    0    0    0    0  0.00000000000E+00  0.00000000000E+00  0.10000771206E+04  0.10000771206E+04  0.51100000000E-03 0. -1.
          2   -1    0    0  501    0 -0.00000000000E+00 -0.00000000000E+00 -0.52321611602E+02  0.52321611664E+02  0.25500000000E-02 0.  1.
         11    1    1    2    0    0 -0.22424471071E+02  0.12945399247E+03  0.27407552658E+03  0.30393845979E+03  0.51100000000E-03 0. -1.
         22    1    1    2    0    0  0.27682801876E+02 -0.32426625442E+02 -0.20643306376E+02  0.47370556840E+02  0.00000000000E+00 0.  1.
          2    1    1    2  501    0 -0.52583308047E+01 -0.97027367032E+02  0.69432328877E+03  0.70108971560E+03  0.25500000000E-02 0.  1.
<mgrwt>
<rscale>  0 0.66274050E+02</rscale>
<asrwt>0</asrwt>
<pdfrwt beam="1">  1       11 0.10000000E+01 0.10301759E+03</pdfrwt>
<pdfrwt beam="2">  1        2 0.80500993E-02 0.66274050E+02</pdfrwt>
<totfact> 0.94614631E+02</totfact>
</mgrwt>
</event>
<event>
 5    1  0.9955701E-004  0.2319892E+03  0.7818608E-02  0.1203465E+00
         11   -1    0    0    0    0  0.00000000000E+00  0.00000000000E+00  0.10002961620E+04  0.10002961620E+04  0.51100000000E-03 0. -1.
         -2   -1    0    0    0  501 -0.00000000000E+00 -0.00000000000E+00 -0.96632907109E+02  0.96632907143E+02  0.25500000000E-02 0. -1.
         11    1    1    2    0    0 -0.20582179284E+03  0.10533984025E+02  0.43620461021E+03  0.48243967208E+03  0.51100000000E-03 0. -1.
         22    1    1    2    0    0 -0.74320545223E+02 -0.57385451816E+02  0.41832848036E+02  0.10279406937E+03  0.00000000000E+00 0. -1.
         -2    1    1    2    0  501  0.28014233806E+03  0.46851467791E+02  0.42562579663E+03  0.51169532769E+03  0.25500000000E-02 0. -1.
<mgrwt>
<rscale>  0 0.14759090E+03</rscale>
<asrwt>0</asrwt>
<pdfrwt beam="1">  1       11 0.10000000E+01 0.23198920E+03</pdfrwt>
<pdfrwt beam="2">  1       -2 0.14871004E-01 0.14759090E+03</pdfrwt>
<totfact> 0.27152308E+02</totfact>
</mgrwt>
</event>
<event>
 5    1  0.9955701E-004  0.1347353E+03  0.7818608E-02  0.1373200E+00
         11   -1    0    0    0    0  0.00000000000E+00  0.00000000000E+00  0.10003948813E+04  0.10003948813E+04  0.51100000000E-03 0. -1.
          2   -1    0    0  501    0 -0.00000000000E+00 -0.00000000000E+00 -0.73076096659E+02  0.73076096703E+02  0.25500000000E-02 0. -1.
         11    1    1    2    0    0  0.13967818927E+03 -0.25485645844E+02  0.84352245969E+03  0.85538859865E+03  0.51100000000E-03 0. -1.
         22    1    1    2    0    0 -0.32465882700E+02  0.30672723256E+01 -0.40771195294E+02  0.52208543982E+02  0.00000000000E+00 0. -1.
          2    1    1    2  501    0 -0.10721230657E+03  0.22418373518E+02  0.12456752022E+03  0.16587383534E+03  0.25500000000E-02 0. -1.
<mgrwt>
<rscale>  0 0.66285584E+02</rscale>
<asrwt>0</asrwt>
<pdfrwt beam="1">  1       11 0.10000000E+01 0.13473528E+03</pdfrwt>
<pdfrwt beam="2">  1        2 0.11246916E-01 0.66285584E+02</pdfrwt>
<totfact> 0.63225938E+02</totfact>
</mgrwt>
</event>
<event>
 5    1  0.9955701E-004  0.1606740E+03  0.7818608E-02  0.1478176E+00
         11   -1    0    0    0    0  0.00000000000E+00  0.00000000000E+00  0.10001449275E+04  0.10001449275E+04  0.51100000000E-03 0. -1.
          2   -1    0    0  501    0 -0.00000000000E+00 -0.00000000000E+00 -0.81567813830E+02  0.81567813870E+02  0.25500000000E-02 0. -1.
         11    1    1    2    0    0  0.14654323271E+03 -0.54011343061E+02  0.56730345324E+03  0.58840917081E+03  0.51100000000E-03 0. -1.
         22    1    1    2    0    0  0.94806601333E+01 -0.77807220914E+01 -0.53623142482E+02  0.55007853644E+02  0.00000000000E+00 0. -1.
          2    1    1    2  501    0 -0.15602389284E+03  0.61792065152E+02  0.40489680290E+03  0.43829571691E+03  0.25500000000E-02 0. -1.
<mgrwt>
<rscale>  0 0.44391625E+02</rscale>
<asrwt>0</asrwt>
<pdfrwt beam="1">  1       11 0.10000000E+01 0.16067400E+03</pdfrwt>
<pdfrwt beam="2">  1        2 0.12550713E-01 0.44391625E+02</pdfrwt>
<totfact> 0.54169500E+02</totfact>
</mgrwt>
</event>
<event>
 5    1  0.9955701E-004  0.3206768E+03  0.7818608E-02  0.1322091E+00
         11   -1    0    0    0    0  0.00000000000E+00  0.00000000000E+00  0.10001625385E+04  0.10001625385E+04  0.51100000000E-03 0.  1.
          2   -1    0    0  501    0 -0.00000000000E+00 -0.00000000000E+00 -0.11547331125E+03  0.11547331128E+03  0.25500000000E-02 0.  1.
         11    1    1    2    0    0  0.15092254221E+03 -0.28278145205E+03  0.52985551905E+03  0.61926556052E+03  0.51100000000E-03 0.  1.
         22    1    1    2    0    0 -0.18704484826E+02 -0.10036139087E+02  0.58579632258E+01  0.22020389950E+02  0.00000000000E+00 0.  1.
          2    1    1    2  501    0 -0.13221805739E+03  0.29281759114E+03  0.34897574494E+03  0.47434989928E+03  0.25500000000E-02 0.  1.
<mgrwt>
<rscale>  0 0.82504417E+02</rscale>
<asrwt>0</asrwt>
<pdfrwt beam="1">  1       11 0.10000000E+01 0.32067682E+03</pdfrwt>
<pdfrwt beam="2">  1        2 0.17768012E-01 0.82504417E+02</pdfrwt>
<totfact> 0.37690222E+02</totfact>
</mgrwt>
</event>
<event>
 5    1  0.9955701E-004  0.3229876E+03  0.7818608E-02  0.1283640E+00
         11   -1    0    0    0    0  0.00000000000E+00  0.00000000000E+00  0.10001873801E+04  0.10001873801E+04  0.51100000000E-03 0. -1.
          2   -1    0    0  501    0 -0.00000000000E+00 -0.00000000000E+00 -0.77139402716E+03  0.77139402716E+03  0.25500000000E-02 0. -1.
         11    1    1    2    0    0  0.21124027884E+03  0.24492009732E+03  0.92963654947E+03  0.98429285459E+03  0.51100000000E-03 0. -1.
         22    1    1    2    0    0  0.12785598788E+02 -0.27132778926E+02 -0.14795791438E+02  0.33445099386E+02  0.00000000000E+00 0.  1.
          2    1    1    2  501    0 -0.22402587763E+03 -0.21778731839E+03 -0.68604740513E+03  0.75384345324E+03  0.25500000000E-02 0. -1.
<mgrwt>
<rscale>  0 0.98426593E+02</rscale>
<asrwt>0</asrwt>
<pdfrwt beam="1">  1       11 0.10000000E+01 0.32298763E+03</pdfrwt>
<pdfrwt beam="2">  1        2 0.11869824E+00 0.98426593E+02</pdfrwt>
<totfact> 0.48076276E+01</totfact>
</mgrwt>
</event>
<event>
 5    1  0.9955701E-004  0.2592549E+03  0.7818608E-02  0.1367309E+00
         11   -1    0    0    0    0  0.00000000000E+00  0.00000000000E+00  0.10003088626E+04  0.10003088626E+04  0.51100000000E-03 0. -1.
         -2   -1    0    0    0  501 -0.00000000000E+00 -0.00000000000E+00 -0.11734186748E+03  0.11734186751E+03  0.25500000000E-02 0.  1.
         11    1    1    2    0    0 -0.26104207702E+03  0.21365864812E+02  0.77381939273E+03  0.81694303273E+03  0.51100000000E-03 0. -1.
         22    1    1    2    0    0  0.13340878371E+02  0.11775216840E+02 -0.13490207556E+02  0.22329811178E+02  0.00000000000E+00 0.  1.
         -2    1    1    2    0  501  0.24770119865E+03 -0.33141081651E+02  0.12263780998E+03  0.27837788624E+03  0.25500000000E-02 0.  1.
<mgrwt>
<rscale>  0 0.67920852E+02</rscale>
<asrwt>0</asrwt>
<pdfrwt beam="1">  1       11 0.10000000E+01 0.25925488E+03</pdfrwt>
<pdfrwt beam="2">  1       -2 0.18058170E-01 0.67920852E+02</pdfrwt>
<totfact> 0.19057312E+02</totfact>
</mgrwt>
</event>
<event>
 5    1  0.9955701E-004  0.7782718E+02  0.7818608E-02  0.1490642E+00
         11   -1    0    0    0    0  0.00000000000E+00  0.00000000000E+00  0.10001735286E+04  0.10001735286E+04  0.51100000000E-03 0. -1.
          2   -1    0    0  501    0 -0.00000000000E+00 -0.00000000000E+00 -0.86762114243E+01  0.86762117991E+01  0.25500000000E-02 0. -1.
         11    1    1    2    0    0  0.71842723466E+02 -0.17814557062E+02  0.32677538917E+03  0.33505356336E+03  0.51100000000E-03 0. -1.
         22    1    1    2    0    0  0.97608798869E+01  0.21045093872E+02  0.76741718004E+02  0.80171453987E+02  0.00000000000E+00 0.  1.
          2    1    1    2  501    0 -0.81603603352E+02 -0.32305368099E+01  0.58798020998E+03  0.59362472302E+03  0.25500000000E-02 0. -1.
<mgrwt>
<rscale>  0 0.42490864E+02</rscale>
<asrwt>0</asrwt>
<pdfrwt beam="1">  1       11 0.10000000E+01 0.77827181E+02</pdfrwt>
<pdfrwt beam="2">  1        2 0.13350334E-02 0.42490864E+02</pdfrwt>
<totfact> 0.91034996E+03</totfact>
</mgrwt>
</event>
<event>
 5    1  0.9955701E-004  0.1015343E+03  0.7818608E-02  0.1311697E+00
         11   -1    0    0    0    0  0.00000000000E+00  0.00000000000E+00  0.10003727009E+04  0.10003727009E+04  0.51100000000E-03 0. -1.
          2   -1    0    0  501    0 -0.00000000000E+00 -0.00000000000E+00 -0.97371558358E+02  0.97371558392E+02  0.25500000000E-02 0. -1.
         11    1    1    2    0    0 -0.80002194741E+02  0.60426687618E+01  0.18723127118E+03  0.20369686772E+03  0.51100000000E-03 0. -1.
         22    1    1    2    0    0 -0.10307117871E+02  0.72872247957E+02 -0.68570561934E+02  0.10059087019E+03  0.00000000000E+00 0. -1.
          2    1    1    2  501    0  0.90309312612E+02 -0.78914916719E+02  0.78434043326E+03  0.79345652135E+03  0.25500000000E-02 0. -1.
<mgrwt>
<rscale>  0 0.86444646E+02</rscale>
<asrwt>0</asrwt>
<pdfrwt beam="1">  1       11 0.10000000E+01 0.10153435E+03</pdfrwt>
<pdfrwt beam="2">  1        2 0.14985822E-01 0.86444646E+02</pdfrwt>
<totfact> 0.45880570E+02</totfact>
</mgrwt>
</event>
<event>
 5    1  0.9955701E-004  0.1555887E+03  0.7818608E-02  0.1487157E+00
         11   -1    0    0    0    0  0.00000000000E+00  0.00000000000E+00  0.10003178055E+04  0.10003178055E+04  0.51100000000E-03 0. -1.
         -2   -1    0    0    0  501 -0.00000000000E+00 -0.00000000000E+00 -0.50739302076E+02  0.50739302141E+02  0.25500000000E-02 0.  1.
         11    1    1    2    0    0 -0.84745913142E+02 -0.12853087462E+03  0.80446912214E+03  0.81906814369E+03  0.51100000000E-03 0. -1.
         22    1    1    2    0    0 -0.11009504161E+02 -0.44898515254E+01 -0.16261184929E+01  0.12000508737E+02  0.00000000000E+00 0. -1.
         -2    1    1    2    0  501  0.95755417303E+02  0.13302072615E+03  0.14673549977E+03  0.21998845521E+03  0.25500000000E-02 0.  1.
<mgrwt>
<rscale>  0 0.43010727E+02</rscale>
<asrwt>0</asrwt>
<pdfrwt beam="1">  1       11 0.10000000E+01 0.15558871E+03</pdfrwt>
<pdfrwt beam="2">  1       -2 0.78085271E-02 0.43010727E+02</pdfrwt>
<totfact> 0.68181545E+02</totfact>
</mgrwt>
</event>
<event>
 5    1  0.9955701E-004  0.2580177E+02  0.7818608E-02  0.1826688E+00
         11   -1    0    0    0    0  0.00000000000E+00  0.00000000000E+00  0.10002456043E+04  0.10002456043E+04  0.51100000000E-03 0. -1.
          2   -1    0    0  501    0 -0.00000000000E+00 -0.00000000000E+00 -0.76412656845E+01  0.76412661099E+01  0.25500000000E-02 0. -1.
         11    1    1    2    0    0  0.16323215102E+02 -0.78355318874E+01  0.25611677165E+02  0.31365600882E+02  0.51100000000E-03 0. -1.
         22    1    1    2    0    0  0.97192612690E+01  0.39545084965E+01  0.14187603019E+01  0.10588439822E+02  0.00000000000E+00 0. -1.
          2    1    1    2  501    0 -0.26042476371E+02  0.38810233909E+01  0.96557390119E+03  0.96593282975E+03  0.25500000000E-02 0. -1.
<mgrwt>
<rscale>  0 0.16454081E+02</rscale>
<asrwt>0</asrwt>
<pdfrwt beam="1">  1       11 0.10000000E+01 0.25801770E+02</pdfrwt>
<pdfrwt beam="2">  1        2 0.11758681E-02 0.16454081E+02</pdfrwt>
<totfact> 0.88406969E+03</totfact>
</mgrwt>
</event>
<event>
 5    1  0.9955701E-004  0.1493511E+03  0.7818608E-02  0.1278660E+00
         11   -1    0    0    0    0  0.00000000000E+00  0.00000000000E+00  0.10003275036E+04  0.10003275036E+04  0.51100000000E-03 0. -1.
          2   -1    0    0  501    0 -0.00000000000E+00 -0.00000000000E+00 -0.77607867052E+02  0.77607867094E+02  0.25500000000E-02 0. -1.
         11    1    1    2    0    0  0.28834256635E+02 -0.13568930057E+03  0.66905239639E+03  0.68328186699E+03  0.51100000000E-03 0. -1.
         22    1    1    2    0    0  0.36724434099E+02 -0.57239446337E+02 -0.16084099162E+01  0.68026651095E+02  0.00000000000E+00 0. -1.
          2    1    1    2  501    0 -0.65558690734E+02  0.19292874691E+03  0.25527565006E+03  0.32662685259E+03  0.25500000000E-02 0. -1.
<mgrwt>
<rscale>  0 0.10078202E+03</rscale>
<asrwt>0</asrwt>
<pdfrwt beam="1">  1       11 0.10000000E+01 0.14935112E+03</pdfrwt>
<pdfrwt beam="2">  1        2 0.11943582E-01 0.10078202E+03</pdfrwt>
<totfact> 0.60352652E+02</totfact>
</mgrwt>
</event>
<event>
 5    1  0.9955701E-004  0.5649166E+02  0.7818608E-02  0.1418564E+00
         11   -1    0    0    0    0  0.00000000000E+00  0.00000000000E+00  0.10003646534E+04  0.10003646534E+04  0.51100000000E-03 0. -1.
          2   -1    0    0  501    0 -0.00000000000E+00 -0.00000000000E+00 -0.47804937623E+01  0.47804944424E+01  0.25500000000E-02 0. -1.
         11    1    1    2    0    0 -0.29880974518E+02 -0.86730061008E+01  0.13004053656E+03  0.13371101235E+03  0.51100000000E-03 0. -1.
         22    1    1    2    0    0 -0.24738067515E+02 -0.14202795049E+00  0.75371975847E+02  0.79327970473E+02  0.00000000000E+00 0.  1.
          2    1    1    2  501    0  0.54619042033E+02  0.88150340513E+01  0.79017164727E+03  0.79210616507E+03  0.25500000000E-02 0. -1.
<mgrwt>
<rscale>  0 0.55325804E+02</rscale>
<asrwt>0</asrwt>
<pdfrwt beam="1">  1       11 0.10000000E+01 0.56491663E+02</pdfrwt>
<pdfrwt beam="2">  1        2 0.73572880E-03 0.55325804E+02</pdfrwt>
<totfact> 0.21253548E+04</totfact>
</mgrwt>
</event>
<event>
 5    1  0.9955701E-004  0.1113906E+03  0.7818608E-02  0.1559881E+00
         11   -1    0    0    0    0  0.00000000000E+00  0.00000000000E+00  0.10002310897E+04  0.10002310897E+04  0.51100000000E-03 0.  1.
          2   -1    0    0  501    0 -0.00000000000E+00 -0.00000000000E+00 -0.20944375519E+02  0.20944375674E+02  0.25500000000E-02 0.  1.
         11    1    1    2    0    0 -0.11489631019E+03  0.14980968491E+02  0.49282915265E+03  0.50626689129E+03  0.51100000000E-03 0.  1.
         22    1    1    2    0    0  0.76157763463E+01 -0.68345685152E+01 -0.52966162924E+01  0.11522392126E+02  0.00000000000E+00 0.  1.
          2    1    1    2  501    0  0.10728053384E+03 -0.81463999759E+01  0.49175417778E+03  0.50338618192E+03  0.25500000000E-02 0.  1.
<mgrwt>
<rscale>  0 0.33761575E+02</rscale>
<asrwt>0</asrwt>
<pdfrwt beam="1">  1       11 0.10000000E+01 0.11139064E+03</pdfrwt>
<pdfrwt beam="2">  1        2 0.32229562E-02 0.33761575E+02</pdfrwt>
<totfact> 0.27781069E+03</totfact>
</mgrwt>
</event>
<event>
 5    1  0.9955701E-004  0.2850524E+03  0.7818608E-02  0.1215706E+00
         11   -1    0    0    0    0  0.00000000000E+00  0.00000000000E+00  0.10000632011E+04  0.10000632011E+04  0.51100000000E-03 0.  1.
          2   -1    0    0  501    0 -0.00000000000E+00 -0.00000000000E+00 -0.49004345373E+03  0.49004345374E+03  0.25500000000E-02 0.  1.
         11    1    1    2    0    0  0.12379896335E+03  0.26057116380E+03  0.91398264420E+03  0.95842985587E+03  0.51100000000E-03 0.  1.
         22    1    1    2    0    0  0.25882779445E+02 -0.61852026348E+02 -0.19687904821E+03  0.20798305474E+03  0.00000000000E+00 0.  1.
          2    1    1    2  501    0 -0.14968174279E+03 -0.19871913745E+03 -0.20708384860E+03  0.32369374426E+03  0.25500000000E-02 0.  1.
<mgrwt>
<rscale>  0 0.13824806E+03</rscale>
<asrwt>0</asrwt>
<pdfrwt beam="1">  1       11 0.10000000E+01 0.28505238E+03</pdfrwt>
<pdfrwt beam="2">  1        2 0.75396063E-01 0.13824806E+03</pdfrwt>
<totfact> 0.80089836E+01</totfact>
</mgrwt>
</event>
<event>
 5    1  0.9955701E-004  0.6275773E+02  0.7818608E-02  0.1473039E+00
         11   -1    0    0    0    0  0.00000000000E+00  0.00000000000E+00  0.10002686933E+04  0.10002686933E+04  0.51100000000E-03 0.  1.
          2   -1    0    0  501    0 -0.00000000000E+00 -0.00000000000E+00 -0.11067501243E+02  0.11067501536E+02  0.25500000000E-02 0.  1.
         11    1    1    2    0    0 -0.45028008156E+01  0.85208690950E+02  0.34131003108E+03  0.35181434528E+03  0.51100000000E-03 0.  1.
         22    1    1    2    0    0 -0.11877882562E+02 -0.30324701827E+02  0.55363273475E+02  0.64232107897E+02  0.00000000000E+00 0. -1.
          2    1    1    2  501    0  0.16380683377E+02 -0.54883989123E+02  0.59252788747E+03  0.59528974163E+03  0.25500000000E-02 0.  1.
<mgrwt>
<rscale>  0 0.45209399E+02</rscale>
<asrwt>0</asrwt>
<pdfrwt beam="1">  1       11 0.10000000E+01 0.62757727E+02</pdfrwt>
<pdfrwt beam="2">  1        2 0.17031500E-02 0.45209399E+02</pdfrwt>
<totfact> 0.66615344E+03</totfact>
</mgrwt>
</event>
<event>
 5    1  0.9955701E-004  0.2860035E+03  0.7818608E-02  0.1267856E+00
         11   -1    0    0    0    0  0.00000000000E+00  0.00000000000E+00  0.10004086737E+04  0.10004086737E+04  0.51100000000E-03 0. -1.
          2   -1    0    0  501    0 -0.00000000000E+00 -0.00000000000E+00 -0.29244942415E+03  0.29244942416E+03  0.25500000000E-02 0. -1.
         11    1    1    2    0    0 -0.18737950647E+03 -0.21584093943E+03  0.82713623018E+03  0.87513012395E+03  0.51100000000E-03 0. -1.
         22    1    1    2    0    0  0.29208010205E+02 -0.26447990776E+02 -0.12216749962E+03  0.12836472272E+03  0.00000000000E+00 0. -1.
          2    1    1    2  501    0  0.15817149627E+03  0.24228893021E+03  0.29905190039E+01  0.28936325120E+03  0.25500000000E-02 0. -1.
<mgrwt>
<rscale>  0 0.10615754E+03</rscale>
<asrwt>0</asrwt>
<pdfrwt beam="1">  1       11 0.10000000E+01 0.28600351E+03</pdfrwt>
<pdfrwt beam="2">  1        2 0.45010605E-01 0.10615754E+03</pdfrwt>
<totfact> 0.13886569E+02</totfact>
</mgrwt>
</event>
<event>
 5    1  0.9955701E-004  0.1293794E+03  0.7818608E-02  0.1343455E+00
         11   -1    0    0    0    0  0.00000000000E+00  0.00000000000E+00  0.99986526022E+03  0.99986526022E+03  0.51100000000E-03 0.  1.
         -2   -1    0    0    0  501 -0.00000000000E+00 -0.00000000000E+00 -0.76372608251E+02  0.76372608294E+02  0.25500000000E-02 0.  1.
         11    1    1    2    0    0 -0.70193697503E+02  0.12026241972E+03  0.80559051636E+03  0.81753671771E+03  0.51100000000E-03 0.  1.
         22    1    1    2    0    0  0.39245021301E+02 -0.19070043332E+02 -0.46130926844E+02  0.63497249240E+02  0.00000000000E+00 0.  1.
         -2    1    1    2    0  501  0.30948676202E+02 -0.10119237639E+03  0.16403306245E+03  0.19520390155E+03  0.25500000000E-02 0.  1.
<mgrwt>
<rscale>  0 0.75134606E+02</rscale>
<asrwt>0</asrwt>
<pdfrwt beam="1">  1       11 0.10000000E+01 0.12937936E+03</pdfrwt>
<pdfrwt beam="2">  1       -2 0.11748049E-01 0.75134606E+02</pdfrwt>
<totfact> 0.38187706E+02</totfact>
</mgrwt>
</event>
<event>
 5    1  0.9955701E-004  0.1220335E+03  0.7818608E-02  0.1260758E+00
         11   -1    0    0    0    0  0.00000000000E+00  0.00000000000E+00  0.10000374008E+04  0.10000374008E+04  0.51100000000E-03 0. -1.
          2   -1    0    0  501    0 -0.00000000000E+00 -0.00000000000E+00 -0.14653056777E+02  0.14653056999E+02  0.25500000000E-02 0. -1.
         11    1    1    2    0    0 -0.97953852843E+01 -0.82939001384E+02  0.30243318613E+03  0.31375254517E+03  0.51100000000E-03 0. -1.
         22    1    1    2    0    0  0.22589042118E+02 -0.26212182254E+02  0.68582572248E+02  0.76817397368E+02  0.00000000000E+00 0.  1.
          2    1    1    2  501    0 -0.12793656833E+02  0.10915118364E+03  0.61436858564E+03  0.62412051527E+03  0.25500000000E-02 0. -1.
<mgrwt>
<rscale>  0 0.10989840E+03</rscale>
<asrwt>0</asrwt>
<pdfrwt beam="1">  1       11 0.10000000E+01 0.12203355E+03</pdfrwt>
<pdfrwt beam="2">  1        2 0.22544007E-02 0.10989840E+03</pdfrwt>
<totfact> 0.51811145E+03</totfact>
</mgrwt>
</event>
<event>
 5    1  0.9955701E-004  0.1732300E+03  0.7818608E-02  0.1322995E+00
         11   -1    0    0    0    0  0.00000000000E+00  0.00000000000E+00  0.10001544030E+04  0.10001544030E+04  0.51100000000E-03 0.  1.
          2   -1    0    0  501    0 -0.00000000000E+00 -0.00000000000E+00 -0.22914646283E+03  0.22914646284E+03  0.25500000000E-02 0. -1.
         11    1    1    2    0    0  0.67141121171E+02 -0.16119683893E+03  0.84142655435E+03  0.85935498916E+03  0.51100000000E-03 0.  1.
         22    1    1    2    0    0 -0.38561227745E+02 -0.56964308550E+01 -0.16939169225E+03  0.17381876485E+03  0.00000000000E+00 0. -1.
          2    1    1    2  501    0 -0.28579893425E+02  0.16689326978E+03  0.98973078075E+02  0.19612711183E+03  0.25500000000E-02 0. -1.
<mgrwt>
<rscale>  0 0.82173332E+02</rscale>
<asrwt>0</asrwt>
<pdfrwt beam="1">  1       11 0.10000000E+01 0.17323004E+03</pdfrwt>
<pdfrwt beam="2">  1        2 0.35258744E-01 0.82173332E+02</pdfrwt>
<totfact> 0.17890522E+02</totfact>
</mgrwt>
</event>
<event>
 5    1  0.9955701E-004  0.1616869E+03  0.7818608E-02  0.1186805E+00
         11   -1    0    0    0    0  0.00000000000E+00  0.00000000000E+00  0.99997303113E+03  0.99997303113E+03  0.51100000000E-03 0.  1.
          2   -1    0    0  501    0 -0.00000000000E+00 -0.00000000000E+00 -0.30815659109E+02  0.30815659215E+02  0.25500000000E-02 0.  1.
         11    1    1    2    0    0  0.87277477926E+02 -0.13312112416E+03  0.69058769359E+03  0.70869595341E+03  0.51100000000E-03 0.  1.
         22    1    1    2    0    0 -0.28387953279E+01  0.21576492570E+02  0.35628594487E+02  0.41749257906E+02  0.00000000000E+00 0.  1.
          2    1    1    2  501    0 -0.84438682598E+02  0.11154463159E+03  0.24294108394E+03  0.28034347902E+03  0.25500000000E-02 0.  1.
<mgrwt>
<rscale>  0 0.16168694E+03</rscale>
<asrwt>0</asrwt>
<pdfrwt beam="1">  1       11 0.10000000E+01 0.15918100E+03</pdfrwt>
<pdfrwt beam="2">  1        2 0.47407426E-02 0.16168694E+03</pdfrwt>
<totfact> 0.19933491E+03</totfact>
</mgrwt>
</event>
<event>
 5    1  0.9955701E-004  0.1433943E+03  0.7818608E-02  0.1418482E+00
         11   -1    0    0    0    0  0.00000000000E+00  0.00000000000E+00  0.99986007520E+03  0.99986007520E+03  0.51100000000E-03 0. -1.
          2   -1    0    0  501    0 -0.00000000000E+00 -0.00000000000E+00 -0.13917892614E+03  0.13917892616E+03  0.25500000000E-02 0. -1.
         11    1    1    2    0    0  0.39144332484E+02  0.14071074972E+03  0.87506029450E+03  0.88716532443E+03  0.51100000000E-03 0. -1.
         22    1    1    2    0    0  0.60156671420E+01 -0.20495213076E+02 -0.96900733149E+02  0.99226982696E+02  0.00000000000E+00 0. -1.
          2    1    1    2  501    0 -0.45159999626E+02 -0.12021553665E+03  0.82521587707E+02  0.15264669424E+03  0.25500000000E-02 0. -1.
<mgrwt>
<rscale>  0 0.55343272E+02</rscale>
<asrwt>0</asrwt>
<pdfrwt beam="1">  1       11 0.10000000E+01 0.14339435E+03</pdfrwt>
<pdfrwt beam="2">  1        2 0.21409146E-01 0.55343272E+02</pdfrwt>
<totfact> 0.30137203E+02</totfact>
</mgrwt>
</event>
<event>
 5    1  0.9955701E-004  0.3536075E+02  0.7818608E-02  0.1601038E+00
         11   -1    0    0    0    0  0.00000000000E+00  0.00000000000E+00  0.10001078467E+04  0.10001078467E+04  0.51100000000E-03 0.  1.
          2   -1    0    0  501    0 -0.00000000000E+00 -0.00000000000E+00 -0.15895697908E+02  0.15895698113E+02  0.25500000000E-02 0.  1.
         11    1    1    2    0    0  0.42144973299E+01 -0.48844401548E+02  0.32787785759E+02  0.58979457827E+02  0.51100000000E-03 0.  1.
         22    1    1    2    0    0 -0.22725702990E+02  0.25574265300E+02  0.11283583173E+03  0.11790854737E+03  0.00000000000E+00 0.  1.
          2    1    1    2  501    0  0.18511205660E+02  0.23270136248E+02  0.83858853130E+03  0.83911553961E+03  0.25500000000E-02 0.  1.
<mgrwt>
<rscale>  0 0.29734895E+02</rscale>
<asrwt>0</asrwt>
<pdfrwt beam="1">  1       11 0.10000000E+01 0.35360746E+02</pdfrwt>
<pdfrwt beam="2">  1        2 0.24457557E-02 0.29734895E+02</pdfrwt>
<totfact> 0.38814541E+03</totfact>
</mgrwt>
</event>
<event>
 5    1  0.9955701E-004  0.4515257E+02  0.7818608E-02  0.1473391E+00
         11   -1    0    0    0    0  0.00000000000E+00  0.00000000000E+00  0.99994844469E+03  0.99994844469E+03  0.51100000000E-03 0.  1.
          2   -1    0    0  501    0 -0.00000000000E+00 -0.00000000000E+00 -0.76734369788E+01  0.76734374025E+01  0.25500000000E-02 0.  1.
         11    1    1    2    0    0  0.10592906758E+02  0.14186142656E+02  0.67545123756E+02  0.69826929336E+02  0.51100000000E-03 0.  1.
         22    1    1    2    0    0 -0.42971795588E+02 -0.17955220418E+02  0.80990040629E+02  0.93425648712E+02  0.00000000000E+00 0.  1.
          2    1    1    2  501    0  0.32378888829E+02  0.37690777622E+01  0.84373984333E+03  0.84436930405E+03  0.25500000000E-02 0.  1.
<mgrwt>
<rscale>  0 0.45152574E+02</rscale>
<asrwt>0</asrwt>
<pdfrwt beam="1">  1       11 0.10000000E+01 0.17704706E+02</pdfrwt>
<pdfrwt beam="2">  1        2 0.11804679E-02 0.45152574E+02</pdfrwt>
<totfact> 0.10839930E+04</totfact>
</mgrwt>
</event>
<event>
 5    1  0.9955701E-004  0.1603856E+03  0.7818608E-02  0.1301142E+00
         11   -1    0    0    0    0  0.00000000000E+00  0.00000000000E+00  0.10002913199E+04  0.10002913199E+04  0.51100000000E-03 0.  1.
          2   -1    0    0  501    0 -0.00000000000E+00 -0.00000000000E+00 -0.48159636858E+02  0.48159636925E+02  0.25500000000E-02 0.  1.
         11    1    1    2    0    0  0.85630493276E+02 -0.16124418334E+03  0.24615665922E+03  0.30647246029E+03  0.51100000000E-03 0.  1.
         22    1    1    2    0    0  0.19520975261E+02  0.47443798447E+02  0.66441470845E+02  0.83943144653E+02  0.00000000000E+00 0.  1.
          2    1    1    2  501    0 -0.10515146854E+03  0.11380038489E+03  0.63953355295E+03  0.65803535186E+03  0.25500000000E-02 0.  1.
<mgrwt>
<rscale>  0 0.90709604E+02</rscale>
<asrwt>0</asrwt>
<pdfrwt beam="1">  1       11 0.10000000E+01 0.16038556E+03</pdfrwt>
<pdfrwt beam="2">  1        2 0.74113331E-02 0.90709604E+02</pdfrwt>
<totfact> 0.10736545E+03</totfact>
</mgrwt>
</event>
<event>
 5    1  0.9955701E-004  0.5320564E+02  0.7818608E-02  0.1439683E+00
         11   -1    0    0    0    0  0.00000000000E+00  0.00000000000E+00  0.10001458749E+04  0.10001458749E+04  0.51100000000E-03 0.  1.
          2   -1    0    0  501    0 -0.00000000000E+00 -0.00000000000E+00 -0.59513548869E+01  0.59513554332E+01  0.25500000000E-02 0.  1.
         11    1    1    2    0    0  0.27675726407E+02 -0.67382105526E+01  0.68509774944E+02  0.74195273277E+02  0.51100000000E-03 0.  1.
         22    1    1    2    0    0  0.17075175469E+02 -0.17857358384E+02  0.62474943796E+02  0.67183074268E+02  0.00000000000E+00 0.  1.
          2    1    1    2  501    0 -0.44750901876E+02  0.24595568936E+02  0.86320980130E+03  0.86471888282E+03  0.25500000000E-02 0.  1.
<mgrwt>
<rscale>  0 0.51064520E+02</rscale>
<asrwt>0</asrwt>
<pdfrwt beam="1">  1       11 0.10000000E+01 0.53205645E+02</pdfrwt>
<pdfrwt beam="2">  1        2 0.91572664E-03 0.51064520E+02</pdfrwt>
<totfact> 0.15581736E+04</totfact>
</mgrwt>
</event>
<event>
 5    1  0.9955701E-004  0.8987924E+02  0.7818608E-02  0.1552747E+00
         11   -1    0    0    0    0  0.00000000000E+00  0.00000000000E+00  0.10000199741E+04  0.10000199741E+04  0.51100000000E-03 0.  1.
          2   -1    0    0  501    0 -0.00000000000E+00 -0.00000000000E+00 -0.13052431062E+02  0.13052431311E+02  0.25500000000E-02 0.  1.
         11    1    1    2    0    0  0.73579532835E+02  0.44250900180E+02  0.51582578110E+03  0.52292286837E+03  0.51100000000E-03 0.  1.
         22    1    1    2    0    0  0.12850345439E+02 -0.33169182320E+01  0.48155374918E+01  0.14118170058E+02  0.00000000000E+00 0. -1.
          2    1    1    2  501    0 -0.86429878274E+02 -0.40933981948E+02  0.46632622441E+03  0.47603136695E+03  0.25500000000E-02 0.  1.
<mgrwt>
<rscale>  0 0.34537435E+02</rscale>
<asrwt>0</asrwt>
<pdfrwt beam="1">  1       11 0.10000000E+01 0.89879242E+02</pdfrwt>
<pdfrwt beam="2">  1        2 0.20081064E-02 0.34537435E+02</pdfrwt>
<totfact> 0.51342823E+03</totfact>
</mgrwt>
</event>
<event>
 5    1  0.9955701E-004  0.1554039E+03  0.7818608E-02  0.1337719E+00
         11   -1    0    0    0    0  0.00000000000E+00  0.00000000000E+00  0.99996702186E+03  0.99996702186E+03  0.51100000000E-03 0.  1.
         -2   -1    0    0    0  501 -0.00000000000E+00 -0.00000000000E+00 -0.19919741072E+03  0.19919741073E+03  0.25500000000E-02 0.  1.
         11    1    1    2    0    0  0.15467211586E+03 -0.33843541386E+02  0.94466058082E+03  0.95783738790E+03  0.51100000000E-03 0.  1.
         22    1    1    2    0    0 -0.37289011050E+02  0.81761277662E+01 -0.11006890306E+03  0.11650099927E+03  0.00000000000E+00 0.  1.
         -2    1    1    2    0  501 -0.11738310481E+03  0.25667413620E+02 -0.33822066613E+02  0.12482604541E+03  0.25500000000E-02 0.  1.
<mgrwt>
<rscale>  0 0.77022866E+02</rscale>
<asrwt>0</asrwt>
<pdfrwt beam="1">  1       11 0.10000000E+01 0.15540392E+03</pdfrwt>
<pdfrwt beam="2">  1       -2 0.30644744E-01 0.77022866E+02</pdfrwt>
<totfact> 0.77615394E+01</totfact>
</mgrwt>
</event>
<event>
 5    1  0.9955701E-004  0.8391255E+02  0.7818608E-02  0.1501233E+00
         11   -1    0    0    0    0  0.00000000000E+00  0.00000000000E+00  0.10000019341E+04  0.10000019341E+04  0.51100000000E-03 0.  1.
          2   -1    0    0  501    0 -0.00000000000E+00 -0.00000000000E+00 -0.11082125070E+02  0.11082125364E+02  0.25500000000E-02 0.  1.
         11    1    1    2    0    0  0.92573566389E+02  0.29840739702E+02  0.41717179339E+03  0.42836040916E+03  0.51100000000E-03 0.  1.
         22    1    1    2    0    0 -0.18603485953E+02 -0.73367391696E+01  0.33995457666E+02  0.39441204002E+02  0.00000000000E+00 0.  1.
          2    1    1    2  501    0 -0.73970080436E+02 -0.22504000533E+02  0.53775255801E+03  0.54328244633E+03  0.25500000000E-02 0.  1.
<mgrwt>
<rscale>  0 0.40964338E+02</rscale>
<asrwt>0</asrwt>
<pdfrwt beam="1">  1       11 0.10000000E+01 0.83912552E+02</pdfrwt>
<pdfrwt beam="2">  1        2 0.17049456E-02 0.40964338E+02</pdfrwt>
<totfact> 0.65453197E+03</totfact>
</mgrwt>
</event>
<event>
 5    1  0.9955701E-004  0.4869407E+02  0.7818608E-02  0.1621571E+00
         11   -1    0    0    0    0  0.00000000000E+00  0.00000000000E+00  0.10001617217E+04  0.10001617217E+04  0.51100000000E-03 0. -1.
          2   -1    0    0  501    0 -0.00000000000E+00 -0.00000000000E+00 -0.38594484690E+01  0.38594493114E+01  0.25500000000E-02 0. -1.
         11    1    1    2    0    0 -0.28829129798E+02  0.34070180475E+02  0.26699622701E+03  0.27070072250E+03  0.51100000000E-03 0. -1.
         22    1    1    2    0    0 -0.14754752348E+02 -0.63822079418E+01  0.63073131169E+02  0.65089593412E+02  0.00000000000E+00 0.  1.
          2    1    1    2  501    0  0.43583882146E+02 -0.27687972533E+02  0.66623291505E+03  0.66823085510E+03  0.25500000000E-02 0. -1.
<mgrwt>
<rscale>  0 0.27978595E+02</rscale>
<asrwt>0</asrwt>
<pdfrwt beam="1">  1       11 0.10000000E+01 0.48694074E+02</pdfrwt>
<pdfrwt beam="2">  1        2 0.59385738E-03 0.27978595E+02</pdfrwt>
<totfact> 0.24427684E+04</totfact>
</mgrwt>
</event>
<event>
 5    1  0.9955701E-004  0.2414778E+02  0.7818608E-02  0.1796985E+00
         11   -1    0    0    0    0  0.00000000000E+00  0.00000000000E+00  0.10001363021E+04  0.10001363021E+04  0.51100000000E-03 0. -1.
          2   -1    0    0  501    0 -0.00000000000E+00 -0.00000000000E+00 -0.29353947833E+01  0.29353958909E+01  0.25500000000E-02 0. -1.
         11    1    1    2    0    0 -0.35124810068E+02 -0.34354282606E+01  0.16231225046E+03  0.16610484972E+03  0.51100000000E-03 0. -1.
         22    1    1    2    0    0  0.12666969057E+02 -0.23004009702E+01  0.46830344600E+02  0.48567737492E+02  0.00000000000E+00 0.  1.
          2    1    1    2  501    0  0.22457841010E+02  0.57358292308E+01  0.78805831225E+03  0.78839911078E+03  0.25500000000E-02 0. -1.
<mgrwt>
<rscale>  0 0.17631852E+02</rscale>
<asrwt>0</asrwt>
<pdfrwt beam="1">  1       11 0.10000000E+01 0.24147783E+02</pdfrwt>
<pdfrwt beam="2">  1        2 0.45166082E-03 0.17631852E+02</pdfrwt>
<totfact> 0.30937529E+04</totfact>
</mgrwt>
</event>
<event>
 5    1  0.9955701E-004  0.2030006E+03  0.7818608E-02  0.1330365E+00
         11   -1    0    0    0    0  0.00000000000E+00  0.00000000000E+00  0.10000630013E+04  0.10000630013E+04  0.51100000000E-03 0.  1.
         -2   -1    0    0    0  501 -0.00000000000E+00 -0.00000000000E+00 -0.59760161338E+02  0.59760161392E+02  0.25500000000E-02 0. -1.
         11    1    1    2    0    0  0.55847259267E+02 -0.19766799689E+03  0.63004896752E+03  0.66268639253E+03  0.51100000000E-03 0.  1.
         22    1    1    2    0    0 -0.31151441986E+02 -0.90937466344E+00  0.41658528618E+01  0.31441908819E+02  0.00000000000E+00 0. -1.
         -2    1    1    2    0  501 -0.24695817281E+02  0.19857737155E+03  0.30608801958E+03  0.36569486136E+03  0.25500000000E-02 0. -1.
<mgrwt>
<rscale>  0 0.79539024E+02</rscale>
<asrwt>0</asrwt>
<pdfrwt beam="1">  1       11 0.10000000E+01 0.20300063E+03</pdfrwt>
<pdfrwt beam="2">  1       -2 0.91944499E-02 0.79539024E+02</pdfrwt>
<totfact> 0.56105883E+02</totfact>
</mgrwt>
</event>
<event>
 5    1  0.9955701E-004  0.1870923E+03  0.7818608E-02  0.1461116E+00
         11   -1    0    0    0    0  0.00000000000E+00  0.00000000000E+00  0.10000949785E+04  0.10000949785E+04  0.51100000000E-03 0. -1.
          2   -1    0    0  501    0 -0.00000000000E+00 -0.00000000000E+00 -0.43823285455E+02  0.43823285529E+02  0.25500000000E-02 0. -1.
         11    1    1    2    0    0 -0.70839944729E+02  0.17246708315E+03  0.60676989906E+03  0.63476996065E+03  0.51100000000E-03 0. -1.
         22    1    1    2    0    0 -0.11517417766E+02 -0.30035131479E+01 -0.21518161060E+00  0.11904549817E+02  0.00000000000E+00 0.  1.
          2    1    1    2  501    0  0.82357362495E+02 -0.16946357000E+03  0.34971697556E+03  0.39724375353E+03  0.25500000000E-02 0. -1.
<mgrwt>
<rscale>  0 0.47189892E+02</rscale>
<asrwt>0</asrwt>
<pdfrwt beam="1">  1       11 0.10000000E+01 0.18709232E+03</pdfrwt>
<pdfrwt beam="2">  1        2 0.67426841E-02 0.47189892E+02</pdfrwt>
<totfact> 0.11424688E+03</totfact>
</mgrwt>
</event>
<event>
 5    1  0.9955701E-004  0.1792864E+03  0.7818608E-02  0.1168495E+00
         11   -1    0    0    0    0  0.00000000000E+00  0.00000000000E+00  0.10003490041E+04  0.10003490041E+04  0.51100000000E-03 0. -1.
          2   -1    0    0  501    0 -0.00000000000E+00 -0.00000000000E+00 -0.18931815956E+03  0.18931815957E+03  0.25500000000E-02 0. -1.
         11    1    1    2    0    0 -0.17209274103E+03  0.32813016167E+02  0.94799713659E+03  0.96404936415E+03  0.51100000000E-03 0. -1.
         22    1    1    2    0    0  0.18622340398E+02  0.39581410376E-01 -0.31279251896E+02  0.36403086789E+02  0.00000000000E+00 0.  1.
          2    1    1    2  501    0  0.15347040063E+03 -0.32852597577E+02 -0.10568704017E+03  0.18921471271E+03  0.25500000000E-02 0. -1.
<mgrwt>
<rscale>  0 0.17928644E+03</rscale>
<asrwt>0</asrwt>
<pdfrwt beam="1">  1       11 0.10000000E+01 0.17519305E+03</pdfrwt>
<pdfrwt beam="2">  1        2 0.29136035E-01 0.17928644E+03</pdfrwt>
<totfact> 0.22267381E+02</totfact>
</mgrwt>
</event>
<event>
 5    1  0.9955701E-004  0.1313816E+03  0.7818608E-02  0.1225420E+00
         11   -1    0    0    0    0  0.00000000000E+00  0.00000000000E+00  0.10004527371E+04  0.10004527371E+04  0.51100000000E-03 0. -1.
          2   -1    0    0  501    0 -0.00000000000E+00 -0.00000000000E+00 -0.18697485519E+02  0.18697485693E+02  0.25500000000E-02 0. -1.
         11    1    1    2    0    0  0.12723701509E+03  0.95894235748E+01  0.64846773930E+03  0.66090212888E+03  0.51100000000E-03 0. -1.
         22    1    1    2    0    0 -0.11069639239E+02  0.83031367785E+01  0.34000375252E+02  0.36708371124E+02  0.00000000000E+00 0.  1.
          2    1    1    2  501    0 -0.11616737585E+03 -0.17892560353E+02  0.29928713700E+03  0.32153972275E+03  0.25500000000E-02 0. -1.
<mgrwt>
<rscale>  0 0.13138162E+03</rscale>
<asrwt>0</asrwt>
<pdfrwt beam="1">  1       11 0.10000000E+01 0.12759786E+03</pdfrwt>
<pdfrwt beam="2">  1        2 0.28778385E-02 0.13138162E+03</pdfrwt>
<totfact> 0.38026420E+03</totfact>
</mgrwt>
</event>
<event>
 5    1  0.9955701E-004  0.8442888E+02  0.7818608E-02  0.1501538E+00
         11   -1    0    0    0    0  0.00000000000E+00  0.00000000000E+00  0.10001621547E+04  0.10001621547E+04  0.51100000000E-03 0. -1.
          2   -1    0    0  501    0 -0.00000000000E+00 -0.00000000000E+00 -0.98005338497E+01  0.98005341814E+01  0.25500000000E-02 0. -1.
         11    1    1    2    0    0  0.70625121335E+01 -0.94147212061E+02  0.51740222092E+03  0.52594546754E+03  0.51100000000E-03 0. -1.
         22    1    1    2    0    0  0.66326595505E+01  0.18692153138E+02  0.44096385321E+02  0.48351628307E+02  0.00000000000E+00 0. -1.
          2    1    1    2  501    0 -0.13695171684E+02  0.75455058923E+02  0.42886301466E+03  0.43566559308E+03  0.25500000000E-02 0. -1.
<mgrwt>
<rscale>  0 0.40921438E+02</rscale>
<asrwt>0</asrwt>
<pdfrwt beam="1">  1       11 0.10000000E+01 0.84428876E+02</pdfrwt>
<pdfrwt beam="2">  1        2 0.15080189E-02 0.40921438E+02</pdfrwt>
<totfact> 0.76952272E+03</totfact>
</mgrwt>
</event>
<event>
 5    1  0.9955701E-004  0.2827223E+02  0.7818608E-02  0.1620627E+00
         11   -1    0    0    0    0  0.00000000000E+00  0.00000000000E+00  0.10001808162E+04  0.10001808162E+04  0.51100000000E-03 0. -1.
          2   -1    0    0  501    0 -0.00000000000E+00 -0.00000000000E+00 -0.38368544185E+02  0.38368544269E+02  0.25500000000E-02 0. -1.
         11    1    1    2    0    0  0.15027584832E+02  0.47069666068E+02  0.23162653650E+02  0.54570049422E+02  0.51100000000E-03 0. -1.
         22    1    1    2    0    0  0.49859116364E+01 -0.27391412250E+02 -0.13829297254E+02  0.31086946496E+02  0.00000000000E+00 0. -1.
          2    1    1    2  501    0 -0.20013496468E+02 -0.19678253817E+02  0.95247891563E+03  0.95289236456E+03  0.25500000000E-02 0. -1.
<mgrwt>
<rscale>  0 0.28056030E+02</rscale>
<asrwt>0</asrwt>
<pdfrwt beam="1">  1       11 0.10000000E+01 0.28272234E+02</pdfrwt>
<pdfrwt beam="2">  1        2 0.59039201E-02 0.28056030E+02</pdfrwt>
<totfact> 0.12728393E+03</totfact>
</mgrwt>
</event>
<event>
 5    1  0.9955701E-004  0.3543595E+03  0.7818608E-02  0.1175948E+00
         11   -1    0    0    0    0  0.00000000000E+00  0.00000000000E+00  0.10004145847E+04  0.10004145847E+04  0.51100000000E-03 0. -1.
          2   -1    0    0  501    0 -0.00000000000E+00 -0.00000000000E+00 -0.95509963836E+03  0.95509963836E+03  0.25500000000E-02 0. -1.
         11    1    1    2    0    0 -0.56451834784E+02  0.34844707060E+03 -0.61202770129E+03  0.70652677077E+03  0.51100000000E-03 0. -1.
         22    1    1    2    0    0 -0.80613454869E+02 -0.21084863410E+02 -0.25594517055E+03  0.26916729166E+03  0.00000000000E+00 0.  1.
          2    1    1    2  501    0  0.13706528965E+03 -0.32736220719E+03  0.91328781819E+03  0.97982016063E+03  0.25500000000E-02 0. -1.
<mgrwt>
<rscale>  0 0.17183448E+03</rscale>
<asrwt>0</asrwt>
<pdfrwt beam="1">  1       11 0.10000000E+01 0.35435951E+03</pdfrwt>
<pdfrwt beam="2">  1        2 0.14699932E+00 0.17183448E+03</pdfrwt>
<totfact> 0.35744298E+01</totfact>
</mgrwt>
</event>
<event>
 5    1  0.9955701E-004  0.1470035E+03  0.7818608E-02  0.1520577E+00
         11   -1    0    0    0    0  0.00000000000E+00  0.00000000000E+00  0.10002291190E+04  0.10002291190E+04  0.51100000000E-03 0. -1.
          2   -1    0    0  501    0 -0.00000000000E+00 -0.00000000000E+00 -0.37163342533E+02  0.37163342620E+02  0.25500000000E-02 0. -1.
         11    1    1    2    0    0  0.13016235533E+02 -0.14623371582E+03  0.78774336349E+03  0.80130726238E+03  0.51100000000E-03 0. -1.
         22    1    1    2    0    0 -0.98495583987E+01 -0.18075114575E+01  0.10225637880E+02  0.14312392126E+02  0.00000000000E+00 0. -1.
          2    1    1    2  501    0 -0.31666771339E+01  0.14804122727E+03  0.16509677508E+03  0.22177280709E+03  0.25500000000E-02 0. -1.
<mgrwt>
<rscale>  0 0.38367933E+02</rscale>
<asrwt>0</asrwt>
<pdfrwt beam="1">  1       11 0.10000000E+01 0.14700351E+03</pdfrwt>
<pdfrwt beam="2">  1        2 0.57187471E-02 0.38367933E+02</pdfrwt>
<totfact> 0.13711287E+03</totfact>
</mgrwt>
</event>
<event>
 5    1  0.9955701E-004  0.6632084E+02  0.7818608E-02  0.1381459E+00
         11   -1    0    0    0    0  0.00000000000E+00  0.00000000000E+00  0.10003173234E+04  0.10003173234E+04  0.51100000000E-03 0. -1.
         -2   -1    0    0    0  501 -0.00000000000E+00 -0.00000000000E+00 -0.58772545701E+01  0.58772551233E+01  0.25500000000E-02 0.  1.
         11    1    1    2    0    0  0.12941382200E+02  0.50523139940E+02  0.21128517706E+03  0.21762695855E+03  0.51100000000E-03 0. -1.
         22    1    1    2    0    0  0.68044366937E+01  0.10440648781E+02  0.27401957520E+02  0.30102737111E+02  0.00000000000E+00 0.  1.
         -2    1    1    2    0  501 -0.19745818893E+02 -0.60963788721E+02  0.75575293422E+03  0.75846488284E+03  0.25500000000E-02 0.  1.
<mgrwt>
<rscale>  0 0.64081830E+02</rscale>
<asrwt>0</asrwt>
<pdfrwt beam="1">  1       11 0.10000000E+01 0.66320841E+02</pdfrwt>
<pdfrwt beam="2">  1       -2 0.90447995E-03 0.64081830E+02</pdfrwt>
<totfact> 0.15779904E+04</totfact>
</mgrwt>
</event>
<event>
 5    1  0.9955701E-004  0.3042877E+02  0.7818608E-02  0.1633338E+00
         11   -1    0    0    0    0  0.00000000000E+00  0.00000000000E+00  0.10004906537E+04  0.10004906537E+04  0.51100000000E-03 0. -1.
         -2   -1    0    0    0  501 -0.00000000000E+00 -0.00000000000E+00 -0.20319534859E+02  0.20319535019E+02  0.25500000000E-02 0. -1.
         11    1    1    2    0    0  0.18735959811E+02 -0.20473606815E+02  0.13217534751E+03  0.13505749611E+03  0.51100000000E-03 0. -1.
         22    1    1    2    0    0 -0.20793506361E+02 -0.12036453674E+02 -0.10798310806E+02  0.26341025798E+02  0.00000000000E+00 0. -1.
         -2    1    1    2    0  501  0.20575465499E+01  0.32510060489E+02  0.85879408218E+03  0.85941166686E+03  0.25500000000E-02 0. -1.
<mgrwt>
<rscale>  0 0.27038483E+02</rscale>
<asrwt>0</asrwt>
<pdfrwt beam="1">  1       11 0.10000000E+01 0.30428767E+02</pdfrwt>
<pdfrwt beam="2">  1       -2 0.31276160E-02 0.27038483E+02</pdfrwt>
<totfact> 0.24029762E+03</totfact>
</mgrwt>
</event>
<event>
 5    1  0.9955701E-004  0.1490651E+03  0.7818608E-02  0.1474379E+00
         11   -1    0    0    0    0  0.00000000000E+00  0.00000000000E+00  0.10003368910E+04  0.10003368910E+04  0.51100000000E-03 0. -1.
          2   -1    0    0  501    0 -0.00000000000E+00 -0.00000000000E+00 -0.25145466774E+02  0.25145466903E+02  0.25500000000E-02 0. -1.
         11    1    1    2    0    0  0.14930893227E+03 -0.14977287428E+02  0.55929675646E+03  0.57907714355E+03  0.51100000000E-03 0. -1.
         22    1    1    2    0    0 -0.12640838859E+01  0.13522058123E+02  0.25716822088E+02  0.29082621998E+02  0.00000000000E+00 0. -1.
          2    1    1    2  501    0 -0.14804484838E+03  0.14552293048E+01  0.39017784565E+03  0.41732259233E+03  0.25500000000E-02 0. -1.
<mgrwt>
<rscale>  0 0.44993941E+02</rscale>
<asrwt>0</asrwt>
<pdfrwt beam="1">  1       11 0.10000000E+01 0.14906506E+03</pdfrwt>
<pdfrwt beam="2">  1        2 0.38698365E-02 0.44993941E+02</pdfrwt>
<totfact> 0.22838218E+03</totfact>
</mgrwt>
</event>
<event>
 5    1  0.9955701E-004  0.2796235E+02  0.7818608E-02  0.1633751E+00
         11   -1    0    0    0    0  0.00000000000E+00  0.00000000000E+00  0.10002264224E+04  0.10002264224E+04  0.51100000000E-03 0. -1.
          2   -1    0    0  501    0 -0.00000000000E+00 -0.00000000000E+00 -0.34263153213E+01  0.34263162702E+01  0.25500000000E-02 0. -1.
         11    1    1    2    0    0 -0.12621730833E+02  0.97946305417E-01  0.21501351390E+02  0.24932424563E+02  0.51100000000E-03 0. -1.
         22    1    1    2    0    0 -0.13576300303E+02  0.64599225825E+01  0.35741522641E+02  0.38775030243E+02  0.00000000000E+00 0. -1.
          2    1    1    2  501    0  0.26198031137E+02 -0.65578688880E+01  0.93955723308E+03  0.93994528389E+03  0.25500000000E-02 0. -1.
<mgrwt>
<rscale>  0 0.27006342E+02</rscale>
<asrwt>0</asrwt>
<pdfrwt beam="1">  1       11 0.10000000E+01 0.27962353E+02</pdfrwt>
<pdfrwt beam="2">  1        2 0.52724485E-03 0.27006342E+02</pdfrwt>
<totfact> 0.28338713E+04</totfact>
</mgrwt>
</event>
<event>
 5    1  0.9955701E-004  0.2736233E+03  0.7818608E-02  0.1269931E+00
         11   -1    0    0    0    0  0.00000000000E+00  0.00000000000E+00  0.10007315959E+04  0.10007315959E+04  0.51100000000E-03 0.  1.
          2   -1    0    0  501    0 -0.00000000000E+00 -0.00000000000E+00 -0.32164088993E+04  0.32164088993E+04  0.25500000000E-02 0.  1.
         11    1    1    2    0    0 -0.58217278711E+02  0.26746751732E+03  0.97436166762E+03  0.10120814116E+04  0.51100000000E-03 0.  1.
         22    1    1    2    0    0  0.39395369687E+02 -0.88004244168E+01 -0.21647763144E+03  0.22020900876E+03  0.00000000000E+00 0. -1.
          2    1    1    2  501    0  0.18821909024E+02 -0.25866709291E+03 -0.29735613396E+04  0.29848500749E+04  0.25500000000E-02 0.  1.
<mgrwt>
<rscale>  0 0.10509603E+03</rscale>
<asrwt>0</asrwt>
<pdfrwt beam="1">  1       11 0.10000000E+01 0.27362332E+03</pdfrwt>
<pdfrwt beam="2">  1        2 0.49519414E+00 0.10509603E+03</pdfrwt>
<totfact> 0.22456815E+00</totfact>
</mgrwt>
</event>
<event>
 5    1  0.9955701E-004  0.2152091E+03  0.7818608E-02  0.1371505E+00
         11   -1    0    0    0    0  0.00000000000E+00  0.00000000000E+00  0.99962670502E+03  0.99962670502E+03  0.51100000000E-03 0. -1.
          2   -1    0    0  501    0 -0.00000000000E+00 -0.00000000000E+00 -0.78546558065E+02  0.78546558106E+02  0.25500000000E-02 0. -1.
         11    1    1    2    0    0 -0.21779233705E+03  0.34968058332E+02  0.75042276993E+03  0.78217044231E+03  0.51100000000E-03 0. -1.
         22    1    1    2    0    0  0.19403708745E+02 -0.72208509372E+01 -0.12823860093E+02  0.24353562142E+02  0.00000000000E+00 0. -1.
          2    1    1    2  501    0  0.19838862831E+03 -0.27747207395E+02  0.18348123712E+03  0.27164925868E+03  0.25500000000E-02 0. -1.
<mgrwt>
<rscale>  0 0.66750521E+02</rscale>
<asrwt>0</asrwt>
<pdfrwt beam="1">  1       11 0.10000000E+01 0.21520910E+03</pdfrwt>
<pdfrwt beam="2">  1        2 0.12079575E-01 0.66750521E+02</pdfrwt>
<totfact> 0.58144320E+02</totfact>
</mgrwt>
</event>
<event>
 5    1  0.9955701E-004  0.1584209E+03  0.7818608E-02  0.1435408E+00
         11   -1    0    0    0    0  0.00000000000E+00  0.00000000000E+00  0.10000310026E+04  0.10000310026E+04  0.51100000000E-03 0. -1.
          2   -1    0    0  501    0 -0.00000000000E+00 -0.00000000000E+00 -0.39408235731E+02  0.39408235813E+02  0.25500000000E-02 0. -1.
         11    1    1    2    0    0  0.15614635754E+03  0.40963768959E+02  0.59576954710E+03  0.61725284008E+03  0.51100000000E-03 0. -1.
         22    1    1    2    0    0 -0.35157120333E+01 -0.16628486923E+02 -0.78389506742E+01  0.18716729311E+02  0.00000000000E+00 0.  1.
          2    1    1    2  501    0 -0.15263064551E+03 -0.24335282036E+02  0.37269217045E+03  0.40346966902E+03  0.25500000000E-02 0. -1.
<mgrwt>
<rscale>  0 0.51889632E+02</rscale>
<asrwt>0</asrwt>
<pdfrwt beam="1">  1       11 0.10000000E+01 0.15842086E+03</pdfrwt>
<pdfrwt beam="2">  1        2 0.60629933E-02 0.51889632E+02</pdfrwt>
<totfact> 0.13152118E+03</totfact>
</mgrwt>
</event>
<event>
 5    1  0.9955701E-004  0.1374454E+03  0.7818608E-02  0.1216808E+00
         11   -1    0    0    0    0  0.00000000000E+00  0.00000000000E+00  0.10000204337E+04  0.10000204337E+04  0.51100000000E-03 0. -1.
          2   -1    0    0  501    0 -0.00000000000E+00 -0.00000000000E+00 -0.50093325089E+02  0.50093325154E+02  0.25500000000E-02 0. -1.
         11    1    1    2    0    0 -0.21409571232E+02  0.62967400531E+02  0.13258459011E+03  0.14833049856E+03  0.51100000000E-03 0. -1.
         22    1    1    2    0    0  0.13107292310E+03  0.40892187764E+02  0.10298758300E+03  0.17163544052E+03  0.00000000000E+00 0. -1.
          2    1    1    2  501    0 -0.10966335187E+03 -0.10385958829E+03  0.71435493546E+03  0.73014781972E+03  0.25500000000E-02 0. -1.
<mgrwt>
<rscale>  0 0.13744543E+03</rscale>
<asrwt>0</asrwt>
<pdfrwt beam="1">  1       11 0.10000000E+01 0.66507651E+02</pdfrwt>
<pdfrwt beam="2">  1        2 0.77068227E-02 0.13744543E+03</pdfrwt>
<totfact> 0.10525341E+03</totfact>
</mgrwt>
</event>
<event>
 5    1  0.9955701E-004  0.1247068E+03  0.7818608E-02  0.1475401E+00
         11   -1    0    0    0    0  0.00000000000E+00  0.00000000000E+00  0.99996355465E+03  0.99996355465E+03  0.51100000000E-03 0.  1.
          2   -1    0    0  501    0 -0.00000000000E+00 -0.00000000000E+00 -0.21381925407E+02  0.21381925559E+02  0.25500000000E-02 0.  1.
         11    1    1    2    0    0  0.12248428920E+03 -0.24147907036E+02  0.61315191548E+03  0.62573220627E+03  0.51100000000E-03 0.  1.
         22    1    1    2    0    0 -0.38497450736E+01 -0.15649577391E+02  0.10408035296E+02  0.19184811919E+02  0.00000000000E+00 0. -1.
          2    1    1    2  501    0 -0.11863454413E+03  0.39797484427E+02  0.35502167847E+03  0.37642846202E+03  0.25500000000E-02 0.  1.
<mgrwt>
<rscale>  0 0.44830706E+02</rscale>
<asrwt>0</asrwt>
<pdfrwt beam="1">  1       11 0.10000000E+01 0.12470684E+03</pdfrwt>
<pdfrwt beam="2">  1        2 0.32894070E-02 0.44830706E+02</pdfrwt>
<totfact> 0.28127260E+03</totfact>
</mgrwt>
</event>
<event>
 5    1  0.9955701E-004  0.1504729E+03  0.7818608E-02  0.1325099E+00
         11   -1    0    0    0    0  0.00000000000E+00  0.00000000000E+00  0.10001935828E+04  0.10001935828E+04  0.51100000000E-03 0. -1.
          2   -1    0    0  501    0 -0.00000000000E+00 -0.00000000000E+00 -0.95924110076E+02  0.95924110110E+02  0.25500000000E-02 0. -1.
         11    1    1    2    0    0  0.77556085335E+02  0.13535433823E+03  0.87129708454E+03  0.88515216363E+03  0.51100000000E-03 0. -1.
         22    1    1    2    0    0  0.77719808203E+01 -0.43353138594E+02 -0.45213799919E+02  0.63120408862E+02  0.00000000000E+00 0. -1.
          2    1    1    2  501    0 -0.85328066155E+02 -0.92001199639E+02  0.78186188061E+02  0.14784512038E+03  0.25500000000E-02 0. -1.
<mgrwt>
<rscale>  0 0.81409286E+02</rscale>
<asrwt>0</asrwt>
<pdfrwt beam="1">  1       11 0.10000000E+01 0.15047294E+03</pdfrwt>
<pdfrwt beam="2">  1        2 0.14760412E-01 0.81409286E+02</pdfrwt>
<totfact> 0.46551817E+02</totfact>
</mgrwt>
</event>
<event>
 5    1  0.9955701E-004  0.1685523E+03  0.7818608E-02  0.1468212E+00
         11   -1    0    0    0    0  0.00000000000E+00  0.00000000000E+00  0.99982907038E+03  0.99982907038E+03  0.51100000000E-03 0. -1.
          2   -1    0    0  501    0 -0.00000000000E+00 -0.00000000000E+00 -0.87854959260E+02  0.87854959297E+02  0.25500000000E-02 0. -1.
         11    1    1    2    0    0  0.15287475680E+03  0.66180288222E+02  0.70173725430E+03  0.72123900053E+03  0.51100000000E-03 0. -1.
         22    1    1    2    0    0  0.10691221274E+02 -0.65770416987E+01 -0.50996998059E+02  0.52519077494E+02  0.00000000000E+00 0. -1.
          2    1    1    2  501    0 -0.16356597807E+03 -0.59603246524E+02  0.26123385489E+03  0.31392595166E+03  0.25500000000E-02 0. -1.
<mgrwt>
<rscale>  0 0.45996903E+02</rscale>
<asrwt>0</asrwt>
<pdfrwt beam="1">  1       11 0.10000000E+01 0.16855228E+03</pdfrwt>
<pdfrwt beam="2">  1        2 0.13513837E-01 0.45996903E+02</pdfrwt>
<totfact> 0.49877515E+02</totfact>
</mgrwt>
</event>
<event>
 5    1  0.9955701E-004  0.9330746E+02  0.7818608E-02  0.1396379E+00
         11   -1    0    0    0    0  0.00000000000E+00  0.00000000000E+00  0.10005616814E+04  0.10005616814E+04  0.51100000000E-03 0. -1.
          2   -1    0    0  501    0 -0.00000000000E+00 -0.00000000000E+00 -0.20610491191E+02  0.20610491349E+02  0.25500000000E-02 0. -1.
         11    1    1    2    0    0 -0.10116882792E+03  0.30361250299E+02  0.37333539734E+03  0.38799002071E+03  0.51100000000E-03 0. -1.
         22    1    1    2    0    0  0.11775134843E+02 -0.37211790671E+02  0.28936463618E+02  0.48586933349E+02  0.00000000000E+00 0. -1.
          2    1    1    2  501    0  0.89393693081E+02  0.68505403723E+01  0.57767932926E+03  0.58459521870E+03  0.25500000000E-02 0. -1.
<mgrwt>
<rscale>  0 0.60347531E+02</rscale>
<asrwt>0</asrwt>
<pdfrwt beam="1">  1       11 0.10000000E+01 0.93307459E+02</pdfrwt>
<pdfrwt beam="2">  1        2 0.31726257E-02 0.60347531E+02</pdfrwt>
<totfact> 0.30605101E+03</totfact>
</mgrwt>
</event>
<event>
 5    1  0.9955701E-004  0.1180786E+03  0.7818608E-02  0.1472730E+00
         11   -1    0    0    0    0  0.00000000000E+00  0.00000000000E+00  0.10004711484E+04  0.10004711484E+04  0.51100000000E-03 0. -1.
          2   -1    0    0  501    0 -0.00000000000E+00 -0.00000000000E+00 -0.28968900032E+02  0.28968900145E+02  0.25500000000E-02 0.  1.
         11    1    1    2    0    0 -0.10410181530E+03  0.44368741836E+02  0.64374647960E+03  0.65361709219E+03  0.51100000000E-03 0. -1.
         22    1    1    2    0    0 -0.16786908014E+02  0.43754102035E+01 -0.53244079330E+01  0.18146454611E+02  0.00000000000E+00 0. -1.
          2    1    1    2  501    0  0.12088872331E+03 -0.48744152040E+02  0.33308017665E+03  0.35767650170E+03  0.25500000000E-02 0.  1.
<mgrwt>
<rscale>  0 0.45259243E+02</rscale>
<asrwt>0</asrwt>
<pdfrwt beam="1">  1       11 0.10000000E+01 0.11807865E+03</pdfrwt>
<pdfrwt beam="2">  1        2 0.44588535E-02 0.45259243E+02</pdfrwt>
<totfact> 0.19080451E+03</totfact>
</mgrwt>
</event>
<event>
 5    1  0.9955701E-004  0.7223504E+03  0.7818608E-02  0.1227088E+00
         11   -1    0    0    0    0  0.00000000000E+00  0.00000000000E+00  0.10003888017E+04  0.10003888017E+04  0.51100000000E-03 0. -1.
          2   -1    0    0  501    0 -0.00000000000E+00 -0.00000000000E+00 -0.13556670678E+04  0.13556670678E+04  0.25500000000E-02 0. -1.
         11    1    1    2    0    0 -0.71707255284E+03 -0.80284278573E+02  0.73199846955E+03  0.10278425808E+04  0.51100000000E-03 0. -1.
         22    1    1    2    0    0 -0.92321759862E+01  0.21594402195E+02 -0.90489689077E+02  0.93487620083E+02  0.00000000000E+00 0. -1.
          2    1    1    2  501    0  0.72630472882E+03  0.58689876378E+02 -0.99678704651E+03  0.12347256686E+04  0.25500000000E-02 0. -1.
<mgrwt>
<rscale>  0 0.13024781E+03</rscale>
<asrwt>0</asrwt>
<pdfrwt beam="1">  1       11 0.10000000E+01 0.72235044E+03</pdfrwt>
<pdfrwt beam="2">  1        2 0.20864525E+00 0.13024781E+03</pdfrwt>
<totfact> 0.21527269E+01</totfact>
</mgrwt>
</event>
<event>
 5    1  0.9955701E-004  0.1523235E+03  0.7818608E-02  0.1436365E+00
         11   -1    0    0    0    0  0.00000000000E+00  0.00000000000E+00  0.10000428272E+04  0.10000428272E+04  0.51100000000E-03 0. -1.
          2   -1    0    0  501    0 -0.00000000000E+00 -0.00000000000E+00 -0.11377282482E+03  0.11377282485E+03  0.25500000000E-02 0. -1.
         11    1    1    2    0    0  0.52224579429E+01  0.15570243975E+03  0.82934503825E+03  0.84385052958E+03  0.51100000000E-03 0. -1.
         22    1    1    2    0    0  0.27621073112E+00 -0.17547587082E+02 -0.76100910388E+02  0.78098288500E+02  0.00000000000E+00 0. -1.
          2    1    1    2  501    0 -0.54986686740E+01 -0.13815485267E+03  0.13302587447E+03  0.19186683392E+03  0.25500000000E-02 0. -1.
<mgrwt>
<rscale>  0 0.51703402E+02</rscale>
<asrwt>0</asrwt>
<pdfrwt beam="1">  1       11 0.10000000E+01 0.15232355E+03</pdfrwt>
<pdfrwt beam="2">  1        2 0.17504261E-01 0.51703402E+02</pdfrwt>
<totfact> 0.37501435E+02</totfact>
</mgrwt>
</event>
<event>
 5    1  0.9955701E-004  0.7752801E+02  0.7818608E-02  0.1708762E+00
         11   -1    0    0    0    0  0.00000000000E+00  0.00000000000E+00  0.10001767138E+04  0.10001767138E+04  0.51100000000E-03 0. -1.
          2   -1    0    0  501    0 -0.00000000000E+00 -0.00000000000E+00 -0.14510885350E+02  0.14510885574E+02  0.25500000000E-02 0. -1.
         11    1    1    2    0    0  0.75265175723E+02  0.29032586910E+02  0.37863770192E+03  0.38713595428E+03  0.51100000000E-03 0. -1.
         22    1    1    2    0    0 -0.71578060899E+02 -0.73736504985E+01  0.11924297285E+03  0.13927195015E+03  0.00000000000E+00 0. -1.
          2    1    1    2  501    0 -0.36871148248E+01 -0.21658936412E+02  0.48778515366E+03  0.48827969493E+03  0.25500000000E-02 0. -1.
<mgrwt>
<rscale>  0 0.21970534E+02</rscale>
<asrwt>0</asrwt>
<pdfrwt beam="1">  1       11 0.10000000E+01 0.77528010E+02</pdfrwt>
<pdfrwt beam="2">  1        2 0.22328384E-02 0.21970534E+02</pdfrwt>
<totfact> 0.41402633E+03</totfact>
</mgrwt>
</event>
<event>
 5    1  0.9955701E-004  0.5205586E+02  0.7818608E-02  0.1667832E+00
         11   -1    0    0    0    0  0.00000000000E+00  0.00000000000E+00  0.10001670773E+04  0.10001670773E+04  0.51100000000E-03 0. -1.
          2   -1    0    0  501    0 -0.00000000000E+00 -0.00000000000E+00 -0.39605918982E+01  0.39605927191E+01  0.25500000000E-02 0. -1.
         11    1    1    2    0    0 -0.23440359400E+02 -0.51695081293E+02  0.33191993118E+03  0.33673828501E+03  0.51100000000E-03 0. -1.
         22    1    1    2    0    0  0.11176640505E+02  0.29524189678E+01  0.66834132794E+02  0.67826509397E+02  0.00000000000E+00 0. -1.
          2    1    1    2  501    0  0.12263718895E+02  0.48742662325E+02  0.59745242146E+03  0.59956287564E+03  0.25500000000E-02 0. -1.
<mgrwt>
<rscale>  0 0.24530929E+02</rscale>
<asrwt>0</asrwt>
<pdfrwt beam="1">  1       11 0.10000000E+01 0.52055857E+02</pdfrwt>
<pdfrwt beam="2">  1        2 0.60942368E-03 0.24530929E+02</pdfrwt>
<totfact> 0.22860035E+04</totfact>
</mgrwt>
</event>
<event>
 5    1  0.9955701E-004  0.1779954E+03  0.7818608E-02  0.1358508E+00
         11   -1    0    0    0    0  0.00000000000E+00  0.00000000000E+00  0.10000250099E+04  0.10000250099E+04  0.51100000000E-03 0.  1.
          2   -1    0    0  501    0 -0.00000000000E+00 -0.00000000000E+00 -0.57373888600E+02  0.57373888657E+02  0.25500000000E-02 0.  1.
         11    1    1    2    0    0 -0.10884854274E+03  0.13346050442E+03  0.66077676326E+03  0.68285111288E+03  0.51100000000E-03 0.  1.
         22    1    1    2    0    0 -0.27476371195E+02  0.48338757877E+01 -0.47852397949E+01  0.28305756466E+02  0.00000000000E+00 0.  1.
          2    1    1    2  501    0  0.13632491394E+03 -0.13829438020E+03  0.28665959784E+03  0.34624202922E+03  0.25500000000E-02 0.  1.
<mgrwt>
<rscale>  0 0.70468272E+02</rscale>
<asrwt>0</asrwt>
<pdfrwt beam="1">  1       11 0.10000000E+01 0.17799545E+03</pdfrwt>
<pdfrwt beam="2">  1        2 0.88269726E-02 0.70468272E+02</pdfrwt>
<totfact> 0.84933323E+02</totfact>
</mgrwt>
</event>
<event>
 5    1  0.9955701E-004  0.3416843E+03  0.7818608E-02  0.1066081E+00
         11   -1    0    0    0    0  0.00000000000E+00  0.00000000000E+00  0.10002797812E+04  0.10002797812E+04  0.51100000000E-03 0. -1.
          2   -1    0    0  501    0 -0.00000000000E+00 -0.00000000000E+00 -0.28928954821E+03  0.28928954823E+03  0.25500000000E-02 0. -1.
         11    1    1    2    0    0  0.19107504562E+03 -0.27399327787E+03  0.85563662386E+03  0.91852927088E+03  0.51100000000E-03 0. -1.
         22    1    1    2    0    0 -0.63145633087E+01  0.33268714924E+02 -0.34153454710E+02  0.48095109638E+02  0.00000000000E+00 0.  1.
          2    1    1    2  501    0 -0.18476048231E+03  0.24072456295E+03 -0.11049293621E+03  0.32294494885E+03  0.25500000000E-02 0. -1.
<mgrwt>
<rscale>  0 0.34168428E+03</rscale>
<asrwt>0</asrwt>
<pdfrwt beam="1">  1       11 0.10000000E+01 0.33403890E+03</pdfrwt>
<pdfrwt beam="2">  1        2 0.44518535E-01 0.34168428E+03</pdfrwt>
<totfact> 0.14118318E+02</totfact>
</mgrwt>
</event>
<event>
 5    1  0.9955701E-004  0.2233367E+03  0.7818608E-02  0.1310139E+00
         11   -1    0    0    0    0  0.00000000000E+00  0.00000000000E+00  0.10004643792E+04  0.10004643792E+04  0.51100000000E-03 0. -1.
          2   -1    0    0  501    0 -0.00000000000E+00 -0.00000000000E+00 -0.11708211455E+03  0.11708211457E+03  0.25500000000E-02 0. -1.
         11    1    1    2    0    0 -0.20940534423E+03 -0.97854992144E+02  0.79920616170E+03  0.83195954624E+03  0.51100000000E-03 0. -1.
         22    1    1    2    0    0  0.31940653459E+02  0.11462328586E+02 -0.39955465833E+02  0.52421651728E+02  0.00000000000E+00 0. -1.
          2    1    1    2  501    0  0.17746469077E+03  0.86392663558E+02  0.12413156875E+03  0.23316529577E+03  0.25500000000E-02 0. -1.
<mgrwt>
<rscale>  0 0.87057170E+02</rscale>
<asrwt>0</asrwt>
<pdfrwt beam="1">  1       11 0.10000000E+01 0.22333670E+03</pdfrwt>
<pdfrwt beam="2">  1        2 0.18020997E-01 0.87057170E+02</pdfrwt>
<totfact> 0.37178080E+02</totfact>
</mgrwt>
</event>
<event>
 5    1  0.9955701E-004  0.1211440E+03  0.7818608E-02  0.1436254E+00
         11   -1    0    0    0    0  0.00000000000E+00  0.00000000000E+00  0.10000414186E+04  0.10000414186E+04  0.51100000000E-03 0. -1.
         -2   -1    0    0    0  501 -0.00000000000E+00 -0.00000000000E+00 -0.25871022493E+02  0.25871022619E+02  0.25500000000E-02 0.  1.
         11    1    1    2    0    0  0.11439123038E+03  0.53445981850E+02  0.75481171235E+03  0.76529899233E+03  0.51100000000E-03 0. -1.
         22    1    1    2    0    0 -0.21788475736E+02  0.36067531763E+01  0.90969434080E+01  0.23885156954E+02  0.00000000000E+00 0. -1.
         -2    1    1    2    0  501 -0.92602754643E+02 -0.57052735026E+02  0.21026174037E+03  0.23672829195E+03  0.25500000000E-02 0.  1.
<mgrwt>
<rscale>  0 0.51724867E+02</rscale>
<asrwt>0</asrwt>
<pdfrwt beam="1">  1       11 0.10000000E+01 0.12114396E+03</pdfrwt>
<pdfrwt beam="2">  1       -2 0.39803221E-02 0.51724867E+02</pdfrwt>
<totfact> 0.18695430E+03</totfact>
</mgrwt>
</event>
<event>
 5    1  0.9955701E-004  0.5433906E+02  0.7818608E-02  0.1597491E+00
         11   -1    0    0    0    0  0.00000000000E+00  0.00000000000E+00  0.10002454116E+04  0.10002454116E+04  0.51100000000E-03 0. -1.
          2   -1    0    0  501    0 -0.00000000000E+00 -0.00000000000E+00 -0.66613257026E+01  0.66613261907E+01  0.25500000000E-02 0. -1.
         11    1    1    2    0    0 -0.21854739314E+01 -0.47178661438E+02  0.13959858606E+03  0.14737152921E+03  0.51100000000E-03 0. -1.
         22    1    1    2    0    0  0.14621237690E+02 -0.79073761933E+01  0.36561295081E+02  0.40162613061E+02  0.00000000000E+00 0. -1.
          2    1    1    2  501    0 -0.12435763759E+02  0.55086037631E+02  0.81742420471E+03  0.81937259548E+03  0.25500000000E-02 0. -1.
<mgrwt>
<rscale>  0 0.30054118E+02</rscale>
<asrwt>0</asrwt>
<pdfrwt beam="1">  1       11 0.10000000E+01 0.54339058E+02</pdfrwt>
<pdfrwt beam="2">  1        2 0.10250708E-02 0.30054118E+02</pdfrwt>
<totfact> 0.12078594E+04</totfact>
</mgrwt>
</event>
<event>
 5    1  0.9955701E-004  0.2377134E+02  0.7818608E-02  0.1797223E+00
         11   -1    0    0    0    0  0.00000000000E+00  0.00000000000E+00  0.10005353406E+04  0.10005353406E+04  0.51100000000E-03 0. -1.
          2   -1    0    0  501    0 -0.00000000000E+00 -0.00000000000E+00 -0.76284521453E+01  0.76284525715E+01  0.25500000000E-02 0. -1.
         11    1    1    2    0    0 -0.16046877406E+02 -0.73072969630E+01  0.33318146400E+02  0.37696123715E+02  0.51100000000E-03 0. -1.
         22    1    1    2    0    0  0.23360666663E+01 -0.12852682682E+02  0.27893926769E+01  0.13357745734E+02  0.00000000000E+00 0. -1.
          2    1    1    2  501    0  0.13710810739E+02  0.20159979645E+02  0.95679934938E+03  0.95710992372E+03  0.25500000000E-02 0. -1.
<mgrwt>
<rscale>  0 0.17621887E+02</rscale>
<asrwt>0</asrwt>
<pdfrwt beam="1">  1       11 0.10000000E+01 0.23771335E+02</pdfrwt>
<pdfrwt beam="2">  1        2 0.11742363E-02 0.17621887E+02</pdfrwt>
<totfact> 0.90000923E+03</totfact>
</mgrwt>
</event>
<event>
 5    1  0.9955701E-004  0.5013586E+02  0.7818608E-02  0.1466702E+00
         11   -1    0    0    0    0  0.00000000000E+00  0.00000000000E+00  0.10001854083E+04  0.10001854083E+04  0.51100000000E-03 0. -1.
          2   -1    0    0  501    0 -0.00000000000E+00 -0.00000000000E+00 -0.37258515796E+01  0.37258524523E+01  0.25500000000E-02 0. -1.
         11    1    1    2    0    0  0.27249428097E+02 -0.14122559627E+02  0.10966120254E+03  0.11387518327E+03  0.51100000000E-03 0. -1.
         22    1    1    2    0    0  0.18131221744E+02  0.52114756540E+01  0.93136568644E+02  0.95028001658E+02  0.00000000000E+00 0. -1.
          2    1    1    2  501    0 -0.45380649841E+02  0.89110839728E+01  0.79366178553E+03  0.79500807581E+03  0.25500000000E-02 0. -1.
<mgrwt>
<rscale>  0 0.46247279E+02</rscale>
<asrwt>0</asrwt>
<pdfrwt beam="1">  1       11 0.10000000E+01 0.50135862E+02</pdfrwt>
<pdfrwt beam="2">  1        2 0.57331426E-03 0.46247279E+02</pdfrwt>
<totfact> 0.28698383E+04</totfact>
</mgrwt>
</event>
<event>
 5    1  0.9955701E-004  0.7387704E+02  0.7818608E-02  0.1511102E+00
         11   -1    0    0    0    0  0.00000000000E+00  0.00000000000E+00  0.10002099356E+04  0.10002099356E+04  0.51100000000E-03 0.  1.
          2   -1    0    0  501    0 -0.00000000000E+00 -0.00000000000E+00 -0.11515643651E+02  0.11515643933E+02  0.25500000000E-02 0.  1.
         11    1    1    2    0    0 -0.62159812016E+02 -0.29027378219E+02  0.17516029854E+03  0.18811581831E+03  0.51100000000E-03 0.  1.
         22    1    1    2    0    0  0.47302710645E+01 -0.20703688469E+02  0.32085471617E+02  0.38477209741E+02  0.00000000000E+00 0.  1.
          2    1    1    2  501    0  0.57429540951E+02  0.49731066688E+02  0.78144852182E+03  0.78513255151E+03  0.25500000000E-02 0.  1.
<mgrwt>
<rscale>  0 0.39609846E+02</rscale>
<asrwt>0</asrwt>
<pdfrwt beam="1">  1       11 0.10000000E+01 0.73877044E+02</pdfrwt>
<pdfrwt beam="2">  1        2 0.17720094E-02 0.39609846E+02</pdfrwt>
<totfact> 0.61863948E+03</totfact>
</mgrwt>
</event>
<event>
 5    1  0.9955701E-004  0.8866693E+02  0.7818608E-02  0.1486100E+00
         11   -1    0    0    0    0  0.00000000000E+00  0.00000000000E+00  0.10002590583E+04  0.10002590583E+04  0.51100000000E-03 0. -1.
         -2   -1    0    0    0  501 -0.00000000000E+00 -0.00000000000E+00 -0.25849915025E+02  0.25849915151E+02  0.25500000000E-02 0. -1.
         11    1    1    2    0    0  0.69854294425E+02  0.36059791123E+02  0.39719919340E+03  0.40490385306E+03  0.51100000000E-03 0. -1.
         22    1    1    2    0    0  0.19346841175E+02  0.82144980627E+01 -0.11617849791E+02  0.24015675623E+02  0.00000000000E+00 0. -1.
         -2    1    1    2    0  501 -0.89201135600E+02 -0.44274289186E+02  0.58882779963E+03  0.59718944473E+03  0.25500000000E-02 0. -1.
<mgrwt>
<rscale>  0 0.43169986E+02</rscale>
<asrwt>0</asrwt>
<pdfrwt beam="1">  1       11 0.10000000E+01 0.88666926E+02</pdfrwt>
<pdfrwt beam="2">  1       -2 0.39779402E-02 0.43169986E+02</pdfrwt>
<totfact> 0.18287335E+03</totfact>
</mgrwt>
</event>
<event>
 5    1  0.9955701E-004  0.9465303E+02  0.7818608E-02  0.1582560E+00
         11   -1    0    0    0    0  0.00000000000E+00  0.00000000000E+00  0.10000880407E+04  0.10000880407E+04  0.51100000000E-03 0. -1.
          2   -1    0    0  501    0 -0.00000000000E+00 -0.00000000000E+00 -0.17804265191E+02  0.17804265373E+02  0.25500000000E-02 0. -1.
         11    1    1    2    0    0 -0.88141459988E+02  0.44348320712E+02  0.24758991101E+03  0.26652664886E+03  0.51100000000E-03 0. -1.
         22    1    1    2    0    0  0.89613287312E+01  0.53792763824E+01 -0.29240872082E+00  0.10455980580E+02  0.00000000000E+00 0. -1.
          2    1    1    2  501    0  0.79180131257E+02 -0.49727597095E+02  0.73498627318E+03  0.74090967659E+03  0.25500000000E-02 0. -1.
<mgrwt>
<rscale>  0 0.31453183E+02</rscale>
<asrwt>0</asrwt>
<pdfrwt beam="1">  1       11 0.10000000E+01 0.94653034E+02</pdfrwt>
<pdfrwt beam="2">  1        2 0.27393588E-02 0.31453183E+02</pdfrwt>
<totfact> 0.33851746E+03</totfact>
</mgrwt>
</event>
<event>
 5    1  0.9955701E-004  0.6847844E+02  0.7818608E-02  0.1365345E+00
         11   -1    0    0    0    0  0.00000000000E+00  0.00000000000E+00  0.10001112380E+04  0.10001112380E+04  0.51100000000E-03 0.  1.
         -2   -1    0    0    0  501 -0.00000000000E+00 -0.00000000000E+00 -0.11132668950E+02  0.11132669242E+02  0.25500000000E-02 0.  1.
         11    1    1    2    0    0  0.17377231367E+02 -0.15019750262E+02  0.12030359104E+03  0.12247658995E+03  0.51100000000E-03 0.  1.
         22    1    1    2    0    0  0.65678888520E+02  0.13259398139E+01  0.13348581768E+03  0.14877478965E+03  0.00000000000E+00 0.  1.
         -2    1    1    2    0  501 -0.83056119888E+02  0.13693810448E+02  0.73518916032E+03  0.73999252764E+03  0.25500000000E-02 0.  1.
<mgrwt>
<rscale>  0 0.68478442E+02</rscale>
<asrwt>0</asrwt>
<pdfrwt beam="1">  1       11 0.10000000E+01 0.22968698E+02</pdfrwt>
<pdfrwt beam="2">  1       -2 0.17129088E-02 0.68478442E+02</pdfrwt>
<totfact> 0.64901219E+03</totfact>
</mgrwt>
</event>
<event>
 5    1  0.9955701E-004  0.2854123E+03  0.7818608E-02  0.1303386E+00
         11   -1    0    0    0    0  0.00000000000E+00  0.00000000000E+00  0.10000826295E+04  0.10000826295E+04  0.51100000000E-03 0. -1.
         -2   -1    0    0    0  501 -0.00000000000E+00 -0.00000000000E+00 -0.32774530279E+03  0.32774530280E+03  0.25500000000E-02 0.  1.
         11    1    1    2    0    0  0.27322085480E+03 -0.83046745330E+02  0.84190922931E+03  0.88902055533E+03  0.51100000000E-03 0. -1.
         22    1    1    2    0    0  0.69431076407E+01  0.27374529716E+02 -0.14984729269E+03  0.15248535257E+03  0.00000000000E+00 0.  1.
         -2    1    1    2    0  501 -0.28016396244E+03  0.55672215614E+02 -0.19724609861E+02  0.28632202444E+03  0.25500000000E-02 0.  1.
<mgrwt>
<rscale>  0 0.89779826E+02</rscale>
<asrwt>0</asrwt>
<pdfrwt beam="1">  1       11 0.10000000E+01 0.28541229E+03</pdfrwt>
<pdfrwt beam="2">  1       -2 0.50426519E-01 0.89779826E+02</pdfrwt>
<totfact> 0.30658587E+01</totfact>
</mgrwt>
</event>
<event>
 5    1  0.9955701E-004  0.8987117E+02  0.7818608E-02  0.1531716E+00
         11   -1    0    0    0    0  0.00000000000E+00  0.00000000000E+00  0.10002826757E+04  0.10002826757E+04  0.51100000000E-03 0. -1.
          2   -1    0    0  501    0 -0.00000000000E+00 -0.00000000000E+00 -0.11686488630E+02  0.11686488908E+02  0.25500000000E-02 0. -1.
         11    1    1    2    0    0  0.86807657827E+02 -0.40362211242E+02  0.56103993235E+03  0.56914891131E+03  0.51100000000E-03 0. -1.
         22    1    1    2    0    0 -0.72154110294E+01  0.13393944686E+02  0.13556685507E+02  0.20377527635E+02  0.00000000000E+00 0.  1.
          2    1    1    2  501    0 -0.79592246798E+02  0.26968266556E+02  0.41399956926E+03  0.42244272571E+03  0.25500000000E-02 0. -1.
<mgrwt>
<rscale>  0 0.36976785E+02</rscale>
<asrwt>0</asrwt>
<pdfrwt beam="1">  1       11 0.10000000E+01 0.89871173E+02</pdfrwt>
<pdfrwt beam="2">  1        2 0.17984295E-02 0.36976785E+02</pdfrwt>
<totfact> 0.59981063E+03</totfact>
</mgrwt>
</event>
<event>
 5    1  0.9955701E-004  0.3508604E+03  0.7818608E-02  0.1218963E+00
         11   -1    0    0    0    0  0.00000000000E+00  0.00000000000E+00  0.99982721713E+03  0.99982721713E+03  0.51100000000E-03 0.  1.
          2   -1    0    0  501    0 -0.00000000000E+00 -0.00000000000E+00 -0.95791306305E+03  0.95791306305E+03  0.25500000000E-02 0.  1.
         11    1    1    2    0    0  0.34904816023E+03  0.33859645160E+02  0.92082400240E+03  0.98534153324E+03  0.51100000000E-03 0.  1.
         22    1    1    2    0    0  0.96238009412E+01 -0.51746506572E+02 -0.72031992889E+02  0.89212815708E+02  0.00000000000E+00 0.  1.
          2    1    1    2  501    0 -0.35867196117E+03  0.17886861413E+02 -0.80687785543E+03  0.88318593123E+03  0.25500000000E-02 0.  1.
<mgrwt>
<rscale>  0 0.13589379E+03</rscale>
<asrwt>0</asrwt>
<pdfrwt beam="1">  1       11 0.10000000E+01 0.35086041E+03</pdfrwt>
<pdfrwt beam="2">  1        2 0.14734577E+00 0.13589379E+03</pdfrwt>
<totfact> 0.36023135E+01</totfact>
</mgrwt>
</event>
<event>
 5    1  0.9955701E-004  0.3284258E+02  0.7818608E-02  0.1721038E+00
         11   -1    0    0    0    0  0.00000000000E+00  0.00000000000E+00  0.10001809364E+04  0.10001809364E+04  0.51100000000E-03 0. -1.
          2   -1    0    0  501    0 -0.00000000000E+00 -0.00000000000E+00 -0.11755173447E+02  0.11755173724E+02  0.25500000000E-02 0. -1.
         11    1    1    2    0    0  0.28017820696E+01  0.24419029749E+02  0.12454815601E+03  0.12695031375E+03  0.51100000000E-03 0. -1.
         22    1    1    2    0    0 -0.87232831900E+01  0.10675352286E+02 -0.55271381055E+01  0.14852880922E+02  0.00000000000E+00 0. -1.
          2    1    1    2  501    0  0.59215011203E+01 -0.35094382035E+02  0.86940474502E+03  0.87013291542E+03  0.25500000000E-02 0. -1.
<mgrwt>
<rscale>  0 0.21278477E+02</rscale>
<asrwt>0</asrwt>
<pdfrwt beam="1">  1       11 0.10000000E+01 0.32842583E+02</pdfrwt>
<pdfrwt beam="2">  1        2 0.18088154E-02 0.21278477E+02</pdfrwt>
<totfact> 0.53851662E+03</totfact>
</mgrwt>
</event>
<event>
 5    1  0.9955701E-004  0.1495131E+03  0.7818608E-02  0.1407056E+00
         11   -1    0    0    0    0  0.00000000000E+00  0.00000000000E+00  0.10002755860E+04  0.10002755860E+04  0.51100000000E-03 0. -1.
          2   -1    0    0  501    0 -0.00000000000E+00 -0.00000000000E+00 -0.33765959923E+02  0.33765960019E+02  0.25500000000E-02 0. -1.
         11    1    1    2    0    0 -0.16110471033E+02  0.14402748381E+03  0.51916718165E+03  0.53901579371E+03  0.51100000000E-03 0. -1.
         22    1    1    2    0    0 -0.20951362166E+02  0.78911072893E+01  0.13670491238E+01  0.22429845612E+02  0.00000000000E+00 0.  1.
          2    1    1    2  501    0  0.37061833199E+02 -0.15191859110E+03  0.44597539529E+03  0.47259590668E+03  0.25500000000E-02 0. -1.
<mgrwt>
<rscale>  0 0.57856040E+02</rscale>
<asrwt>0</asrwt>
<pdfrwt beam="1">  1       11 0.10000000E+01 0.14951310E+03</pdfrwt>
<pdfrwt beam="2">  1        2 0.51961945E-02 0.57856040E+02</pdfrwt>
<totfact> 0.16137568E+03</totfact>
</mgrwt>
</event>
<event>
 5    1  0.9955701E-004  0.2018192E+03  0.7818608E-02  0.1148213E+00
         11   -1    0    0    0    0  0.00000000000E+00  0.00000000000E+00  0.10001261527E+04  0.10001261527E+04  0.51100000000E-03 0. -1.
          2   -1    0    0  501    0 -0.00000000000E+00 -0.00000000000E+00 -0.99808349752E+02  0.99808349784E+02  0.25500000000E-02 0. -1.
         11    1    1    2    0    0  0.73003272033E+02  0.18212294490E+03  0.87476997938E+03  0.89650474712E+03  0.51100000000E-03 0. -1.
         22    1    1    2    0    0 -0.31394585903E+02 -0.28609928199E+02  0.94174393760E+00  0.42485702269E+02  0.00000000000E+00 0. -1.
          2    1    1    2  501    0 -0.41608686130E+02 -0.15351301670E+03  0.24606079598E+02  0.16094405306E+03  0.25500000000E-02 0. -1.
<mgrwt>
<rscale>  0 0.20181916E+03</rscale>
<asrwt>0</asrwt>
<pdfrwt beam="1">  1       11 0.10000000E+01 0.19620970E+03</pdfrwt>
<pdfrwt beam="2">  1        2 0.15357067E-01 0.20181916E+03</pdfrwt>
<totfact> 0.46226985E+02</totfact>
</mgrwt>
</event>
<event>
 5    1  0.9955701E-004  0.3486144E+03  0.7818608E-02  0.1314337E+00
         11   -1    0    0    0    0  0.00000000000E+00  0.00000000000E+00  0.10002499685E+04  0.10002499685E+04  0.51100000000E-03 0. -1.
          2   -1    0    0  501    0 -0.00000000000E+00 -0.00000000000E+00 -0.30110314763E+03  0.30110314764E+03  0.25500000000E-02 0. -1.
         11    1    1    2    0    0  0.26347410467E+03  0.23336923048E+03  0.80688685306E+03  0.88031028348E+03  0.51100000000E-03 0. -1.
         22    1    1    2    0    0 -0.19544286001E+02 -0.74902835398E+01 -0.85306535669E+02  0.87836714935E+02  0.00000000000E+00 0. -1.
          2    1    1    2  501    0 -0.24392981867E+03 -0.22587894694E+03 -0.22433496533E+02  0.33320611771E+03  0.25500000000E-02 0. -1.
<mgrwt>
<rscale>  0 0.85420452E+02</rscale>
<asrwt>0</asrwt>
<pdfrwt beam="1">  1       11 0.10000000E+01 0.34861439E+03</pdfrwt>
<pdfrwt beam="2">  1        2 0.46335139E-01 0.85420452E+02</pdfrwt>
<totfact> 0.13450383E+02</totfact>
</mgrwt>
</event>
<event>
 5    1  0.9955701E-004  0.1444752E+03  0.7818608E-02  0.1222215E+00
         11   -1    0    0    0    0  0.00000000000E+00  0.00000000000E+00  0.10002402534E+04  0.10002402534E+04  0.51100000000E-03 0. -1.
         -2   -1    0    0    0  501 -0.00000000000E+00 -0.00000000000E+00 -0.20880631482E+02  0.20880631638E+02  0.25500000000E-02 0. -1.
         11    1    1    2    0    0 -0.30728173080E+02  0.81386188647E+02  0.51718042519E+03  0.52444592145E+03  0.51100000000E-03 0. -1.
         22    1    1    2    0    0 -0.19797002971E+01  0.48144345250E+02  0.12943141852E+03  0.13810970021E+03  0.00000000000E+00 0. -1.
         -2    1    1    2    0  501  0.32707873377E+02 -0.12953053390E+03  0.33274777822E+03  0.35856526339E+03  0.25500000000E-02 0. -1.
<mgrwt>
<rscale>  0 0.13359627E+03</rscale>
<asrwt>0</asrwt>
<pdfrwt beam="1">  1       11 0.10000000E+01 0.14447517E+03</pdfrwt>
<pdfrwt beam="2">  1       -2 0.32131766E-02 0.13359627E+03</pdfrwt>
<totfact> 0.28459301E+03</totfact>
</mgrwt>
</event>
<event>
 5    1  0.9955701E-004  0.1744559E+03  0.7818608E-02  0.1442918E+00
         11   -1    0    0    0    0  0.00000000000E+00  0.00000000000E+00  0.10003060614E+04  0.10003060614E+04  0.51100000000E-03 0. -1.
          2   -1    0    0  501    0 -0.00000000000E+00 -0.00000000000E+00 -0.48942225017E+02  0.48942225083E+02  0.25500000000E-02 0. -1.
         11    1    1    2    0    0 -0.96207679649E+02 -0.14645333698E+03  0.76547854430E+03  0.78527823051E+03  0.51100000000E-03 0. -1.
         22    1    1    2    0    0  0.13802172304E+02 -0.47314981038E+01  0.91331404199E+01  0.17213404327E+02  0.00000000000E+00 0.  1.
          2    1    1    2  501    0  0.82405507345E+02  0.15118483508E+03  0.17675215162E+03  0.24675665160E+03  0.25500000000E-02 0. -1.
<mgrwt>
<rscale>  0 0.50452207E+02</rscale>
<asrwt>0</asrwt>
<pdfrwt beam="1">  1       11 0.10000000E+01 0.17445593E+03</pdfrwt>
<pdfrwt beam="2">  1        2 0.75318774E-02 0.50452207E+02</pdfrwt>
<totfact> 0.10035371E+03</totfact>
</mgrwt>
</event>
<event>
 5    1  0.9955701E-004  0.2558371E+03  0.7818608E-02  0.1399648E+00
         11   -1    0    0    0    0  0.00000000000E+00  0.00000000000E+00  0.10002921388E+04  0.10002921388E+04  0.51100000000E-03 0.  1.
          2   -1    0    0  501    0 -0.00000000000E+00 -0.00000000000E+00 -0.58101207790E+03  0.58101207790E+03  0.25500000000E-02 0.  1.
         11    1    1    2    0    0 -0.25288686029E+03 -0.35885986767E+02  0.94733255628E+03  0.98116183188E+03  0.51100000000E-03 0.  1.
         22    1    1    2    0    0 -0.12292467494E+02 -0.64246086551E+01 -0.49382443433E+02  0.51293333610E+02  0.00000000000E+00 0.  1.
          2    1    1    2  501    0  0.26517932779E+03  0.42310595422E+02 -0.47867005195E+03  0.54884905121E+03  0.25500000000E-02 0.  1.
<mgrwt>
<rscale>  0 0.59569225E+02</rscale>
<asrwt>0</asrwt>
<pdfrwt beam="1">  1       11 0.10000000E+01 0.25583711E+03</pdfrwt>
<pdfrwt beam="2">  1        2 0.89412584E-01 0.59569225E+02</pdfrwt>
<totfact> 0.67426953E+01</totfact>
</mgrwt>
</event>
<event>
 5    1  0.9955701E-004  0.6009791E+02  0.7818608E-02  0.1453471E+00
         11   -1    0    0    0    0  0.00000000000E+00  0.00000000000E+00  0.10000450955E+04  0.10000450955E+04  0.51100000000E-03 0. -1.
          2   -1    0    0  501    0 -0.00000000000E+00 -0.00000000000E+00 -0.17081029157E+02  0.17081029347E+02  0.25500000000E-02 0. -1.
         11    1    1    2    0    0 -0.27094706881E+02 -0.80437577783E+02  0.39496233808E+03  0.40397967221E+03  0.51100000000E-03 0. -1.
         22    1    1    2    0    0  0.28959896558E+02  0.26386983687E+02  0.22732414878E+02  0.45295818824E+02  0.00000000000E+00 0. -1.
          2    1    1    2  501    0 -0.18651896764E+01  0.54050594096E+02  0.56526931335E+03  0.56785063377E+03  0.25500000000E-02 0. -1.
<mgrwt>
<rscale>  0 0.48523600E+02</rscale>
<asrwt>0</asrwt>
<pdfrwt beam="1">  1       11 0.10000000E+01 0.60097906E+02</pdfrwt>
<pdfrwt beam="2">  1        2 0.26279691E-02 0.48523600E+02</pdfrwt>
<totfact> 0.38051058E+03</totfact>
</mgrwt>
</event>
<event>
 5    1  0.9955701E-004  0.1397571E+03  0.7818608E-02  0.1500567E+00
         11   -1    0    0    0    0  0.00000000000E+00  0.00000000000E+00  0.10001245005E+04  0.10001245005E+04  0.51100000000E-03 0.  1.
         -2   -1    0    0    0  501 -0.00000000000E+00 -0.00000000000E+00 -0.21490656628E+02  0.21490656779E+02  0.25500000000E-02 0.  1.
         11    1    1    2    0    0  0.62075717267E+01  0.13805765300E+03  0.41702551548E+03  0.43932758855E+03  0.51100000000E-03 0.  1.
         22    1    1    2    0    0  0.11885663261E+02  0.20553879442E+01  0.33357004952E+02  0.35470880876E+02  0.00000000000E+00 0. -1.
         -2    1    1    2    0  501 -0.18093234988E+02 -0.14011304094E+03  0.52825132347E+03  0.54681668789E+03  0.25500000000E-02 0.  1.
<mgrwt>
<rscale>  0 0.41057995E+02</rscale>
<asrwt>0</asrwt>
<pdfrwt beam="1">  1       11 0.10000000E+01 0.13975705E+03</pdfrwt>
<pdfrwt beam="2">  1       -2 0.33066664E-02 0.41057995E+02</pdfrwt>
<totfact> 0.23658733E+03</totfact>
</mgrwt>
</event>
<event>
 5    1  0.9955701E-004  0.1245437E+03  0.7818608E-02  0.1235784E+00
         11   -1    0    0    0    0  0.00000000000E+00  0.00000000000E+00  0.10001333230E+04  0.10001333230E+04  0.51100000000E-03 0. -1.
          2   -1    0    0  501    0 -0.00000000000E+00 -0.00000000000E+00 -0.16464336050E+02  0.16464336247E+02  0.25500000000E-02 0. -1.
         11    1    1    2    0    0  0.11427689687E+03  0.30135922159E+02  0.64536345446E+03  0.65609555044E+03  0.51100000000E-03 0. -1.
         22    1    1    2    0    0 -0.20348003090E+02 -0.13730881087E+02  0.36453182484E+02  0.43947842249E+02  0.00000000000E+00 0.  1.
          2    1    1    2  501    0 -0.93928893782E+02 -0.16405041072E+02  0.30185234996E+03  0.31655426651E+03  0.25500000000E-02 0. -1.
<mgrwt>
<rscale>  0 0.12454372E+03</rscale>
<asrwt>0</asrwt>
<pdfrwt beam="1">  1       11 0.10000000E+01 0.11818368E+03</pdfrwt>
<pdfrwt beam="2">  1        2 0.25333124E-02 0.12454372E+03</pdfrwt>
<totfact> 0.44895981E+03</totfact>
</mgrwt>
</event>
<event>
 5    1  0.9955701E-004  0.4929753E+02  0.7818608E-02  0.1473723E+00
         11   -1    0    0    0    0  0.00000000000E+00  0.00000000000E+00  0.10001524939E+04  0.10001524939E+04  0.51100000000E-03 0.  1.
          2   -1    0    0  501    0 -0.00000000000E+00 -0.00000000000E+00 -0.15465239351E+02  0.15465239562E+02  0.25500000000E-02 0.  1.
         11    1    1    2    0    0  0.30276226026E+02  0.81821047653E+02  0.17290391347E+03  0.19366749081E+03  0.51100000000E-03 0.  1.
         22    1    1    2    0    0 -0.94608561699E+01 -0.40159187337E+02  0.93981438552E+02  0.10263907111E+03  0.00000000000E+00 0. -1.
          2    1    1    2  501    0 -0.20815369856E+02 -0.41661860316E+02  0.71780190249E+03  0.71931117150E+03  0.25500000000E-02 0.  1.
<mgrwt>
<rscale>  0 0.45099267E+02</rscale>
<asrwt>0</asrwt>
<pdfrwt beam="1">  1       11 0.10000000E+01 0.49297534E+02</pdfrwt>
<pdfrwt beam="2">  1        2 0.23796304E-02 0.45099267E+02</pdfrwt>
<totfact> 0.42878101E+03</totfact>
</mgrwt>
</event>
<event>
 5    1  0.9955701E-004  0.1020098E+03  0.7818608E-02  0.1305352E+00
         11   -1    0    0    0    0  0.00000000000E+00  0.00000000000E+00  0.10005325376E+04  0.10005325376E+04  0.51100000000E-03 0. -1.
          2   -1    0    0  501    0 -0.00000000000E+00 -0.00000000000E+00 -0.75287839284E+02  0.75287839327E+02  0.25500000000E-02 0. -1.
         11    1    1    2    0    0  0.10076211193E+03 -0.46933504581E+02  0.62771264754E+03  0.63747856822E+03  0.51100000000E-03 0. -1.
         22    1    1    2    0    0 -0.59837350692E+02 -0.49418881871E+02 -0.38321245394E+02  0.86552020610E+02  0.00000000000E+00 0. -1.
          2    1    1    2  501    0 -0.40924761241E+02  0.96352386453E+02  0.33585329618E+03  0.35178978811E+03  0.25500000000E-02 0. -1.
<mgrwt>
<rscale>  0 0.88975281E+02</rscale>
<asrwt>0</asrwt>
<pdfrwt beam="1">  1       11 0.10000000E+01 0.10200980E+03</pdfrwt>
<pdfrwt beam="2">  1        2 0.11588912E-01 0.88975281E+02</pdfrwt>
<totfact> 0.62124791E+02</totfact>
</mgrwt>
</event>
<event>
 5    1  0.9955701E-004  0.1489414E+03  0.7818608E-02  0.1298078E+00
         11   -1    0    0    0    0  0.00000000000E+00  0.00000000000E+00  0.99986980531E+03  0.99986980531E+03  0.51100000000E-03 0. -1.
          2   -1    0    0  501    0 -0.00000000000E+00 -0.00000000000E+00 -0.82262509695E+02  0.82262509734E+02  0.25500000000E-02 0. -1.
         11    1    1    2    0    0 -0.13447887706E+03 -0.46774801357E+02  0.76310415186E+03  0.77627340351E+03  0.51100000000E-03 0. -1.
         22    1    1    2    0    0 -0.48571187974E+02 -0.29501395176E+02  0.41149208592E+01  0.56977409490E+02  0.00000000000E+00 0. -1.
          2    1    1    2  501    0  0.18305006503E+03  0.76276196533E+02  0.15038822290E+03  0.24888150204E+03  0.25500000000E-02 0. -1.
<mgrwt>
<rscale>  0 0.92000749E+02</rscale>
<asrwt>0</asrwt>
<pdfrwt beam="1">  1       11 0.10000000E+01 0.14894145E+03</pdfrwt>
<pdfrwt beam="2">  1        2 0.12654123E-01 0.92000749E+02</pdfrwt>
<totfact> 0.56077159E+02</totfact>
</mgrwt>
</event>
<event>
 5    1  0.9955701E-004  0.5520878E+02  0.7818608E-02  0.1676627E+00
         11   -1    0    0    0    0  0.00000000000E+00  0.00000000000E+00  0.10001422592E+04  0.10001422592E+04  0.51100000000E-03 0. -1.
          2   -1    0    0  501    0 -0.00000000000E+00 -0.00000000000E+00 -0.58656613065E+01  0.58656618608E+01  0.25500000000E-02 0. -1.
         11    1    1    2    0    0 -0.43435750224E+02 -0.43499742423E+02  0.28411693523E+03  0.29069111592E+03  0.51100000000E-03 0. -1.
         22    1    1    2    0    0  0.10239454605E+02  0.17371816876E+01  0.15781867787E+02  0.18892633000E+02  0.00000000000E+00 0.  1.
          2    1    1    2  501    0  0.33196295619E+02  0.41762560735E+02  0.69437779487E+03  0.69642417213E+03  0.25500000000E-02 0. -1.
<mgrwt>
<rscale>  0 0.23945469E+02</rscale>
<asrwt>0</asrwt>
<pdfrwt beam="1">  1       11 0.10000000E+01 0.55208782E+02</pdfrwt>
<pdfrwt beam="2">  1        2 0.90253782E-03 0.23945469E+02</pdfrwt>
<totfact> 0.13583370E+04</totfact>
</mgrwt>
</event>
<event>
 5    1  0.9955701E-004  0.2139142E+03  0.7818608E-02  0.1138503E+00
         11   -1    0    0    0    0  0.00000000000E+00  0.00000000000E+00  0.10004231088E+04  0.10004231088E+04  0.51100000000E-03 0.  1.
          2   -1    0    0  501    0 -0.00000000000E+00 -0.00000000000E+00 -0.51558297221E+03  0.51558297221E+03  0.25500000000E-02 0.  1.
         11    1    1    2    0    0  0.20291443073E+03  0.61432669224E+02  0.96623607504E+03  0.98922211447E+03  0.51100000000E-03 0.  1.
         22    1    1    2    0    0 -0.11720781998E+02  0.49491810610E+00 -0.15922110542E+02  0.19777140306E+02  0.00000000000E+00 0. -1.
          2    1    1    2  501    0 -0.19119364873E+03 -0.61927587330E+02 -0.46547382790E+03  0.50700682624E+03  0.25500000000E-02 0.  1.
<mgrwt>
<rscale>  0 0.21391423E+03</rscale>
<asrwt>0</asrwt>
<pdfrwt beam="1">  1       11 0.10000000E+01 0.21201000E+03</pdfrwt>
<pdfrwt beam="2">  1        2 0.79354016E-01 0.21391423E+03</pdfrwt>
<totfact> 0.75163589E+01</totfact>
</mgrwt>
</event>
<event>
 5    1  0.9955701E-004  0.2053577E+03  0.7818608E-02  0.1298699E+00
         11   -1    0    0    0    0  0.00000000000E+00  0.00000000000E+00  0.10000508115E+04  0.10000508115E+04  0.51100000000E-03 0.  1.
          2   -1    0    0  501    0 -0.00000000000E+00 -0.00000000000E+00 -0.73474681178E+03  0.73474681179E+03  0.25500000000E-02 0.  1.
         11    1    1    2    0    0  0.62015231424E+02  0.19513871677E+03  0.95889340118E+03  0.98051086814E+03  0.51100000000E-03 0.  1.
         22    1    1    2    0    0 -0.21049344157E+02  0.35161697470E+02 -0.24468902414E+03  0.24809703423E+03  0.00000000000E+00 0.  1.
          2    1    1    2  501    0 -0.40965887267E+02 -0.23030041424E+03 -0.44890037737E+03  0.50618972088E+03  0.25500000000E-02 0.  1.
<mgrwt>
<rscale>  0 0.91737159E+02</rscale>
<asrwt>0</asrwt>
<pdfrwt beam="1">  1       11 0.10000000E+01 0.20535767E+03</pdfrwt>
<pdfrwt beam="2">  1        2 0.11304371E+00 0.91737159E+02</pdfrwt>
<totfact> 0.51091511E+01</totfact>
</mgrwt>
</event>
<event>
 5    1  0.9955701E-004  0.3113210E+03  0.7818608E-02  0.1413614E+00
         11   -1    0    0    0    0  0.00000000000E+00  0.00000000000E+00  0.10000645656E+04  0.10000645656E+04  0.51100000000E-03 0. -1.
          2   -1    0    0  501    0 -0.00000000000E+00 -0.00000000000E+00 -0.21302054443E+03  0.21302054444E+03  0.25500000000E-02 0. -1.
         11    1    1    2    0    0  0.29378051856E+03 -0.10569184675E+03  0.82310568591E+03  0.88032989823E+03  0.51100000000E-03 0. -1.
         22    1    1    2    0    0 -0.27123701826E+01  0.98492093397E+01 -0.23991487807E+02  0.26075953747E+02  0.00000000000E+00 0. -1.
          2    1    1    2  501    0 -0.29106814837E+03  0.95842637415E+02 -0.12070176929E+02  0.30667925806E+03  0.25500000000E-02 0. -1.
<mgrwt>
<rscale>  0 0.56395146E+02</rscale>
<asrwt>0</asrwt>
<pdfrwt beam="1">  1       11 0.10000000E+01 0.31132095E+03</pdfrwt>
<pdfrwt beam="2">  1        2 0.32774506E-01 0.56395146E+02</pdfrwt>
<totfact> 0.19161938E+02</totfact>
</mgrwt>
</event>
<event>
 5    1  0.9955701E-004  0.1494545E+03  0.7818608E-02  0.1512507E+00
         11   -1    0    0    0    0  0.00000000000E+00  0.00000000000E+00  0.10000863109E+04  0.10000863109E+04  0.51100000000E-03 0.  1.
         -2   -1    0    0    0  501 -0.00000000000E+00 -0.00000000000E+00 -0.45426070819E+02  0.45426070891E+02  0.25500000000E-02 0. -1.
         11    1    1    2    0    0 -0.12607025765E+03  0.84392385877E+02  0.79404123128E+03  0.80840414498E+03  0.51100000000E-03 0.  1.
         22    1    1    2    0    0  0.75169026175E+01 -0.71851649965E+01 -0.10702038395E+02  0.14921931738E+02  0.00000000000E+00 0. -1.
         -2    1    1    2    0  501  0.11855335503E+03 -0.77207220881E+02  0.17132104723E+03  0.22218630510E+03  0.25500000000E-02 0. -1.
<mgrwt>
<rscale>  0 0.39422256E+02</rscale>
<asrwt>0</asrwt>
<pdfrwt beam="1">  1       11 0.10000000E+01 0.14945450E+03</pdfrwt>
<pdfrwt beam="2">  1       -2 0.69892293E-02 0.39422256E+02</pdfrwt>
<totfact> 0.79659652E+02</totfact>
</mgrwt>
</event>
<event>
 5    1  0.9955701E-004  0.2709644E+02  0.7818608E-02  0.1632596E+00
         11   -1    0    0    0    0  0.00000000000E+00  0.00000000000E+00  0.10000095622E+04  0.10000095622E+04  0.51100000000E-03 0. -1.
         -2   -1    0    0    0  501 -0.00000000000E+00 -0.00000000000E+00 -0.46226217346E+01  0.46226224379E+01  0.25500000000E-02 0. -1.
         11    1    1    2    0    0 -0.79478334434E+01 -0.76718539247E+01  0.42749073561E+02  0.44153240987E+02  0.51100000000E-03 0. -1.
         22    1    1    2    0    0 -0.91298344824E+01  0.25759525296E+02  0.46044819471E+02  0.53544676871E+02  0.00000000000E+00 0. -1.
         -2    1    1    2    0  501  0.17077667926E+02 -0.18087671371E+02  0.90659304740E+03  0.90693426674E+03  0.25500000000E-02 0. -1.
<mgrwt>
<rscale>  0 0.27096445E+02</rscale>
<asrwt>0</asrwt>
<pdfrwt beam="1">  1       11 0.10000000E+01 0.11046516E+02</pdfrwt>
<pdfrwt beam="2">  1       -2 0.71117941E-03 0.27096445E+02</pdfrwt>
<totfact> 0.18372270E+04</totfact>
</mgrwt>
</event>
<event>
 5    1  0.9955701E-004  0.6058646E+03  0.7818608E-02  0.9989603E-01
         11   -1    0    0    0    0  0.00000000000E+00  0.00000000000E+00  0.10002112086E+04  0.10002112086E+04  0.51100000000E-03 0. -1.
          2   -1    0    0  501    0 -0.00000000000E+00 -0.00000000000E+00 -0.88052066227E+03  0.88052066227E+03  0.25500000000E-02 0. -1.
         11    1    1    2    0    0  0.54388126956E+02  0.13510143357E+03 -0.10368139142E+03  0.17877442948E+03  0.51100000000E-03 0. -1.
         22    1    1    2    0    0 -0.19139362125E+03  0.40899948040E+03 -0.57189539758E+03  0.72868130138E+03  0.00000000000E+00 0. -1.
          2    1    1    2  501    0  0.13700549429E+03 -0.54410091397E+03  0.79526733530E+03  0.97327613998E+03  0.25500000000E-02 0. -1.
<mgrwt>
<rscale>  0 0.56108494E+03</rscale>
<asrwt>0</asrwt>
<pdfrwt beam="1">  1       11 0.10000000E+01 0.60586459E+03</pdfrwt>
<pdfrwt beam="2">  1        2 0.13549332E+00 0.56108494E+03</pdfrwt>
<totfact> 0.37967708E+01</totfact>
</mgrwt>
</event>
<event>
 5    1  0.9955701E-004  0.1537011E+03  0.7818608E-02  0.1195998E+00
         11   -1    0    0    0    0  0.00000000000E+00  0.00000000000E+00  0.10001358533E+04  0.10001358533E+04  0.51100000000E-03 0.  1.
          2   -1    0    0  501    0 -0.00000000000E+00 -0.00000000000E+00 -0.75081971983E+02  0.75081972026E+02  0.25500000000E-02 0.  1.
         11    1    1    2    0    0  0.48452284451E+02 -0.14327652565E+03  0.90807181290E+03  0.92058144889E+03  0.51100000000E-03 0.  1.
         22    1    1    2    0    0 -0.66241950639E+01  0.27526330159E+02 -0.71861115517E+01  0.29209912898E+02  0.00000000000E+00 0.  1.
          2    1    1    2  501    0 -0.41828089387E+02  0.11575019549E+03  0.24168179940E+02  0.12542646350E+03  0.25500000000E-02 0.  1.
<mgrwt>
<rscale>  0 0.15370107E+03</rscale>
<asrwt>0</asrwt>
<pdfrwt beam="1">  1       11 0.10000000E+01 0.15124744E+03</pdfrwt>
<pdfrwt beam="2">  1        2 0.11552642E-01 0.15370107E+03</pdfrwt>
<totfact> 0.64216040E+02</totfact>
</mgrwt>
</event>
<event>
 5    1  0.9955701E-004  0.2746746E+03  0.7818608E-02  0.1364541E+00
         11   -1    0    0    0    0  0.00000000000E+00  0.00000000000E+00  0.10002561064E+04  0.10002561064E+04  0.51100000000E-03 0. -1.
          2   -1    0    0  501    0 -0.00000000000E+00 -0.00000000000E+00 -0.14119389621E+03  0.14119389624E+03  0.25500000000E-02 0. -1.
         11    1    1    2    0    0  0.20107171646E+03 -0.17874095083E+03  0.58676509738E+03  0.64550092344E+03  0.51100000000E-03 0. -1.
         22    1    1    2    0    0  0.73077221196E+01 -0.15556059438E+02 -0.57567026110E+02  0.60077918431E+02  0.00000000000E+00 0. -1.
          2    1    1    2  501    0 -0.20837943858E+03  0.19429701027E+03  0.32986413888E+03  0.43587116072E+03  0.25500000000E-02 0. -1.
<mgrwt>
<rscale>  0 0.68708361E+02</rscale>
<asrwt>0</asrwt>
<pdfrwt beam="1">  1       11 0.10000000E+01 0.27467460E+03</pdfrwt>
<pdfrwt beam="2">  1        2 0.21727700E-01 0.68708361E+02</pdfrwt>
<totfact> 0.29910624E+02</totfact>
</mgrwt>
</event>
<event>
 5    1  0.9955701E-004  0.8172522E+02  0.7818608E-02  0.1324226E+00
         11   -1    0    0    0    0  0.00000000000E+00  0.00000000000E+00  0.10005283845E+04  0.10005283845E+04  0.51100000000E-03 0. -1.
          2   -1    0    0  501    0 -0.00000000000E+00 -0.00000000000E+00 -0.12467371689E+02  0.12467371950E+02  0.25500000000E-02 0. -1.
         11    1    1    2    0    0 -0.44285124988E+02  0.61125440146E+01  0.14827735658E+03  0.15486997761E+03  0.51100000000E-03 0. -1.
         22    1    1    2    0    0  0.97475004478E+02 -0.18056412367E+01  0.29407287514E+03  0.30981202806E+03  0.00000000000E+00 0. -1.
          2    1    1    2  501    0 -0.53189879490E+02 -0.43069027779E+01  0.54571078110E+03  0.54831375079E+03  0.25500000000E-02 0. -1.
<mgrwt>
<rscale>  0 0.81725219E+02</rscale>
<asrwt>0</asrwt>
<pdfrwt beam="1">  1       11 0.10000000E+01 0.44705005E+02</pdfrwt>
<pdfrwt beam="2">  1        2 0.19190706E-02 0.81725219E+02</pdfrwt>
<totfact> 0.62005573E+03</totfact>
</mgrwt>
</event>
<event>
 5    1  0.9955701E-004  0.5158277E+02  0.7818608E-02  0.1532144E+00
         11   -1    0    0    0    0  0.00000000000E+00  0.00000000000E+00  0.10002989921E+04  0.10002989921E+04  0.51100000000E-03 0. -1.
          2   -1    0    0  501    0 -0.00000000000E+00 -0.00000000000E+00 -0.53182302533E+01  0.53182308646E+01  0.25500000000E-02 0.  1.
         11    1    1    2    0    0  0.66115755624E+02  0.76248541873E+01  0.35605579311E+03  0.36222252739E+03  0.51100000000E-03 0. -1.
         22    1    1    2    0    0 -0.20212139607E+02 -0.17033027750E+02  0.15836833076E+03  0.16055896988E+03  0.00000000000E+00 0.  1.
          2    1    1    2  501    0 -0.45903616016E+02  0.94081735628E+01  0.48055663803E+03  0.48283572574E+03  0.25500000000E-02 0.  1.
<mgrwt>
<rscale>  0 0.36924775E+02</rscale>
<asrwt>0</asrwt>
<pdfrwt beam="1">  1       11 0.10000000E+01 0.51582771E+02</pdfrwt>
<pdfrwt beam="2">  1        2 0.81843393E-03 0.36924775E+02</pdfrwt>
<totfact> 0.16987205E+04</totfact>
</mgrwt>
</event>
<event>
 5    1  0.9955701E-004  0.1427940E+03  0.7818608E-02  0.1209618E+00
         11   -1    0    0    0    0  0.00000000000E+00  0.00000000000E+00  0.10002282792E+04  0.10002282792E+04  0.51100000000E-03 0. -1.
          2   -1    0    0  501    0 -0.00000000000E+00 -0.00000000000E+00 -0.45447634706E+02  0.45447634778E+02  0.25500000000E-02 0. -1.
         11    1    1    2    0    0 -0.95095947873E+01 -0.13246831979E+03  0.76702736173E+03  0.77844027503E+03  0.51100000000E-03 0. -1.
         22    1    1    2    0    0 -0.25480663292E+02 -0.81395576161E+01  0.86305204841E+02  0.90355436929E+02  0.00000000000E+00 0.  1.
          2    1    1    2  501    0  0.34990258080E+02  0.14060787741E+03  0.10144807795E+03  0.17688020205E+03  0.25500000000E-02 0. -1.
<mgrwt>
<rscale>  0 0.14279396E+03</rscale>
<asrwt>0</asrwt>
<pdfrwt beam="1">  1       11 0.10000000E+01 0.26749142E+02</pdfrwt>
<pdfrwt beam="2">  1        2 0.69935397E-02 0.14279396E+03</pdfrwt>
<totfact> 0.11933422E+03</totfact>
</mgrwt>
</event>
<event>
 5    1  0.9955701E-004  0.1727087E+03  0.7818608E-02  0.1349426E+00
         11   -1    0    0    0    0  0.00000000000E+00  0.00000000000E+00  0.10001864485E+04  0.10001864485E+04  0.51100000000E-03 0. -1.
          2   -1    0    0  501    0 -0.00000000000E+00 -0.00000000000E+00 -0.14504316980E+03  0.14504316983E+03  0.25500000000E-02 0. -1.
         11    1    1    2    0    0  0.84340802281E+02  0.15237604928E+03  0.92654628068E+03  0.94277242300E+03  0.51100000000E-03 0. -1.
         22    1    1    2    0    0  0.59452207179E+01 -0.30479939669E+02  0.68057098630E+01  0.31791351943E+02  0.00000000000E+00 0.  1.
          2    1    1    2  501    0 -0.90286022999E+02 -0.12189610962E+03 -0.78208711836E+02  0.17066584340E+03  0.25500000000E-02 0. -1.
<mgrwt>
<rscale>  0 0.73234926E+02</rscale>
<asrwt>0</asrwt>
<pdfrwt beam="1">  1       11 0.10000000E+01 0.17270866E+03</pdfrwt>
<pdfrwt beam="2">  1        2 0.22318494E-01 0.73234926E+02</pdfrwt>
<totfact> 0.29113904E+02</totfact>
</mgrwt>
</event>
<event>
 5    1  0.9955701E-004  0.7213353E+02  0.7818608E-02  0.1552573E+00
         11   -1    0    0    0    0  0.00000000000E+00  0.00000000000E+00  0.99977158924E+03  0.99977158924E+03  0.51100000000E-03 0.  1.
          2   -1    0    0  501    0 -0.00000000000E+00 -0.00000000000E+00 -0.11536332193E+02  0.11536332475E+02  0.25500000000E-02 0.  1.
         11    1    1    2    0    0 -0.61922812165E+02 -0.55242784262E+02  0.31931983245E+03  0.32992628764E+03  0.51100000000E-03 0.  1.
         22    1    1    2    0    0  0.60769618794E+01  0.15399203073E+02  0.10948006033E+02  0.19847512616E+02  0.00000000000E+00 0.  1.
          2    1    1    2  501    0  0.55845850286E+02  0.39843581189E+02  0.65796741856E+03  0.66153412146E+03  0.25500000000E-02 0.  1.
<mgrwt>
<rscale>  0 0.34556667E+02</rscale>
<asrwt>0</asrwt>
<pdfrwt beam="1">  1       11 0.10000000E+01 0.72133529E+02</pdfrwt>
<pdfrwt beam="2">  1        2 0.17744149E-02 0.34556667E+02</pdfrwt>
<totfact> 0.60347218E+03</totfact>
</mgrwt>
</event>
<event>
 5    1  0.9955701E-004  0.2061968E+03  0.7818608E-02  0.1144614E+00
         11   -1    0    0    0    0  0.00000000000E+00  0.00000000000E+00  0.10002001360E+04  0.10002001360E+04  0.51100000000E-03 0. -1.
          2   -1    0    0  501    0 -0.00000000000E+00 -0.00000000000E+00 -0.87415329558E+02  0.87415329596E+02  0.25500000000E-02 0. -1.
         11    1    1    2    0    0 -0.20580348501E+03 -0.19476089730E+01  0.81044682862E+03  0.83617159103E+03  0.51100000000E-03 0. -1.
         22    1    1    2    0    0 -0.26661060915E-01  0.16872336488E+02  0.26828403716E+02  0.31692896607E+02  0.00000000000E+00 0.  1.
          2    1    1    2  501    0  0.20583014607E+03 -0.14924727515E+02  0.75509574094E+02  0.21975097795E+03  0.25500000000E-02 0. -1.
<mgrwt>
<rscale>  0 0.20619683E+03</rscale>
<asrwt>0</asrwt>
<pdfrwt beam="1">  1       11 0.10000000E+01 0.16872358E+02</pdfrwt>
<pdfrwt beam="2">  1        2 0.13451203E-01 0.20619683E+03</pdfrwt>
<totfact> 0.54167561E+02</totfact>
</mgrwt>
</event>
<event>
 5    1  0.9955701E-004  0.4174143E+02  0.7818608E-02  0.1663741E+00
         11   -1    0    0    0    0  0.00000000000E+00  0.00000000000E+00  0.10004113168E+04  0.10004113168E+04  0.51100000000E-03 0. -1.
          2   -1    0    0  501    0 -0.00000000000E+00 -0.00000000000E+00 -0.64031961921E+01  0.64031966999E+01  0.25500000000E-02 0. -1.
         11    1    1    2    0    0  0.42118598423E+02 -0.29338615087E+02  0.22803567680E+03  0.23374131120E+03  0.51100000000E-03 0. -1.
         22    1    1    2    0    0 -0.51229835664E+01  0.13828344251E+02  0.15016977431E+02  0.21047034863E+02  0.00000000000E+00 0. -1.
          2    1    1    2  501    0 -0.36995614857E+02  0.15510270836E+02  0.75095546641E+03  0.75202616747E+03  0.25500000000E-02 0. -1.
<mgrwt>
<rscale>  0 0.24810323E+02</rscale>
<asrwt>0</asrwt>
<pdfrwt beam="1">  1       11 0.10000000E+01 0.41741427E+02</pdfrwt>
<pdfrwt beam="2">  1        2 0.98551231E-03 0.24810323E+02</pdfrwt>
<totfact> 0.12205458E+04</totfact>
</mgrwt>
</event>
<event>
 5    1  0.9955701E-004  0.1807920E+03  0.7818608E-02  0.1167039E+00
         11   -1    0    0    0    0  0.00000000000E+00  0.00000000000E+00  0.10001077431E+04  0.10001077431E+04  0.51100000000E-03 0.  1.
          2   -1    0    0  501    0 -0.00000000000E+00 -0.00000000000E+00 -0.31894187243E+02  0.31894187345E+02  0.25500000000E-02 0.  1.
         11    1    1    2    0    0 -0.16064793027E+03  0.67340645554E+02  0.53258276912E+03  0.56034536315E+03  0.51100000000E-03 0.  1.
         22    1    1    2    0    0  0.21270317784E+02 -0.25387600125E+02  0.55764080466E+02  0.64858224836E+02  0.00000000000E+00 0.  1.
          2    1    1    2  501    0  0.13937761249E+03 -0.41953045430E+02  0.37986670627E+03  0.40679834245E+03  0.25500000000E-02 0.  1.
<mgrwt>
<rscale>  0 0.18079197E+03</rscale>
<asrwt>0</asrwt>
<pdfrwt beam="1">  1       11 0.10000000E+01 0.17419104E+03</pdfrwt>
<pdfrwt beam="2">  1        2 0.49073266E-02 0.18079197E+03</pdfrwt>
<totfact> 0.19215065E+03</totfact>
</mgrwt>
</event>
<event>
 5    1  0.9955701E-004  0.2250626E+03  0.7818608E-02  0.1142320E+00
         11   -1    0    0    0    0  0.00000000000E+00  0.00000000000E+00  0.10005096667E+04  0.10005096667E+04  0.51100000000E-03 0. -1.
          2   -1    0    0  501    0 -0.00000000000E+00 -0.00000000000E+00 -0.70947175536E+02  0.70947175582E+02  0.25500000000E-02 0. -1.
         11    1    1    2    0    0  0.23875625989E+02  0.63364224688E+02  0.35016086175E+03  0.35664786497E+03  0.51100000000E-03 0. -1.
         22    1    1    2    0    0 -0.37822332179E+02  0.14522029337E+03  0.43652294862E+03  0.46159695307E+03  0.00000000000E+00 0.  1.
          2    1    1    2  501    0  0.13946706190E+02 -0.20858451805E+03  0.14287868079E+03  0.25321202423E+03  0.25500000000E-02 0. -1.
<mgrwt>
<rscale>  0 0.20905026E+03</rscale>
<asrwt>0</asrwt>
<pdfrwt beam="1">  1       11 0.10000000E+01 0.22506258E+03</pdfrwt>
<pdfrwt beam="2">  1        2 0.10920513E-01 0.20905026E+03</pdfrwt>
<totfact> 0.69818767E+02</totfact>
</mgrwt>
</event>
<event>
 5    1  0.9955701E-004  0.3403260E+02  0.7818608E-02  0.1595618E+00
         11   -1    0    0    0    0  0.00000000000E+00  0.00000000000E+00  0.10004142516E+04  0.10004142516E+04  0.51100000000E-03 0.  1.
          2   -1    0    0  501    0 -0.00000000000E+00 -0.00000000000E+00 -0.24880419432E+01  0.24880432499E+01  0.25500000000E-02 0.  1.
         11    1    1    2    0    0 -0.15978762116E+02  0.11452377266E+02  0.79279930970E+02  0.81680996803E+02  0.51100000000E-03 0.  1.
         22    1    1    2    0    0 -0.13476173209E+02 -0.46746366776E+01  0.48594541420E+02  0.50644732482E+02  0.00000000000E+00 0.  1.
          2    1    1    2  501    0  0.29454935326E+02 -0.67777405887E+01  0.87005173728E+03  0.87057656558E+03  0.25500000000E-02 0.  1.
<mgrwt>
<rscale>  0 0.30224675E+02</rscale>
<asrwt>0</asrwt>
<pdfrwt beam="1">  1       11 0.10000000E+01 0.34032601E+02</pdfrwt>
<pdfrwt beam="2">  1        2 0.38293434E-03 0.30224675E+02</pdfrwt>
<totfact> 0.44553090E+04</totfact>
</mgrwt>
</event>
<event>
 5    1  0.9955701E-004  0.1197091E+03  0.7818608E-02  0.1474960E+00
         11   -1    0    0    0    0  0.00000000000E+00  0.00000000000E+00  0.10001167433E+04  0.10001167433E+04  0.51100000000E-03 0.  1.
          2   -1    0    0  501    0 -0.00000000000E+00 -0.00000000000E+00 -0.26418998595E+02  0.26418998718E+02  0.25500000000E-02 0.  1.
         11    1    1    2    0    0 -0.56538442735E+01  0.12605215353E+03  0.25446534165E+03  0.28403119805E+03  0.51100000000E-03 0.  1.
         22    1    1    2    0    0 -0.13676404943E+02 -0.98284649350E+01  0.35794518776E+01  0.17217875911E+02  0.00000000000E+00 0.  1.
          2    1    1    2  501    0  0.19330249217E+02 -0.11622368859E+03  0.71565295118E+03  0.72528666806E+03  0.25500000000E-02 0.  1.
<mgrwt>
<rscale>  0 0.44901044E+02</rscale>
<asrwt>0</asrwt>
<pdfrwt beam="1">  1       11 0.10000000E+01 0.11970912E+03</pdfrwt>
<pdfrwt beam="2">  1        2 0.40649357E-02 0.44901044E+02</pdfrwt>
<totfact> 0.21442450E+03</totfact>
</mgrwt>
</event>
<event>
 5    1  0.9955701E-004  0.1165433E+03  0.7818608E-02  0.1405502E+00
         11   -1    0    0    0    0  0.00000000000E+00  0.00000000000E+00  0.10001341261E+04  0.10001341261E+04  0.51100000000E-03 0. -1.
         -2   -1    0    0    0  501 -0.00000000000E+00 -0.00000000000E+00 -0.34327845097E+02  0.34327845192E+02  0.25500000000E-02 0.  1.
         11    1    1    2    0    0  0.10648197857E+03  0.62186008196E+02  0.73080897635E+03  0.74113917134E+03  0.51100000000E-03 0. -1.
         22    1    1    2    0    0 -0.84237463507E+01 -0.27826814058E+02 -0.70500655495E+01  0.29916458805E+02  0.00000000000E+00 0.  1.
         -2    1    1    2    0  501 -0.98058232221E+02 -0.34359194138E+02  0.24204737016E+03  0.26340634111E+03  0.25500000000E-02 0.  1.
<mgrwt>
<rscale>  0 0.58209682E+02</rscale>
<asrwt>0</asrwt>
<pdfrwt beam="1">  1       11 0.10000000E+01 0.11654330E+03</pdfrwt>
<pdfrwt beam="2">  1       -2 0.52819151E-02 0.58209682E+02</pdfrwt>
<totfact> 0.12545715E+03</totfact>
</mgrwt>
</event>
<event>
 5    1  0.9955701E-004  0.2350047E+03  0.7818608E-02  0.1137316E+00
         11   -1    0    0    0    0  0.00000000000E+00  0.00000000000E+00  0.10004814915E+04  0.10004814915E+04  0.51100000000E-03 0.  1.
          2   -1    0    0  501    0 -0.00000000000E+00 -0.00000000000E+00 -0.10148575166E+04  0.10148575166E+04  0.25500000000E-02 0.  1.
         11    1    1    2    0    0 -0.43082421791E+02 -0.23102305123E+03  0.92030945765E+03  0.94984064090E+03  0.51100000000E-03 0.  1.
         22    1    1    2    0    0 -0.19385028740E+03  0.37971907954E+02 -0.27644808742E+03  0.33976954654E+03  0.00000000000E+00 0.  1.
          2    1    1    2  501    0  0.23693270919E+03  0.19305114328E+03 -0.65823739526E+03  0.72572882065E+03  0.25500000000E-02 0.  1.
<mgrwt>
<rscale>  0 0.21545645E+03</rscale>
<asrwt>0</asrwt>
<pdfrwt beam="1">  1       11 0.10000000E+01 0.23500466E+03</pdfrwt>
<pdfrwt beam="2">  1        2 0.15620710E+00 0.21545645E+03</pdfrwt>
<totfact> 0.32505074E+01</totfact>
</mgrwt>
</event>
<event>
 5    1  0.9955701E-004  0.1948117E+03  0.7818608E-02  0.1410476E+00
         11   -1    0    0    0    0  0.00000000000E+00  0.00000000000E+00  0.99991229446E+03  0.99991229446E+03  0.51100000000E-03 0. -1.
          2   -1    0    0  501    0 -0.00000000000E+00 -0.00000000000E+00 -0.10503341106E+03  0.10503341110E+03  0.25500000000E-02 0. -1.
         11    1    1    2    0    0 -0.38311854770E+02 -0.19017538667E+03  0.86204758192E+03  0.88360653541E+03  0.51100000000E-03 0. -1.
         22    1    1    2    0    0  0.13373120089E+02 -0.10050814667E+02 -0.95712346894E+00  0.16756351086E+02  0.00000000000E+00 0. -1.
          2    1    1    2  501    0  0.24938734680E+02  0.20022620134E+03  0.33788424945E+02  0.20458281907E+03  0.25500000000E-02 0. -1.
<mgrwt>
<rscale>  0 0.57087687E+02</rscale>
<asrwt>0</asrwt>
<pdfrwt beam="1">  1       11 0.10000000E+01 0.19481172E+03</pdfrwt>
<pdfrwt beam="2">  1        2 0.16157569E-01 0.57087687E+02</pdfrwt>
<totfact> 0.41229507E+02</totfact>
</mgrwt>
</event>
<event>
 5    1  0.9955701E-004  0.3092779E+03  0.7818608E-02  0.1285590E+00
         11   -1    0    0    0    0  0.00000000000E+00  0.00000000000E+00  0.10002886978E+04  0.10002886978E+04  0.51100000000E-03 0.  1.
          2   -1    0    0  501    0 -0.00000000000E+00 -0.00000000000E+00 -0.53235924192E+03  0.53235924193E+03  0.25500000000E-02 0.  1.
         11    1    1    2    0    0 -0.43834494856E+02  0.30675086875E+03  0.92097051929E+03  0.97170173192E+03  0.51100000000E-03 0.  1.
         22    1    1    2    0    0  0.29919237846E+02 -0.71089206859E+01 -0.45336581891E+02  0.54782325655E+02  0.00000000000E+00 0.  1.
          2    1    1    2  501    0  0.13915257010E+02 -0.29964194807E+03 -0.40770448147E+03  0.50616388220E+03  0.25500000000E-02 0.  1.
<mgrwt>
<rscale>  0 0.97524233E+02</rscale>
<asrwt>0</asrwt>
<pdfrwt beam="1">  1       11 0.10000000E+01 0.30927795E+03</pdfrwt>
<pdfrwt beam="2">  1        2 0.81925064E-01 0.97524233E+02</pdfrwt>
<totfact> 0.73518463E+01</totfact>
</mgrwt>
</event>
<event>
 5    1  0.9955701E-004  0.1197134E+03  0.7818608E-02  0.1434522E+00
         11   -1    0    0    0    0  0.00000000000E+00  0.00000000000E+00  0.10002076595E+04  0.10002076595E+04  0.51100000000E-03 0.  1.
         -2   -1    0    0    0  501 -0.00000000000E+00 -0.00000000000E+00 -0.33966990425E+02  0.33966990521E+02  0.25500000000E-02 0.  1.
         11    1    1    2    0    0  0.27322178609E+02 -0.10965189395E+03  0.51521515728E+03  0.52746250822E+03  0.51100000000E-03 0.  1.
         22    1    1    2    0    0 -0.11560996506E+02 -0.19468031241E+02 -0.12095395016E+02  0.25670205710E+02  0.00000000000E+00 0.  1.
         -2    1    1    2    0  501 -0.15761182103E+02  0.12911992519E+03  0.46312090683E+03  0.48104193611E+03  0.25500000000E-02 0.  1.
<mgrwt>
<rscale>  0 0.52062972E+02</rscale>
<asrwt>0</asrwt>
<pdfrwt beam="1">  1       11 0.10000000E+01 0.11971342E+03</pdfrwt>
<pdfrwt beam="2">  1       -2 0.52267759E-02 0.52062972E+02</pdfrwt>
<totfact> 0.12587364E+03</totfact>
</mgrwt>
</event>
<event>
 5    1  0.9955701E-004  0.6879014E+02  0.7818608E-02  0.1496678E+00
         11   -1    0    0    0    0  0.00000000000E+00  0.00000000000E+00  0.10001708562E+04  0.10001708562E+04  0.51100000000E-03 0. -1.
          2   -1    0    0  501    0 -0.00000000000E+00 -0.00000000000E+00 -0.69354436671E+01  0.69354441359E+01  0.25500000000E-02 0. -1.
         11    1    1    2    0    0 -0.47749179418E+02  0.43657477187E+02  0.35901831042E+03  0.36480146199E+03  0.51100000000E-03 0. -1.
         22    1    1    2    0    0 -0.20624466681E+02 -0.14429022430E+02  0.11019188368E+03  0.11303015767E+03  0.00000000000E+00 0. -1.
          2    1    1    2  501    0  0.68373646099E+02 -0.29228454757E+02  0.52402521840E+03  0.52927468065E+03  0.25500000000E-02 0. -1.
<mgrwt>
<rscale>  0 0.41611256E+02</rscale>
<asrwt>0</asrwt>
<pdfrwt beam="1">  1       11 0.10000000E+01 0.68790137E+02</pdfrwt>
<pdfrwt beam="2">  1        2 0.10671736E-02 0.41611256E+02</pdfrwt>
<totfact> 0.12215290E+04</totfact>
</mgrwt>
</event>
<event>
 5    1  0.9955701E-004  0.2076940E+03  0.7818608E-02  0.1460962E+00
         11   -1    0    0    0    0  0.00000000000E+00  0.00000000000E+00  0.10000984471E+04  0.10000984471E+04  0.51100000000E-03 0.  1.
         -2   -1    0    0    0  501 -0.00000000000E+00 -0.00000000000E+00 -0.52830942174E+02  0.52830942235E+02  0.25500000000E-02 0. -1.
         11    1    1    2    0    0 -0.19961225035E+03 -0.69353851560E+02  0.65680697471E+03  0.68996406373E+03  0.51100000000E-03 0.  1.
         22    1    1    2    0    0  0.10650731172E+02  0.13341931141E+01  0.11699941478E+01  0.10797547502E+02  0.00000000000E+00 0. -1.
         -2    1    1    2    0  501  0.18896151918E+03  0.68019658446E+02  0.28929053608E+03  0.35216777811E+03  0.25500000000E-02 0. -1.
<mgrwt>
<rscale>  0 0.47216321E+02</rscale>
<asrwt>0</asrwt>
<pdfrwt beam="1">  1       11 0.10000000E+01 0.20769395E+03</pdfrwt>
<pdfrwt beam="2">  1       -2 0.81286372E-02 0.47216321E+02</pdfrwt>
<totfact> 0.64772003E+02</totfact>
</mgrwt>
</event>
<event>
 5    1  0.9955701E-004  0.1230884E+03  0.7818608E-02  0.1419110E+00
         11   -1    0    0    0    0  0.00000000000E+00  0.00000000000E+00  0.10000996341E+04  0.10000996341E+04  0.51100000000E-03 0. -1.
          2   -1    0    0  501    0 -0.00000000000E+00 -0.00000000000E+00 -0.22379338769E+02  0.22379338914E+02  0.25500000000E-02 0. -1.
         11    1    1    2    0    0  0.13397805082E+02 -0.13121350511E+03  0.34746745589E+03  0.37165860411E+03  0.51100000000E-03 0. -1.
         22    1    1    2    0    0  0.18724858289E+02  0.16205368360E+02  0.30457614315E+02  0.39254306151E+02  0.00000000000E+00 0.  1.
          2    1    1    2  501    0 -0.32122663371E+02  0.11500813675E+03  0.59979522508E+03  0.61156606271E+03  0.25500000000E-02 0. -1.
<mgrwt>
<rscale>  0 0.55209661E+02</rscale>
<asrwt>0</asrwt>
<pdfrwt beam="1">  1       11 0.10000000E+01 0.12308841E+03</pdfrwt>
<pdfrwt beam="2">  1        2 0.34433181E-02 0.55209661E+02</pdfrwt>
<totfact> 0.27214263E+03</totfact>
</mgrwt>
</event>
<event>
 5    1  0.9955701E-004  0.1496337E+03  0.7818608E-02  0.1457290E+00
         11   -1    0    0    0    0  0.00000000000E+00  0.00000000000E+00  0.10002640101E+04  0.10002640101E+04  0.51100000000E-03 0.  1.
          2   -1    0    0  501    0 -0.00000000000E+00 -0.00000000000E+00 -0.64799600870E+02  0.64799600920E+02  0.25500000000E-02 0.  1.
         11    1    1    2    0    0 -0.20560694856E+02  0.14838219417E+03  0.87278768983E+03  0.88554975537E+03  0.51100000000E-03 0.  1.
         22    1    1    2    0    0 -0.14830843326E+02 -0.37686239950E+01  0.18924053993E+02  0.24336726570E+02  0.00000000000E+00 0. -1.
          2    1    1    2  501    0  0.35391538182E+02 -0.14461357018E+03  0.43752665414E+02  0.15517712909E+03  0.25500000000E-02 0.  1.
<mgrwt>
<rscale>  0 0.47851017E+02</rscale>
<asrwt>0</asrwt>
<pdfrwt beam="1">  1       11 0.10000000E+01 0.14963366E+03</pdfrwt>
<pdfrwt beam="2">  1        2 0.99718010E-02 0.47851017E+02</pdfrwt>
<totfact> 0.71264839E+02</totfact>
</mgrwt>
</event>
<event>
 5    1  0.9955701E-004  0.1185589E+03  0.7818608E-02  0.1245494E+00
         11   -1    0    0    0    0  0.00000000000E+00  0.00000000000E+00  0.10003134034E+04  0.10003134034E+04  0.51100000000E-03 0. -1.
          2   -1    0    0  501    0 -0.00000000000E+00 -0.00000000000E+00 -0.16329440423E+03  0.16329440425E+03  0.25500000000E-02 0. -1.
         11    1    1    2    0    0  0.88993629730E+02 -0.38574799383E+02  0.33209100876E+03  0.34596577776E+03  0.51100000000E-03 0. -1.
         22    1    1    2    0    0  0.20331873936E+02 -0.11480618521E+03 -0.11858408776E+03  0.16630102564E+03  0.00000000000E+00 0. -1.
          2    1    1    2  501    0 -0.10932550367E+03  0.15338098459E+03  0.62351207821E+03  0.65134100429E+03  0.25500000000E-02 0. -1.
<mgrwt>
<rscale>  0 0.11855891E+03</rscale>
<asrwt>0</asrwt>
<pdfrwt beam="1">  1       11 0.10000000E+01 0.96994233E+02</pdfrwt>
<pdfrwt beam="2">  1        2 0.25130089E-01 0.11855891E+03</pdfrwt>
<totfact> 0.25947913E+02</totfact>
</mgrwt>
</event>
<event>
 5    1  0.9955701E-004  0.1501948E+03  0.7818608E-02  0.1200234E+00
         11   -1    0    0    0    0  0.00000000000E+00  0.00000000000E+00  0.10001210906E+04  0.10001210906E+04  0.51100000000E-03 0.  1.
         -2   -1    0    0    0  501 -0.00000000000E+00 -0.00000000000E+00 -0.51923990553E+02  0.51923990615E+02  0.25500000000E-02 0. -1.
         11    1    1    2    0    0  0.13314861956E+03  0.66791707798E+02  0.87010048776E+03  0.88275961956E+03  0.51100000000E-03 0.  1.
         22    1    1    2    0    0 -0.10125928428E+02 -0.73664047142E+01  0.13828709294E+01  0.12598042584E+02  0.00000000000E+00 0.  1.
         -2    1    1    2    0  501 -0.12302269113E+03 -0.59425303083E+02  0.76713741380E+02  0.15668741910E+03  0.25500000000E-02 0. -1.
<mgrwt>
<rscale>  0 0.15019483E+03</rscale>
<asrwt>0</asrwt>
<pdfrwt beam="1">  1       11 0.10000000E+01 0.14896203E+03</pdfrwt>
<pdfrwt beam="2">  1       -2 0.79892733E-02 0.15019483E+03</pdfrwt>
<totfact> 0.72907590E+02</totfact>
</mgrwt>
</event>
<event>
 5    1  0.9955701E-004  0.1675598E+03  0.7818608E-02  0.1180417E+00
         11   -1    0    0    0    0  0.00000000000E+00  0.00000000000E+00  0.10006346328E+04  0.10006346328E+04  0.51100000000E-03 0. -1.
         -2   -1    0    0    0  501 -0.00000000000E+00 -0.00000000000E+00 -0.78549818653E+02  0.78549818694E+02  0.25500000000E-02 0.  1.
         11    1    1    2    0    0  0.38822358279E+02  0.15526480456E+03  0.89530603244E+03  0.90949833796E+03  0.51100000000E-03 0. -1.
         22    1    1    2    0    0  0.10066549234E+02 -0.18026860005E+02  0.10292716171E+02  0.23070394476E+02  0.00000000000E+00 0.  1.
         -2    1    1    2    0  501 -0.48888907513E+02 -0.13723794455E+03  0.16486065506E+02  0.14661571902E+03  0.25500000000E-02 0.  1.
<mgrwt>
<rscale>  0 0.16755976E+03</rscale>
<asrwt>0</asrwt>
<pdfrwt beam="1">  1       11 0.10000000E+01 0.16004479E+03</pdfrwt>
<pdfrwt beam="2">  1       -2 0.12092256E-01 0.16755976E+03</pdfrwt>
<totfact> 0.38192162E+02</totfact>
</mgrwt>
</event>
<event>
 5    1  0.9955701E-004  0.1644049E+03  0.7818608E-02  0.1307003E+00
         11   -1    0    0    0    0  0.00000000000E+00  0.00000000000E+00  0.10001693091E+04  0.10001693091E+04  0.51100000000E-03 0. -1.
         -2   -1    0    0    0  501 -0.00000000000E+00 -0.00000000000E+00 -0.90327497553E+02  0.90327497589E+02  0.25500000000E-02 0.  1.
         11    1    1    2    0    0  0.15158453772E+03 -0.52732379311E+02  0.79756905530E+03  0.81355698871E+03  0.51100000000E-03 0. -1.
         22    1    1    2    0    0  0.45632547586E+02  0.12944760203E+02  0.43386748162E+02  0.64283015891E+02  0.00000000000E+00 0.  1.
         -2    1    1    2    0  501 -0.19721708530E+03  0.39787619108E+02  0.68886008124E+02  0.21265680213E+03  0.25500000000E-02 0.  1.
<mgrwt>
<rscale>  0 0.88307579E+02</rscale>
<asrwt>0</asrwt>
<pdfrwt beam="1">  1       11 0.10000000E+01 0.16440489E+03</pdfrwt>
<pdfrwt beam="2">  1       -2 0.13898891E-01 0.88307579E+02</pdfrwt>
<totfact> 0.29534529E+02</totfact>
</mgrwt>
</event>
<event>
 5    1  0.9955701E-004  0.1315198E+03  0.7818608E-02  0.1350420E+00
         11   -1    0    0    0    0  0.00000000000E+00  0.00000000000E+00  0.10002259291E+04  0.10002259291E+04  0.51100000000E-03 0.  1.
          2   -1    0    0  501    0 -0.00000000000E+00 -0.00000000000E+00 -0.43240104685E+02  0.43240104760E+02  0.25500000000E-02 0.  1.
         11    1    1    2    0    0 -0.44217874150E+02 -0.12739439734E+03  0.36559095756E+03  0.38966819362E+03  0.51100000000E-03 0.  1.
         22    1    1    2    0    0  0.10569163291E+03  0.88164309143E+02  0.13918279712E+03  0.19574349973E+03  0.00000000000E+00 0.  1.
          2    1    1    2  501    0 -0.61473758763E+02  0.39230088195E+02  0.45221206974E+03  0.45805434051E+03  0.25500000000E-02 0.  1.
<mgrwt>
<rscale>  0 0.72924775E+02</rscale>
<asrwt>0</asrwt>
<pdfrwt beam="1">  1       11 0.10000000E+01 0.13151983E+03</pdfrwt>
<pdfrwt beam="2">  1        2 0.66538266E-02 0.72924775E+02</pdfrwt>
<totfact> 0.12074427E+03</totfact>
</mgrwt>
</event>
<event>
 5    1  0.9955701E-004  0.2471188E+03  0.7818608E-02  0.1280842E+00
         11   -1    0    0    0    0  0.00000000000E+00  0.00000000000E+00  0.99987409660E+03  0.99987409660E+03  0.51100000000E-03 0.  1.
          2   -1    0    0  501    0 -0.00000000000E+00 -0.00000000000E+00 -0.68653587268E+03  0.68653587269E+03  0.25500000000E-02 0.  1.
         11    1    1    2    0    0  0.24138265470E+03  0.54663500889E+02  0.94950197744E+03  0.98122764407E+03  0.51100000000E-03 0.  1.
         22    1    1    2    0    0 -0.23409292676E+02  0.32750960383E+02 -0.18357596492E+02  0.44245019365E+02  0.00000000000E+00 0. -1.
          2    1    1    2  501    0 -0.21797336203E+03 -0.87414461273E+02 -0.61780615703E+03  0.66093730585E+03  0.25500000000E-02 0.  1.
<mgrwt>
<rscale>  0 0.99740894E+02</rscale>
<asrwt>0</asrwt>
<pdfrwt beam="1">  1       11 0.10000000E+01 0.24711884E+03</pdfrwt>
<pdfrwt beam="2">  1        2 0.10560760E+00 0.99740894E+02</pdfrwt>
<totfact> 0.55200575E+01</totfact>
</mgrwt>
</event>
<event>
 5    1  0.9955701E-004  0.1620786E+03  0.7818608E-02  0.1397458E+00
         11   -1    0    0    0    0  0.00000000000E+00  0.00000000000E+00  0.10002046891E+04  0.10002046891E+04  0.51100000000E-03 0. -1.
         -2   -1    0    0    0  501 -0.00000000000E+00 -0.00000000000E+00 -0.57034353183E+02  0.57034353240E+02  0.25500000000E-02 0.  1.
         11    1    1    2    0    0 -0.16562982270E+03 -0.27767261720E+02  0.77510828921E+03  0.79309338605E+03  0.51100000000E-03 0. -1.
         22    1    1    2    0    0  0.21956445601E+02  0.37684246388E+01 -0.17436872733E+02  0.28290122983E+02  0.00000000000E+00 0.  1.
         -2    1    1    2    0  501  0.14367337710E+03  0.23998837081E+02  0.18549891940E+03  0.23585553327E+03  0.25500000000E-02 0.  1.
<mgrwt>
<rscale>  0 0.60089144E+02</rscale>
<asrwt>0</asrwt>
<pdfrwt beam="1">  1       11 0.10000000E+01 0.16207864E+03</pdfrwt>
<pdfrwt beam="2">  1       -2 0.87763117E-02 0.60089144E+02</pdfrwt>
<totfact> 0.58929215E+02</totfact>
</mgrwt>
</event>
<event>
 5    1  0.9955701E-004  0.1723654E+03  0.7818608E-02  0.1304792E+00
         11   -1    0    0    0    0  0.00000000000E+00  0.00000000000E+00  0.10001306081E+04  0.10001306081E+04  0.51100000000E-03 0. -1.
          2   -1    0    0  501    0 -0.00000000000E+00 -0.00000000000E+00 -0.27386612264E+03  0.27386612265E+03  0.25500000000E-02 0. -1.
         11    1    1    2    0    0 -0.17089652220E+03  0.51582660910E+02  0.88111137407E+03  0.89901259486E+03  0.51100000000E-03 0. -1.
         22    1    1    2    0    0  0.29715454380E+02 -0.35329856761E+02 -0.21555784703E+03  0.22044589455E+03  0.00000000000E+00 0. -1.
          2    1    1    2  501    0  0.14118106782E+03 -0.16252804149E+02  0.60710958396E+02  0.15453824131E+03  0.25500000000E-02 0. -1.
<mgrwt>
<rscale>  0 0.89203416E+02</rscale>
<asrwt>0</asrwt>
<pdfrwt beam="1">  1       11 0.10000000E+01 0.17236542E+03</pdfrwt>
<pdfrwt beam="2">  1        2 0.42138751E-01 0.89203416E+02</pdfrwt>
<totfact> 0.14857271E+02</totfact>
</mgrwt>
</event>
<event>
 5    1  0.9955701E-004  0.1368458E+03  0.7818608E-02  0.1217637E+00
         11   -1    0    0    0    0  0.00000000000E+00  0.00000000000E+00  0.10003310079E+04  0.10003310079E+04  0.51100000000E-03 0. -1.
         -2   -1    0    0    0  501 -0.00000000000E+00 -0.00000000000E+00 -0.21698833428E+02  0.21698833578E+02  0.25500000000E-02 0.  1.
         11    1    1    2    0    0 -0.78108437152E+02  0.10438011718E+03  0.69486727159E+03  0.70699127430E+03  0.51100000000E-03 0. -1.
         22    1    1    2    0    0  0.16948753685E+02 -0.28725034805E+01  0.24036977315E+02  0.29551443386E+02  0.00000000000E+00 0.  1.
         -2    1    1    2    0  501  0.61159683467E+02 -0.10150761370E+03  0.25972792556E+03  0.28548712378E+03  0.25500000000E-02 0.  1.
<mgrwt>
<rscale>  0 0.13684582E+03</rscale>
<asrwt>0</asrwt>
<pdfrwt beam="1">  1       11 0.10000000E+01 0.13036923E+03</pdfrwt>
<pdfrwt beam="2">  1       -2 0.33393870E-02 0.13684582E+03</pdfrwt>
<totfact> 0.26954120E+03</totfact>
</mgrwt>
</event>
<event>
 5    1  0.9955701E-004  0.1721618E+03  0.7818608E-02  0.1257640E+00
         11   -1    0    0    0    0  0.00000000000E+00  0.00000000000E+00  0.10002844127E+04  0.10002844127E+04  0.51100000000E-03 0. -1.
          2   -1    0    0  501    0 -0.00000000000E+00 -0.00000000000E+00 -0.13166109047E+03  0.13166109049E+03  0.25500000000E-02 0.  1.
         11    1    1    2    0    0 -0.17244605676E+03  0.50289067169E+02  0.88318166323E+03  0.90126382543E+03  0.51100000000E-03 0. -1.
         22    1    1    2    0    0  0.35857025079E+02 -0.62826447224E+02 -0.51300331573E+02  0.88682651843E+02  0.00000000000E+00 0.  1.
          2    1    1    2  501    0  0.13658903168E+03  0.12537380055E+02  0.36741990530E+02  0.14199902587E+03  0.25500000000E-02 0.  1.
<mgrwt>
<rscale>  0 0.11159731E+03</rscale>
<asrwt>0</asrwt>
<pdfrwt beam="1">  1       11 0.10000000E+01 0.17216176E+03</pdfrwt>
<pdfrwt beam="2">  1        2 0.20261313E-01 0.11159731E+03</pdfrwt>
<totfact> 0.32893415E+02</totfact>
</mgrwt>
</event>
<event>
 5    1  0.9955701E-004  0.1487027E+03  0.7818608E-02  0.1507293E+00
         11   -1    0    0    0    0  0.00000000000E+00  0.00000000000E+00  0.10003326377E+04  0.10003326377E+04  0.51100000000E-03 0. -1.
          2   -1    0    0  501    0 -0.00000000000E+00 -0.00000000000E+00 -0.32716448278E+02  0.32716448377E+02  0.25500000000E-02 0. -1.
         11    1    1    2    0    0  0.53974262153E+02  0.14106866714E+03  0.71552102203E+03  0.73128921966E+03  0.51100000000E-03 0. -1.
         22    1    1    2    0    0  0.39738419729E+01 -0.10071493661E+02 -0.10705948274E+01  0.10879916262E+02  0.00000000000E+00 0. -1.
          2    1    1    2  501    0 -0.57948104126E+02 -0.13099717348E+03  0.25316576218E+03  0.29087995011E+03  0.25500000000E-02 0. -1.
<mgrwt>
<rscale>  0 0.40125063E+02</rscale>
<asrwt>0</asrwt>
<pdfrwt beam="1">  1       11 0.10000000E+01 0.14870266E+03</pdfrwt>
<pdfrwt beam="2">  1        2 0.50349739E-02 0.40125063E+02</pdfrwt>
<totfact> 0.16147278E+03</totfact>
</mgrwt>
</event>
<event>
 5    1  0.9955701E-004  0.7783814E+02  0.7818608E-02  0.1535492E+00
         11   -1    0    0    0    0  0.00000000000E+00  0.00000000000E+00  0.10004427059E+04  0.10004427059E+04  0.51100000000E-03 0. -1.
          2   -1    0    0  501    0 -0.00000000000E+00 -0.00000000000E+00 -0.17467321835E+02  0.17467322021E+02  0.25500000000E-02 0. -1.
         11    1    1    2    0    0  0.35111570568E+02  0.74870598635E+02  0.12070767264E+03  0.14631736452E+03  0.51100000000E-03 0. -1.
         22    1    1    2    0    0 -0.17131341568E+02  0.38231344076E+00  0.22569587042E+02  0.28337524358E+02  0.00000000000E+00 0.  1.
          2    1    1    2  501    0 -0.17980229000E+02 -0.75252912076E+02  0.83969812437E+03  0.84325513902E+03  0.25500000000E-02 0. -1.
<mgrwt>
<rscale>  0 0.36521269E+02</rscale>
<asrwt>0</asrwt>
<pdfrwt beam="1">  1       11 0.10000000E+01 0.77838137E+02</pdfrwt>
<pdfrwt beam="2">  1        2 0.26884699E-02 0.36521269E+02</pdfrwt>
<totfact> 0.35470113E+03</totfact>
</mgrwt>
</event>
<event>
 5    1  0.1004486E-003  0.2194332E+03  0.7818608E-02  0.1447909E+00
         11   -1    0    0    0    0  0.00000000000E+00  0.00000000000E+00  0.10003088746E+04  0.10003088746E+04  0.51100000000E-03 0. -1.
          2   -1    0    0  501    0 -0.00000000000E+00 -0.00000000000E+00 -0.24636950153E+03  0.24636950154E+03  0.25500000000E-02 0.  1.
         11    1    1    2    0    0 -0.11158367932E+03  0.18963331762E+03  0.93096472297E+03  0.95661226631E+03  0.51100000000E-03 0. -1.
         22    1    1    2    0    0  0.96089437390E+01 -0.57119580075E+01 -0.33867651479E+02  0.35664773668E+02  0.00000000000E+00 0. -1.
          2    1    1    2  501    0  0.10197473558E+03 -0.18392135962E+03 -0.14315769842E+03  0.25440133616E+03  0.25500000000E-02 0.  1.
<mgrwt>
<rscale>  0 0.49527044E+02</rscale>
<asrwt>0</asrwt>
<pdfrwt beam="1">  1       11 0.10000000E+01 0.21943320E+03</pdfrwt>
<pdfrwt beam="2">  1        2 0.37914706E-01 0.49527044E+02</pdfrwt>
<totfact> 0.16430082E+02</totfact>
</mgrwt>
</event>
<event>
 5    1  0.9955701E-004  0.3191439E+03  0.7818608E-02  0.1352877E+00
         11   -1    0    0    0    0  0.00000000000E+00  0.00000000000E+00  0.10002265495E+04  0.10002265495E+04  0.51100000000E-03 0. -1.
          2   -1    0    0  501    0 -0.00000000000E+00 -0.00000000000E+00 -0.14250471667E+03  0.14250471669E+03  0.25500000000E-02 0. -1.
         11    1    1    2    0    0  0.89531924733E+02 -0.29859592580E+03  0.45160377085E+03  0.54874534923E+03  0.51100000000E-03 0. -1.
         22    1    1    2    0    0  0.90600934054E+01 -0.13572551197E+02 -0.38519531108E+02  0.41833643343E+02  0.00000000000E+00 0. -1.
          2    1    1    2  501    0 -0.98592018138E+02  0.31216847700E+03  0.44463759308E+03  0.55215227361E+03  0.25500000000E-02 0. -1.
<mgrwt>
<rscale>  0 0.72166534E+02</rscale>
<asrwt>0</asrwt>
<pdfrwt beam="1">  1       11 0.10000000E+01 0.31914391E+03</pdfrwt>
<pdfrwt beam="2">  1        2 0.21928769E-01 0.72166534E+02</pdfrwt>
<totfact> 0.29665065E+02</totfact>
</mgrwt>
</event>
<event>
 5    1  0.9955701E-004  0.1291293E+03  0.7818608E-02  0.1529657E+00
         11   -1    0    0    0    0  0.00000000000E+00  0.00000000000E+00  0.10001163046E+04  0.10001163046E+04  0.51100000000E-03 0.  1.
          2   -1    0    0  501    0 -0.00000000000E+00 -0.00000000000E+00 -0.21916016766E+02  0.21916016915E+02  0.25500000000E-02 0.  1.
         11    1    1    2    0    0 -0.36202579578E+02  0.12894597603E+03  0.51832771450E+03  0.53535157712E+03  0.51100000000E-03 0.  1.
         22    1    1    2    0    0 -0.21866836176E+01 -0.10508006761E+02  0.51073797178E+00  0.10745261496E+02  0.00000000000E+00 0. -1.
          2    1    1    2  501    0  0.38389263195E+02 -0.11843796926E+03  0.45936183533E+03  0.47593548288E+03  0.25500000000E-02 0.  1.
<mgrwt>
<rscale>  0 0.37228478E+02</rscale>
<asrwt>0</asrwt>
<pdfrwt beam="1">  1       11 0.10000000E+01 0.12912934E+03</pdfrwt>
<pdfrwt beam="2">  1        2 0.33720869E-02 0.37228478E+02</pdfrwt>
<totfact> 0.26579039E+03</totfact>
</mgrwt>
</event>
<event>
 5    1  0.9955701E-004  0.1671151E+03  0.7818608E-02  0.1264883E+00
         11   -1    0    0    0    0  0.00000000000E+00  0.00000000000E+00  0.10001490027E+04  0.10001490027E+04  0.51100000000E-03 0.  1.
          2   -1    0    0  501    0 -0.00000000000E+00 -0.00000000000E+00 -0.43341747740E+03  0.43341747741E+03  0.25500000000E-02 0.  1.
         11    1    1    2    0    0  0.16636633460E+03 -0.17544384032E+02  0.95815553494E+03  0.97264977861E+03  0.51100000000E-03 0.  1.
         22    1    1    2    0    0 -0.14879351950E+02 -0.67799701223E+02 -0.11735700178E+03  0.13634830570E+03  0.00000000000E+00 0. -1.
          2    1    1    2  501    0 -0.15148698265E+03  0.85344085255E+02 -0.27406700782E+03  0.32456839585E+03  0.25500000000E-02 0.  1.
<mgrwt>
<rscale>  0 0.10770328E+03</rscale>
<asrwt>0</asrwt>
<pdfrwt beam="1">  1       11 0.10000000E+01 0.16711510E+03</pdfrwt>
<pdfrwt beam="2">  1        2 0.66689545E-01 0.10770328E+03</pdfrwt>
<totfact> 0.91705002E+01</totfact>
</mgrwt>
</event>
<event>
 5    1  0.9955701E-004  0.9973405E+02  0.7818608E-02  0.1280856E+00
         11   -1    0    0    0    0  0.00000000000E+00  0.00000000000E+00  0.10002610269E+04  0.10002610269E+04  0.51100000000E-03 0. -1.
          2   -1    0    0  501    0 -0.00000000000E+00 -0.00000000000E+00 -0.96167903701E+01  0.96167907081E+01  0.25500000000E-02 0. -1.
         11    1    1    2    0    0 -0.14451602487E+01 -0.93950622043E+02  0.40124126951E+03  0.41209630455E+03  0.51100000000E-03 0. -1.
         22    1    1    2    0    0 -0.11157989570E+02  0.16681665778E+02  0.84884920819E+02  0.87225159712E+02  0.00000000000E+00 0. -1.
          2    1    1    2  501    0  0.12603149818E+02  0.77268956265E+02  0.50451804624E+03  0.51055635338E+03  0.25500000000E-02 0. -1.
<mgrwt>
<rscale>  0 0.99734045E+02</rscale>
<asrwt>0</asrwt>
<pdfrwt beam="1">  1       11 0.10000000E+01 0.93961783E+02</pdfrwt>
<pdfrwt beam="2">  1        2 0.14798924E-02 0.99734045E+02</pdfrwt>
<totfact> 0.90603070E+03</totfact>
</mgrwt>
</event>
<event>
 5    1  0.9955701E-004  0.4493853E+02  0.7818608E-02  0.1684672E+00
         11   -1    0    0    0    0  0.00000000000E+00  0.00000000000E+00  0.10004097149E+04  0.10004097149E+04  0.51100000000E-03 0. -1.
          2   -1    0    0  501    0 -0.00000000000E+00 -0.00000000000E+00 -0.46662141072E+01  0.46662148039E+01  0.25500000000E-02 0. -1.
         11    1    1    2    0    0 -0.25882052547E+02  0.46791462831E+02  0.28180017615E+03  0.28682862639E+03  0.51100000000E-03 0. -1.
         22    1    1    2    0    0  0.73659773425E+00 -0.12191146002E+02  0.23535070087E+02  0.26515394416E+02  0.00000000000E+00 0. -1.
          2    1    1    2  501    0  0.25145454813E+02 -0.34600316829E+02  0.69040825451E+03  0.69173190885E+03  0.25500000000E-02 0. -1.
<mgrwt>
<rscale>  0 0.23427569E+02</rscale>
<asrwt>0</asrwt>
<pdfrwt beam="1">  1       11 0.10000000E+01 0.44938528E+02</pdfrwt>
<pdfrwt beam="2">  1        2 0.71817325E-03 0.23427569E+02</pdfrwt>
<totfact> 0.18222088E+04</totfact>
</mgrwt>
</event>
<event>
 5    1  0.9955701E-004  0.1765531E+03  0.7818608E-02  0.1428033E+00
         11   -1    0    0    0    0  0.00000000000E+00  0.00000000000E+00  0.10003239546E+04  0.10003239546E+04  0.51100000000E-03 0. -1.
          2   -1    0    0  501    0 -0.00000000000E+00 -0.00000000000E+00 -0.29455462199E+03  0.29455462200E+03  0.25500000000E-02 0. -1.
         11    1    1    2    0    0 -0.15942759148E+03  0.76471377384E+02  0.96248122630E+03  0.97858834014E+03  0.51100000000E-03 0. -1.
         22    1    1    2    0    0  0.13795037153E+02  0.83497835936E+01 -0.25591694297E+02  0.30248252067E+02  0.00000000000E+00 0.  1.
          2    1    1    2  501    0  0.14563255432E+03 -0.84821160977E+02 -0.23112019943E+03  0.28604198436E+03  0.25500000000E-02 0. -1.
<mgrwt>
<rscale>  0 0.53356841E+02</rscale>
<asrwt>0</asrwt>
<pdfrwt beam="1">  1       11 0.10000000E+01 0.17655305E+03</pdfrwt>
<pdfrwt beam="2">  1        2 0.45330775E-01 0.53356841E+02</pdfrwt>
<totfact> 0.13697282E+02</totfact>
</mgrwt>
</event>
<event>
 5    1  0.9955701E-004  0.1062209E+03  0.7818608E-02  0.1399045E+00
         11   -1    0    0    0    0  0.00000000000E+00  0.00000000000E+00  0.99992823755E+03  0.99992823755E+03  0.51100000000E-03 0.  1.
          2   -1    0    0  501    0 -0.00000000000E+00 -0.00000000000E+00 -0.21509456930E+02  0.21509457081E+02  0.25500000000E-02 0.  1.
         11    1    1    2    0    0 -0.38537053082E+02  0.10944919621E+03  0.58698824676E+03  0.59834725105E+03  0.51100000000E-03 0.  1.
         22    1    1    2    0    0 -0.16518524228E+02 -0.29220992715E+02  0.19883673714E+02  0.39013953123E+02  0.00000000000E+00 0.  1.
          2    1    1    2  501    0  0.55055577310E+02 -0.80228203491E+02  0.37154686015E+03  0.38407649045E+03  0.25500000000E-02 0.  1.
<mgrwt>
<rscale>  0 0.59711737E+02</rscale>
<asrwt>0</asrwt>
<pdfrwt beam="1">  1       11 0.10000000E+01 0.10622087E+03</pdfrwt>
<pdfrwt beam="2">  1        2 0.33089097E-02 0.59711737E+02</pdfrwt>
<totfact> 0.28933222E+03</totfact>
</mgrwt>
</event>
<event>
 5    1  0.9955701E-004  0.1857049E+03  0.7818608E-02  0.1339528E+00
         11   -1    0    0    0    0  0.00000000000E+00  0.00000000000E+00  0.99990787305E+03  0.99990787305E+03  0.51100000000E-03 0.  1.
          2   -1    0    0  501    0 -0.00000000000E+00 -0.00000000000E+00 -0.12088160894E+03  0.12088160897E+03  0.25500000000E-02 0. -1.
         11    1    1    2    0    0 -0.36550338072E+02  0.17785249444E+03  0.81229002596E+03  0.83233558333E+03  0.51100000000E-03 0.  1.
         22    1    1    2    0    0 -0.93251578752E+01  0.30033892540E+02 -0.39533088551E+02  0.50515921855E+02  0.00000000000E+00 0. -1.
          2    1    1    2  501    0  0.45875495947E+02 -0.20788638698E+03  0.10626932669E+03  0.23793797684E+03  0.25500000000E-02 0. -1.
<mgrwt>
<rscale>  0 0.76420525E+02</rscale>
<asrwt>0</asrwt>
<pdfrwt beam="1">  1       11 0.10000000E+01 0.18570490E+03</pdfrwt>
<pdfrwt beam="2">  1        2 0.18595457E-01 0.76420525E+02</pdfrwt>
<totfact> 0.35693117E+02</totfact>
</mgrwt>
</event>
<event>
 5    1  0.9955701E-004  0.1769109E+03  0.7818608E-02  0.1411580E+00
         11   -1    0    0    0    0  0.00000000000E+00  0.00000000000E+00  0.99984972546E+03  0.99984972546E+03  0.51100000000E-03 0.  1.
          2   -1    0    0  501    0 -0.00000000000E+00 -0.00000000000E+00 -0.38723948711E+02  0.38723948795E+02  0.25500000000E-02 0.  1.
         11    1    1    2    0    0  0.16907712081E+02 -0.17216336671E+03  0.58688417070E+03  0.61184894001E+03  0.51100000000E-03 0.  1.
         22    1    1    2    0    0  0.15748789621E+02 -0.92494040028E+01  0.18126449631E+02  0.25732159357E+02  0.00000000000E+00 0.  1.
          2    1    1    2  501    0 -0.32656501702E+02  0.18141277072E+03  0.35611515641E+03  0.40099257489E+03  0.25500000000E-02 0.  1.
<mgrwt>
<rscale>  0 0.56842866E+02</rscale>
<asrwt>0</asrwt>
<pdfrwt beam="1">  1       11 0.10000000E+01 0.17691092E+03</pdfrwt>
<pdfrwt beam="2">  1        2 0.59566351E-02 0.56842866E+02</pdfrwt>
<totfact> 0.13563353E+03</totfact>
</mgrwt>
</event>
<event>
 5    1  0.9955701E-004  0.2451894E+03  0.7818608E-02  0.1258363E+00
         11   -1    0    0    0    0  0.00000000000E+00  0.00000000000E+00  0.99982809893E+03  0.99982809893E+03  0.51100000000E-03 0. -1.
          2   -1    0    0  501    0 -0.00000000000E+00 -0.00000000000E+00 -0.86531149379E+02  0.86531149417E+02  0.25500000000E-02 0. -1.
         11    1    1    2    0    0 -0.17007799387E+02  0.26517386354E+03  0.44268411774E+03  0.51630966604E+03  0.51100000000E-03 0. -1.
         22    1    1    2    0    0  0.36517475644E+02 -0.34783973743E+02  0.56212404808E+01  0.50744942618E+02  0.00000000000E+00 0. -1.
          2    1    1    2  501    0 -0.19509676256E+02 -0.23038988980E+03  0.46499159134E+03  0.51930463970E+03  0.25500000000E-02 0. -1.
<mgrwt>
<rscale>  0 0.11120046E+03</rscale>
<asrwt>0</asrwt>
<pdfrwt beam="1">  1       11 0.10000000E+01 0.24518940E+03</pdfrwt>
<pdfrwt beam="2">  1        2 0.13310196E-01 0.11120046E+03</pdfrwt>
<totfact> 0.53348379E+02</totfact>
</mgrwt>
</event>
<event>
 5    1  0.9955701E-004  0.9617786E+02  0.7818608E-02  0.1369640E+00
         11   -1    0    0    0    0  0.00000000000E+00  0.00000000000E+00  0.10004029032E+04  0.10004029032E+04  0.51100000000E-03 0. -1.
         -2   -1    0    0    0  501 -0.00000000000E+00 -0.00000000000E+00 -0.14126195356E+03  0.14126195358E+03  0.25500000000E-02 0. -1.
         11    1    1    2    0    0 -0.73757697170E+01 -0.97129438652E+02  0.27555125897E+03  0.29226191362E+03  0.51100000000E-03 0. -1.
         22    1    1    2    0    0  0.46628585004E+02  0.62631234523E+01 -0.12519343338E+03  0.13374171906E+03  0.00000000000E+00 0. -1.
         -2    1    1    2    0  501 -0.39252815287E+02  0.90866315200E+02  0.70878312408E+03  0.71566122414E+03  0.25500000000E-02 0. -1.
<mgrwt>
<rscale>  0 0.67267450E+02</rscale>
<asrwt>0</asrwt>
<pdfrwt beam="1">  1       11 0.10000000E+01 0.96177863E+02</pdfrwt>
<pdfrwt beam="2">  1       -2 0.21741364E-01 0.67267450E+02</pdfrwt>
<totfact> 0.13993861E+02</totfact>
</mgrwt>
</event>
<event>
 5    1  0.9955701E-004  0.6043332E+02  0.7818608E-02  0.1448118E+00
         11   -1    0    0    0    0  0.00000000000E+00  0.00000000000E+00  0.10000623182E+04  0.10000623182E+04  0.51100000000E-03 0.  1.
          2   -1    0    0  501    0 -0.00000000000E+00 -0.00000000000E+00 -0.82530936544E+01  0.82530940483E+01  0.25500000000E-02 0.  1.
         11    1    1    2    0    0  0.32239794177E+02  0.40913075555E+02  0.26017637510E+03  0.26533946228E+03  0.51100000000E-03 0.  1.
         22    1    1    2    0    0 -0.77200163471E+02 -0.20231669317E+02  0.44310250359E+03  0.45023217829E+03  0.00000000000E+00 0.  1.
          2    1    1    2  501    0  0.44960369295E+02 -0.20681406238E+02  0.28853034584E+03  0.29274377167E+03  0.25500000000E-02 0.  1.
<mgrwt>
<rscale>  0 0.49488942E+02</rscale>
<asrwt>0</asrwt>
<pdfrwt beam="1">  1       11 0.10000000E+01 0.60433318E+02</pdfrwt>
<pdfrwt beam="2">  1        2 0.12697858E-02 0.49488942E+02</pdfrwt>
<totfact> 0.99944255E+03</totfact>
</mgrwt>
</event>
<event>
 5    1  0.9955701E-004  0.2429221E+03  0.7818608E-02  0.1117861E+00
         11   -1    0    0    0    0  0.00000000000E+00  0.00000000000E+00  0.99993219303E+03  0.99993219303E+03  0.51100000000E-03 0.  1.
          2   -1    0    0  501    0 -0.00000000000E+00 -0.00000000000E+00 -0.11646224324E+03  0.11646224327E+03  0.25500000000E-02 0.  1.
         11    1    1    2    0    0 -0.13091299441E+02  0.23840877741E+03  0.83528289777E+03  0.86873911306E+03  0.51100000000E-03 0.  1.
         22    1    1    2    0    0  0.10941950292E+02 -0.13756232120E+02  0.84594138860E+01  0.19506970078E+02  0.00000000000E+00 0.  1.
          2    1    1    2  501    0  0.21493491484E+01 -0.22465254529E+03  0.39727638139E+02  0.22814835315E+03  0.25500000000E-02 0.  1.
<mgrwt>
<rscale>  0 0.24292214E+03</rscale>
<asrwt>0</asrwt>
<pdfrwt beam="1">  1       11 0.10000000E+01 0.23876794E+03</pdfrwt>
<pdfrwt beam="2">  1        2 0.17916053E-01 0.24292214E+03</pdfrwt>
<totfact> 0.38827436E+02</totfact>
</mgrwt>
</event>
<event>
 5    1  0.9955701E-004  0.1969448E+03  0.7818608E-02  0.1429206E+00
         11   -1    0    0    0    0  0.00000000000E+00  0.00000000000E+00  0.10001083432E+04  0.10001083432E+04  0.51100000000E-03 0. -1.
          2   -1    0    0  501    0 -0.00000000000E+00 -0.00000000000E+00 -0.66478449206E+02  0.66478449255E+02  0.25500000000E-02 0. -1.
         11    1    1    2    0    0  0.14817679407E+03 -0.12548136805E+03  0.75088711650E+03  0.77558584164E+03  0.51100000000E-03 0. -1.
         22    1    1    2    0    0  0.13603980664E+02 -0.44951654504E+01 -0.23338403523E+00  0.14329315072E+02  0.00000000000E+00 0. -1.
          2    1    1    2  501    0 -0.16178077473E+03  0.12997653350E+03  0.18297616154E+03  0.27667163575E+03  0.25500000000E-02 0. -1.
<mgrwt>
<rscale>  0 0.53119769E+02</rscale>
<asrwt>0</asrwt>
<pdfrwt beam="1">  1       11 0.10000000E+01 0.19694481E+03</pdfrwt>
<pdfrwt beam="2">  1        2 0.10228562E-01 0.53119769E+02</pdfrwt>
<totfact> 0.69691281E+02</totfact>
</mgrwt>
</event>
<event>
 5    1  0.9955701E-004  0.1564346E+03  0.7818608E-02  0.1460006E+00
         11   -1    0    0    0    0  0.00000000000E+00  0.00000000000E+00  0.10002296040E+04  0.10002296040E+04  0.51100000000E-03 0.  1.
          2   -1    0    0  501    0 -0.00000000000E+00 -0.00000000000E+00 -0.16256878138E+03  0.16256878140E+03  0.25500000000E-02 0.  1.
         11    1    1    2    0    0 -0.16031297751E+02  0.15720138086E+03  0.81422879799E+03  0.82942016622E+03  0.51100000000E-03 0.  1.
         22    1    1    2    0    0  0.46225220523E+02 -0.12068808161E+03 -0.12364442092E+03  0.17885839897E+03  0.00000000000E+00 0.  1.
          2    1    1    2  501    0 -0.30193922772E+02 -0.36513299249E+02  0.14707644561E+03  0.15451982026E+03  0.25500000000E-02 0.  1.
<mgrwt>
<rscale>  0 0.47380312E+02</rscale>
<asrwt>0</asrwt>
<pdfrwt beam="1">  1       11 0.10000000E+01 0.15643461E+03</pdfrwt>
<pdfrwt beam="2">  1        2 0.25016324E-01 0.47380312E+02</pdfrwt>
<totfact> 0.25329493E+02</totfact>
</mgrwt>
</event>
<event>
 5    1  0.9955701E-004  0.5916863E+02  0.7818608E-02  0.1608605E+00
         11   -1    0    0    0    0  0.00000000000E+00  0.00000000000E+00  0.10001418152E+04  0.10001418152E+04  0.51100000000E-03 0.  1.
         -2   -1    0    0    0  501 -0.00000000000E+00 -0.00000000000E+00 -0.74935240350E+01  0.74935244689E+01  0.25500000000E-02 0. -1.
         11    1    1    2    0    0  0.51383446928E+02 -0.34881980477E+02  0.34160447649E+03  0.34720401717E+03  0.51100000000E-03 0.  1.
         22    1    1    2    0    0  0.30227829165E+01  0.13958503668E+02  0.11774405140E+02  0.18509825974E+02  0.00000000000E+00 0. -1.
         -2    1    1    2    0  501 -0.54406229845E+02  0.20923476810E+02  0.63926940953E+03  0.64192149652E+03  0.25500000000E-02 0. -1.
<mgrwt>
<rscale>  0 0.29069729E+02</rscale>
<asrwt>0</asrwt>
<pdfrwt beam="1">  1       11 0.10000000E+01 0.59168632E+02</pdfrwt>
<pdfrwt beam="2">  1       -2 0.11530133E-02 0.29069729E+02</pdfrwt>
<totfact> 0.96708759E+03</totfact>
</mgrwt>
</event>
<event>
 5    1  0.9955701E-004  0.7005210E+02  0.7818608E-02  0.1610651E+00
         11   -1    0    0    0    0  0.00000000000E+00  0.00000000000E+00  0.10003663081E+04  0.10003663081E+04  0.51100000000E-03 0. -1.
          2   -1    0    0  501    0 -0.00000000000E+00 -0.00000000000E+00 -0.25289362357E+02  0.25289362486E+02  0.25500000000E-02 0. -1.
         11    1    1    2    0    0 -0.54264603845E+02 -0.55102671944E+02  0.30677898640E+03  0.31637682940E+03  0.51100000000E-03 0. -1.
         22    1    1    2    0    0  0.24519524178E+01  0.11662440939E+02 -0.16940635848E+02  0.20712550356E+02  0.00000000000E+00 0. -1.
          2    1    1    2  501    0  0.51812651427E+02  0.43440231005E+02  0.68523859520E+03  0.68856629084E+03  0.25500000000E-02 0. -1.
<mgrwt>
<rscale>  0 0.28893581E+02</rscale>
<asrwt>0</asrwt>
<pdfrwt beam="1">  1       11 0.10000000E+01 0.70052100E+02</pdfrwt>
<pdfrwt beam="2">  1        2 0.38920962E-02 0.28893581E+02</pdfrwt>
<totfact> 0.21405216E+03</totfact>
</mgrwt>
</event>
<event>
 5    1  0.9955701E-004  0.8504715E+02  0.7818608E-02  0.1571827E+00
         11   -1    0    0    0    0  0.00000000000E+00  0.00000000000E+00  0.99999535679E+03  0.99999535679E+03  0.51100000000E-03 0.  1.
          2   -1    0    0  501    0 -0.00000000000E+00 -0.00000000000E+00 -0.18549916818E+02  0.18549916994E+02  0.25500000000E-02 0.  1.
         11    1    1    2    0    0 -0.27619425886E+02  0.78263940734E+02  0.29037476910E+03  0.30200262190E+03  0.51100000000E-03 0.  1.
         22    1    1    2    0    0  0.10710467032E+02  0.63127146004E+01 -0.62452550609E+01  0.13912860254E+02  0.00000000000E+00 0.  1.
          2    1    1    2  501    0  0.16908958854E+02 -0.84576655335E+02  0.69731592593E+03  0.70262979163E+03  0.25500000000E-02 0.  1.
<mgrwt>
<rscale>  0 0.32516755E+02</rscale>
<asrwt>0</asrwt>
<pdfrwt beam="1">  1       11 0.10000000E+01 0.85047151E+02</pdfrwt>
<pdfrwt beam="2">  1        2 0.28538200E-02 0.32516755E+02</pdfrwt>
<totfact> 0.32282546E+03</totfact>
</mgrwt>
</event>
<event>
 5    1  0.9955701E-004  0.6780051E+02  0.7818608E-02  0.1625944E+00
         11   -1    0    0    0    0  0.00000000000E+00  0.00000000000E+00  0.10001477149E+04  0.10001477149E+04  0.51100000000E-03 0. -1.
          2   -1    0    0  501    0 -0.00000000000E+00 -0.00000000000E+00 -0.68978894862E+01  0.68978899575E+01  0.25500000000E-02 0. -1.
         11    1    1    2    0    0  0.47981226389E+02  0.58929983959E+02  0.32204304892E+03  0.33088769463E+03  0.51100000000E-03 0. -1.
         22    1    1    2    0    0 -0.68224335578E+01 -0.89511840331E+01  0.37506985818E+02  0.39159204287E+02  0.00000000000E+00 0. -1.
          2    1    1    2  501    0 -0.41158792831E+02 -0.49978799926E+02  0.63369979065E+03  0.63699870593E+03  0.25500000000E-02 0. -1.
<mgrwt>
<rscale>  0 0.27623851E+02</rscale>
<asrwt>0</asrwt>
<pdfrwt beam="1">  1       11 0.10000000E+01 0.67800513E+02</pdfrwt>
<pdfrwt beam="2">  1        2 0.10613705E-02 0.27623851E+02</pdfrwt>
<totfact> 0.11336186E+04</totfact>
</mgrwt>
</event>
<event>
 5    1  0.9955701E-004  0.7999137E+03  0.7818608E-02  0.9560142E-01
         11   -1    0    0    0    0  0.00000000000E+00  0.00000000000E+00  0.10005113105E+04  0.10005113105E+04  0.51100000000E-03 0. -1.
          2   -1    0    0  501    0 -0.00000000000E+00 -0.00000000000E+00 -0.96029853611E+03  0.96029853611E+03  0.25500000000E-02 0. -1.
         11    1    1    2    0    0 -0.75994774240E+03  0.22648791495E+03  0.59153366397E+03  0.98930754693E+03  0.51100000000E-03 0. -1.
         22    1    1    2    0    0  0.14099717763E+02  0.64185175143E+01 -0.24977944127E+02  0.29392126512E+02  0.00000000000E+00 0.  1.
          2    1    1    2  501    0  0.74584802464E+03 -0.23290643247E+03 -0.52634294546E+03  0.94211017316E+03  0.25500000000E-02 0. -1.
<mgrwt>
<rscale>  0 0.79991374E+03</rscale>
<asrwt>0</asrwt>
<pdfrwt beam="1">  1       11 0.10000000E+01 0.79298004E+03</pdfrwt>
<pdfrwt beam="2">  1        2 0.14781377E+00 0.79991374E+03</pdfrwt>
<totfact> 0.33110228E+01</totfact>
</mgrwt>
</event>
<event>
 5    1  0.9955701E-004  0.5995843E+02  0.7818608E-02  0.1503860E+00
         11   -1    0    0    0    0  0.00000000000E+00  0.00000000000E+00  0.99990389842E+03  0.99990389842E+03  0.51100000000E-03 0. -1.
          2   -1    0    0  501    0 -0.00000000000E+00 -0.00000000000E+00 -0.77312155007E+01  0.77312159213E+01  0.25500000000E-02 0. -1.
         11    1    1    2    0    0  0.15226485565E+02 -0.78568560019E+02  0.33506083486E+03  0.34448603388E+03  0.51100000000E-03 0. -1.
         22    1    1    2    0    0  0.29804391723E+01  0.27326210622E+02  0.11168702478E+03  0.11501998222E+03  0.00000000000E+00 0. -1.
          2    1    1    2  501    0 -0.18206924737E+02  0.51242349397E+02  0.54542482328E+03  0.54812909824E+03  0.25500000000E-02 0. -1.
<mgrwt>
<rscale>  0 0.40597446E+02</rscale>
<asrwt>0</asrwt>
<pdfrwt beam="1">  1       11 0.10000000E+01 0.59958435E+02</pdfrwt>
<pdfrwt beam="2">  1        2 0.11893035E-02 0.40597446E+02</pdfrwt>
<totfact> 0.10526420E+04</totfact>
</mgrwt>
</event>
<event>
 5    1  0.9955701E-004  0.5292509E+02  0.7818608E-02  0.1606402E+00
         11   -1    0    0    0    0  0.00000000000E+00  0.00000000000E+00  0.10001155938E+04  0.10001155938E+04  0.51100000000E-03 0.  1.
          2   -1    0    0  501    0 -0.00000000000E+00 -0.00000000000E+00 -0.64331493905E+01  0.64331498959E+01  0.25500000000E-02 0.  1.
         11    1    1    2    0    0 -0.60877822711E+02 -0.10782434338E+02  0.24364194310E+03  0.25136381328E+03  0.51100000000E-03 0.  1.
         22    1    1    2    0    0  0.98387351273E+01  0.12842196565E+02  0.37817693499E+02  0.41132720104E+02  0.00000000000E+00 0.  1.
          2    1    1    2  501    0  0.51039087584E+02 -0.20597622269E+01  0.71222280781E+03  0.71405221031E+03  0.25500000000E-02 0.  1.
<mgrwt>
<rscale>  0 0.29261126E+02</rscale>
<asrwt>0</asrwt>
<pdfrwt beam="1">  1       11 0.10000000E+01 0.52925087E+02</pdfrwt>
<pdfrwt beam="2">  1        2 0.98982971E-03 0.29261126E+02</pdfrwt>
<totfact> 0.12577189E+04</totfact>
</mgrwt>
</event>
<event>
 5    1  0.9955701E-004  0.1642533E+03  0.7818608E-02  0.1467204E+00
         11   -1    0    0    0    0  0.00000000000E+00  0.00000000000E+00  0.99996771559E+03  0.99996771559E+03  0.51100000000E-03 0. -1.
          2   -1    0    0  501    0 -0.00000000000E+00 -0.00000000000E+00 -0.29294421011E+03  0.29294421012E+03  0.25500000000E-02 0. -1.
         11    1    1    2    0    0 -0.11502667051E+03  0.11718862398E+03  0.96340262491E+03  0.97729674419E+03  0.51100000000E-03 0. -1.
         22    1    1    2    0    0  0.80702295070E+01  0.10159153662E+02 -0.43986931699E+02  0.45860518616E+02  0.00000000000E+00 0. -1.
          2    1    1    2  501    0  0.10695644100E+03 -0.12734777764E+03 -0.21239218774E+03  0.26975466291E+03  0.25500000000E-02 0. -1.
<mgrwt>
<rscale>  0 0.46163836E+02</rscale>
<asrwt>0</asrwt>
<pdfrwt beam="1">  1       11 0.10000000E+01 0.16425325E+03</pdfrwt>
<pdfrwt beam="2">  1        2 0.45066884E-01 0.46163836E+02</pdfrwt>
<totfact> 0.13753837E+02</totfact>
</mgrwt>
</event>
<event>
 5    1  0.9955701E-004  0.1036289E+03  0.7818608E-02  0.1303404E+00
         11   -1    0    0    0    0  0.00000000000E+00  0.00000000000E+00  0.10000666355E+04  0.10000666355E+04  0.51100000000E-03 0. -1.
          2   -1    0    0  501    0 -0.00000000000E+00 -0.00000000000E+00 -0.45233433034E+02  0.45233433106E+02  0.25500000000E-02 0. -1.
         11    1    1    2    0    0  0.15114878379E+03  0.20594570577E+02  0.37754847332E+03  0.40720135177E+03  0.51100000000E-03 0. -1.
         22    1    1    2    0    0 -0.61853435348E+02 -0.47139191025E+02  0.30662309937E+02  0.83595024047E+02  0.00000000000E+00 0. -1.
          2    1    1    2  501    0 -0.89295348438E+02  0.26544620448E+02  0.54662241922E+03  0.55450369280E+03  0.25500000000E-02 0. -1.
<mgrwt>
<rscale>  0 0.89772307E+02</rscale>
<asrwt>0</asrwt>
<pdfrwt beam="1">  1       11 0.10000000E+01 0.10362889E+03</pdfrwt>
<pdfrwt beam="2">  1        2 0.69594532E-02 0.89772307E+02</pdfrwt>
<totfact> 0.11607196E+03</totfact>
</mgrwt>
</event>
<event>
 5    1  0.9955701E-004  0.1671200E+03  0.7818608E-02  0.1422426E+00
         11   -1    0    0    0    0  0.00000000000E+00  0.00000000000E+00  0.10000676730E+04  0.10000676730E+04  0.51100000000E-03 0.  1.
         -2   -1    0    0    0  501 -0.00000000000E+00 -0.00000000000E+00 -0.39457126853E+02  0.39457126936E+02  0.25500000000E-02 0. -1.
         11    1    1    2    0    0 -0.15549735479E+03 -0.72359236831E+02  0.62646486593E+03  0.64951790949E+03  0.51100000000E-03 0.  1.
         22    1    1    2    0    0  0.47471773974E+01  0.17134884951E+02 -0.15981428074E+01  0.17852003696E+02  0.00000000000E+00 0. -1.
         -2    1    1    2    0  501  0.15075017740E+03  0.55224351880E+02  0.33574382300E+03  0.37215488673E+03  0.25500000000E-02 0. -1.
<mgrwt>
<rscale>  0 0.54510996E+02</rscale>
<asrwt>0</asrwt>
<pdfrwt beam="1">  1       11 0.10000000E+01 0.16712004E+03</pdfrwt>
<pdfrwt beam="2">  1       -2 0.60707378E-02 0.54510996E+02</pdfrwt>
<totfact> 0.10147631E+03</totfact>
</mgrwt>
</event>
<event>
 5    1  0.9955701E-004  0.1465485E+03  0.7818608E-02  0.1444590E+00
         11   -1    0    0    0    0  0.00000000000E+00  0.00000000000E+00  0.99996965540E+03  0.99996965540E+03  0.51100000000E-03 0. -1.
          2   -1    0    0  501    0 -0.00000000000E+00 -0.00000000000E+00 -0.31800593221E+02  0.31800593324E+02  0.25500000000E-02 0. -1.
         11    1    1    2    0    0  0.13632162506E+03  0.65724139450E+02  0.68148037640E+03  0.69808219529E+03  0.51100000000E-03 0. -1.
         22    1    1    2    0    0 -0.16916573315E+02  0.28476899571E+01  0.17750110874E+01  0.17246172189E+02  0.00000000000E+00 0. -1.
          2    1    1    2  501    0 -0.11940505175E+03 -0.68571829407E+02  0.28491367470E+03  0.31644188125E+03  0.25500000000E-02 0. -1.
<mgrwt>
<rscale>  0 0.50139594E+02</rscale>
<asrwt>0</asrwt>
<pdfrwt beam="1">  1       11 0.10000000E+01 0.14654851E+03</pdfrwt>
<pdfrwt beam="2">  1        2 0.48922504E-02 0.50139594E+02</pdfrwt>
<totfact> 0.17159828E+03</totfact>
</mgrwt>
</event>
<event>
 5    1  0.9955701E-004  0.1538002E+03  0.7818608E-02  0.1375357E+00
         11   -1    0    0    0    0  0.00000000000E+00  0.00000000000E+00  0.10000298973E+04  0.10000298973E+04  0.51100000000E-03 0. -1.
          2   -1    0    0  501    0 -0.00000000000E+00 -0.00000000000E+00 -0.55681420569E+02  0.55681420628E+02  0.25500000000E-02 0. -1.
         11    1    1    2    0    0 -0.12448538774E+03  0.96723543592E+02  0.83026882232E+03  0.84510258132E+03  0.51100000000E-03 0. -1.
         22    1    1    2    0    0  0.45404895201E+01 -0.27695926303E+02 -0.44269866784E+01  0.28412648414E+02  0.00000000000E+00 0. -1.
          2    1    1    2  501    0  0.11994489822E+03 -0.69027617289E+02  0.11850664106E+03  0.18219608816E+03  0.25500000000E-02 0. -1.
<mgrwt>
<rscale>  0 0.65700084E+02</rscale>
<asrwt>0</asrwt>
<pdfrwt beam="1">  1       11 0.10000000E+01 0.15380018E+03</pdfrwt>
<pdfrwt beam="2">  1        2 0.85666283E-02 0.65700084E+02</pdfrwt>
<totfact> 0.87630263E+02</totfact>
</mgrwt>
</event>
<event>
 5    1  0.9955701E-004  0.4163845E+02  0.7818608E-02  0.1720653E+00
         11   -1    0    0    0    0  0.00000000000E+00  0.00000000000E+00  0.10002418387E+04  0.10002418387E+04  0.51100000000E-03 0.  1.
          2   -1    0    0  501    0 -0.00000000000E+00 -0.00000000000E+00 -0.40284460173E+01  0.40284468244E+01  0.25500000000E-02 0.  1.
         11    1    1    2    0    0 -0.38507950356E+02  0.31564837400E+02  0.23581163587E+03  0.24101105537E+03  0.51100000000E-03 0.  1.
         22    1    1    2    0    0  0.51025869145E+01 -0.96269133256E+01  0.32832173758E+02  0.34592853122E+02  0.00000000000E+00 0.  1.
          2    1    1    2  501    0  0.33405363441E+02 -0.21937924074E+02  0.72756958306E+03  0.72866637703E+03  0.25500000000E-02 0.  1.
<mgrwt>
<rscale>  0 0.21299652E+02</rscale>
<asrwt>0</asrwt>
<pdfrwt beam="1">  1       11 0.10000000E+01 0.41638449E+02</pdfrwt>
<pdfrwt beam="2">  1        2 0.61991085E-03 0.21299652E+02</pdfrwt>
<totfact> 0.21569095E+04</totfact>
</mgrwt>
</event>
<event>
 5    1  0.9955701E-004  0.1294646E+03  0.7818608E-02  0.1228252E+00
         11   -1    0    0    0    0  0.00000000000E+00  0.00000000000E+00  0.10001115829E+04  0.10001115829E+04  0.51100000000E-03 0.  1.
          2   -1    0    0  501    0 -0.00000000000E+00 -0.00000000000E+00 -0.31140986902E+02  0.31140987006E+02  0.25500000000E-02 0.  1.
         11    1    1    2    0    0  0.84593829736E+02  0.13484793390E+03  0.58244839692E+03  0.60380975181E+03  0.51100000000E-03 0.  1.
         22    1    1    2    0    0 -0.43034041860E+02 -0.22282163939E+02  0.19900072122E+03  0.20481628508E+03  0.00000000000E+00 0. -1.
          2    1    1    2  501    0 -0.41559787876E+02 -0.11256576996E+03  0.18752147783E+03  0.22262653299E+03  0.25500000000E-02 0.  1.
<mgrwt>
<rscale>  0 0.12946464E+03</rscale>
<asrwt>0</asrwt>
<pdfrwt beam="1">  1       11 0.10000000E+01 0.48460536E+02</pdfrwt>
<pdfrwt beam="2">  1        2 0.47914555E-02 0.12946464E+03</pdfrwt>
<totfact> 0.19298684E+03</totfact>
</mgrwt>
</event>
<event>
 5    1  0.9955701E-004  0.1104234E+03  0.7818608E-02  0.1560371E+00
         11   -1    0    0    0    0  0.00000000000E+00  0.00000000000E+00  0.10001353983E+04  0.10001353983E+04  0.51100000000E-03 0. -1.
          2   -1    0    0  501    0 -0.00000000000E+00 -0.00000000000E+00 -0.28561301678E+02  0.28561301792E+02  0.25500000000E-02 0. -1.
         11    1    1    2    0    0  0.36611324855E+02  0.10530635021E+03  0.62286643199E+03  0.63276568223E+03  0.51100000000E-03 0. -1.
         22    1    1    2    0    0  0.83378968282E+01 -0.60310502270E+01 -0.13903884181E+02  0.17297747994E+02  0.00000000000E+00 0. -1.
          2    1    1    2  501    0 -0.44949221683E+02 -0.99275299982E+02  0.36261154882E+03  0.37863326988E+03  0.25500000000E-02 0. -1.
<mgrwt>
<rscale>  0 0.33709201E+02</rscale>
<asrwt>0</asrwt>
<pdfrwt beam="1">  1       11 0.10000000E+01 0.11042338E+03</pdfrwt>
<pdfrwt beam="2">  1        2 0.43946412E-02 0.33709201E+02</pdfrwt>
<totfact> 0.18755212E+03</totfact>
</mgrwt>
</event>
<event>
 5    1  0.9955701E-004  0.1406925E+03  0.7818608E-02  0.1414863E+00
         11   -1    0    0    0    0  0.00000000000E+00  0.00000000000E+00  0.10001897888E+04  0.10001897888E+04  0.51100000000E-03 0. -1.
          2   -1    0    0  501    0 -0.00000000000E+00 -0.00000000000E+00 -0.67428199768E+02  0.67428199816E+02  0.25500000000E-02 0. -1.
         11    1    1    2    0    0  0.42821926722E+02 -0.13447099586E+03  0.21054783218E+03  0.25346904302E+03  0.51100000000E-03 0. -1.
         22    1    1    2    0    0 -0.21837240466E+02 -0.49333813089E+01 -0.36298552479E+02  0.42647253539E+02  0.00000000000E+00 0. -1.
          2    1    1    2  501    0 -0.20984686256E+02  0.13940437716E+03  0.75851230935E+03  0.77150169207E+03  0.25500000000E-02 0. -1.
<mgrwt>
<rscale>  0 0.56122737E+02</rscale>
<asrwt>0</asrwt>
<pdfrwt beam="1">  1       11 0.10000000E+01 0.14069250E+03</pdfrwt>
<pdfrwt beam="2">  1        2 0.10375538E-01 0.56122737E+02</pdfrwt>
<totfact> 0.68790019E+02</totfact>
</mgrwt>
</event>
<event>
 5    1  0.9955701E-004  0.1154128E+03  0.7818608E-02  0.1302012E+00
         11   -1    0    0    0    0  0.00000000000E+00  0.00000000000E+00  0.10001825035E+04  0.10001825035E+04  0.51100000000E-03 0. -1.
          2   -1    0    0  501    0 -0.00000000000E+00 -0.00000000000E+00 -0.49373683607E+02  0.49373683673E+02  0.25500000000E-02 0. -1.
         11    1    1    2    0    0 -0.83712136390E+00  0.16187611425E+03  0.58109834744E+03  0.60322455730E+03  0.51100000000E-03 0. -1.
         22    1    1    2    0    0  0.67068906701E+01 -0.70407516243E+02  0.56960834479E+01  0.70955240065E+02  0.00000000000E+00 0. -1.
          2    1    1    2  501    0 -0.58697693062E+01 -0.91468598011E+02  0.36401438904E+03  0.37537638984E+03  0.25500000000E-02 0. -1.
<mgrwt>
<rscale>  0 0.90347693E+02</rscale>
<asrwt>0</asrwt>
<pdfrwt beam="1">  1       11 0.10000000E+01 0.11541275E+03</pdfrwt>
<pdfrwt beam="2">  1        2 0.75973374E-02 0.90347693E+02</pdfrwt>
<totfact> 0.10406503E+03</totfact>
</mgrwt>
</event>
<event>
 5    1  0.9955701E-004  0.1684224E+03  0.7818608E-02  0.1316292E+00
         11   -1    0    0    0    0  0.00000000000E+00  0.00000000000E+00  0.10002294686E+04  0.10002294686E+04  0.51100000000E-03 0.  1.
         -2   -1    0    0    0  501 -0.00000000000E+00 -0.00000000000E+00 -0.20192990474E+03  0.20192990475E+03  0.25500000000E-02 0. -1.
         11    1    1    2    0    0 -0.14506277824E+03  0.79822957423E+02  0.88609999266E+03  0.90143669281E+03  0.51100000000E-03 0.  1.
         22    1    1    2    0    0 -0.37039105407E+02  0.20979225343E+02 -0.82129598232E+02  0.92505643780E+02  0.00000000000E+00 0. -1.
         -2    1    1    2    0  501  0.18210188364E+03 -0.10080218277E+03 -0.56708305506E+01  0.20821703677E+03  0.25500000000E-02 0. -1.
<mgrwt>
<rscale>  0 0.84672196E+02</rscale>
<asrwt>0</asrwt>
<pdfrwt beam="1">  1       11 0.10000000E+01 0.16842237E+03</pdfrwt>
<pdfrwt beam="2">  1       -2 0.31073267E-01 0.84672196E+02</pdfrwt>
<totfact> 0.75876683E+01</totfact>
</mgrwt>
</event>
<event>
 5    1  0.9955701E-004  0.1277306E+03  0.7818608E-02  0.1459409E+00
         11   -1    0    0    0    0  0.00000000000E+00  0.00000000000E+00  0.10001779372E+04  0.10001779372E+04  0.51100000000E-03 0. -1.
          2   -1    0    0  501    0 -0.00000000000E+00 -0.00000000000E+00 -0.26638416839E+02  0.26638416961E+02  0.25500000000E-02 0. -1.
         11    1    1    2    0    0 -0.10479966554E+03  0.83752654341E+02  0.57853935378E+03  0.59388994004E+03  0.51100000000E-03 0. -1.
         22    1    1    2    0    0  0.43999322817E+01 -0.17094533138E+02 -0.22537601382E+01  0.17794996546E+02  0.00000000000E+00 0. -1.
          2    1    1    2  501    0  0.10039973325E+03 -0.66658121202E+02  0.39725392672E+03  0.41513141758E+03  0.25500000000E-02 0. -1.
<mgrwt>
<rscale>  0 0.47483274E+02</rscale>
<asrwt>0</asrwt>
<pdfrwt beam="1">  1       11 0.10000000E+01 0.12773056E+03</pdfrwt>
<pdfrwt beam="2">  1        2 0.40989471E-02 0.47483274E+02</pdfrwt>
<totfact> 0.21356633E+03</totfact>
</mgrwt>
</event>
<event>
 5    1  0.9955701E-004  0.7987192E+02  0.7818608E-02  0.1329415E+00
         11   -1    0    0    0    0  0.00000000000E+00  0.00000000000E+00  0.10000662383E+04  0.10000662383E+04  0.51100000000E-03 0. -1.
          2   -1    0    0  501    0 -0.00000000000E+00 -0.00000000000E+00 -0.11450866833E+02  0.11450867117E+02  0.25500000000E-02 0. -1.
         11    1    1    2    0    0  0.19224908963E+02 -0.25428624968E+02  0.10021019295E+03  0.10515842745E+03  0.51100000000E-03 0. -1.
         22    1    1    2    0    0 -0.44254555643E+02 -0.62558484952E+02  0.25142086740E+03  0.26283927084E+03  0.00000000000E+00 0. -1.
          2    1    1    2  501    0  0.25029646680E+02  0.87987109920E+02  0.63698431111E+03  0.64351940711E+03  0.25500000000E-02 0. -1.
<mgrwt>
<rscale>  0 0.79871924E+02</rscale>
<asrwt>0</asrwt>
<pdfrwt beam="1">  1       11 0.10000000E+01 0.31878098E+02</pdfrwt>
<pdfrwt beam="2">  1        2 0.17617885E-02 0.79871924E+02</pdfrwt>
<totfact> 0.69356045E+03</totfact>
</mgrwt>
</event>
<event>
 5    1  0.9955701E-004  0.1296879E+03  0.7818608E-02  0.1479896E+00
         11   -1    0    0    0    0  0.00000000000E+00  0.00000000000E+00  0.10001733610E+04  0.10001733610E+04  0.51100000000E-03 0. -1.
          2   -1    0    0  501    0 -0.00000000000E+00 -0.00000000000E+00 -0.22151590699E+02  0.22151590846E+02  0.25500000000E-02 0. -1.
         11    1    1    2    0    0 -0.49692380164E+02  0.12467553117E+03  0.61093665627E+03  0.62550533067E+03  0.51100000000E-03 0. -1.
         22    1    1    2    0    0 -0.52751632653E+01 -0.14053896561E+02  0.78496679580E+01  0.16939794658E+02  0.00000000000E+00 0. -1.
          2    1    1    2  501    0  0.54967543430E+02 -0.11062163461E+03  0.35923544603E+03  0.37987982648E+03  0.25500000000E-02 0. -1.
<mgrwt>
<rscale>  0 0.44122382E+02</rscale>
<asrwt>0</asrwt>
<pdfrwt beam="1">  1       11 0.10000000E+01 0.12968787E+03</pdfrwt>
<pdfrwt beam="2">  1        2 0.34085277E-02 0.44122382E+02</pdfrwt>
<totfact> 0.26812120E+03</totfact>
</mgrwt>
</event>
<event>
 5    1  0.9955701E-004  0.1402944E+03  0.7818608E-02  0.1442612E+00
         11   -1    0    0    0    0  0.00000000000E+00  0.00000000000E+00  0.10002690134E+04  0.10002690134E+04  0.51100000000E-03 0. -1.
          2   -1    0    0  501    0 -0.00000000000E+00 -0.00000000000E+00 -0.37209508261E+02  0.37209508348E+02  0.25500000000E-02 0. -1.
         11    1    1    2    0    0  0.11666610643E+03  0.71301286242E+02  0.53333681774E+03  0.55058424875E+03  0.51100000000E-03 0. -1.
         22    1    1    2    0    0 -0.16932462507E+01  0.18105770940E+02 -0.11995122360E+02  0.21784604303E+02  0.00000000000E+00 0. -1.
          2    1    1    2  501    0 -0.11497286018E+03 -0.89407057182E+02  0.44171780973E+03  0.46510966867E+03  0.25500000000E-02 0. -1.
<mgrwt>
<rscale>  0 0.50509622E+02</rscale>
<asrwt>0</asrwt>
<pdfrwt beam="1">  1       11 0.10000000E+01 0.14029440E+03</pdfrwt>
<pdfrwt beam="2">  1        2 0.57260796E-02 0.50509622E+02</pdfrwt>
<totfact> 0.14087681E+03</totfact>
</mgrwt>
</event>
<event>
 5    1  0.9955701E-004  0.9968071E+02  0.7818608E-02  0.1288338E+00
         11   -1    0    0    0    0  0.00000000000E+00  0.00000000000E+00  0.10003039367E+04  0.10003039367E+04  0.51100000000E-03 0. -1.
         -2   -1    0    0    0  501 -0.00000000000E+00 -0.00000000000E+00 -0.10251653091E+02  0.10251653409E+02  0.25500000000E-02 0.  1.
         11    1    1    2    0    0  0.39502556096E+02 -0.94381877545E+01  0.11492073298E+03  0.12188644795E+03  0.51100000000E-03 0. -1.
         22    1    1    2    0    0  0.56421112907E+02  0.12625224325E+01  0.26044204403E+03  0.26648638660E+03  0.00000000000E+00 0. -1.
         -2    1    1    2    0  501 -0.95923669004E+02  0.81756653220E+01  0.61468950658E+03  0.62218275554E+03  0.25500000000E-02 0.  1.
<mgrwt>
<rscale>  0 0.96271448E+02</rscale>
<asrwt>0</asrwt>
<pdfrwt beam="1">  1       11 0.10000000E+01 0.99680712E+02</pdfrwt>
<pdfrwt beam="2">  1       -2 0.15776567E-02 0.96271448E+02</pdfrwt>
<totfact> 0.76696156E+03</totfact>
</mgrwt>
</event>
<event>
 5    1  0.9955701E-004  0.2014049E+03  0.7818608E-02  0.1453492E+00
         11   -1    0    0    0    0  0.00000000000E+00  0.00000000000E+00  0.99983599794E+03  0.99983599794E+03  0.51100000000E-03 0.  1.
          2   -1    0    0  501    0 -0.00000000000E+00 -0.00000000000E+00 -0.15844783427E+03  0.15844783429E+03  0.25500000000E-02 0. -1.
         11    1    1    2    0    0 -0.15142375079E+03 -0.13112975125E+03  0.88408593390E+03  0.90649440290E+03  0.51100000000E-03 0.  1.
         22    1    1    2    0    0 -0.90418699784E+01 -0.74076061860E+01 -0.37984388764E+02  0.39742192087E+02  0.00000000000E+00 0.  1.
          2    1    1    2  501    0  0.16046562077E+03  0.13853735744E+03 -0.47133814585E+01  0.21204723725E+03  0.25500000000E-02 0. -1.
<mgrwt>
<rscale>  0 0.48519912E+02</rscale>
<asrwt>0</asrwt>
<pdfrwt beam="1">  1       11 0.10000000E+01 0.20140492E+03</pdfrwt>
<pdfrwt beam="2">  1        2 0.24372591E-01 0.48519912E+02</pdfrwt>
<totfact> 0.26067103E+02</totfact>
</mgrwt>
</event>
<event>
 5    1  0.9955701E-004  0.1154402E+03  0.7818608E-02  0.1542737E+00
         11   -1    0    0    0    0  0.00000000000E+00  0.00000000000E+00  0.10003057946E+04  0.10003057946E+04  0.51100000000E-03 0. -1.
          2   -1    0    0  501    0 -0.00000000000E+00 -0.00000000000E+00 -0.27642589874E+02  0.27642589991E+02  0.25500000000E-02 0. -1.
         11    1    1    2    0    0  0.80687378401E+02 -0.92890974023E+02  0.16699178297E+03  0.20742574977E+03  0.51100000000E-03 0. -1.
         22    1    1    2    0    0 -0.15400401388E+01  0.10913121847E+02  0.55723037445E+01  0.12349838909E+02  0.00000000000E+00 0. -1.
          2    1    1    2  501    0 -0.79147338262E+02  0.81977852176E+02  0.80009911799E+03  0.80817279589E+03  0.25500000000E-02 0. -1.
<mgrwt>
<rscale>  0 0.35669234E+02</rscale>
<asrwt>0</asrwt>
<pdfrwt beam="1">  1       11 0.10000000E+01 0.11544016E+03</pdfrwt>
<pdfrwt beam="2">  1        2 0.42540065E-02 0.35669234E+02</pdfrwt>
<totfact> 0.19678909E+03</totfact>
</mgrwt>
</event>
<event>
 5    1  0.9955701E-004  0.6264249E+02  0.7818608E-02  0.1600258E+00
         11   -1    0    0    0    0  0.00000000000E+00  0.00000000000E+00  0.10003856141E+04  0.10003856141E+04  0.51100000000E-03 0. -1.
          2   -1    0    0  501    0 -0.00000000000E+00 -0.00000000000E+00 -0.96971280136E+01  0.96971283489E+01  0.25500000000E-02 0. -1.
         11    1    1    2    0    0 -0.54069434198E+02 -0.30038689368E+02  0.34447688943E+03  0.34998593389E+03  0.51100000000E-03 0. -1.
         22    1    1    2    0    0 -0.70727586372E+01  0.12291070356E+02  0.39958063078E+01  0.14732983176E+02  0.00000000000E+00 0. -1.
          2    1    1    2  501    0  0.61142192835E+02  0.17747619012E+02  0.64221579038E+03  0.64536382541E+03  0.25500000000E-02 0. -1.
<mgrwt>
<rscale>  0 0.29804671E+02</rscale>
<asrwt>0</asrwt>
<pdfrwt beam="1">  1       11 0.10000000E+01 0.62642485E+02</pdfrwt>
<pdfrwt beam="2">  1        2 0.14924411E-02 0.29804671E+02</pdfrwt>
<totfact> 0.73674399E+03</totfact>
</mgrwt>
</event>
<event>
 5    1  0.9955701E-004  0.2568780E+03  0.7818608E-02  0.1322887E+00
         11   -1    0    0    0    0  0.00000000000E+00  0.00000000000E+00  0.10003430960E+04  0.10003430960E+04  0.51100000000E-03 0. -1.
          2   -1    0    0  501    0 -0.00000000000E+00 -0.00000000000E+00 -0.78216126831E+02  0.78216126872E+02  0.25500000000E-02 0. -1.
         11    1    1    2    0    0  0.23023859533E+03  0.11010883106E+03  0.56516409001E+03  0.62011629078E+03  0.51100000000E-03 0. -1.
         22    1    1    2    0    0 -0.77328696773E+01  0.25149698529E+02  0.22876234031E+02  0.34865838481E+02  0.00000000000E+00 0. -1.
          2    1    1    2  501    0 -0.22250572565E+03 -0.13525852959E+03  0.33408664516E+03  0.42357709364E+03  0.25500000000E-02 0. -1.
<mgrwt>
<rscale>  0 0.82212490E+02</rscale>
<asrwt>0</asrwt>
<pdfrwt beam="1">  1       11 0.10000000E+01 0.25687805E+03</pdfrwt>
<pdfrwt beam="2">  1        2 0.12037379E-01 0.82212490E+02</pdfrwt>
<totfact> 0.59113287E+02</totfact>
</mgrwt>
</event>
<event>
 5    1  0.9955701E-004  0.4467509E+02  0.7818608E-02  0.1692863E+00
         11   -1    0    0    0    0  0.00000000000E+00  0.00000000000E+00  0.10001639783E+04  0.10001639783E+04  0.51100000000E-03 0. -1.
          2   -1    0    0  501    0 -0.00000000000E+00 -0.00000000000E+00 -0.13096177846E+02  0.13096178094E+02  0.25500000000E-02 0. -1.
         11    1    1    2    0    0 -0.84311085836E+01  0.51941459037E+02  0.31444317591E+03  0.31881579264E+03  0.51100000000E-03 0. -1.
         22    1    1    2    0    0  0.67690443407E+01 -0.96110166891E+01 -0.68797903301E+01  0.13620687136E+02  0.00000000000E+00 0. -1.
          2    1    1    2  501    0  0.16620642429E+01 -0.42330442348E+02  0.67950441492E+03  0.68082367667E+03  0.25500000000E-02 0. -1.
<mgrwt>
<rscale>  0 0.22916750E+02</rscale>
<asrwt>0</asrwt>
<pdfrwt beam="1">  1       11 0.10000000E+01 0.44675092E+02</pdfrwt>
<pdfrwt beam="2">  1        2 0.20151269E-02 0.22916750E+02</pdfrwt>
<totfact> 0.47564064E+03</totfact>
</mgrwt>
</event>
<event>
 5    1  0.9955701E-004  0.2782973E+03  0.7818608E-02  0.1225227E+00
         11   -1    0    0    0    0  0.00000000000E+00  0.00000000000E+00  0.99999503879E+03  0.99999503879E+03  0.51100000000E-03 0. -1.
          2   -1    0    0  501    0 -0.00000000000E+00 -0.00000000000E+00 -0.13840216599E+03  0.13840216601E+03  0.25500000000E-02 0. -1.
         11    1    1    2    0    0 -0.27713893471E+03  0.59364878967E+02  0.32004622772E+03  0.42750411210E+03  0.51100000000E-03 0. -1.
         22    1    1    2    0    0 -0.66346288580E+00 -0.62144971852E+02 -0.34695116118E+02  0.71177164821E+02  0.00000000000E+00 0. -1.
          2    1    1    2  501    0  0.27780239759E+03  0.27800928849E+01  0.57624176120E+03  0.63971592788E+03  0.25500000000E-02 0. -1.
<mgrwt>
<rscale>  0 0.13151333E+03</rscale>
<asrwt>0</asrwt>
<pdfrwt beam="1">  1       11 0.10000000E+01 0.27829730E+03</pdfrwt>
<pdfrwt beam="2">  1        2 0.21292535E-01 0.13151333E+03</pdfrwt>
<totfact> 0.31279471E+02</totfact>
</mgrwt>
</event>
<event>
 5    1  0.9955701E-004  0.8146594E+02  0.7818608E-02  0.1341724E+00
         11   -1    0    0    0    0  0.00000000000E+00  0.00000000000E+00  0.10001770872E+04  0.10001770872E+04  0.51100000000E-03 0. -1.
          2   -1    0    0  501    0 -0.00000000000E+00 -0.00000000000E+00 -0.69541962838E+01  0.69541967513E+01  0.25500000000E-02 0. -1.
         11    1    1    2    0    0 -0.44030434690E+02  0.47184438678E+02  0.28441468864E+03  0.29164493060E+03  0.51100000000E-03 0. -1.
         22    1    1    2    0    0 -0.16566301123E+02 -0.18175683290E+01  0.59810785448E+02  0.62089257875E+02  0.00000000000E+00 0. -1.
          2    1    1    2  501    0  0.60596735812E+02 -0.45366870349E+02  0.64899741678E+03  0.65339709543E+03  0.25500000000E-02 0. -1.
<mgrwt>
<rscale>  0 0.75697538E+02</rscale>
<asrwt>0</asrwt>
<pdfrwt beam="1">  1       11 0.10000000E+01 0.81465938E+02</pdfrwt>
<pdfrwt beam="2">  1        2 0.10700658E-02 0.75697538E+02</pdfrwt>
<totfact> 0.13517798E+04</totfact>
</mgrwt>
</event>
<event>
 5    1  0.9955701E-004  0.1952912E+03  0.7818608E-02  0.1153774E+00
         11   -1    0    0    0    0  0.00000000000E+00  0.00000000000E+00  0.10002290872E+04  0.10002290872E+04  0.51100000000E-03 0.  1.
          2   -1    0    0  501    0 -0.00000000000E+00 -0.00000000000E+00 -0.22962208187E+03  0.22962208188E+03  0.25500000000E-02 0.  1.
         11    1    1    2    0    0  0.17036911070E+03 -0.71745107099E+02  0.94809935585E+03  0.96595309557E+03  0.51100000000E-03 0.  1.
         22    1    1    2    0    0 -0.24132875252E+02  0.30837498307E+02 -0.61104279160E+02  0.72574650543E+02  0.00000000000E+00 0. -1.
          2    1    1    2  501    0 -0.14623623545E+03  0.40907608792E+02 -0.11638807136E+03  0.19132342297E+03  0.25500000000E-02 0.  1.
<mgrwt>
<rscale>  0 0.19529122E+03</rscale>
<asrwt>0</asrwt>
<pdfrwt beam="1">  1       11 0.10000000E+01 0.18485939E+03</pdfrwt>
<pdfrwt beam="2">  1        2 0.35334566E-01 0.19529122E+03</pdfrwt>
<totfact> 0.18075311E+02</totfact>
</mgrwt>
</event>
<event>
 5    1  0.9955701E-004  0.1184955E+03  0.7818608E-02  0.1424381E+00
         11   -1    0    0    0    0  0.00000000000E+00  0.00000000000E+00  0.10002461305E+04  0.10002461305E+04  0.51100000000E-03 0.  1.
          2   -1    0    0  501    0 -0.00000000000E+00 -0.00000000000E+00 -0.20784543864E+02  0.20784544021E+02  0.25500000000E-02 0.  1.
         11    1    1    2    0    0 -0.75995191813E+02  0.10584162960E+03  0.55036880891E+03  0.56558248342E+03  0.51100000000E-03 0.  1.
         22    1    1    2    0    0  0.21004781533E+02 -0.13003523037E+02  0.18362661904E+02  0.30781159998E+02  0.00000000000E+00 0. -1.
          2    1    1    2  501    0  0.54990410281E+02 -0.92838106561E+02  0.41073011582E+03  0.42466703109E+03  0.25500000000E-02 0.  1.
<mgrwt>
<rscale>  0 0.54104750E+02</rscale>
<asrwt>0</asrwt>
<pdfrwt beam="1">  1       11 0.10000000E+01 0.11849554E+03</pdfrwt>
<pdfrwt beam="2">  1        2 0.31984091E-02 0.54104750E+02</pdfrwt>
<totfact> 0.29877477E+03</totfact>
</mgrwt>
</event>
<event>
 5    1  0.9955701E-004  0.1304765E+03  0.7818608E-02  0.1226750E+00
         11   -1    0    0    0    0  0.00000000000E+00  0.00000000000E+00  0.10003778575E+04  0.10003778575E+04  0.51100000000E-03 0. -1.
          2   -1    0    0  501    0 -0.00000000000E+00 -0.00000000000E+00 -0.28771385427E+02  0.28771385540E+02  0.25500000000E-02 0. -1.
         11    1    1    2    0    0  0.15222060180E+02 -0.53421234301E+02  0.31586117315E+03  0.32070830998E+03  0.51100000000E-03 0. -1.
         22    1    1    2    0    0  0.12188966258E+03  0.22094694938E+02  0.36534800893E+03  0.38577769896E+03  0.00000000000E+00 0. -1.
          2    1    1    2  501    0 -0.13711172276E+03  0.31326539363E+02  0.29039728995E+03  0.32266323405E+03  0.25500000000E-02 0. -1.
<mgrwt>
<rscale>  0 0.13047647E+03</rscale>
<asrwt>0</asrwt>
<pdfrwt beam="1">  1       11 0.10000000E+01 0.55547632E+02</pdfrwt>
<pdfrwt beam="2">  1        2 0.44280394E-02 0.13047647E+03</pdfrwt>
<totfact> 0.21415847E+03</totfact>
</mgrwt>
</event>
<event>
 5    1  0.9955701E-004  0.2230478E+03  0.7818608E-02  0.1287421E+00
         11   -1    0    0    0    0  0.00000000000E+00  0.00000000000E+00  0.10001305992E+04  0.10001305992E+04  0.51100000000E-03 0. -1.
          2   -1    0    0  501    0 -0.00000000000E+00 -0.00000000000E+00 -0.18195433536E+03  0.18195433537E+03  0.25500000000E-02 0. -1.
         11    1    1    2    0    0 -0.12219511292E+03 -0.19657638295E+03  0.70523231287E+03  0.74224425567E+03  0.51100000000E-03 0. -1.
         22    1    1    2    0    0 -0.12980435237E+02  0.39851399929E+02 -0.12066556210E+03  0.12773724458E+03  0.00000000000E+00 0. -1.
          2    1    1    2  501    0  0.13517554815E+03  0.15672498302E+03  0.23360951311E+03  0.31210343437E+03  0.25500000000E-02 0. -1.
<mgrwt>
<rscale>  0 0.96687166E+02</rscale>
<asrwt>0</asrwt>
<pdfrwt beam="1">  1       11 0.10000000E+01 0.22304785E+03</pdfrwt>
<pdfrwt beam="2">  1        2 0.27996630E-01 0.96687166E+02</pdfrwt>
<totfact> 0.22950091E+02</totfact>
</mgrwt>
</event>
<event>
 5    1  0.9955701E-004  0.1231782E+03  0.7818608E-02  0.1386916E+00
         11   -1    0    0    0    0  0.00000000000E+00  0.00000000000E+00  0.10004072041E+04  0.10004072041E+04  0.51100000000E-03 0. -1.
          2   -1    0    0  501    0 -0.00000000000E+00 -0.00000000000E+00 -0.29688809810E+02  0.29688809920E+02  0.25500000000E-02 0. -1.
         11    1    1    2    0    0 -0.11218027873E+02 -0.11810156220E+03  0.65098169346E+03  0.66170309684E+03  0.51100000000E-03 0. -1.
         22    1    1    2    0    0  0.25645515841E+02 -0.18963863980E+02  0.17890490472E+02  0.36570346855E+02  0.00000000000E+00 0.  1.
          2    1    1    2  501    0 -0.14427487967E+02  0.13706542618E+03  0.30184621034E+03  0.33182257031E+03  0.25500000000E-02 0. -1.
<mgrwt>
<rscale>  0 0.62680356E+02</rscale>
<asrwt>0</asrwt>
<pdfrwt beam="1">  1       11 0.10000000E+01 0.12317824E+03</pdfrwt>
<pdfrwt beam="2">  1        2 0.45693690E-02 0.62680356E+02</pdfrwt>
<totfact> 0.19167637E+03</totfact>
</mgrwt>
</event>
<event>
 5    1  0.9955701E-004  0.2093946E+03  0.7818608E-02  0.1278234E+00
         11   -1    0    0    0    0  0.00000000000E+00  0.00000000000E+00  0.10003904319E+04  0.10003904319E+04  0.51100000000E-03 0. -1.
          2   -1    0    0  501    0 -0.00000000000E+00 -0.00000000000E+00 -0.44471712630E+03  0.44471712631E+03  0.25500000000E-02 0.  1.
         11    1    1    2    0    0  0.11176709136E+03  0.17721795268E+03  0.94658932475E+03  0.96949957978E+03  0.51100000000E-03 0. -1.
         22    1    1    2    0    0  0.39210288346E+02 -0.28890184596E+02 -0.13496639542E+03  0.14348525141E+03  0.00000000000E+00 0. -1.
          2    1    1    2  501    0 -0.15097737971E+03 -0.14832776808E+03 -0.25594962368E+03  0.33212272707E+03  0.25500000000E-02 0.  1.
<mgrwt>
<rscale>  0 0.10098702E+03</rscale>
<asrwt>0</asrwt>
<pdfrwt beam="1">  1       11 0.10000000E+01 0.20939464E+03</pdfrwt>
<pdfrwt beam="2">  1        2 0.68444730E-01 0.10098702E+03</pdfrwt>
<totfact> 0.89244675E+01</totfact>
</mgrwt>
</event>
<event>
 5    1  0.9955701E-004  0.1880085E+03  0.7818608E-02  0.1449949E+00
         11   -1    0    0    0    0  0.00000000000E+00  0.00000000000E+00  0.10004172626E+04  0.10004172626E+04  0.51100000000E-03 0. -1.
          2   -1    0    0  501    0 -0.00000000000E+00 -0.00000000000E+00 -0.13105797216E+03  0.13105797218E+03  0.25500000000E-02 0.  1.
         11    1    1    2    0    0  0.18619925555E+03  0.19188733023E+02  0.89929954440E+03  0.91857391690E+03  0.51100000000E-03 0. -1.
         22    1    1    2    0    0  0.96211132465E+01  0.85210309376E+01 -0.38521702476E+01  0.13416892485E+02  0.00000000000E+00 0. -1.
          2    1    1    2  501    0 -0.19582036880E+03 -0.27709763961E+02 -0.26088083718E+02  0.19948442539E+03  0.25500000000E-02 0.  1.
<mgrwt>
<rscale>  0 0.49155711E+02</rscale>
<asrwt>0</asrwt>
<pdfrwt beam="1">  1       11 0.10000000E+01 0.18800846E+03</pdfrwt>
<pdfrwt beam="2">  1        2 0.20171178E-01 0.49155711E+02</pdfrwt>
<totfact> 0.31993710E+02</totfact>
</mgrwt>
</event>
<event>
 5    1  0.9955701E-004  0.3258429E+02  0.7818608E-02  0.1693471E+00
         11   -1    0    0    0    0  0.00000000000E+00  0.00000000000E+00  0.10007055044E+04  0.10007055044E+04  0.51100000000E-03 0. -1.
          2   -1    0    0  501    0 -0.00000000000E+00 -0.00000000000E+00 -0.45415861598E+01  0.45415868757E+01  0.25500000000E-02 0. -1.
         11    1    1    2    0    0  0.16414159115E+02  0.20096591705E+02  0.53950497086E+02  0.59866131942E+02  0.51100000000E-03 0. -1.
         22    1    1    2    0    0 -0.96930213828E+01  0.12811501017E+02  0.49620604961E+02  0.52156434488E+02  0.00000000000E+00 0. -1.
          2    1    1    2  501    0 -0.67211377327E+01 -0.32908092722E+02  0.89259281623E+03  0.89322452488E+03  0.25500000000E-02 0. -1.
<mgrwt>
<rscale>  0 0.22879499E+02</rscale>
<asrwt>0</asrwt>
<pdfrwt beam="1">  1       11 0.10000000E+01 0.32584294E+02</pdfrwt>
<pdfrwt beam="2">  1        2 0.69919854E-03 0.22879499E+02</pdfrwt>
<totfact> 0.18763221E+04</totfact>
</mgrwt>
</event>
<event>
 5    1  0.9955701E-004  0.1544342E+03  0.7818608E-02  0.1202816E+00
         11   -1    0    0    0    0  0.00000000000E+00  0.00000000000E+00  0.10001766282E+04  0.10001766282E+04  0.51100000000E-03 0. -1.
          2   -1    0    0  501    0 -0.00000000000E+00 -0.00000000000E+00 -0.24012807610E+02  0.24012807745E+02  0.25500000000E-02 0. -1.
         11    1    1    2    0    0 -0.11016214285E+03  0.82300554080E+02  0.57616300695E+03  0.59234524519E+03  0.51100000000E-03 0. -1.
         22    1    1    2    0    0 -0.14425214705E+02 -0.22115521361E+01  0.32891376247E+02  0.35983613126E+02  0.00000000000E+00 0. -1.
          2    1    1    2  501    0  0.12458735755E+03 -0.80089001944E+02  0.36710943741E+03  0.39586057765E+03  0.25500000000E-02 0. -1.
<mgrwt>
<rscale>  0 0.14810894E+03</rscale>
<asrwt>0</asrwt>
<pdfrwt beam="1">  1       11 0.10000000E+01 0.15443417E+03</pdfrwt>
<pdfrwt beam="2">  1        2 0.36949305E-02 0.14810894E+03</pdfrwt>
<totfact> 0.27526371E+03</totfact>
</mgrwt>
</event>
<event>
 5    1  0.9955701E-004  0.1416074E+03  0.7818608E-02  0.1514625E+00
         11   -1    0    0    0    0  0.00000000000E+00  0.00000000000E+00  0.10003088310E+04  0.10003088310E+04  0.51100000000E-03 0. -1.
          2   -1    0    0  501    0 -0.00000000000E+00 -0.00000000000E+00 -0.52559032852E+02  0.52559032914E+02  0.25500000000E-02 0. -1.
         11    1    1    2    0    0 -0.14219486685E+03  0.86668992026E+01  0.84942671400E+03  0.86128986860E+03  0.51100000000E-03 0. -1.
         22    1    1    2    0    0  0.50505353857E+01 -0.95679578294E+01 -0.11565443666E+02  0.15837083441E+02  0.00000000000E+00 0. -1.
          2    1    1    2  501    0  0.13714433147E+03  0.90105862680E+00  0.10988852787E+03  0.17574091192E+03  0.25500000000E-02 0. -1.
<mgrwt>
<rscale>  0 0.39141663E+02</rscale>
<asrwt>0</asrwt>
<pdfrwt beam="1">  1       11 0.10000000E+01 0.14160739E+03</pdfrwt>
<pdfrwt beam="2">  1        2 0.80885020E-02 0.39141663E+02</pdfrwt>
<totfact> 0.89978204E+02</totfact>
</mgrwt>
</event>
<event>
 5    1  0.9955701E-004  0.1684445E+03  0.7818608E-02  0.1444104E+00
         11   -1    0    0    0    0  0.00000000000E+00  0.00000000000E+00  0.99978993333E+03  0.99978993333E+03  0.51100000000E-03 0. -1.
          2   -1    0    0  501    0 -0.00000000000E+00 -0.00000000000E+00 -0.83939996968E+02  0.83939997007E+02  0.25500000000E-02 0. -1.
         11    1    1    2    0    0  0.10657197936E+03 -0.13930403002E+03  0.49259349112E+03  0.52288770023E+03  0.51100000000E-03 0. -1.
         22    1    1    2    0    0 -0.13654109299E+02  0.61582907519E+01 -0.54358552596E+02  0.56384496860E+02  0.00000000000E+00 0.  1.
          2    1    1    2  501    0 -0.92917870060E+02  0.13314573927E+03  0.47761499784E+03  0.50445773324E+03  0.25500000000E-02 0. -1.
<mgrwt>
<rscale>  0 0.50230133E+02</rscale>
<asrwt>0</asrwt>
<pdfrwt beam="1">  1       11 0.10000000E+01 0.16844452E+03</pdfrwt>
<pdfrwt beam="2">  1        2 0.12911133E-01 0.50230133E+02</pdfrwt>
<totfact> 0.52858724E+02</totfact>
</mgrwt>
</event>
<event>
 5    1  0.9955701E-004  0.5295319E+03  0.7818608E-02  0.1008184E+00
         11   -1    0    0    0    0  0.00000000000E+00  0.00000000000E+00  0.10002546912E+04  0.10002546912E+04  0.51100000000E-03 0.  1.
          2   -1    0    0  501    0 -0.00000000000E+00 -0.00000000000E+00 -0.28691327540E+03  0.28691327541E+03  0.25500000000E-02 0.  1.
         11    1    1    2    0    0 -0.47352760323E+03  0.16004736603E+03  0.44573450202E+03  0.66971844583E+03  0.51100000000E-03 0.  1.
         22    1    1    2    0    0 -0.26681926890E+02 -0.10706693244E+02  0.36736223827E+02  0.46648779661E+02  0.00000000000E+00 0.  1.
          2    1    1    2  501    0  0.50020953012E+03 -0.14934067279E+03  0.23087068994E+03  0.57080074111E+03  0.25500000000E-02 0.  1.
<mgrwt>
<rscale>  0 0.52202702E+03</rscale>
<asrwt>0</asrwt>
<pdfrwt beam="1">  1       11 0.10000000E+01 0.52953187E+03</pdfrwt>
<pdfrwt beam="2">  1        2 0.44151745E-01 0.52202702E+03</pdfrwt>
<totfact> 0.14252229E+02</totfact>
</mgrwt>
</event>
<event>
 5    1  0.9955701E-004  0.8873858E+02  0.7818608E-02  0.1375038E+00
         11   -1    0    0    0    0  0.00000000000E+00  0.00000000000E+00  0.10004209280E+04  0.10004209280E+04  0.51100000000E-03 0. -1.
          2   -1    0    0  501    0 -0.00000000000E+00 -0.00000000000E+00 -0.20030200731E+02  0.20030200893E+02  0.25500000000E-02 0. -1.
         11    1    1    2    0    0 -0.52762103274E+02 -0.71251173037E+02  0.36027476803E+03  0.37102355407E+03  0.51100000000E-03 0. -1.
         22    1    1    2    0    0  0.43285622319E+02 -0.22470471952E+02  0.44076215048E+02  0.65736443030E+02  0.00000000000E+00 0. -1.
          2    1    1    2  501    0  0.94764809555E+01  0.93721644990E+02  0.57603974416E+03  0.58369113175E+03  0.25500000000E-02 0. -1.
<mgrwt>
<rscale>  0 0.65786230E+02</rscale>
<asrwt>0</asrwt>
<pdfrwt beam="1">  1       11 0.10000000E+01 0.88738584E+02</pdfrwt>
<pdfrwt beam="2">  1        2 0.30828664E-02 0.65786230E+02</pdfrwt>
<totfact> 0.32111161E+03</totfact>
</mgrwt>
</event>
<event>
 5    1  0.9955701E-004  0.3021043E+03  0.7818608E-02  0.1223699E+00
         11   -1    0    0    0    0  0.00000000000E+00  0.00000000000E+00  0.10003063028E+04  0.10003063028E+04  0.51100000000E-03 0. -1.
          2   -1    0    0  501    0 -0.00000000000E+00 -0.00000000000E+00 -0.45244808175E+03  0.45244808175E+03  0.25500000000E-02 0. -1.
         11    1    1    2    0    0  0.22472225595E+02  0.30302760164E+03  0.89216614146E+03  0.94249199055E+03  0.51100000000E-03 0. -1.
         22    1    1    2    0    0  0.52627116452E+02 -0.24781331006E+02 -0.15471596525E+03  0.16528992001E+03  0.00000000000E+00 0.  1.
          2    1    1    2  501    0 -0.75099342047E+02 -0.27824627063E+03 -0.18959195521E+03  0.34497247395E+03  0.25500000000E-02 0. -1.
<mgrwt>
<rscale>  0 0.13256453E+03</rscale>
<asrwt>0</asrwt>
<pdfrwt beam="1">  1       11 0.10000000E+01 0.30210433E+03</pdfrwt>
<pdfrwt beam="2">  1        2 0.69628716E-01 0.13256453E+03</pdfrwt>
<totfact> 0.87380618E+01</totfact>
</mgrwt>
</event>
<event>
 5    1  0.9955701E-004  0.2614054E+03  0.7818608E-02  0.1375431E+00
         11   -1    0    0    0    0  0.00000000000E+00  0.00000000000E+00  0.99989267377E+03  0.99989267377E+03  0.51100000000E-03 0. -1.
         -2   -1    0    0    0  501 -0.00000000000E+00 -0.00000000000E+00 -0.14595605883E+03  0.14595605885E+03  0.25500000000E-02 0.  1.
         11    1    1    2    0    0 -0.25998545445E+03  0.42120228698E+02  0.81864218328E+03  0.85996603098E+03  0.51100000000E-03 0. -1.
         22    1    1    2    0    0  0.95829568347E+01 -0.13435194881E+02 -0.21912639128E+02  0.27431756720E+02  0.00000000000E+00 0. -1.
         -2    1    1    2    0  501  0.25040249761E+03 -0.28685033817E+02  0.57207070796E+02  0.25845094492E+03  0.25500000000E-02 0.  1.
<mgrwt>
<rscale>  0 0.65680147E+02</rscale>
<asrwt>0</asrwt>
<pdfrwt beam="1">  1       11 0.10000000E+01 0.26140536E+03</pdfrwt>
<pdfrwt beam="2">  1       -2 0.22452368E-01 0.65680147E+02</pdfrwt>
<totfact> 0.13242400E+02</totfact>
</mgrwt>
</event>
<event>
 5    1  0.9955701E-004  0.7071668E+03  0.7818608E-02  0.1220180E+00
         11   -1    0    0    0    0  0.00000000000E+00  0.00000000000E+00  0.99996802409E+03  0.99996802409E+03  0.51100000000E-03 0. -1.
          2   -1    0    0  501    0 -0.00000000000E+00 -0.00000000000E+00 -0.65904515811E+03  0.65904515812E+03  0.25500000000E-02 0. -1.
         11    1    1    2    0    0 -0.13413845873E+03  0.69246908435E+03  0.52434715505E+03  0.87888935475E+03  0.51100000000E-03 0. -1.
         22    1    1    2    0    0  0.23426722674E+02  0.10767002744E+02 -0.49395430286E+02  0.55719370209E+02  0.00000000000E+00 0. -1.
          2    1    1    2  501    0  0.11071173605E+03 -0.70323608709E+03 -0.13402885879E+03  0.72440445725E+03  0.25500000000E-02 0. -1.
<mgrwt>
<rscale>  0 0.13502800E+03</rscale>
<asrwt>0</asrwt>
<pdfrwt beam="1">  1       11 0.10000000E+01 0.70716680E+03</pdfrwt>
<pdfrwt beam="2">  1        2 0.10138832E+00 0.13502800E+03</pdfrwt>
<totfact> 0.57395461E+01</totfact>
</mgrwt>
</event>
<event>
 5    1  0.9955701E-004  0.1451466E+03  0.7818608E-02  0.1221733E+00
         11   -1    0    0    0    0  0.00000000000E+00  0.00000000000E+00  0.10004455449E+04  0.10004455449E+04  0.51100000000E-03 0. -1.
          2   -1    0    0  501    0 -0.00000000000E+00 -0.00000000000E+00 -0.21641454189E+02  0.21641454339E+02  0.25500000000E-02 0. -1.
         11    1    1    2    0    0  0.10006312566E+03 -0.33188689429E+02  0.59152356405E+03  0.60084460974E+03  0.51100000000E-03 0. -1.
         22    1    1    2    0    0  0.31125879847E+02  0.62119359612E+01  0.77590619141E+02  0.83831454260E+02  0.00000000000E+00 0. -1.
          2    1    1    2  501    0 -0.13118900551E+03  0.26976753468E+02  0.30968990748E+03  0.33741093520E+03  0.25500000000E-02 0. -1.
<mgrwt>
<rscale>  0 0.13393394E+03</rscale>
<asrwt>0</asrwt>
<pdfrwt beam="1">  1       11 0.10000000E+01 0.14514656E+03</pdfrwt>
<pdfrwt beam="2">  1        2 0.33309378E-02 0.13393394E+03</pdfrwt>
<totfact> 0.31315635E+03</totfact>
</mgrwt>
</event>
<event>
 5    1  0.9955701E-004  0.8420575E+02  0.7818608E-02  0.1491078E+00
         11   -1    0    0    0    0  0.00000000000E+00  0.00000000000E+00  0.10007646771E+04  0.10007646771E+04  0.51100000000E-03 0. -1.
         -2   -1    0    0    0  501 -0.00000000000E+00 -0.00000000000E+00 -0.19580585719E+02  0.19580585885E+02  0.25500000000E-02 0. -1.
         11    1    1    2    0    0 -0.10518547298E+02  0.77953619822E+02  0.44796638893E+03  0.45482006584E+03  0.51100000000E-03 0. -1.
         22    1    1    2    0    0  0.16799376468E+02  0.13218481756E+02 -0.29908685255E+01  0.21584545494E+02  0.00000000000E+00 0. -1.
         -2    1    1    2    0  501 -0.62808291695E+01 -0.91172101578E+02  0.53620857099E+03  0.54394065166E+03  0.25500000000E-02 0. -1.
<mgrwt>
<rscale>  0 0.42426519E+02</rscale>
<asrwt>0</asrwt>
<pdfrwt beam="1">  1       11 0.10000000E+01 0.84205746E+02</pdfrwt>
<pdfrwt beam="2">  1       -2 0.30147012E-02 0.42426519E+02</pdfrwt>
<totfact> 0.27110695E+03</totfact>
</mgrwt>
</event>
<event>
 5    1  0.9955701E-004  0.2065684E+02  0.7818608E-02  0.1732573E+00
         11   -1    0    0    0    0  0.00000000000E+00  0.00000000000E+00  0.10000963705E+04  0.10000963705E+04  0.51100000000E-03 0. -1.
          2   -1    0    0  501    0 -0.00000000000E+00 -0.00000000000E+00 -0.28690011186E+01  0.28690022518E+01  0.25500000000E-02 0. -1.
         11    1    1    2    0    0 -0.75412762067E+01 -0.13638372280E+02  0.74232137540E+02  0.75850420495E+02  0.51100000000E-03 0. -1.
         22    1    1    2    0    0 -0.19996795982E+02 -0.19934730737E+01  0.55234482103E+02  0.58776643300E+02  0.00000000000E+00 0. -1.
          2    1    1    2  501    0  0.27538072188E+02  0.15631845353E+02  0.86776074970E+03  0.86833830892E+03  0.25500000000E-02 0. -1.
<mgrwt>
<rscale>  0 0.20656837E+02</rscale>
<asrwt>0</asrwt>
<pdfrwt beam="1">  1       11 0.10000000E+01 0.15584489E+02</pdfrwt>
<pdfrwt beam="2">  1        2 0.44142740E-03 0.20656837E+02</pdfrwt>
<totfact> 0.33344085E+04</totfact>
</mgrwt>
</event>
<event>
 5    1  0.9955701E-004  0.4491793E+03  0.7818608E-02  0.1169283E+00
         11   -1    0    0    0    0  0.00000000000E+00  0.00000000000E+00  0.99992221789E+03  0.99992221789E+03  0.51100000000E-03 0. -1.
          2   -1    0    0  501    0 -0.00000000000E+00 -0.00000000000E+00 -0.30806809237E+03  0.30806809238E+03  0.25500000000E-02 0. -1.
         11    1    1    2    0    0 -0.29405472377E+03  0.32535167578E+03  0.59434972591E+03  0.73862946745E+03  0.51100000000E-03 0. -1.
         22    1    1    2    0    0  0.14795856264E+02  0.69357347007E+02  0.42638677507E+02  0.82749113385E+02  0.00000000000E+00 0. -1.
          2    1    1    2  501    0  0.27925886750E+03 -0.39470902279E+03  0.54865722110E+02  0.48661172943E+03  0.25500000000E-02 0. -1.
<mgrwt>
<rscale>  0 0.17847938E+03</rscale>
<asrwt>0</asrwt>
<pdfrwt beam="1">  1       11 0.10000000E+01 0.44917934E+03</pdfrwt>
<pdfrwt beam="2">  1        2 0.47391403E-01 0.17847938E+03</pdfrwt>
<totfact> 0.13179813E+02</totfact>
</mgrwt>
</event>
<event>
 5    1  0.9955701E-004  0.2806713E+03  0.7818608E-02  0.1408072E+00
         11   -1    0    0    0    0  0.00000000000E+00  0.00000000000E+00  0.99998135281E+03  0.99998135281E+03  0.51100000000E-03 0. -1.
          2   -1    0    0  501    0 -0.00000000000E+00 -0.00000000000E+00 -0.10330800334E+03  0.10330800337E+03  0.25500000000E-02 0. -1.
         11    1    1    2    0    0  0.24062538431E+03  0.15951982951E+03  0.26022826699E+03  0.38867197291E+03  0.51100000000E-03 0. -1.
         22    1    1    2    0    0 -0.83967862646E+01 -0.83355112755E+01 -0.72044133364E+01  0.13852448856E+02  0.00000000000E+00 0. -1.
          2    1    1    2  501    0 -0.23222859805E+03 -0.15118431823E+03  0.64364949582E+03  0.70076493441E+03  0.25500000000E-02 0. -1.
<mgrwt>
<rscale>  0 0.57626283E+02</rscale>
<asrwt>0</asrwt>
<pdfrwt beam="1">  1       11 0.10000000E+01 0.28067126E+03</pdfrwt>
<pdfrwt beam="2">  1        2 0.15893242E-01 0.57626283E+02</pdfrwt>
<totfact> 0.42025650E+02</totfact>
</mgrwt>
</event>
<event>
 5    1  0.9955701E-004  0.1748285E+03  0.7818608E-02  0.1232119E+00
         11   -1    0    0    0    0  0.00000000000E+00  0.00000000000E+00  0.10003716256E+04  0.10003716256E+04  0.51100000000E-03 0.  1.
          2   -1    0    0  501    0 -0.00000000000E+00 -0.00000000000E+00 -0.43241870266E+03  0.43241870267E+03  0.25500000000E-02 0.  1.
         11    1    1    2    0    0 -0.55553447778E+02 -0.16335478152E+03  0.91800997447E+03  0.93408419505E+03  0.51100000000E-03 0.  1.
         22    1    1    2    0    0 -0.70018381788E+02 -0.59863530844E+02 -0.13939351169E+03  0.16708311469E+03  0.00000000000E+00 0.  1.
          2    1    1    2  501    0  0.12557182957E+03  0.22321831237E+03 -0.21066353988E+03  0.33162301850E+03  0.25500000000E-02 0.  1.
<mgrwt>
<rscale>  0 0.12690672E+03</rscale>
<asrwt>0</asrwt>
<pdfrwt beam="1">  1       11 0.10000000E+01 0.17482849E+03</pdfrwt>
<pdfrwt beam="2">  1        2 0.66550675E-01 0.12690672E+03</pdfrwt>
<totfact> 0.91781916E+01</totfact>
</mgrwt>
</event>
<event>
 5    1  0.9955701E-004  0.1854236E+03  0.7818608E-02  0.1456295E+00
         11   -1    0    0    0    0  0.00000000000E+00  0.00000000000E+00  0.10001167733E+04  0.10001167733E+04  0.51100000000E-03 0. -1.
          2   -1    0    0  501    0 -0.00000000000E+00 -0.00000000000E+00 -0.14096054956E+03  0.14096054958E+03  0.25500000000E-02 0. -1.
         11    1    1    2    0    0 -0.14738120591E+03 -0.11119231511E+03  0.90715382543E+03  0.92574997369E+03  0.51100000000E-03 0. -1.
         22    1    1    2    0    0 -0.12262487090E+02 -0.20855555757E+01 -0.99167269966E+01  0.15907847310E+02  0.00000000000E+00 0. -1.
          2    1    1    2  501    0  0.15964369300E+03  0.11327787068E+03 -0.38080874698E+02  0.19941950187E+03  0.25500000000E-02 0. -1.
<mgrwt>
<rscale>  0 0.48025047E+02</rscale>
<asrwt>0</asrwt>
<pdfrwt beam="1">  1       11 0.10000000E+01 0.18542359E+03</pdfrwt>
<pdfrwt beam="2">  1        2 0.21688770E-01 0.48025047E+02</pdfrwt>
<totfact> 0.29537506E+02</totfact>
</mgrwt>
</event>
<event>
 5    1  0.9955701E-004  0.1603033E+03  0.7818608E-02  0.1400123E+00
         11   -1    0    0    0    0  0.00000000000E+00  0.00000000000E+00  0.10001974209E+04  0.10001974209E+04  0.51100000000E-03 0.  1.
          2   -1    0    0  501    0 -0.00000000000E+00 -0.00000000000E+00 -0.49120367379E+02  0.49120367445E+02  0.25500000000E-02 0.  1.
         11    1    1    2    0    0 -0.26933872360E+02  0.16091040495E+03  0.79132530730E+03  0.80796864659E+03  0.51100000000E-03 0.  1.
         22    1    1    2    0    0  0.19525682605E+02 -0.10251289735E+02  0.58425593515E+00  0.22060883424E+02  0.00000000000E+00 0.  1.
          2    1    1    2  501    0  0.74081897547E+01 -0.15065911521E+03  0.15916749029E+03  0.21928825834E+03  0.25500000000E-02 0.  1.
<mgrwt>
<rscale>  0 0.59457471E+02</rscale>
<asrwt>0</asrwt>
<pdfrwt beam="1">  1       11 0.10000000E+01 0.16030325E+03</pdfrwt>
<pdfrwt beam="2">  1        2 0.75584713E-02 0.59457471E+02</pdfrwt>
<totfact> 0.10133221E+03</totfact>
</mgrwt>
</event>
<event>
 5    1  0.9955701E-004  0.1325265E+03  0.7818608E-02  0.1515870E+00
         11   -1    0    0    0    0  0.00000000000E+00  0.00000000000E+00  0.10003142439E+04  0.10003142439E+04  0.51100000000E-03 0. -1.
          2   -1    0    0  501    0 -0.00000000000E+00 -0.00000000000E+00 -0.30491923995E+02  0.30491924101E+02  0.25500000000E-02 0. -1.
         11    1    1    2    0    0 -0.62516305239E+02 -0.10850187282E+03  0.28968047725E+03  0.31558790174E+03  0.51100000000E-03 0. -1.
         22    1    1    2    0    0 -0.28687364749E+01 -0.11099256352E+02 -0.78237932604E+01  0.13879296867E+02  0.00000000000E+00 0. -1.
          2    1    1    2  501    0  0.65385041714E+02  0.11960112917E+03  0.68796563592E+03  0.70133896939E+03  0.25500000000E-02 0. -1.
<mgrwt>
<rscale>  0 0.38977967E+02</rscale>
<asrwt>0</asrwt>
<pdfrwt beam="1">  1       11 0.10000000E+01 0.13252648E+03</pdfrwt>
<pdfrwt beam="2">  1        2 0.46925392E-02 0.38977967E+02</pdfrwt>
<totfact> 0.17579959E+03</totfact>
</mgrwt>
</event>
<event>
 5    1  0.9955701E-004  0.1554608E+03  0.7818608E-02  0.1442453E+00
         11   -1    0    0    0    0  0.00000000000E+00  0.00000000000E+00  0.10004991174E+04  0.10004991174E+04  0.51100000000E-03 0. -1.
          2   -1    0    0  501    0 -0.00000000000E+00 -0.00000000000E+00 -0.34532848418E+02  0.34532848512E+02  0.25500000000E-02 0. -1.
         11    1    1    2    0    0  0.68631472835E+02 -0.13524472628E+03  0.66142070176E+03  0.67858585291E+03  0.51100000000E-03 0. -1.
         22    1    1    2    0    0 -0.25501472779E+01 -0.16230994305E+02  0.11642400831E+02  0.20136879708E+02  0.00000000000E+00 0. -1.
          2    1    1    2  501    0 -0.66081325558E+02  0.15147572058E+03  0.29290316641E+03  0.33630923331E+03  0.25500000000E-02 0. -1.
<mgrwt>
<rscale>  0 0.50539465E+02</rscale>
<asrwt>0</asrwt>
<pdfrwt beam="1">  1       11 0.10000000E+01 0.15546079E+03</pdfrwt>
<pdfrwt beam="2">  1        2 0.53153974E-02 0.50539465E+02</pdfrwt>
<totfact> 0.15467518E+03</totfact>
</mgrwt>
</event>
<event>
 5    1  0.9955701E-004  0.1590404E+03  0.7818608E-02  0.1464628E+00
         11   -1    0    0    0    0  0.00000000000E+00  0.00000000000E+00  0.10002294507E+04  0.10002294507E+04  0.51100000000E-03 0.  1.
          2   -1    0    0  501    0 -0.00000000000E+00 -0.00000000000E+00 -0.38070414912E+02  0.38070414997E+02  0.25500000000E-02 0.  1.
         11    1    1    2    0    0 -0.15640328892E+03  0.37514878564E+02  0.72705036580E+03  0.74462849080E+03  0.51100000000E-03 0.  1.
         22    1    1    2    0    0  0.92792244793E+01  0.10011948759E+02  0.17792830083E+01  0.13766225805E+02  0.00000000000E+00 0.  1.
          2    1    1    2  501    0  0.14712406444E+03 -0.47526827324E+02  0.23332938697E+03  0.27990514908E+03  0.25500000000E-02 0.  1.
<mgrwt>
<rscale>  0 0.46594228E+02</rscale>
<asrwt>0</asrwt>
<pdfrwt beam="1">  1       11 0.10000000E+01 0.15904044E+03</pdfrwt>
<pdfrwt beam="2">  1        2 0.58583306E-02 0.46594228E+02</pdfrwt>
<totfact> 0.13580452E+03</totfact>
</mgrwt>
</event>
<event>
 5    1  0.9955701E-004  0.5197850E+02  0.7818608E-02  0.1644879E+00
         11   -1    0    0    0    0  0.00000000000E+00  0.00000000000E+00  0.10002709113E+04  0.10002709113E+04  0.51100000000E-03 0. -1.
         -2   -1    0    0    0  501 -0.00000000000E+00 -0.00000000000E+00 -0.56983260820E+01  0.56983266526E+01  0.25500000000E-02 0. -1.
         11    1    1    2    0    0  0.47020357954E+02  0.72854009441E+01  0.19310376895E+03  0.19887950299E+03  0.51100000000E-03 0. -1.
         22    1    1    2    0    0  0.27505432253E+01  0.12875377161E+02  0.21067671584E+02  0.24843260877E+02  0.00000000000E+00 0. -1.
         -2    1    1    2    0  501 -0.49770901179E+02 -0.20160778105E+02  0.78040114472E+03  0.78224647412E+03  0.25500000000E-02 0. -1.
<mgrwt>
<rscale>  0 0.26159953E+02</rscale>
<asrwt>0</asrwt>
<pdfrwt beam="1">  1       11 0.10000000E+01 0.51978496E+02</pdfrwt>
<pdfrwt beam="2">  1       -2 0.87690307E-03 0.26159953E+02</pdfrwt>
<totfact> 0.13718614E+04</totfact>
</mgrwt>
</event>
<event>
 5    1  0.9955701E-004  0.2969418E+03  0.7818608E-02  0.1320221E+00
         11   -1    0    0    0    0  0.00000000000E+00  0.00000000000E+00  0.99986463590E+03  0.99986463590E+03  0.51100000000E-03 0.  1.
          2   -1    0    0  501    0 -0.00000000000E+00 -0.00000000000E+00 -0.16816736106E+03  0.16816736108E+03  0.25500000000E-02 0. -1.
         11    1    1    2    0    0 -0.17584222659E+03 -0.25030530307E+03  0.42987300309E+03  0.52760215331E+03  0.51100000000E-03 0.  1.
         22    1    1    2    0    0  0.22929590385E+02  0.41888405039E+01 -0.77171646883E+02  0.80614983611E+02  0.00000000000E+00 0.  1.
          2    1    1    2  501    0  0.15291263620E+03  0.24611646257E+03  0.47899591864E+03  0.55981486006E+03  0.25500000000E-02 0. -1.
<mgrwt>
<rscale>  0 0.83195149E+02</rscale>
<asrwt>0</asrwt>
<pdfrwt beam="1">  1       11 0.10000000E+01 0.29694182E+03</pdfrwt>
<pdfrwt beam="2">  1        2 0.25868399E-01 0.83195149E+02</pdfrwt>
<totfact> 0.24895440E+02</totfact>
</mgrwt>
</event>
<event>
 5    1  0.9955701E-004  0.1270262E+03  0.7818608E-02  0.1420416E+00
         11   -1    0    0    0    0  0.00000000000E+00  0.00000000000E+00  0.10004066346E+04  0.10004066346E+04  0.51100000000E-03 0. -1.
         -2   -1    0    0    0  501 -0.00000000000E+00 -0.00000000000E+00 -0.27134342047E+02  0.27134342167E+02  0.25500000000E-02 0. -1.
         11    1    1    2    0    0 -0.34730052347E+02  0.13014090465E+03  0.60953956860E+03  0.62424459732E+03  0.51100000000E-03 0. -1.
         22    1    1    2    0    0  0.19720341700E+02 -0.13246110639E+02  0.31766334016E+01  0.23967526439E+02  0.00000000000E+00 0. -1.
         -2    1    1    2    0  501  0.15009710647E+02 -0.11689479402E+03  0.36055609058E+03  0.37932885303E+03  0.25500000000E-02 0. -1.
<mgrwt>
<rscale>  0 0.54933081E+02</rscale>
<asrwt>0</asrwt>
<pdfrwt beam="1">  1       11 0.10000000E+01 0.12702615E+03</pdfrwt>
<pdfrwt beam="2">  1       -2 0.41762116E-02 0.54933081E+02</pdfrwt>
<totfact> 0.17565587E+03</totfact>
</mgrwt>
</event>
<event>
 5    1  0.9955701E-004  0.1643318E+03  0.7818608E-02  0.1291300E+00
         11   -1    0    0    0    0  0.00000000000E+00  0.00000000000E+00  0.99992776947E+03  0.99992776947E+03  0.51100000000E-03 0. -1.
          2   -1    0    0  501    0 -0.00000000000E+00 -0.00000000000E+00 -0.96700120499E+02  0.96700120532E+02  0.25500000000E-02 0. -1.
         11    1    1    2    0    0  0.64762998856E+02  0.14965627348E+03  0.78890731418E+03  0.80558425791E+03  0.51100000000E-03 0. -1.
         22    1    1    2    0    0 -0.47554271763E+02  0.27344719412E+02 -0.29541303500E+02  0.62304342185E+02  0.00000000000E+00 0. -1.
          2    1    1    2  501    0 -0.17208727093E+02 -0.17700099289E+03  0.14386163829E+03  0.22873928991E+03  0.25500000000E-02 0. -1.
<mgrwt>
<rscale>  0 0.94944875E+02</rscale>
<asrwt>0</asrwt>
<pdfrwt beam="1">  1       11 0.10000000E+01 0.16433183E+03</pdfrwt>
<pdfrwt beam="2">  1        2 0.14875867E-01 0.94944875E+02</pdfrwt>
<totfact> 0.46482693E+02</totfact>
</mgrwt>
</event>
<event>
 5    1  0.9955701E-004  0.4815852E+02  0.7818608E-02  0.1455535E+00
         11   -1    0    0    0    0  0.00000000000E+00  0.00000000000E+00  0.10000792577E+04  0.10000792577E+04  0.51100000000E-03 0. -1.
          2   -1    0    0  501    0 -0.00000000000E+00 -0.00000000000E+00 -0.14279425083E+02  0.14279425311E+02  0.25500000000E-02 0. -1.
         11    1    1    2    0    0  0.23230904086E+02  0.62338484445E+01  0.10820399275E+03  0.11084511635E+03  0.51100000000E-03 0. -1.
         22    1    1    2    0    0 -0.21831013560E+00  0.47812297345E+02  0.35949885982E+02  0.59820211792E+02  0.00000000000E+00 0. -1.
          2    1    1    2  501    0 -0.23012593950E+02 -0.54046145790E+02  0.84164595389E+03  0.84369335487E+03  0.25500000000E-02 0. -1.
<mgrwt>
<rscale>  0 0.48158524E+02</rscale>
<asrwt>0</asrwt>
<pdfrwt beam="1">  1       11 0.10000000E+01 0.24052771E+02</pdfrwt>
<pdfrwt beam="2">  1        2 0.21970087E-02 0.48158524E+02</pdfrwt>
<totfact> 0.48074371E+03</totfact>
</mgrwt>
</event>
<event>
 5    1  0.9955701E-004  0.3182654E+02  0.7818608E-02  0.1754467E+00
         11   -1    0    0    0    0  0.00000000000E+00  0.00000000000E+00  0.10000911336E+04  0.10000911336E+04  0.51100000000E-03 0. -1.
          2   -1    0    0  501    0 -0.00000000000E+00 -0.00000000000E+00 -0.24634449315E+01  0.24634462513E+01  0.25500000000E-02 0. -1.
         11    1    1    2    0    0 -0.28354766035E+02  0.30311530408E+01  0.15755043563E+03  0.16011033825E+03  0.51100000000E-03 0. -1.
         22    1    1    2    0    0 -0.36850723044E+01 -0.11427107974E+02  0.42066330099E+02  0.43746253354E+02  0.00000000000E+00 0. -1.
          2    1    1    2  501    0  0.32039838339E+02  0.83959549333E+01  0.79801092293E+03  0.79869798825E+03  0.25500000000E-02 0. -1.
<mgrwt>
<rscale>  0 0.19548108E+02</rscale>
<asrwt>0</asrwt>
<pdfrwt beam="1">  1       11 0.10000000E+01 0.31826544E+02</pdfrwt>
<pdfrwt beam="2">  1        2 0.37902616E-03 0.19548108E+02</pdfrwt>
<totfact> 0.40054861E+04</totfact>
</mgrwt>
</event>
<event>
 5    1  0.9955701E-004  0.1851825E+03  0.7818608E-02  0.1277807E+00
         11   -1    0    0    0    0  0.00000000000E+00  0.00000000000E+00  0.10000498916E+04  0.10000498916E+04  0.51100000000E-03 0. -1.
         -2   -1    0    0    0  501 -0.00000000000E+00 -0.00000000000E+00 -0.23163906404E+03  0.23163906405E+03  0.25500000000E-02 0.  1.
         11    1    1    2    0    0 -0.95022528107E+02 -0.16291924033E+03  0.88985554805E+03  0.90962346942E+03  0.51100000000E-03 0. -1.
         22    1    1    2    0    0 -0.25810957584E+02  0.48903437210E+02 -0.14414565372E+03  0.15438821584E+03  0.00000000000E+00 0.  1.
         -2    1    1    2    0  501  0.12083348569E+03  0.11401580312E+03  0.22700933216E+02  0.16767727038E+03  0.25500000000E-02 0.  1.
<mgrwt>
<rscale>  0 0.10119301E+03</rscale>
<asrwt>0</asrwt>
<pdfrwt beam="1">  1       11 0.10000000E+01 0.18518249E+03</pdfrwt>
<pdfrwt beam="2">  1       -2 0.35638556E-01 0.10119301E+03</pdfrwt>
<totfact> 0.59355876E+01</totfact>
</mgrwt>
</event>
<event>
 5    1  0.9955701E-004  0.9296659E+03  0.7818608E-02  0.9389239E-01
         11   -1    0    0    0    0  0.00000000000E+00  0.00000000000E+00  0.10008299168E+04  0.10008299168E+04  0.51100000000E-03 0. -1.
          2   -1    0    0  501    0 -0.00000000000E+00 -0.00000000000E+00 -0.16092440357E+04  0.16092440357E+04  0.25500000000E-02 0. -1.
         11    1    1    2    0    0 -0.63988515403E+03  0.66904049165E+03  0.58663720818E+03  0.10959979032E+04  0.51100000000E-03 0. -1.
         22    1    1    2    0    0  0.20901479830E+02 -0.10798601674E+02 -0.51630762570E+02  0.56738146787E+02  0.00000000000E+00 0. -1.
          2    1    1    2  501    0  0.61898367420E+03 -0.65824188998E+03 -0.11434205645E+04  0.14573379025E+04  0.25500000000E-02 0. -1.
<mgrwt>
<rscale>  0 0.92966586E+03</rscale>
<asrwt>0</asrwt>
<pdfrwt beam="1">  1       11 0.10000000E+01 0.92577977E+03</pdfrwt>
<pdfrwt beam="2">  1        2 0.24778147E+00 0.92966586E+03</pdfrwt>
<totfact> 0.13607546E+01</totfact>
</mgrwt>
</event>
<event>
 5    1  0.9955701E-004  0.1390194E+03  0.7818608E-02  0.1231001E+00
         11   -1    0    0    0    0  0.00000000000E+00  0.00000000000E+00  0.10002690953E+04  0.10002690953E+04  0.51100000000E-03 0. -1.
          2   -1    0    0  501    0 -0.00000000000E+00 -0.00000000000E+00 -0.20915201146E+02  0.20915201301E+02  0.25500000000E-02 0. -1.
         11    1    1    2    0    0  0.24056132240E+02  0.81764848699E+02  0.14529538513E+03  0.16844861804E+03  0.51100000000E-03 0. -1.
         22    1    1    2    0    0 -0.12729575434E+02  0.45371361076E+02  0.16435278713E+03  0.17097497224E+03  0.00000000000E+00 0. -1.
          2    1    1    2  501    0 -0.11326556806E+02 -0.12713620978E+03  0.66970572189E+03  0.68176070630E+03  0.25500000000E-02 0. -1.
<mgrwt>
<rscale>  0 0.12763975E+03</rscale>
<asrwt>0</asrwt>
<pdfrwt beam="1">  1       11 0.10000000E+01 0.13901936E+03</pdfrwt>
<pdfrwt beam="2">  1        2 0.32185890E-02 0.12763975E+03</pdfrwt>
<totfact> 0.32628492E+03</totfact>
</mgrwt>
</event>
<event>
 5    1  0.9955701E-004  0.1759653E+03  0.7818608E-02  0.1318385E+00
         11   -1    0    0    0    0  0.00000000000E+00  0.00000000000E+00  0.10001806538E+04  0.10001806538E+04  0.51100000000E-03 0. -1.
          2   -1    0    0  501    0 -0.00000000000E+00 -0.00000000000E+00 -0.49967911931E+02  0.49967911996E+02  0.25500000000E-02 0. -1.
         11    1    1    2    0    0  0.14032661804E+03  0.11740248180E+03  0.72741640692E+03  0.75007301746E+03  0.51100000000E-03 0. -1.
         22    1    1    2    0    0 -0.22144502701E+00 -0.39984801674E+02  0.33432546184E+02  0.52120711307E+02  0.00000000000E+00 0. -1.
          2    1    1    2  501    0 -0.14010517301E+03 -0.77417680123E+02  0.18936378872E+03  0.24795483699E+03  0.25500000000E-02 0. -1.
<mgrwt>
<rscale>  0 0.83881148E+02</rscale>
<asrwt>0</asrwt>
<pdfrwt beam="1">  1       11 0.10000000E+01 0.17596534E+03</pdfrwt>
<pdfrwt beam="2">  1        2 0.76887596E-02 0.83881148E+02</pdfrwt>
<totfact> 0.10195611E+03</totfact>
</mgrwt>
</event>
<event>
 5    1  0.9955701E-004  0.4674939E+03  0.7818608E-02  0.1227265E+00
         11   -1    0    0    0    0  0.00000000000E+00  0.00000000000E+00  0.10002747771E+04  0.10002747771E+04  0.51100000000E-03 0.  1.
          2   -1    0    0  501    0 -0.00000000000E+00 -0.00000000000E+00 -0.50952590462E+03  0.50952590462E+03  0.25500000000E-02 0.  1.
         11    1    1    2    0    0  0.20589717105E+03 -0.41970365507E+03  0.78069554089E+03  0.90996171935E+03  0.51100000000E-03 0.  1.
         22    1    1    2    0    0 -0.32594137003E+02 -0.15799814698E+02 -0.76839236179E+02  0.84948691149E+02  0.00000000000E+00 0. -1.
          2    1    1    2  501    0 -0.17330303405E+03  0.43550346977E+03 -0.21310743218E+03  0.51489027127E+03  0.25500000000E-02 0.  1.
<mgrwt>
<rscale>  0 0.13012850E+03</rscale>
<asrwt>0</asrwt>
<pdfrwt beam="1">  1       11 0.10000000E+01 0.46749392E+03</pdfrwt>
<pdfrwt beam="2">  1        2 0.78410138E-01 0.13012850E+03</pdfrwt>
<totfact> 0.76785974E+01</totfact>
</mgrwt>
</event>
<event>
 5    1  0.9955701E-004  0.1943642E+03  0.7818608E-02  0.1154583E+00
         11   -1    0    0    0    0  0.00000000000E+00  0.00000000000E+00  0.10000181785E+04  0.10000181785E+04  0.51100000000E-03 0. -1.
          2   -1    0    0  501    0 -0.00000000000E+00 -0.00000000000E+00 -0.34856527872E+02  0.34856527966E+02  0.25500000000E-02 0. -1.
         11    1    1    2    0    0 -0.17862983298E+03  0.60252730339E+00  0.48638367188E+03  0.51814868189E+03  0.51100000000E-03 0. -1.
         22    1    1    2    0    0  0.53808833088E+02 -0.29536339002E+02  0.10535509484E+03  0.12193228387E+03  0.00000000000E+00 0. -1.
          2    1    1    2  501    0  0.12482099990E+03  0.28933811699E+02  0.37342288396E+03  0.39479374076E+03  0.25500000000E-02 0. -1.
<mgrwt>
<rscale>  0 0.19436417E+03</rscale>
<asrwt>0</asrwt>
<pdfrwt beam="1">  1       11 0.10000000E+01 0.17863085E+03</pdfrwt>
<pdfrwt beam="2">  1        2 0.53626401E-02 0.19436417E+03</pdfrwt>
<totfact> 0.17193064E+03</totfact>
</mgrwt>
</event>
<event>
 5    1  0.9955701E-004  0.7092770E+02  0.7818608E-02  0.1557262E+00
         11   -1    0    0    0    0  0.00000000000E+00  0.00000000000E+00  0.10001838921E+04  0.10001838921E+04  0.51100000000E-03 0. -1.
          2   -1    0    0  501    0 -0.00000000000E+00 -0.00000000000E+00 -0.98122746634E+01  0.98122749948E+01  0.25500000000E-02 0. -1.
         11    1    1    2    0    0  0.47812852462E+02 -0.67246691260E+02  0.32025546371E+03  0.33071399786E+03  0.51100000000E-03 0. -1.
         22    1    1    2    0    0 -0.49240181700E+01  0.15580495941E+02  0.20549773899E+02  0.26254352325E+02  0.00000000000E+00 0. -1.
          2    1    1    2  501    0 -0.42888834292E+02  0.51666195319E+02  0.64956637987E+03  0.65302781695E+03  0.25500000000E-02 0. -1.
<mgrwt>
<rscale>  0 0.34043543E+02</rscale>
<asrwt>0</asrwt>
<pdfrwt beam="1">  1       11 0.10000000E+01 0.70927701E+02</pdfrwt>
<pdfrwt beam="2">  1        2 0.15098583E-02 0.34043543E+02</pdfrwt>
<totfact> 0.74367343E+03</totfact>
</mgrwt>
</event>
<event>
 5    1  0.9955701E-004  0.2030013E+03  0.7818608E-02  0.1275327E+00
         11   -1    0    0    0    0  0.00000000000E+00  0.00000000000E+00  0.10002778772E+04  0.10002778772E+04  0.51100000000E-03 0. -1.
         -2   -1    0    0    0  501 -0.00000000000E+00 -0.00000000000E+00 -0.10056526733E+03  0.10056526736E+03  0.25500000000E-02 0.  1.
         11    1    1    2    0    0  0.63868751317E+02  0.18358442709E+03  0.71970649023E+03  0.74549305252E+03  0.51100000000E-03 0. -1.
         22    1    1    2    0    0  0.28813802449E+02  0.42871293932E+02  0.12087083615E+00  0.51654599648E+02  0.00000000000E+00 0. -1.
         -2    1    1    2    0  501 -0.92682553766E+02 -0.22645572102E+03  0.17988524878E+03  0.30369549238E+03  0.25500000000E-02 0.  1.
<mgrwt>
<rscale>  0 0.10240078E+03</rscale>
<asrwt>0</asrwt>
<pdfrwt beam="1">  1       11 0.10000000E+01 0.20300126E+03</pdfrwt>
<pdfrwt beam="2">  1       -2 0.15475878E-01 0.10240078E+03</pdfrwt>
<totfact> 0.25016369E+02</totfact>
</mgrwt>
</event>
<event>
 5    1  0.9955701E-004  0.1649473E+03  0.7818608E-02  0.1183222E+00
         11   -1    0    0    0    0  0.00000000000E+00  0.00000000000E+00  0.10002538487E+04  0.10002538487E+04  0.51100000000E-03 0. -1.
         -2   -1    0    0    0  501 -0.00000000000E+00 -0.00000000000E+00 -0.75959311664E+02  0.75959311707E+02  0.25500000000E-02 0.  1.
         11    1    1    2    0    0  0.32284040468E+02 -0.61142614423E+02  0.40543620827E+03  0.41128967595E+03  0.51100000000E-03 0. -1.
         22    1    1    2    0    0 -0.95692233835E+02 -0.10064721608E+03  0.46148009744E+03  0.48192400444E+03  0.00000000000E+00 0. -1.
         -2    1    1    2    0  501  0.63408193367E+02  0.16178983051E+03  0.57378231295E+02  0.18299947998E+03  0.25500000000E-02 0.  1.
<mgrwt>
<rscale>  0 0.16494730E+03</rscale>
<asrwt>0</asrwt>
<pdfrwt beam="1">  1       11 0.10000000E+01 0.69142451E+02</pdfrwt>
<pdfrwt beam="2">  1       -2 0.11689014E-01 0.16494730E+03</pdfrwt>
<totfact> 0.40294140E+02</totfact>
</mgrwt>
</event>
<event>
 5    1  0.9955701E-004  0.2888564E+03  0.7818608E-02  0.1354230E+00
         11   -1    0    0    0    0  0.00000000000E+00  0.00000000000E+00  0.10000327342E+04  0.10000327342E+04  0.51100000000E-03 0. -1.
         -2   -1    0    0    0  501 -0.00000000000E+00 -0.00000000000E+00 -0.12420863797E+03  0.12420863799E+03  0.25500000000E-02 0. -1.
         11    1    1    2    0    0 -0.25565543746E+03 -0.14522571407E+03  0.61270990320E+03  0.67960550042E+03  0.51100000000E-03 0. -1.
         22    1    1    2    0    0  0.17592815012E+02 -0.28611963419E+01 -0.32592862591E+02  0.37148193448E+02  0.00000000000E+00 0.  1.
         -2    1    1    2    0  501  0.23806262245E+03  0.14808691041E+03  0.29570705568E+03  0.40748767837E+03  0.25500000000E-02 0. -1.
<mgrwt>
<rscale>  0 0.71753508E+02</rscale>
<asrwt>0</asrwt>
<pdfrwt beam="1">  1       11 0.10000000E+01 0.28885644E+03</pdfrwt>
<pdfrwt beam="2">  1       -2 0.19109646E-01 0.71753508E+02</pdfrwt>
<totfact> 0.17404893E+02</totfact>
</mgrwt>
</event>
<event>
 5    1  0.9955701E-004  0.6970394E+02  0.7818608E-02  0.1532526E+00
         11   -1    0    0    0    0  0.00000000000E+00  0.00000000000E+00  0.10002936426E+04  0.10002936426E+04  0.51100000000E-03 0.  1.
          2   -1    0    0  501    0 -0.00000000000E+00 -0.00000000000E+00 -0.80973092095E+01  0.80973096110E+01  0.25500000000E-02 0.  1.
         11    1    1    2    0    0  0.57177442803E+02  0.27198233343E+02  0.27705124208E+03  0.28419429023E+03  0.51100000000E-03 0.  1.
         22    1    1    2    0    0  0.15257382453E+02 -0.12161571735E+02  0.35258635368E+02  0.40297182462E+02  0.00000000000E+00 0.  1.
          2    1    1    2  501    0 -0.72434825256E+02 -0.15036661608E+02  0.67988645593E+03  0.68389947951E+03  0.25500000000E-02 0.  1.
<mgrwt>
<rscale>  0 0.36878383E+02</rscale>
<asrwt>0</asrwt>
<pdfrwt beam="1">  1       11 0.10000000E+01 0.69703941E+02</pdfrwt>
<pdfrwt beam="2">  1        2 0.12461057E-02 0.36878383E+02</pdfrwt>
<totfact> 0.97198813E+03</totfact>
</mgrwt>
</event>
<event>
 5    1  0.9955701E-004  0.1103349E+03  0.7818608E-02  0.1456561E+00
         11   -1    0    0    0    0  0.00000000000E+00  0.00000000000E+00  0.10005467427E+04  0.10005467427E+04  0.51100000000E-03 0.  1.
         -2   -1    0    0    0  501 -0.00000000000E+00 -0.00000000000E+00 -0.26016734159E+02  0.26016734284E+02  0.25500000000E-02 0. -1.
         11    1    1    2    0    0  0.96719940718E+02 -0.36778188034E+02  0.54725550390E+03  0.55695239348E+03  0.51100000000E-03 0.  1.
         22    1    1    2    0    0  0.14382859131E+02 -0.15112906352E+02 -0.39996993675E+01  0.21242979316E+02  0.00000000000E+00 0. -1.
         -2    1    1    2    0  501 -0.11110279985E+03  0.51891094386E+02  0.43127420404E+03  0.44836810422E+03  0.25500000000E-02 0. -1.
<mgrwt>
<rscale>  0 0.47978343E+02</rscale>
<asrwt>0</asrwt>
<pdfrwt beam="1">  1       11 0.10000000E+01 0.11033488E+03</pdfrwt>
<pdfrwt beam="2">  1       -2 0.40047628E-02 0.47978343E+02</pdfrwt>
<totfact> 0.18356392E+03</totfact>
</mgrwt>
</event>
<event>
 5    1  0.9955701E-004  0.1547311E+03  0.7818608E-02  0.1453338E+00
         11   -1    0    0    0    0  0.00000000000E+00  0.00000000000E+00  0.10000576774E+04  0.10000576774E+04  0.51100000000E-03 0. -1.
         -2   -1    0    0    0  501 -0.00000000000E+00 -0.00000000000E+00 -0.33012556439E+02  0.33012556537E+02  0.25500000000E-02 0.  1.
         11    1    1    2    0    0  0.23644724277E+02 -0.15519988678E+03  0.71338846497E+03  0.73045819853E+03  0.51100000000E-03 0. -1.
         22    1    1    2    0    0 -0.13949288537E+02  0.61176847795E+01  0.17882372107E+02  0.23490167090E+02  0.00000000000E+00 0. -1.
         -2    1    1    2    0  501 -0.96954357405E+01  0.14908220200E+03  0.23577428391E+03  0.27912186834E+03  0.25500000000E-02 0.  1.
<mgrwt>
<rscale>  0 0.48547281E+02</rscale>
<asrwt>0</asrwt>
<pdfrwt beam="1">  1       11 0.10000000E+01 0.15473112E+03</pdfrwt>
<pdfrwt beam="2">  1       -2 0.50791476E-02 0.48547281E+02</pdfrwt>
<totfact> 0.13021940E+03</totfact>
</mgrwt>
</event>
<event>
 5    1  0.9955701E-004  0.3692534E+03  0.7818608E-02  0.1312891E+00
         11   -1    0    0    0    0  0.00000000000E+00  0.00000000000E+00  0.10001516048E+04  0.10001516048E+04  0.51100000000E-03 0. -1.
          2   -1    0    0  501    0 -0.00000000000E+00 -0.00000000000E+00 -0.20565187667E+03  0.20565187669E+03  0.25500000000E-02 0. -1.
         11    1    1    2    0    0 -0.42410848998E+02 -0.36001303581E+03  0.19662096020E+03  0.41239285646E+03  0.51100000000E-03 0. -1.
         22    1    1    2    0    0 -0.18572937372E+02 -0.74732758483E+01 -0.45647106011E+02  0.49844379238E+02  0.00000000000E+00 0. -1.
          2    1    1    2  501    0  0.60983786370E+02  0.36748631166E+03  0.64352587391E+03  0.74356624577E+03  0.25500000000E-02 0. -1.
<mgrwt>
<rscale>  0 0.85979539E+02</rscale>
<asrwt>0</asrwt>
<pdfrwt beam="1">  1       11 0.10000000E+01 0.36925339E+03</pdfrwt>
<pdfrwt beam="2">  1        2 0.31643546E-01 0.85979539E+02</pdfrwt>
<totfact> 0.20077055E+02</totfact>
</mgrwt>
</event>
<event>
 5    1  0.9955701E-004  0.3320642E+03  0.7818608E-02  0.1314545E+00
         11   -1    0    0    0    0  0.00000000000E+00  0.00000000000E+00  0.10001505910E+04  0.10001505910E+04  0.51100000000E-03 0.  1.
          2   -1    0    0  501    0 -0.00000000000E+00 -0.00000000000E+00 -0.62836316281E+03  0.62836316282E+03  0.25500000000E-02 0.  1.
         11    1    1    2    0    0  0.33087948713E+03 -0.26851235033E+02  0.91579823818E+03  0.97410915040E+03  0.51100000000E-03 0.  1.
         22    1    1    2    0    0  0.18316201072E-01 -0.21932398085E+02 -0.76391622554E+02  0.79477735359E+02  0.00000000000E+00 0. -1.
          2    1    1    2  501    0 -0.33089780333E+03  0.48783633119E+02 -0.46761918746E+03  0.57492686804E+03  0.25500000000E-02 0.  1.
<mgrwt>
<rscale>  0 0.85340294E+02</rscale>
<asrwt>0</asrwt>
<pdfrwt beam="1">  1       11 0.10000000E+01 0.33206416E+03</pdfrwt>
<pdfrwt beam="2">  1        2 0.96685811E-01 0.85340294E+02</pdfrwt>
<totfact> 0.61333159E+01</totfact>
</mgrwt>
</event>
<event>
 5    1  0.9955701E-004  0.1839945E+03  0.7818608E-02  0.1163992E+00
         11   -1    0    0    0    0  0.00000000000E+00  0.00000000000E+00  0.10002159901E+04  0.10002159901E+04  0.51100000000E-03 0. -1.
          2   -1    0    0  501    0 -0.00000000000E+00 -0.00000000000E+00 -0.35378223569E+02  0.35378223661E+02  0.25500000000E-02 0. -1.
         11    1    1    2    0    0 -0.12938929833E+03 -0.12372768699E+03  0.34031410273E+03  0.38453064841E+03  0.51100000000E-03 0. -1.
         22    1    1    2    0    0  0.59243644361E+01  0.12087505488E+02  0.20503912496E+02  0.24527868039E+02  0.00000000000E+00 0. -1.
          2    1    1    2  501    0  0.12346493389E+03  0.11164018150E+03  0.60401975126E+03  0.62653569727E+03  0.25500000000E-02 0. -1.
<mgrwt>
<rscale>  0 0.18399446E+03</rscale>
<asrwt>0</asrwt>
<pdfrwt beam="1">  1       11 0.10000000E+01 0.17902559E+03</pdfrwt>
<pdfrwt beam="2">  1        2 0.54439791E-02 0.18399446E+03</pdfrwt>
<totfact> 0.16789268E+03</totfact>
</mgrwt>
</event>
<event>
 5    1  0.9955701E-004  0.1313467E+03  0.7818608E-02  0.1423594E+00
         11   -1    0    0    0    0  0.00000000000E+00  0.00000000000E+00  0.10002529028E+04  0.10002529028E+04  0.51100000000E-03 0. -1.
          2   -1    0    0  501    0 -0.00000000000E+00 -0.00000000000E+00 -0.25068110101E+02  0.25068110231E+02  0.25500000000E-02 0. -1.
         11    1    1    2    0    0  0.12269363437E+03  0.35383599949E+02  0.63353117467E+03  0.64627198325E+03  0.51100000000E-03 0. -1.
         22    1    1    2    0    0  0.70752625571E+01  0.21275850991E+02  0.52443287767E+02  0.57035248816E+02  0.00000000000E+00 0. -1.
          2    1    1    2  501    0 -0.12976889692E+03 -0.56659450940E+02  0.28921033021E+03  0.32201378091E+03  0.25500000000E-02 0. -1.
<mgrwt>
<rscale>  0 0.54267692E+02</rscale>
<asrwt>0</asrwt>
<pdfrwt beam="1">  1       11 0.10000000E+01 0.13134668E+03</pdfrwt>
<pdfrwt beam="2">  1        2 0.38576076E-02 0.54267692E+02</pdfrwt>
<totfact> 0.23449600E+03</totfact>
</mgrwt>
</event>
<event>
 5    1  0.9955701E-004  0.7004718E+02  0.7818608E-02  0.1419667E+00
         11   -1    0    0    0    0  0.00000000000E+00  0.00000000000E+00  0.99999981974E+03  0.99999981974E+03  0.51100000000E-03 0.  1.
          2   -1    0    0  501    0 -0.00000000000E+00 -0.00000000000E+00 -0.99620077988E+01  0.99620081252E+01  0.25500000000E-02 0.  1.
         11    1    1    2    0    0 -0.49576197629E+02 -0.45983728444E+02  0.26550051301E+03  0.27397595709E+03  0.51100000000E-03 0.  1.
         22    1    1    2    0    0 -0.25720831001E+02  0.34868659762E+02  0.14104432643E+03  0.14754960725E+03  0.00000000000E+00 0.  1.
          2    1    1    2  501    0  0.75297028630E+02  0.11115068682E+02  0.58349297250E+03  0.58843626353E+03  0.25500000000E-02 0.  1.
<mgrwt>
<rscale>  0 0.55091365E+02</rscale>
<asrwt>0</asrwt>
<pdfrwt beam="1">  1       11 0.10000000E+01 0.70047181E+02</pdfrwt>
<pdfrwt beam="2">  1        2 0.15326163E-02 0.55091365E+02</pdfrwt>
<totfact> 0.79121070E+03</totfact>
</mgrwt>
</event>
<event>
 5    1  0.9955701E-004  0.2251663E+03  0.7818608E-02  0.1409517E+00
         11   -1    0    0    0    0  0.00000000000E+00  0.00000000000E+00  0.10002252305E+04  0.10002252305E+04  0.51100000000E-03 0. -1.
          2   -1    0    0  501    0 -0.00000000000E+00 -0.00000000000E+00 -0.59460506621E+02  0.59460506676E+02  0.25500000000E-02 0. -1.
         11    1    1    2    0    0 -0.22921443814E+03 -0.12996181099E+02  0.61989755284E+03  0.66104548663E+03  0.51100000000E-03 0. -1.
         22    1    1    2    0    0  0.12255225640E+02 -0.79030936001E+01  0.61755326304E+01  0.15836244731E+02  0.00000000000E+00 0. -1.
          2    1    1    2  501    0  0.21695921250E+03  0.20899274699E+02  0.31469163838E+03  0.38280400578E+03  0.25500000000E-02 0. -1.
<mgrwt>
<rscale>  0 0.57301733E+02</rscale>
<asrwt>0</asrwt>
<pdfrwt beam="1">  1       11 0.10000000E+01 0.22516630E+03</pdfrwt>
<pdfrwt beam="2">  1        2 0.91498303E-02 0.57301733E+02</pdfrwt>
<totfact> 0.80072883E+02</totfact>
</mgrwt>
</event>
<event>
 5    1  0.9955701E-004  0.1665104E+03  0.7818608E-02  0.1452484E+00
         11   -1    0    0    0    0  0.00000000000E+00  0.00000000000E+00  0.99973690652E+03  0.99973690652E+03  0.51100000000E-03 0. -1.
          2   -1    0    0  501    0 -0.00000000000E+00 -0.00000000000E+00 -0.11439775546E+03  0.11439775549E+03  0.25500000000E-02 0. -1.
         11    1    1    2    0    0  0.16686046652E+03 -0.49200060669E+01  0.91251901932E+03  0.92766242910E+03  0.51100000000E-03 0. -1.
         22    1    1    2    0    0 -0.56054462014E+01 -0.13093906441E+02 -0.19347899319E+02  0.24025249657E+02  0.00000000000E+00 0. -1.
          2    1    1    2  501    0 -0.16125502032E+03  0.18013912508E+02 -0.78319689396E+01  0.16244698325E+03  0.25500000000E-02 0. -1.
<mgrwt>
<rscale>  0 0.48699660E+02</rscale>
<asrwt>0</asrwt>
<pdfrwt beam="1">  1       11 0.10000000E+01 0.16651042E+03</pdfrwt>
<pdfrwt beam="2">  1        2 0.17595024E-01 0.48699660E+02</pdfrwt>
<totfact> 0.37170290E+02</totfact>
</mgrwt>
</event>
<event>
 5    1  0.9955701E-004  0.2030548E+03  0.7818608E-02  0.1338172E+00
         11   -1    0    0    0    0  0.00000000000E+00  0.00000000000E+00  0.10002740217E+04  0.10002740217E+04  0.51100000000E-03 0. -1.
          2   -1    0    0  501    0 -0.00000000000E+00 -0.00000000000E+00 -0.33809158224E+03  0.33809158225E+03  0.25500000000E-02 0. -1.
         11    1    1    2    0    0 -0.16248694426E+03  0.12018276048E+03  0.92509027228E+03  0.94690966562E+03  0.51100000000E-03 0. -1.
         22    1    1    2    0    0 -0.74407530817E+00  0.29092070824E+02 -0.13039983590E+03  0.13360770724E+03  0.00000000000E+00 0. -1.
          2    1    1    2  501    0  0.16323101956E+03 -0.14927483131E+03 -0.13250799693E+03  0.25784823107E+03  0.25500000000E-02 0. -1.
<mgrwt>
<rscale>  0 0.76871428E+02</rscale>
<asrwt>0</asrwt>
<pdfrwt beam="1">  1       11 0.10000000E+01 0.20305480E+03</pdfrwt>
<pdfrwt beam="2">  1        2 0.52028341E-01 0.76871428E+02</pdfrwt>
<totfact> 0.11915711E+02</totfact>
</mgrwt>
</event>
<event>
 5    1  0.9955701E-004  0.8241416E+02  0.7818608E-02  0.1520806E+00
         11   -1    0    0    0    0  0.00000000000E+00  0.00000000000E+00  0.10000526785E+04  0.10000526785E+04  0.51100000000E-03 0.  1.
          2   -1    0    0  501    0 -0.00000000000E+00 -0.00000000000E+00 -0.12474514160E+02  0.12474514421E+02  0.25500000000E-02 0.  1.
         11    1    1    2    0    0 -0.76138904548E+02 -0.51330788452E+02  0.42983626585E+03  0.43953520686E+03  0.51100000000E-03 0.  1.
         22    1    1    2    0    0  0.71387113574E+01  0.16343916500E+02  0.11327631411E+02  0.21128181175E+02  0.00000000000E+00 0. -1.
          2    1    1    2  501    0  0.69000193191E+02  0.34986871952E+02  0.54641426704E+03  0.55186380485E+03  0.25500000000E-02 0.  1.
<mgrwt>
<rscale>  0 0.38338625E+02</rscale>
<asrwt>0</asrwt>
<pdfrwt beam="1">  1       11 0.10000000E+01 0.82414159E+02</pdfrwt>
<pdfrwt beam="2">  1        2 0.19192571E-02 0.38338625E+02</pdfrwt>
<totfact> 0.55412092E+03</totfact>
</mgrwt>
</event>
<event>
 5    1  0.9955701E-004  0.2944977E+03  0.7818608E-02  0.1213794E+00
         11   -1    0    0    0    0  0.00000000000E+00  0.00000000000E+00  0.10005060403E+04  0.10005060403E+04  0.51100000000E-03 0. -1.
         -2   -1    0    0    0  501 -0.00000000000E+00 -0.00000000000E+00 -0.26588160518E+03  0.26588160519E+03  0.25500000000E-02 0.  1.
         11    1    1    2    0    0  0.29361421472E+03 -0.81429400421E+02  0.76007374142E+03  0.81887248503E+03  0.51100000000E-03 0. -1.
         22    1    1    2    0    0 -0.54053184723E+02 -0.38265198571E+02 -0.14105528326E+03  0.15582864030E+03  0.00000000000E+00 0.  1.
         -2    1    1    2    0  501 -0.23956103000E+03  0.11969459899E+03  0.11560597694E+03  0.29168652014E+03  0.25500000000E-02 0.  1.
<mgrwt>
<rscale>  0 0.13965531E+03</rscale>
<asrwt>0</asrwt>
<pdfrwt beam="1">  1       11 0.10000000E+01 0.29449772E+03</pdfrwt>
<pdfrwt beam="2">  1       -2 0.40925561E-01 0.13965531E+03</pdfrwt>
<totfact> 0.45972437E+01</totfact>
</mgrwt>
</event>
<event>
 5    1  0.9955701E-004  0.1137702E+03  0.7818608E-02  0.1559964E+00
         11   -1    0    0    0    0  0.00000000000E+00  0.00000000000E+00  0.10003543812E+04  0.10003543812E+04  0.51100000000E-03 0. -1.
          2   -1    0    0  501    0 -0.00000000000E+00 -0.00000000000E+00 -0.18207960460E+02  0.18207960638E+02  0.25500000000E-02 0. -1.
         11    1    1    2    0    0  0.38921456035E+02 -0.10727590727E+03  0.41159613610E+03  0.42712337711E+03  0.51100000000E-03 0. -1.
         22    1    1    2    0    0  0.90875960765E+01  0.42056158098E+01  0.35758728104E+00  0.10019953865E+02  0.00000000000E+00 0.  1.
          2    1    1    2  501    0 -0.48009052112E+02  0.10307029146E+03  0.57019269738E+03  0.58141901089E+03  0.25500000000E-02 0. -1.
<mgrwt>
<rscale>  0 0.33752712E+02</rscale>
<asrwt>0</asrwt>
<pdfrwt beam="1">  1       11 0.10000000E+01 0.11377022E+03</pdfrwt>
<pdfrwt beam="2">  1        2 0.28022173E-02 0.33752712E+02</pdfrwt>
<totfact> 0.33233133E+03</totfact>
</mgrwt>
</event>
<event>
 5    1  0.9955701E-004  0.6533491E+02  0.7818608E-02  0.1509164E+00
         11   -1    0    0    0    0  0.00000000000E+00  0.00000000000E+00  0.10002414197E+04  0.10002414197E+04  0.51100000000E-03 0. -1.
          2   -1    0    0  501    0 -0.00000000000E+00 -0.00000000000E+00 -0.17193111307E+02  0.17193111496E+02  0.25500000000E-02 0. -1.
         11    1    1    2    0    0  0.20585236319E+02 -0.45226866974E+02  0.29698972921E+02  0.57889985692E+02  0.51100000000E-03 0. -1.
         22    1    1    2    0    0  0.23843406589E+02 -0.48480288347E+01  0.79627998464E+02  0.83262413853E+02  0.00000000000E+00 0.  1.
          2    1    1    2  501    0 -0.44428642908E+02  0.50074895809E+02  0.87372133699E+03  0.87628213163E+03  0.25500000000E-02 0. -1.
<mgrwt>
<rscale>  0 0.39870810E+02</rscale>
<asrwt>0</asrwt>
<pdfrwt beam="1">  1       11 0.10000000E+01 0.65334909E+02</pdfrwt>
<pdfrwt beam="2">  1        2 0.26457326E-02 0.39870810E+02</pdfrwt>
<totfact> 0.36681753E+03</totfact>
</mgrwt>
</event>
<event>
 5    1  0.9955701E-004  0.9403950E+02  0.7818608E-02  0.1497489E+00
         11   -1    0    0    0    0  0.00000000000E+00  0.00000000000E+00  0.10001804294E+04  0.10001804294E+04  0.51100000000E-03 0. -1.
          2   -1    0    0  501    0 -0.00000000000E+00 -0.00000000000E+00 -0.14350394421E+02  0.14350394648E+02  0.25500000000E-02 0. -1.
         11    1    1    2    0    0  0.97718195874E+02  0.27876625386E+02  0.56017040402E+03  0.56931259743E+03  0.51100000000E-03 0. -1.
         22    1    1    2    0    0 -0.17475278653E+02  0.54644163088E+01  0.10592240008E+02  0.21152795513E+02  0.00000000000E+00 0. -1.
          2    1    1    2  501    0 -0.80242917221E+02 -0.33341041695E+02  0.41506739095E+03  0.42406543111E+03  0.25500000000E-02 0. -1.
<mgrwt>
<rscale>  0 0.41494992E+02</rscale>
<asrwt>0</asrwt>
<pdfrwt beam="1">  1       11 0.10000000E+01 0.94039496E+02</pdfrwt>
<pdfrwt beam="2">  1        2 0.22081513E-02 0.41494992E+02</pdfrwt>
<totfact> 0.46701523E+03</totfact>
</mgrwt>
</event>
<event>
 5    1  0.9955701E-004  0.2338419E+02  0.7818608E-02  0.1777211E+00
         11   -1    0    0    0    0  0.00000000000E+00  0.00000000000E+00  0.10000976537E+04  0.10000976537E+04  0.51100000000E-03 0.  1.
          2   -1    0    0  501    0 -0.00000000000E+00 -0.00000000000E+00 -0.37692397759E+01  0.37692406385E+01  0.25500000000E-02 0.  1.
         11    1    1    2    0    0 -0.17078429867E+02  0.78209308202E+01  0.63801285712E+02  0.66508975216E+02  0.51100000000E-03 0.  1.
         22    1    1    2    0    0 -0.67219725337E+01 -0.12977408819E+02  0.21452070999E+02  0.25957453738E+02  0.00000000000E+00 0.  1.
          2    1    1    2  501    0  0.23800402401E+02  0.51564779990E+01  0.91107505725E+03  0.91140046542E+03  0.25500000000E-02 0.  1.
<mgrwt>
<rscale>  0 0.18486744E+02</rscale>
<asrwt>0</asrwt>
<pdfrwt beam="1">  1       11 0.10000000E+01 0.23384194E+02</pdfrwt>
<pdfrwt beam="2">  1        2 0.57993972E-03 0.18486744E+02</pdfrwt>
<totfact> 0.22660240E+04</totfact>
</mgrwt>
</event>
<event>
 5    1  0.9955701E-004  0.1977495E+03  0.7818608E-02  0.1151652E+00
         11   -1    0    0    0    0  0.00000000000E+00  0.00000000000E+00  0.10000905357E+04  0.10000905357E+04  0.51100000000E-03 0. -1.
          2   -1    0    0  501    0 -0.00000000000E+00 -0.00000000000E+00 -0.24593115341E+03  0.24593115342E+03  0.25500000000E-02 0. -1.
         11    1    1    2    0    0 -0.18336287374E+03  0.59447255921E+02  0.94901930595E+03  0.96839741984E+03  0.51100000000E-03 0. -1.
         22    1    1    2    0    0  0.33894950336E+02  0.59905495382E+01 -0.38345719429E+02  0.51528133486E+02  0.00000000000E+00 0. -1.
          2    1    1    2  501    0  0.14946792341E+03 -0.65437805459E+02 -0.15651420419E+03  0.22609613582E+03  0.25500000000E-02 0. -1.
<mgrwt>
<rscale>  0 0.19774945E+03</rscale>
<asrwt>0</asrwt>
<pdfrwt beam="1">  1       11 0.10000000E+01 0.19275871E+03</pdfrwt>
<pdfrwt beam="2">  1        2 0.37838986E-01 0.19774945E+03</pdfrwt>
<totfact> 0.16788136E+02</totfact>
</mgrwt>
</event>
<event>
 5    1  0.9955701E-004  0.5644033E+02  0.7818608E-02  0.1482437E+00
         11   -1    0    0    0    0  0.00000000000E+00  0.00000000000E+00  0.10001733256E+04  0.10001733256E+04  0.51100000000E-03 0. -1.
          2   -1    0    0  501    0 -0.00000000000E+00 -0.00000000000E+00 -0.15410916408E+02  0.15410916619E+02  0.25500000000E-02 0. -1.
         11    1    1    2    0    0  0.30481184778E+02  0.74460243611E+02  0.43157883285E+03  0.43901448663E+03  0.51100000000E-03 0. -1.
         22    1    1    2    0    0 -0.22862256947E+01 -0.33802927702E+02  0.16633069306E+02  0.37742863480E+02  0.00000000000E+00 0. -1.
          2    1    1    2  501    0 -0.28194959083E+02 -0.40657315909E+02  0.53655050705E+03  0.53882689213E+03  0.25500000000E-02 0. -1.
<mgrwt>
<rscale>  0 0.43728777E+02</rscale>
<asrwt>0</asrwt>
<pdfrwt beam="1">  1       11 0.10000000E+01 0.56440326E+02</pdfrwt>
<pdfrwt beam="2">  1        2 0.23713211E-02 0.43728777E+02</pdfrwt>
<totfact> 0.42881566E+03</totfact>
</mgrwt>
</event>
<event>
 5    1  0.9955701E-004  0.1066713E+03  0.7818608E-02  0.1554759E+00
         11   -1    0    0    0    0  0.00000000000E+00  0.00000000000E+00  0.10001665111E+04  0.10001665111E+04  0.51100000000E-03 0.  1.
          2   -1    0    0  501    0 -0.00000000000E+00 -0.00000000000E+00 -0.12880232494E+02  0.12880232746E+02  0.25500000000E-02 0.  1.
         11    1    1    2    0    0 -0.24739210999E+02  0.10271203800E+03  0.50658817853E+03  0.51748755921E+03  0.51100000000E-03 0.  1.
         22    1    1    2    0    0  0.10103133481E+02  0.44492793362E+01  0.27479482404E+02  0.29614039676E+02  0.00000000000E+00 0. -1.
          2    1    1    2  501    0  0.14636077519E+02 -0.10716131734E+03  0.45321861764E+03  0.46594514492E+03  0.25500000000E-02 0.  1.
<mgrwt>
<rscale>  0 0.34316063E+02</rscale>
<asrwt>0</asrwt>
<pdfrwt beam="1">  1       11 0.10000000E+01 0.10667130E+03</pdfrwt>
<pdfrwt beam="2">  1        2 0.19819041E-02 0.34316063E+02</pdfrwt>
<totfact> 0.52172809E+03</totfact>
</mgrwt>
</event>
<event>
 5    1  0.9955701E-004  0.1352255E+03  0.7818608E-02  0.1219902E+00
         11   -1    0    0    0    0  0.00000000000E+00  0.00000000000E+00  0.10001443344E+04  0.10001443344E+04  0.51100000000E-03 0.  1.
          2   -1    0    0  501    0 -0.00000000000E+00 -0.00000000000E+00 -0.21458259599E+02  0.21458259751E+02  0.25500000000E-02 0.  1.
         11    1    1    2    0    0 -0.11150644309E+03 -0.66857949196E+02  0.69843266956E+03  0.71043076097E+03  0.51100000000E-03 0.  1.
         22    1    1    2    0    0  0.15431574531E+02  0.94406518571E+01  0.15838621426E+02  0.24044153731E+02  0.00000000000E+00 0. -1.
          2    1    1    2  501    0  0.96074868554E+02  0.57417297339E+02  0.26441478383E+03  0.28712767947E+03  0.25500000000E-02 0.  1.
<mgrwt>
<rscale>  0 0.13522551E+03</rscale>
<asrwt>0</asrwt>
<pdfrwt beam="1">  1       11 0.10000000E+01 0.13001412E+03</pdfrwt>
<pdfrwt beam="2">  1        2 0.33017471E-02 0.13522551E+03</pdfrwt>
<totfact> 0.31716002E+03</totfact>
</mgrwt>
</event>
<event>
 5    1  0.9955701E-004  0.2174741E+03  0.7818608E-02  0.1240472E+00
         11   -1    0    0    0    0  0.00000000000E+00  0.00000000000E+00  0.10001065060E+04  0.10001065060E+04  0.51100000000E-03 0. -1.
          2   -1    0    0  501    0 -0.00000000000E+00 -0.00000000000E+00 -0.93446876538E+02  0.93446876572E+02  0.25500000000E-02 0. -1.
         11    1    1    2    0    0  0.11666122901E+03 -0.19448379690E+03  0.21429180547E+03  0.31201725514E+03  0.51100000000E-03 0. -1.
         22    1    1    2    0    0  0.45555997419E+02  0.50481758731E+02  0.14122547259E+02  0.69449285140E+02  0.00000000000E+00 0.  1.
          2    1    1    2  501    0 -0.16221722643E+03  0.14400203817E+03  0.67824527669E+03  0.71208684225E+03  0.25500000000E-02 0. -1.
<mgrwt>
<rscale>  0 0.12160528E+03</rscale>
<asrwt>0</asrwt>
<pdfrwt beam="1">  1       11 0.10000000E+01 0.21747412E+03</pdfrwt>
<pdfrwt beam="2">  1        2 0.14377973E-01 0.12160528E+03</pdfrwt>
<totfact> 0.48923039E+02</totfact>
</mgrwt>
</event>
<event>
 5    1  0.9955701E-004  0.6364966E+02  0.7818608E-02  0.1463874E+00
         11   -1    0    0    0    0  0.00000000000E+00  0.00000000000E+00  0.10002959398E+04  0.10002959398E+04  0.51100000000E-03 0. -1.
          2   -1    0    0  501    0 -0.00000000000E+00 -0.00000000000E+00 -0.16357847677E+02  0.16357847876E+02  0.25500000000E-02 0. -1.
         11    1    1    2    0    0  0.58287478502E+02  0.64656231556E+02  0.48617634270E+03  0.49390818441E+03  0.51100000000E-03 0. -1.
         22    1    1    2    0    0 -0.28698212694E+02 -0.18776747747E+02  0.15900981812E+02  0.37802048759E+02  0.00000000000E+00 0.  1.
          2    1    1    2  501    0 -0.29589265809E+02 -0.45879483809E+02  0.48186076760E+03  0.48494355449E+03  0.25500000000E-02 0. -1.
<mgrwt>
<rscale>  0 0.46721197E+02</rscale>
<asrwt>0</asrwt>
<pdfrwt beam="1">  1       11 0.10000000E+01 0.63649664E+02</pdfrwt>
<pdfrwt beam="2">  1        2 0.25173367E-02 0.46721197E+02</pdfrwt>
<totfact> 0.40038576E+03</totfact>
</mgrwt>
</event>
<event>
 5    1  0.9955701E-004  0.2847782E+03  0.7818608E-02  0.1287242E+00
         11   -1    0    0    0    0  0.00000000000E+00  0.00000000000E+00  0.10002286159E+04  0.10002286159E+04  0.51100000000E-03 0. -1.
          2   -1    0    0  501    0 -0.00000000000E+00 -0.00000000000E+00 -0.18175604576E+03  0.18175604578E+03  0.25500000000E-02 0.  1.
         11    1    1    2    0    0 -0.20289496770E+03 -0.20637959660E+03  0.80391280115E+03  0.85442067956E+03  0.51100000000E-03 0. -1.
         22    1    1    2    0    0  0.32826168729E+02  0.19200074909E+01 -0.44312365023E+02  0.55179973507E+02  0.00000000000E+00 0.  1.
          2    1    1    2  501    0  0.17006879897E+03  0.20445958911E+03  0.58872133984E+02  0.27238400858E+03  0.25500000000E-02 0.  1.
<mgrwt>
<rscale>  0 0.96768554E+02</rscale>
<asrwt>0</asrwt>
<pdfrwt beam="1">  1       11 0.10000000E+01 0.28477817E+03</pdfrwt>
<pdfrwt beam="2">  1        2 0.27968860E-01 0.96768554E+02</pdfrwt>
<totfact> 0.22975129E+02</totfact>
</mgrwt>
</event>
<event>
 5    1  0.9955701E-004  0.2240821E+03  0.7818608E-02  0.1285906E+00
         11   -1    0    0    0    0  0.00000000000E+00  0.00000000000E+00  0.10003356368E+04  0.10003356368E+04  0.51100000000E-03 0. -1.
         -2   -1    0    0    0  501 -0.00000000000E+00 -0.00000000000E+00 -0.97223944664E+02  0.97223944698E+02  0.25500000000E-02 0. -1.
         11    1    1    2    0    0 -0.20823363146E+03 -0.64849163267E+02  0.70672720999E+03  0.73961477039E+03  0.51100000000E-03 0. -1.
         22    1    1    2    0    0 -0.16416270745E+02 -0.39004118543E+02  0.51407954030E+00  0.42321147034E+02  0.00000000000E+00 0.  1.
         -2    1    1    2    0  501  0.22464990220E+03  0.10385328181E+03  0.19587040262E+03  0.31562366409E+03  0.25500000000E-02 0. -1.
<mgrwt>
<rscale>  0 0.97379216E+02</rscale>
<asrwt>0</asrwt>
<pdfrwt beam="1">  1       11 0.10000000E+01 0.22408210E+03</pdfrwt>
<pdfrwt beam="2">  1       -2 0.14962550E-01 0.97379216E+02</pdfrwt>
<totfact> 0.26359887E+02</totfact>
</mgrwt>
</event>
<event>
 5    1  0.9955701E-004  0.6560536E+02  0.7818608E-02  0.1391455E+00
         11   -1    0    0    0    0  0.00000000000E+00  0.00000000000E+00  0.10005511882E+04  0.10005511882E+04  0.51100000000E-03 0. -1.
          2   -1    0    0  501    0 -0.00000000000E+00 -0.00000000000E+00 -0.60798133594E+01  0.60798138942E+01  0.25500000000E-02 0. -1.
         11    1    1    2    0    0  0.31739187961E+02 -0.37947318923E+02  0.18051607653E+03  0.18717219065E+03  0.51100000000E-03 0. -1.
         22    1    1    2    0    0  0.15005797666E+02 -0.20884541557E+01  0.35806163880E+02  0.38879518723E+02  0.00000000000E+00 0. -1.
          2    1    1    2  501    0 -0.46744985627E+02  0.40035773078E+02  0.77814913445E+03  0.78057929274E+03  0.25500000000E-02 0. -1.
<mgrwt>
<rscale>  0 0.61546379E+02</rscale>
<asrwt>0</asrwt>
<pdfrwt beam="1">  1       11 0.10000000E+01 0.65605363E+02</pdfrwt>
<pdfrwt beam="2">  1        2 0.93587147E-03 0.61546379E+02</pdfrwt>
<totfact> 0.15653198E+04</totfact>
</mgrwt>
</event>
<event>
 5    1  0.9955701E-004  0.1218707E+03  0.7818608E-02  0.1365330E+00
         11   -1    0    0    0    0  0.00000000000E+00  0.00000000000E+00  0.10002804299E+04  0.10002804299E+04  0.51100000000E-03 0.  1.
          2   -1    0    0  501    0 -0.00000000000E+00 -0.00000000000E+00 -0.52049180021E+02  0.52049180083E+02  0.25500000000E-02 0.  1.
         11    1    1    2    0    0  0.10077058357E+03 -0.41691724397E+02  0.61565297329E+02  0.12523256858E+03  0.51100000000E-03 0.  1.
         22    1    1    2    0    0  0.23002313267E+02  0.30851254184E+02  0.75144927789E+01  0.39209359879E+02  0.00000000000E+00 0.  1.
          2    1    1    2  501    0 -0.12377289684E+03  0.10840470212E+02  0.87915145978E+03  0.88788768153E+03  0.25500000000E-02 0.  1.
<mgrwt>
<rscale>  0 0.68482797E+02</rscale>
<asrwt>0</asrwt>
<pdfrwt beam="1">  1       11 0.10000000E+01 0.12187073E+03</pdfrwt>
<pdfrwt beam="2">  1        2 0.80098115E-02 0.68482797E+02</pdfrwt>
<totfact> 0.95441893E+02</totfact>
</mgrwt>
</event>
<event>
 5    1  0.9955701E-004  0.5426041E+02  0.7818608E-02  0.1430295E+00
         11   -1    0    0    0    0  0.00000000000E+00  0.00000000000E+00  0.10000568446E+04  0.10000568446E+04  0.51100000000E-03 0. -1.
          2   -1    0    0  501    0 -0.00000000000E+00 -0.00000000000E+00 -0.64320239528E+01  0.64320244583E+01  0.25500000000E-02 0. -1.
         11    1    1    2    0    0 -0.11191950868E+02  0.24650808381E+02  0.58269523203E+02  0.64251532687E+02  0.51100000000E-03 0. -1.
         22    1    1    2    0    0  0.12371732823E+00  0.27079171094E+02  0.66905871492E+02  0.72178199293E+02  0.00000000000E+00 0. -1.
          2    1    1    2  501    0  0.11068233539E+02 -0.51729979475E+02  0.86844942592E+03  0.87005913705E+03  0.25500000000E-02 0. -1.
<mgrwt>
<rscale>  0 0.52900818E+02</rscale>
<asrwt>0</asrwt>
<pdfrwt beam="1">  1       11 0.10000000E+01 0.54260412E+02</pdfrwt>
<pdfrwt beam="2">  1        2 0.98959841E-03 0.52900818E+02</pdfrwt>
<totfact> 0.14128721E+04</totfact>
</mgrwt>
</event>
<event>
 5    1  0.9955701E-004  0.5655617E+03  0.7818608E-02  0.9979548E-01
         11   -1    0    0    0    0  0.00000000000E+00  0.00000000000E+00  0.99988704461E+03  0.99988704461E+03  0.51100000000E-03 0.  1.
          2   -1    0    0  501    0 -0.00000000000E+00 -0.00000000000E+00 -0.39961663733E+03  0.39961663734E+03  0.25500000000E-02 0.  1.
         11    1    1    2    0    0  0.42566159295E+03 -0.34415634675E+03  0.62823249229E+03  0.83325113087E+03  0.51100000000E-03 0.  1.
         22    1    1    2    0    0 -0.67288058559E+02  0.18166618243E+02 -0.42394575436E+02  0.81578237720E+02  0.00000000000E+00 0. -1.
          2    1    1    2  501    0 -0.35837353439E+03  0.32598972851E+03  0.14432490426E+02  0.48467431336E+03  0.25500000000E-02 0.  1.
<mgrwt>
<rscale>  0 0.56556173E+03</rscale>
<asrwt>0</asrwt>
<pdfrwt beam="1">  1       11 0.10000000E+01 0.54738595E+03</pdfrwt>
<pdfrwt beam="2">  1        2 0.61472536E-01 0.56556173E+03</pdfrwt>
<totfact> 0.98749828E+01</totfact>
</mgrwt>
</event>
<event>
 5    1  0.9955701E-004  0.1314242E+03  0.7818608E-02  0.1225358E+00
         11   -1    0    0    0    0  0.00000000000E+00  0.00000000000E+00  0.10001065731E+04  0.10001065731E+04  0.51100000000E-03 0. -1.
         -2   -1    0    0    0  501 -0.00000000000E+00 -0.00000000000E+00 -0.23052822037E+02  0.23052822178E+02  0.25500000000E-02 0. -1.
         11    1    1    2    0    0 -0.86660370071E+02 -0.92134384957E+02  0.75182508985E+03  0.76239079898E+03  0.51100000000E-03 0. -1.
         22    1    1    2    0    0  0.10821014615E+02  0.12562690969E+01  0.84761002167E+01  0.13802783930E+02  0.00000000000E+00 0.  1.
         -2    1    1    2    0  501  0.75839355456E+02  0.90878115860E+02  0.21675256102E+03  0.24696581240E+03  0.25500000000E-02 0. -1.
<mgrwt>
<rscale>  0 0.13142416E+03</rscale>
<asrwt>0</asrwt>
<pdfrwt beam="1">  1       11 0.10000000E+01 0.12648622E+03</pdfrwt>
<pdfrwt beam="2">  1       -2 0.35469659E-02 0.13142416E+03</pdfrwt>
<totfact> 0.24557046E+03</totfact>
</mgrwt>
</event>
<event>
 5    1  0.9955701E-004  0.4433695E+02  0.7818608E-02  0.1701955E+00
         11   -1    0    0    0    0  0.00000000000E+00  0.00000000000E+00  0.10002130768E+04  0.10002130768E+04  0.51100000000E-03 0.  1.
          2   -1    0    0  501    0 -0.00000000000E+00 -0.00000000000E+00 -0.40174872003E+01  0.40174880096E+01  0.25500000000E-02 0.  1.
         11    1    1    2    0    0 -0.47333246980E+02  0.73959691164E+01  0.20952401126E+03  0.21493126326E+03  0.51100000000E-03 0.  1.
         22    1    1    2    0    0  0.37319088214E+01 -0.10650294769E+02  0.46971300614E+02  0.48307960042E+02  0.00000000000E+00 0. -1.
          2    1    1    2  501    0  0.43601338158E+02  0.32543256527E+01  0.73970027774E+03  0.74099134153E+03  0.25500000000E-02 0.  1.
<mgrwt>
<rscale>  0 0.22368537E+02</rscale>
<asrwt>0</asrwt>
<pdfrwt beam="1">  1       11 0.10000000E+01 0.44336949E+02</pdfrwt>
<pdfrwt beam="2">  1        2 0.61820670E-03 0.22368537E+02</pdfrwt>
<totfact> 0.21919785E+04</totfact>
</mgrwt>
</event>
<event>
 5    1  0.9955701E-004  0.2397176E+03  0.7818608E-02  0.1422459E+00
         11   -1    0    0    0    0  0.00000000000E+00  0.00000000000E+00  0.10000350991E+04  0.10000350991E+04  0.51100000000E-03 0. -1.
          2   -1    0    0  501    0 -0.00000000000E+00 -0.00000000000E+00 -0.74455167941E+02  0.74455167985E+02  0.25500000000E-02 0. -1.
         11    1    1    2    0    0 -0.24327060531E+03  0.20134117932E+02  0.47375305757E+03  0.53294270768E+03  0.51100000000E-03 0. -1.
         22    1    1    2    0    0  0.93338127658E+01  0.81519272753E+01 -0.14494884539E+02  0.19070282034E+02  0.00000000000E+00 0.  1.
          2    1    1    2  501    0  0.23393679254E+03 -0.28286045207E+02  0.46632175811E+03  0.52247727735E+03  0.25500000000E-02 0. -1.
<mgrwt>
<rscale>  0 0.54504115E+02</rscale>
<asrwt>0</asrwt>
<pdfrwt beam="1">  1       11 0.10000000E+01 0.23971764E+03</pdfrwt>
<pdfrwt beam="2">  1        2 0.11455043E-01 0.54504115E+02</pdfrwt>
<totfact> 0.61081492E+02</totfact>
</mgrwt>
</event>
<event>
 5    1  0.9955701E-004  0.3183210E+03  0.7818608E-02  0.1076425E+00
         11   -1    0    0    0    0  0.00000000000E+00  0.00000000000E+00  0.10003512676E+04  0.10003512676E+04  0.51100000000E-03 0. -1.
          2   -1    0    0  501    0 -0.00000000000E+00 -0.00000000000E+00 -0.48190296361E+03  0.48190296361E+03  0.25500000000E-02 0. -1.
         11    1    1    2    0    0 -0.28700222678E+03 -0.12392063012E+03  0.91894488719E+03  0.97066281810E+03  0.51100000000E-03 0. -1.
         22    1    1    2    0    0  0.26290656672E+02  0.19271151002E+02 -0.74046054836E+02  0.80903610092E+02  0.00000000000E+00 0. -1.
          2    1    1    2  501    0  0.26071157010E+03  0.10464947912E+03 -0.32645052832E+03  0.43068780307E+03  0.25500000000E-02 0. -1.
<mgrwt>
<rscale>  0 0.31832100E+03</rscale>
<asrwt>0</asrwt>
<pdfrwt beam="1">  1       11 0.10000000E+01 0.31261254E+03</pdfrwt>
<pdfrwt beam="2">  1        2 0.74164958E-01 0.31832100E+03</pdfrwt>
<totfact> 0.80585878E+01</totfact>
</mgrwt>
</event>
<event>
 5    1  0.9955701E-004  0.7269959E+02  0.7818608E-02  0.1542304E+00
         11   -1    0    0    0    0  0.00000000000E+00  0.00000000000E+00  0.10004261977E+04  0.10004261977E+04  0.51100000000E-03 0. -1.
          2   -1    0    0  501    0 -0.00000000000E+00 -0.00000000000E+00 -0.94149100685E+01  0.94149104139E+01  0.25500000000E-02 0. -1.
         11    1    1    2    0    0  0.39989519026E+02 -0.50370562473E+02  0.38368696429E+03  0.38903989739E+03  0.51100000000E-03 0. -1.
         22    1    1    2    0    0  0.13782267248E+02 -0.10864967723E+02  0.15567873109E+02  0.23459690690E+02  0.00000000000E+00 0.  1.
          2    1    1    2  501    0 -0.53771786274E+02  0.61235530196E+02  0.59175645025E+03  0.59734152005E+03  0.25500000000E-02 0. -1.
<mgrwt>
<rscale>  0 0.35719313E+02</rscale>
<asrwt>0</asrwt>
<pdfrwt beam="1">  1       11 0.10000000E+01 0.72699589E+02</pdfrwt>
<pdfrwt beam="2">  1        2 0.14490650E-02 0.35719313E+02</pdfrwt>
<totfact> 0.79185698E+03</totfact>
</mgrwt>
</event>
<event>
 5    1  0.9955701E-004  0.4180180E+02  0.7818608E-02  0.1609830E+00
         11   -1    0    0    0    0  0.00000000000E+00  0.00000000000E+00  0.99998402160E+03  0.99998402160E+03  0.51100000000E-03 0.  1.
          2   -1    0    0  501    0 -0.00000000000E+00 -0.00000000000E+00 -0.88486736932E+01  0.88486740606E+01  0.25500000000E-02 0.  1.
         11    1    1    2    0    0 -0.94102790557E+01 -0.59169313687E+02  0.16423152474E+03  0.17481863388E+03  0.51100000000E-03 0.  1.
         22    1    1    2    0    0  0.60656412248E+00  0.20059744917E+02  0.29947710372E+02  0.36050334848E+02  0.00000000000E+00 0.  1.
          2    1    1    2  501    0  0.88037149332E+01  0.39109568770E+02  0.79695611280E+03  0.79796372693E+03  0.25500000000E-02 0.  1.
<mgrwt>
<rscale>  0 0.28964053E+02</rscale>
<asrwt>0</asrwt>
<pdfrwt beam="1">  1       11 0.10000000E+01 0.41801803E+02</pdfrwt>
<pdfrwt beam="2">  1        2 0.13613127E-02 0.28964053E+02</pdfrwt>
<totfact> 0.82626654E+03</totfact>
</mgrwt>
</event>
<event>
 5    1  0.9955701E-004  0.2260231E+03  0.7818608E-02  0.1304401E+00
         11   -1    0    0    0    0  0.00000000000E+00  0.00000000000E+00  0.10006058024E+04  0.10006058024E+04  0.51100000000E-03 0. -1.
          2   -1    0    0  501    0 -0.00000000000E+00 -0.00000000000E+00 -0.69555166906E+02  0.69555166952E+02  0.25500000000E-02 0. -1.
         11    1    1    2    0    0 -0.20641108008E+03 -0.12488222332E+03  0.51444024598E+03  0.56819879476E+03  0.51100000000E-03 0. -1.
         22    1    1    2    0    0  0.35330011936E+02 -0.34679486322E+00  0.94073450433E+00  0.35344235619E+02  0.00000000000E+00 0.  1.
          2    1    1    2  501    0  0.17108106814E+03  0.12522901818E+03  0.41566965501E+03  0.46661793897E+03  0.25500000000E-02 0. -1.
<mgrwt>
<rscale>  0 0.89363194E+02</rscale>
<asrwt>0</asrwt>
<pdfrwt beam="1">  1       11 0.10000000E+01 0.22602312E+03</pdfrwt>
<pdfrwt beam="2">  1        2 0.10707277E-01 0.89363194E+02</pdfrwt>
<totfact> 0.68313679E+02</totfact>
</mgrwt>
</event>
<event>
 5    1  0.9955701E-004  0.1490983E+03  0.7818608E-02  0.1283118E+00
         11   -1    0    0    0    0  0.00000000000E+00  0.00000000000E+00  0.10001472189E+04  0.10001472189E+04  0.51100000000E-03 0. -1.
          2   -1    0    0  501    0 -0.00000000000E+00 -0.00000000000E+00 -0.12855609336E+03  0.12855609338E+03  0.25500000000E-02 0. -1.
         11    1    1    2    0    0 -0.12103363254E+03  0.92224619851E+02  0.90462245114E+03  0.91733107427E+03  0.51100000000E-03 0. -1.
         22    1    1    2    0    0  0.60461056386E+02  0.24662016115E+02 -0.44814766957E+02  0.79196702681E+02  0.00000000000E+00 0. -1.
          2    1    1    2  501    0  0.60572576154E+02 -0.11688663597E+03  0.11783441385E+02  0.13217553536E+03  0.25500000000E-02 0. -1.
<mgrwt>
<rscale>  0 0.98669825E+02</rscale>
<asrwt>0</asrwt>
<pdfrwt beam="1">  1       11 0.10000000E+01 0.14909828E+03</pdfrwt>
<pdfrwt beam="2">  1        2 0.19780772E-01 0.98669825E+02</pdfrwt>
<totfact> 0.33642074E+02</totfact>
</mgrwt>
</event>
<event>
 5    1  0.9955701E-004  0.6491171E+02  0.7818608E-02  0.1500900E+00
         11   -1    0    0    0    0  0.00000000000E+00  0.00000000000E+00  0.10004332664E+04  0.10004332664E+04  0.51100000000E-03 0. -1.
          2   -1    0    0  501    0 -0.00000000000E+00 -0.00000000000E+00 -0.15826887287E+02  0.15826887492E+02  0.25500000000E-02 0. -1.
         11    1    1    2    0    0  0.50631377231E+02  0.57043343058E+02  0.11364277118E+03  0.13686547698E+03  0.51100000000E-03 0. -1.
         22    1    1    2    0    0  0.50895267162E+01 -0.25406037953E+02  0.53713379509E+02  0.59636374680E+02  0.00000000000E+00 0. -1.
          2    1    1    2  501    0 -0.55720903948E+02 -0.31637305106E+02  0.81725022847E+03  0.81975830228E+03  0.25500000000E-02 0. -1.
<mgrwt>
<rscale>  0 0.41011146E+02</rscale>
<asrwt>0</asrwt>
<pdfrwt beam="1">  1       11 0.10000000E+01 0.64911709E+02</pdfrwt>
<pdfrwt beam="2">  1        2 0.24359606E-02 0.41011146E+02</pdfrwt>
<totfact> 0.41010259E+03</totfact>
</mgrwt>
</event>
<event>
 5    1  0.9955701E-004  0.6865009E+02  0.7818608E-02  0.1606593E+00
         11   -1    0    0    0    0  0.00000000000E+00  0.00000000000E+00  0.10002612493E+04  0.10002612493E+04  0.51100000000E-03 0. -1.
          2   -1    0    0  501    0 -0.00000000000E+00 -0.00000000000E+00 -0.10488557433E+02  0.10488557743E+02  0.25500000000E-02 0. -1.
         11    1    1    2    0    0 -0.14892107914E+02  0.73799285953E+02  0.26273416374E+03  0.27330815993E+03  0.51100000000E-03 0. -1.
         22    1    1    2    0    0  0.10224807841E+02 -0.71172312025E+01  0.69663464203E+01  0.14273459910E+02  0.00000000000E+00 0. -1.
          2    1    1    2  501    0  0.46673000738E+01 -0.66682054750E+02  0.72007218175E+03  0.72316818725E+03  0.25500000000E-02 0. -1.
<mgrwt>
<rscale>  0 0.29244523E+02</rscale>
<asrwt>0</asrwt>
<pdfrwt beam="1">  1       11 0.10000000E+01 0.68650090E+02</pdfrwt>
<pdfrwt beam="2">  1        2 0.16140458E-02 0.29244523E+02</pdfrwt>
<totfact> 0.66284295E+03</totfact>
</mgrwt>
</event>
<event>
 5    1  0.9955701E-004  0.5493669E+02  0.7818608E-02  0.1634082E+00
         11   -1    0    0    0    0  0.00000000000E+00  0.00000000000E+00  0.10002207907E+04  0.10002207907E+04  0.51100000000E-03 0. -1.
          2   -1    0    0  501    0 -0.00000000000E+00 -0.00000000000E+00 -0.30563709654E+02  0.30563709760E+02  0.25500000000E-02 0. -1.
         11    1    1    2    0    0 -0.52446350177E+02 -0.29857234134E+02  0.25986120901E+03  0.26677691434E+03  0.51100000000E-03 0. -1.
         22    1    1    2    0    0  0.14398203898E+01  0.13172318140E+02 -0.24446421267E+02  0.27806663962E+02  0.00000000000E+00 0. -1.
          2    1    1    2  501    0  0.51006529787E+02  0.16684915994E+02  0.73424229331E+03  0.73620092216E+03  0.25500000000E-02 0. -1.
<mgrwt>
<rscale>  0 0.26980610E+02</rscale>
<asrwt>0</asrwt>
<pdfrwt beam="1">  1       11 0.10000000E+01 0.54936687E+02</pdfrwt>
<pdfrwt beam="2">  1        2 0.47031472E-02 0.26980610E+02</pdfrwt>
<totfact> 0.16749183E+03</totfact>
</mgrwt>
</event>
<event>
 5    1  0.9955701E-004  0.8916659E+02  0.7818608E-02  0.1528717E+00
         11   -1    0    0    0    0  0.00000000000E+00  0.00000000000E+00  0.99981973081E+03  0.99981973081E+03  0.51100000000E-03 0. -1.
          2   -1    0    0  501    0 -0.00000000000E+00 -0.00000000000E+00 -0.98127591723E+01  0.98127595036E+01  0.25500000000E-02 0. -1.
         11    1    1    2    0    0  0.52070719808E+01 -0.90454639153E+02  0.51602268504E+03  0.52391656475E+03  0.51100000000E-03 0. -1.
         22    1    1    2    0    0  0.14966679924E+02  0.45405070380E+01  0.42195790929E+02  0.45001138700E+02  0.00000000000E+00 0. -1.
          2    1    1    2  501    0 -0.20173751905E+02  0.85914132115E+02  0.43178849567E+03  0.44071478686E+03  0.25500000000E-02 0. -1.
<mgrwt>
<rscale>  0 0.37344191E+02</rscale>
<asrwt>0</asrwt>
<pdfrwt beam="1">  1       11 0.10000000E+01 0.89166593E+02</pdfrwt>
<pdfrwt beam="2">  1        2 0.15093831E-02 0.37344191E+02</pdfrwt>
<totfact> 0.75641100E+03</totfact>
</mgrwt>
</event>
<event>
 5    1  0.9955701E-004  0.1684387E+03  0.7818608E-02  0.1283905E+00
         11   -1    0    0    0    0  0.00000000000E+00  0.00000000000E+00  0.10001944519E+04  0.10001944519E+04  0.51100000000E-03 0.  1.
          2   -1    0    0  501    0 -0.00000000000E+00 -0.00000000000E+00 -0.11959768674E+03  0.11959768677E+03  0.25500000000E-02 0.  1.
         11    1    1    2    0    0 -0.18339653055E+03  0.24507992591E+02  0.81108871279E+03  0.83192537474E+03  0.51100000000E-03 0.  1.
         22    1    1    2    0    0  0.57218551808E+02  0.41792483234E+01 -0.74651935684E+02  0.94150625537E+02  0.00000000000E+00 0.  1.
          2    1    1    2  501    0  0.12617797874E+03 -0.28687240914E+02  0.14415998803E+03  0.19371613837E+03  0.25500000000E-02 0.  1.
<mgrwt>
<rscale>  0 0.98303052E+02</rscale>
<asrwt>0</asrwt>
<pdfrwt beam="1">  1       11 0.10000000E+01 0.16843866E+03</pdfrwt>
<pdfrwt beam="2">  1        2 0.18403221E-01 0.98303052E+02</pdfrwt>
<totfact> 0.36485248E+02</totfact>
</mgrwt>
</event>
<event>
 5    1  0.9955701E-004  0.2249394E+03  0.7818608E-02  0.1300429E+00
         11   -1    0    0    0    0  0.00000000000E+00  0.00000000000E+00  0.10000844901E+04  0.10000844901E+04  0.51100000000E-03 0. -1.
          2   -1    0    0  501    0 -0.00000000000E+00 -0.00000000000E+00 -0.14043455247E+03  0.14043455250E+03  0.25500000000E-02 0. -1.
         11    1    1    2    0    0 -0.41668494648E+02  0.21956991490E+03  0.83469505490E+03  0.86409666453E+03  0.51100000000E-03 0. -1.
         22    1    1    2    0    0  0.32229413872E+02  0.17805738665E+02 -0.42725007170E+01  0.37067960698E+02  0.00000000000E+00 0. -1.
          2    1    1    2  501    0  0.94390807762E+01 -0.23737565356E+03  0.29227383401E+02  0.23935441733E+03  0.25500000000E-02 0. -1.
<mgrwt>
<rscale>  0 0.91008099E+02</rscale>
<asrwt>0</asrwt>
<pdfrwt beam="1">  1       11 0.10000000E+01 0.22493942E+03</pdfrwt>
<pdfrwt beam="2">  1        2 0.21607141E-01 0.91008099E+02</pdfrwt>
<totfact> 0.30403969E+02</totfact>
</mgrwt>
</event>
<event>
 5    1  0.9955701E-004  0.1106491E+03  0.7818608E-02  0.1410181E+00
         11   -1    0    0    0    0  0.00000000000E+00  0.00000000000E+00  0.10002461934E+04  0.10002461934E+04  0.51100000000E-03 0. -1.
          2   -1    0    0  501    0 -0.00000000000E+00 -0.00000000000E+00 -0.44879510838E+02  0.44879510910E+02  0.25500000000E-02 0.  1.
         11    1    1    2    0    0  0.71645983138E+02  0.10570697755E+03  0.54193365795E+03  0.55677571932E+03  0.51100000000E-03 0. -1.
         22    1    1    2    0    0 -0.16890802973E+02 -0.24211788558E+02 -0.25229979210E+02  0.38833771143E+02  0.00000000000E+00 0.  1.
          2    1    1    2  501    0 -0.54755180165E+02 -0.81495188995E+02  0.43866300380E+03  0.44951621383E+03  0.25500000000E-02 0.  1.
<mgrwt>
<rscale>  0 0.57153373E+02</rscale>
<asrwt>0</asrwt>
<pdfrwt beam="1">  1       11 0.10000000E+01 0.11064907E+03</pdfrwt>
<pdfrwt beam="2">  1        2 0.69062398E-02 0.57153373E+02</pdfrwt>
<totfact> 0.11287521E+03</totfact>
</mgrwt>
</event>
<event>
 5    1  0.9955701E-004  0.3664658E+02  0.7818608E-02  0.1671397E+00
         11   -1    0    0    0    0  0.00000000000E+00  0.00000000000E+00  0.10003010496E+04  0.10003010496E+04  0.51100000000E-03 0.  1.
          2   -1    0    0  501    0 -0.00000000000E+00 -0.00000000000E+00 -0.26769690252E+01  0.26769702398E+01  0.25500000000E-02 0.  1.
         11    1    1    2    0    0 -0.27595628690E+02  0.15425691429E+02  0.18456792241E+03  0.18725594427E+03  0.51100000000E-03 0.  1.
         22    1    1    2    0    0  0.34875212477E+01  0.15719193664E+02  0.79760531291E+02  0.81369516440E+02  0.00000000000E+00 0.  1.
          2    1    1    2  501    0  0.24108107442E+02 -0.31144885093E+02  0.73329562691E+03  0.73435255918E+03  0.25500000000E-02 0.  1.
<mgrwt>
<rscale>  0 0.24291190E+02</rscale>
<asrwt>0</asrwt>
<pdfrwt beam="1">  1       11 0.10000000E+01 0.36646585E+02</pdfrwt>
<pdfrwt beam="2">  1        2 0.41196546E-03 0.24291190E+02</pdfrwt>
<totfact> 0.38171602E+04</totfact>
</mgrwt>
</event>
<event>
 5    1  0.9955701E-004  0.7031122E+03  0.7818608E-02  0.1226182E+00
         11   -1    0    0    0    0  0.00000000000E+00  0.00000000000E+00  0.10003082473E+04  0.10003082473E+04  0.51100000000E-03 0. -1.
          2   -1    0    0  501    0 -0.00000000000E+00 -0.00000000000E+00 -0.58990780887E+03  0.58990780887E+03  0.25500000000E-02 0. -1.
         11    1    1    2    0    0  0.14888926988E+03 -0.68562490491E+03  0.47696458002E+03  0.84837770804E+03  0.51100000000E-03 0. -1.
         22    1    1    2    0    0  0.24343893961E+02  0.76622965365E+00 -0.23898626898E+02  0.34122670597E+02  0.00000000000E+00 0. -1.
          2    1    1    2  501    0 -0.17323316384E+03  0.68485867525E+03 -0.42665514659E+02  0.70771567756E+03  0.25500000000E-02 0. -1.
<mgrwt>
<rscale>  0 0.13086239E+03</rscale>
<asrwt>0</asrwt>
<pdfrwt beam="1">  1       11 0.10000000E+01 0.70311220E+03</pdfrwt>
<pdfrwt beam="2">  1        2 0.90783020E-01 0.13086239E+03</pdfrwt>
<totfact> 0.65208855E+01</totfact>
</mgrwt>
</event>
<event>
 5    1  0.9955701E-004  0.5055428E+03  0.7818608E-02  0.1012342E+00
         11   -1    0    0    0    0  0.00000000000E+00  0.00000000000E+00  0.10001186382E+04  0.10001186382E+04  0.51100000000E-03 0. -1.
          2   -1    0    0  501    0 -0.00000000000E+00 -0.00000000000E+00 -0.38581148241E+03  0.38581148242E+03  0.25500000000E-02 0. -1.
         11    1    1    2    0    0 -0.31543462120E+03 -0.38985587312E+03  0.71215421676E+03  0.87100529878E+03  0.51100000000E-03 0. -1.
         22    1    1    2    0    0  0.35238202706E+02  0.41870100480E+02 -0.31813799334E+02  0.63300506098E+02  0.00000000000E+00 0. -1.
          2    1    1    2  501    0  0.28019641849E+03  0.34798577264E+03 -0.66033261653E+02  0.45162431572E+03  0.25500000000E-02 0. -1.
<mgrwt>
<rscale>  0 0.50554280E+03</rscale>
<asrwt>0</asrwt>
<pdfrwt beam="1">  1       11 0.10000000E+01 0.50148440E+03</pdfrwt>
<pdfrwt beam="2">  1        2 0.59362653E-01 0.50554280E+03</pdfrwt>
<totfact> 0.10277387E+02</totfact>
</mgrwt>
</event>
<event>
 5    1  0.9955701E-004  0.5306140E+02  0.7818608E-02  0.1440451E+00
         11   -1    0    0    0    0  0.00000000000E+00  0.00000000000E+00  0.10004992262E+04  0.10004992262E+04  0.51100000000E-03 0. -1.
          2   -1    0    0  501    0 -0.00000000000E+00 -0.00000000000E+00 -0.33770972280E+01  0.33770981908E+01  0.25500000000E-02 0. -1.
         11    1    1    2    0    0  0.11226429365E+02 -0.15623597812E+02  0.97658024490E+02  0.99535015309E+02  0.51100000000E-03 0. -1.
         22    1    1    2    0    0  0.31645131693E+02 -0.11847964831E+02  0.18467349471E+03  0.18773941589E+03  0.00000000000E+00 0. -1.
          2    1    1    2  501    0 -0.42871561059E+02  0.27471562643E+02  0.71479060977E+03  0.71660189319E+03  0.25500000000E-02 0. -1.
<mgrwt>
<rscale>  0 0.50918145E+02</rscale>
<asrwt>0</asrwt>
<pdfrwt beam="1">  1       11 0.10000000E+01 0.53061399E+02</pdfrwt>
<pdfrwt beam="2">  1        2 0.51981285E-03 0.50918145E+02</pdfrwt>
<totfact> 0.33435094E+04</totfact>
</mgrwt>
</event>
<event>
 5    1  0.9955701E-004  0.4284014E+03  0.7818608E-02  0.1034366E+00
         11   -1    0    0    0    0  0.00000000000E+00  0.00000000000E+00  0.10002433559E+04  0.10002433559E+04  0.51100000000E-03 0. -1.
         -2   -1    0    0    0  501 -0.00000000000E+00 -0.00000000000E+00 -0.54507828582E+03  0.54507828583E+03  0.25500000000E-02 0.  1.
         11    1    1    2    0    0 -0.41693259127E+03 -0.39975881338E+02  0.85957527597E+03  0.95619062525E+03  0.51100000000E-03 0. -1.
         22    1    1    2    0    0  0.35948947412E+02  0.73581750613E+00 -0.78079942316E+02  0.85961303151E+02  0.00000000000E+00 0.  1.
         -2    1    1    2    0  501  0.38098364386E+03  0.39240063832E+02 -0.32633026356E+03  0.50316971334E+03  0.25500000000E-02 0.  1.
<mgrwt>
<rscale>  0 0.42840138E+03</rscale>
<asrwt>0</asrwt>
<pdfrwt beam="1">  1       11 0.10000000E+01 0.41884467E+03</pdfrwt>
<pdfrwt beam="2">  1       -2 0.83878603E-01 0.42840138E+03</pdfrwt>
<totfact> 0.10293982E+01</totfact>
</mgrwt>
</event>
<event>
 5    1  0.9955701E-004  0.4725757E+03  0.7818608E-02  0.1021196E+00
         11   -1    0    0    0    0  0.00000000000E+00  0.00000000000E+00  0.99999129958E+03  0.99999129958E+03  0.51100000000E-03 0.  1.
         -2   -1    0    0    0  501 -0.00000000000E+00 -0.00000000000E+00 -0.26191877981E+03  0.26191877982E+03  0.25500000000E-02 0. -1.
         11    1    1    2    0    0  0.41127874986E+03 -0.21912702610E+03  0.61855933753E+03  0.77445627230E+03  0.51100000000E-03 0.  1.
         22    1    1    2    0    0 -0.14502345983E+02  0.31157991103E+01 -0.95157597498E+01  0.17623164493E+02  0.00000000000E+00 0. -1.
         -2    1    1    2    0  501 -0.39677640387E+03  0.21601122699E+03  0.12902894199E+03  0.46983064261E+03  0.25500000000E-02 0. -1.
<mgrwt>
<rscale>  0 0.47257572E+03</rscale>
<asrwt>0</asrwt>
<pdfrwt beam="1">  1       11 0.10000000E+01 0.46601166E+03</pdfrwt>
<pdfrwt beam="2">  1       -2 0.40294845E-01 0.47257572E+03</pdfrwt>
<totfact> 0.47481627E+01</totfact>
</mgrwt>
</event>
<event>
 5    1  0.9955701E-004  0.3181624E+02  0.7818608E-02  0.1625045E+00
         11   -1    0    0    0    0  0.00000000000E+00  0.00000000000E+00  0.99983302007E+03  0.99983302007E+03  0.51100000000E-03 0.  1.
          2   -1    0    0  501    0 -0.00000000000E+00 -0.00000000000E+00 -0.44848608543E+01  0.44848615793E+01  0.25500000000E-02 0.  1.
         11    1    1    2    0    0 -0.41272135632E+02  0.18084511762E+02  0.17177861805E+03  0.17759034987E+03  0.51100000000E-03 0.  1.
         22    1    1    2    0    0  0.23100388828E+02  0.69032033697E+01  0.11576448242E+03  0.11824845695E+03  0.00000000000E+00 0.  1.
          2    1    1    2  501    0  0.18171746804E+02 -0.24987715131E+02  0.70780505874E+03  0.70847907483E+03  0.25500000000E-02 0.  1.
<mgrwt>
<rscale>  0 0.27696255E+02</rscale>
<asrwt>0</asrwt>
<pdfrwt beam="1">  1       11 0.10000000E+01 0.31816237E+02</pdfrwt>
<pdfrwt beam="2">  1        2 0.68986342E-03 0.27696255E+02</pdfrwt>
<totfact> 0.19993504E+04</totfact>
</mgrwt>
</event>
<event>
 5    1  0.9955701E-004  0.3292426E+02  0.7818608E-02  0.1671998E+00
         11   -1    0    0    0    0  0.00000000000E+00  0.00000000000E+00  0.99995240256E+03  0.99995240256E+03  0.51100000000E-03 0.  1.
          2   -1    0    0  501    0 -0.00000000000E+00 -0.00000000000E+00 -0.49142505924E+01  0.49142512540E+01  0.25500000000E-02 0.  1.
         11    1    1    2    0    0 -0.39215297216E+02  0.45181201572E+01  0.13422407308E+03  0.13990837980E+03  0.51100000000E-03 0.  1.
         22    1    1    2    0    0  0.85841835591E+01 -0.15664863497E+02  0.43911929328E+02  0.47406051228E+02  0.00000000000E+00 0.  1.
          2    1    1    2  501    0  0.30631113657E+02  0.11146743339E+02  0.81690214956E+03  0.81755222278E+03  0.25500000000E-02 0.  1.
<mgrwt>
<rscale>  0 0.24251102E+02</rscale>
<asrwt>0</asrwt>
<pdfrwt beam="1">  1       11 0.10000000E+01 0.32924258E+02</pdfrwt>
<pdfrwt beam="2">  1        2 0.75600260E-03 0.24251102E+02</pdfrwt>
<totfact> 0.17179124E+04</totfact>
</mgrwt>
</event>
<event>
 5    1  0.9955701E-004  0.4620812E+02  0.7818608E-02  0.1696265E+00
         11   -1    0    0    0    0  0.00000000000E+00  0.00000000000E+00  0.10000042882E+04  0.10000042882E+04  0.51100000000E-03 0.  1.
          2   -1    0    0  501    0 -0.00000000000E+00 -0.00000000000E+00 -0.34567527008E+01  0.34567536414E+01  0.25500000000E-02 0.  1.
         11    1    1    2    0    0  0.42494490411E+02  0.10502350803E+02  0.21952490578E+03  0.22384652185E+03  0.51100000000E-03 0.  1.
         22    1    1    2    0    0  0.49132518090E+01 -0.10021059189E+02  0.60204362138E+02  0.61230114250E+02  0.00000000000E+00 0. -1.
          2    1    1    2  501    0 -0.47407742220E+02 -0.48129161385E+00  0.71681826763E+03  0.71838440578E+03  0.25500000000E-02 0.  1.
<mgrwt>
<rscale>  0 0.22709374E+02</rscale>
<asrwt>0</asrwt>
<pdfrwt beam="1">  1       11 0.10000000E+01 0.46208124E+02</pdfrwt>
<pdfrwt beam="2">  1        2 0.53181045E-03 0.22709374E+02</pdfrwt>
<totfact> 0.26803775E+04</totfact>
</mgrwt>
</event>
<event>
 5    1  0.9955701E-004  0.1230359E+03  0.7818608E-02  0.1411087E+00
         11   -1    0    0    0    0  0.00000000000E+00  0.00000000000E+00  0.10004275505E+04  0.10004275505E+04  0.51100000000E-03 0.  1.
          2   -1    0    0  501    0 -0.00000000000E+00 -0.00000000000E+00 -0.34859408795E+02  0.34859408888E+02  0.25500000000E-02 0.  1.
         11    1    1    2    0    0  0.88577501056E+02  0.90448605119E+02  0.72552498404E+03  0.73648722075E+03  0.51100000000E-03 0.  1.
         22    1    1    2    0    0  0.76355540003E+01 -0.25232375650E+02 -0.56847521502E+01  0.26968330925E+02  0.00000000000E+00 0.  1.
          2    1    1    2  501    0 -0.96213055056E+02 -0.65216229468E+02  0.24572790978E+03  0.27183140768E+03  0.25500000000E-02 0.  1.
<mgrwt>
<rscale>  0 0.56951879E+02</rscale>
<asrwt>0</asrwt>
<pdfrwt beam="1">  1       11 0.10000000E+01 0.12303586E+03</pdfrwt>
<pdfrwt beam="2">  1        2 0.53652788E-02 0.56951879E+02</pdfrwt>
<totfact> 0.15472583E+03</totfact>
</mgrwt>
</event>
<event>
 5    1  0.9955701E-004  0.1412732E+03  0.7818608E-02  0.1421917E+00
         11   -1    0    0    0    0  0.00000000000E+00  0.00000000000E+00  0.10002741376E+04  0.10002741376E+04  0.51100000000E-03 0. -1.
         -2   -1    0    0    0  501 -0.00000000000E+00 -0.00000000000E+00 -0.47957680036E+02  0.47957680103E+02  0.25500000000E-02 0.  1.
         11    1    1    2    0    0  0.34504325608E+02 -0.14253500847E+03  0.75561876433E+03  0.76971845121E+03  0.51100000000E-03 0. -1.
         22    1    1    2    0    0 -0.13582456905E+02  0.16167362241E+02 -0.18504752906E+02  0.28076549245E+02  0.00000000000E+00 0.  1.
         -2    1    1    2    0  501 -0.20921868703E+02  0.12636764623E+03  0.21520244616E+03  0.25043681727E+03  0.25500000000E-02 0.  1.
<mgrwt>
<rscale>  0 0.54617412E+02</rscale>
<asrwt>0</asrwt>
<pdfrwt beam="1">  1       11 0.10000000E+01 0.14127317E+03</pdfrwt>
<pdfrwt beam="2">  1       -2 0.73801270E-02 0.54617412E+02</pdfrwt>
<totfact> 0.75894448E+02</totfact>
</mgrwt>
</event>
<event>
 5    1  0.9955701E-004  0.2370168E+03  0.7818608E-02  0.1335532E+00
         11   -1    0    0    0    0  0.00000000000E+00  0.00000000000E+00  0.99995450486E+03  0.99995450486E+03  0.51100000000E-03 0.  1.
          2   -1    0    0  501    0 -0.00000000000E+00 -0.00000000000E+00 -0.41955931145E+03  0.41955931146E+03  0.25500000000E-02 0.  1.
         11    1    1    2    0    0 -0.74993394750E+02  0.24372702806E+03 -0.34422743970E+03  0.42839164756E+03  0.51100000000E-03 0.  1.
         22    1    1    2    0    0 -0.10349171839E+02 -0.23317568573E+02 -0.97564749095E+01  0.27313058499E+02  0.00000000000E+00 0. -1.
          2    1    1    2  501    0  0.85342566589E+02 -0.22040945949E+03  0.93437910801E+03  0.96380911025E+03  0.25500000000E-02 0.  1.
<mgrwt>
<rscale>  0 0.77759551E+02</rscale>
<asrwt>0</asrwt>
<pdfrwt beam="1">  1       11 0.10000000E+01 0.23701680E+03</pdfrwt>
<pdfrwt beam="2">  1        2 0.64544648E-01 0.77759551E+02</pdfrwt>
<totfact> 0.95149953E+01</totfact>
</mgrwt>
</event>
<event>
 5    1  0.9955701E-004  0.7501746E+02  0.7818608E-02  0.1343817E+00
         11   -1    0    0    0    0  0.00000000000E+00  0.00000000000E+00  0.10003106913E+04  0.10003106913E+04  0.51100000000E-03 0.  1.
          2   -1    0    0  501    0 -0.00000000000E+00 -0.00000000000E+00 -0.21208574276E+02  0.21208574430E+02  0.25500000000E-02 0.  1.
         11    1    1    2    0    0  0.53905727323E+02  0.67806083529E+01  0.22630836657E+03  0.23273865358E+03  0.51100000000E-03 0.  1.
         22    1    1    2    0    0 -0.22335047457E+02 -0.74171505611E+02  0.78115609476E+02  0.11001052238E+03  0.00000000000E+00 0.  1.
          2    1    1    2  501    0 -0.31570679867E+02  0.67390897258E+02  0.67467814102E+03  0.67877008982E+03  0.25500000000E-02 0.  1.
<mgrwt>
<rscale>  0 0.75017462E+02</rscale>
<asrwt>0</asrwt>
<pdfrwt beam="1">  1       11 0.10000000E+01 0.54330508E+02</pdfrwt>
<pdfrwt beam="2">  1        2 0.32638712E-02 0.75017462E+02</pdfrwt>
<totfact> 0.30257229E+03</totfact>
</mgrwt>
</event>
<event>
 5    1  0.9955701E-004  0.9941489E+02  0.7818608E-02  0.1322259E+00
         11   -1    0    0    0    0  0.00000000000E+00  0.00000000000E+00  0.10003503026E+04  0.10003503026E+04  0.51100000000E-03 0.  1.
          2   -1    0    0  501    0 -0.00000000000E+00 -0.00000000000E+00 -0.20406859348E+02  0.20406859507E+02  0.25500000000E-02 0.  1.
         11    1    1    2    0    0  0.40375524178E+02 -0.11627292898E+03  0.53378616535E+03  0.54779306977E+03  0.51100000000E-03 0.  1.
         22    1    1    2    0    0  0.26991213905E+02  0.62814147467E+02  0.15585085968E+03  0.17018705360E+03  0.00000000000E+00 0.  1.
          2    1    1    2  501    0 -0.67366738084E+02  0.53458781513E+02  0.29030641825E+03  0.30277703877E+03  0.25500000000E-02 0.  1.
<mgrwt>
<rscale>  0 0.82442489E+02</rscale>
<asrwt>0</asrwt>
<pdfrwt beam="1">  1       11 0.10000000E+01 0.99414887E+02</pdfrwt>
<pdfrwt beam="2">  1        2 0.31406165E-02 0.82442489E+02</pdfrwt>
<totfact> 0.32172834E+03</totfact>
</mgrwt>
</event>
<event>
 5    1  0.9955701E-004  0.1857945E+03  0.7818608E-02  0.1374032E+00
         11   -1    0    0    0    0  0.00000000000E+00  0.00000000000E+00  0.10001031912E+04  0.10001031912E+04  0.51100000000E-03 0. -1.
          2   -1    0    0  501    0 -0.00000000000E+00 -0.00000000000E+00 -0.20010043900E+03  0.20010043902E+03  0.25500000000E-02 0. -1.
         11    1    1    2    0    0 -0.10458920675E+03 -0.15509724818E+03  0.91687873951E+03  0.93576742919E+03  0.51100000000E-03 0. -1.
         22    1    1    2    0    0 -0.62670396475E+01  0.22635509847E+02 -0.85771569187E+02  0.88929208772E+02  0.00000000000E+00 0. -1.
          2    1    1    2  501    0  0.11085624640E+03  0.13246173834E+03 -0.31104418147E+02  0.17550699224E+03  0.25500000000E-02 0. -1.
<mgrwt>
<rscale>  0 0.66058816E+02</rscale>
<asrwt>0</asrwt>
<pdfrwt beam="1">  1       11 0.10000000E+01 0.18579451E+03</pdfrwt>
<pdfrwt beam="2">  1        2 0.30787859E-01 0.66058816E+02</pdfrwt>
<totfact> 0.20542025E+02</totfact>
</mgrwt>
</event>
<event>
 5    1  0.9955701E-004  0.1420183E+03  0.7818608E-02  0.1465816E+00
         11   -1    0    0    0    0  0.00000000000E+00  0.00000000000E+00  0.10001523903E+04  0.10001523903E+04  0.51100000000E-03 0. -1.
          2   -1    0    0  501    0 -0.00000000000E+00 -0.00000000000E+00 -0.34621058532E+02  0.34621058626E+02  0.25500000000E-02 0. -1.
         11    1    1    2    0    0  0.88953996300E+02 -0.11336312053E+03  0.76800784218E+03  0.78140901978E+03  0.51100000000E-03 0. -1.
         22    1    1    2    0    0 -0.15141097114E+02 -0.68235835662E+00  0.20112425773E+01  0.15289327371E+02  0.00000000000E+00 0. -1.
          2    1    1    2  501    0 -0.73812899186E+02  0.11404547889E+03  0.19551224696E+03  0.23807510172E+03  0.25500000000E-02 0. -1.
<mgrwt>
<rscale>  0 0.46394989E+02</rscale>
<asrwt>0</asrwt>
<pdfrwt beam="1">  1       11 0.10000000E+01 0.14201827E+03</pdfrwt>
<pdfrwt beam="2">  1        2 0.53271282E-02 0.46394989E+02</pdfrwt>
<totfact> 0.15286477E+03</totfact>
</mgrwt>
</event>
<event>
 5    1  0.9955701E-004  0.1384045E+03  0.7818608E-02  0.1388808E+00
         11   -1    0    0    0    0  0.00000000000E+00  0.00000000000E+00  0.10003676886E+04  0.10003676886E+04  0.51100000000E-03 0. -1.
          2   -1    0    0  501    0 -0.00000000000E+00 -0.00000000000E+00 -0.30381321182E+02  0.30381321289E+02  0.25500000000E-02 0. -1.
         11    1    1    2    0    0 -0.81752175135E+02  0.11490585730E+03  0.71723749599E+03  0.73096949309E+03  0.51100000000E-03 0. -1.
         22    1    1    2    0    0  0.27295166764E+02  0.60468244597E+01  0.54410924775E+02  0.61173024689E+02  0.00000000000E+00 0. -1.
          2    1    1    2  501    0  0.54457008371E+02 -0.12095268176E+03  0.19833794665E+03  0.23860649210E+03  0.25500000000E-02 0. -1.
<mgrwt>
<rscale>  0 0.62204227E+02</rscale>
<asrwt>0</asrwt>
<pdfrwt beam="1">  1       11 0.10000000E+01 0.13840451E+03</pdfrwt>
<pdfrwt beam="2">  1        2 0.46757679E-02 0.62204227E+02</pdfrwt>
<totfact> 0.18596182E+03</totfact>
</mgrwt>
</event>
<event>
 5    1  0.9955701E-004  0.7099735E+02  0.7818608E-02  0.1513323E+00
         11   -1    0    0    0    0  0.00000000000E+00  0.00000000000E+00  0.10002722692E+04  0.10002722692E+04  0.51100000000E-03 0. -1.
          2   -1    0    0  501    0 -0.00000000000E+00 -0.00000000000E+00 -0.14207582143E+02  0.14207582372E+02  0.25500000000E-02 0.  1.
         11    1    1    2    0    0  0.61392685064E+02 -0.61483041806E+02  0.21890890272E+03  0.23552140858E+03  0.51100000000E-03 0. -1.
         22    1    1    2    0    0 -0.68009225446E+01  0.20679903223E+02  0.22928486644E+02  0.31616869620E+02  0.00000000000E+00 0.  1.
          2    1    1    2  501    0 -0.54591762519E+02  0.40803138582E+02  0.74422729769E+03  0.74734157336E+03  0.25500000000E-02 0.  1.
<mgrwt>
<rscale>  0 0.39313810E+02</rscale>
<asrwt>0</asrwt>
<pdfrwt beam="1">  1       11 0.10000000E+01 0.70997347E+02</pdfrwt>
<pdfrwt beam="2">  1        2 0.21863769E-02 0.39313810E+02</pdfrwt>
<totfact> 0.46916107E+03</totfact>
</mgrwt>
</event>
<event>
 5    1  0.9955701E-004  0.3131123E+03  0.7818608E-02  0.1344022E+00
         11   -1    0    0    0    0  0.00000000000E+00  0.00000000000E+00  0.10003368855E+04  0.10003368855E+04  0.51100000000E-03 0. -1.
          2   -1    0    0  501    0 -0.00000000000E+00 -0.00000000000E+00 -0.11416274060E+03  0.11416274063E+03  0.25500000000E-02 0. -1.
         11    1    1    2    0    0  0.28891431158E+03  0.13277333789E+03  0.52023175862E+03  0.60970593024E+03  0.51100000000E-03 0. -1.
         22    1    1    2    0    0 -0.40169922767E+01 -0.17486052424E+02 -0.89284714987E+01  0.20040355776E+02  0.00000000000E+00 0. -1.
          2    1    1    2  501    0 -0.28489731930E+03 -0.11528728547E+03  0.37487085782E+03  0.48475334015E+03  0.25500000000E-02 0. -1.
<mgrwt>
<rscale>  0 0.74951395E+02</rscale>
<asrwt>0</asrwt>
<pdfrwt beam="1">  1       11 0.10000000E+01 0.31311230E+03</pdfrwt>
<pdfrwt beam="2">  1        2 0.17569415E-01 0.74951395E+02</pdfrwt>
<totfact> 0.38012692E+02</totfact>
</mgrwt>
</event>
<event>
 5    1  0.9955701E-004  0.8690751E+02  0.7818608E-02  0.1431044E+00
         11   -1    0    0    0    0  0.00000000000E+00  0.00000000000E+00  0.10003414782E+04  0.10003414782E+04  0.51100000000E-03 0.  1.
          2   -1    0    0  501    0 -0.00000000000E+00 -0.00000000000E+00 -0.12925094605E+02  0.12925094857E+02  0.25500000000E-02 0.  1.
         11    1    1    2    0    0  0.67180486784E+02  0.79495023347E+02  0.59014604917E+03  0.59925373249E+03  0.51100000000E-03 0.  1.
         22    1    1    2    0    0 -0.24585978614E+02 -0.20511905575E+02  0.51276735775E+02  0.60452561951E+02  0.00000000000E+00 0.  1.
          2    1    1    2  501    0 -0.42594508170E+02 -0.58983117772E+02  0.34599359869E+03  0.35356027866E+03  0.25500000000E-02 0.  1.
<mgrwt>
<rscale>  0 0.52751110E+02</rscale>
<asrwt>0</asrwt>
<pdfrwt beam="1">  1       11 0.10000000E+01 0.86907509E+02</pdfrwt>
<pdfrwt beam="2">  1        2 0.19891551E-02 0.52751110E+02</pdfrwt>
<totfact> 0.55560268E+03</totfact>
</mgrwt>
</event>
<event>
 5    1  0.9955701E-004  0.8683698E+02  0.7818608E-02  0.1397175E+00
         11   -1    0    0    0    0  0.00000000000E+00  0.00000000000E+00  0.99981946228E+03  0.99981946228E+03  0.51100000000E-03 0.  1.
          2   -1    0    0  501    0 -0.00000000000E+00 -0.00000000000E+00 -0.36561611798E+02  0.36561611887E+02  0.25500000000E-02 0.  1.
         11    1    1    2    0    0  0.10587376770E+03  0.32525674332E+02  0.42101541310E+03  0.43534027180E+03  0.51100000000E-03 0.  1.
         22    1    1    2    0    0 -0.40239218045E+02  0.10840582581E+02 -0.10298807205E+02  0.42927594033E+02  0.00000000000E+00 0.  1.
          2    1    1    2  501    0 -0.65634549659E+02 -0.43366256912E+02  0.55254124458E+03  0.55811320833E+03  0.25500000000E-02 0.  1.
<mgrwt>
<rscale>  0 0.60156736E+02</rscale>
<asrwt>0</asrwt>
<pdfrwt beam="1">  1       11 0.10000000E+01 0.86836985E+02</pdfrwt>
<pdfrwt beam="2">  1        2 0.56238477E-02 0.60156736E+02</pdfrwt>
<totfact> 0.14659201E+03</totfact>
</mgrwt>
</event>
<event>
 5    1  0.9955701E-004  0.4893727E+02  0.7818608E-02  0.1480917E+00
         11   -1    0    0    0    0  0.00000000000E+00  0.00000000000E+00  0.99996580270E+03  0.99996580270E+03  0.51100000000E-03 0.  1.
          2   -1    0    0  501    0 -0.00000000000E+00 -0.00000000000E+00 -0.60171197034E+01  0.60171202437E+01  0.25500000000E-02 0.  1.
         11    1    1    2    0    0  0.13853492174E+02 -0.92262667374E+01  0.33108392030E+02  0.37056832924E+02  0.51100000000E-03 0.  1.
         22    1    1    2    0    0  0.30038554180E+02  0.11735034768E+02  0.70779907604E+02  0.77780595901E+02  0.00000000000E+00 0.  1.
          2    1    1    2  501    0 -0.43892046354E+02 -0.25087680311E+01  0.89006038337E+03  0.89114549412E+03  0.25500000000E-02 0.  1.
<mgrwt>
<rscale>  0 0.43963686E+02</rscale>
<asrwt>0</asrwt>
<pdfrwt beam="1">  1       11 0.10000000E+01 0.48937269E+02</pdfrwt>
<pdfrwt beam="2">  1        2 0.92567908E-03 0.43963686E+02</pdfrwt>
<totfact> 0.14926613E+04</totfact>
</mgrwt>
</event>
<event>
 5    1  0.9955701E-004  0.2474983E+02  0.7818608E-02  0.1703766E+00
         11   -1    0    0    0    0  0.00000000000E+00  0.00000000000E+00  0.10001941349E+04  0.10001941349E+04  0.51100000000E-03 0.  1.
         -2   -1    0    0    0  501 -0.00000000000E+00 -0.00000000000E+00 -0.28997741497E+01  0.28997752709E+01  0.25500000000E-02 0.  1.
         11    1    1    2    0    0 -0.21081119839E+02  0.30536280750E+01  0.88499649004E+02  0.91027062636E+02  0.51100000000E-03 0.  1.
         22    1    1    2    0    0  0.89194411480E+00 -0.20003698980E+02  0.68698821260E+02  0.71557470467E+02  0.00000000000E+00 0.  1.
         -2    1    1    2    0  501  0.20189175724E+02  0.16950070905E+02  0.84009589049E+03  0.84050937707E+03  0.25500000000E-02 0.  1.
<mgrwt>
<rscale>  0 0.22261621E+02</rscale>
<asrwt>0</asrwt>
<pdfrwt beam="1">  1       11 0.10000000E+01 0.24749827E+02</pdfrwt>
<pdfrwt beam="2">  1       -2 0.44620578E-03 0.22261621E+02</pdfrwt>
<totfact> 0.32693115E+04</totfact>
</mgrwt>
</event>
<event>
 5    1  0.9955701E-004  0.7582178E+02  0.7818608E-02  0.1341345E+00
         11   -1    0    0    0    0  0.00000000000E+00  0.00000000000E+00  0.10002602816E+04  0.10002602816E+04  0.51100000000E-03 0. -1.
          2   -1    0    0  501    0 -0.00000000000E+00 -0.00000000000E+00 -0.12160509008E+02  0.12160509275E+02  0.25500000000E-02 0. -1.
         11    1    1    2    0    0 -0.51821676687E+02 -0.53150211368E+02  0.14181440770E+03  0.16006797736E+03  0.51100000000E-03 0. -1.
         22    1    1    2    0    0 -0.14196460719E+02  0.28379286829E+00  0.66801916371E+02  0.68294334071E+02  0.00000000000E+00 0.  1.
          2    1    1    2  501    0  0.66018137407E+02  0.52866418499E+02  0.77948344855E+03  0.78405847948E+03  0.25500000000E-02 0. -1.
<mgrwt>
<rscale>  0 0.75821775E+02</rscale>
<asrwt>0</asrwt>
<pdfrwt beam="1">  1       11 0.10000000E+01 0.14199297E+02</pdfrwt>
<pdfrwt beam="2">  1        2 0.18713345E-02 0.75821775E+02</pdfrwt>
<totfact> 0.63492360E+03</totfact>
</mgrwt>
</event>
<event>
 5    1  0.9955701E-004  0.5069439E+03  0.7818608E-02  0.1282577E+00
         11   -1    0    0    0    0  0.00000000000E+00  0.00000000000E+00  0.10000332220E+04  0.10000332220E+04  0.51100000000E-03 0.  1.
         -2   -1    0    0    0  501 -0.00000000000E+00 -0.00000000000E+00 -0.48956384564E+03  0.48956384564E+03  0.25500000000E-02 0. -1.
         11    1    1    2    0    0  0.25650879203E+03  0.43365124579E+03  0.74409725366E+03  0.89862722319E+03  0.51100000000E-03 0.  1.
         22    1    1    2    0    0  0.12937397803E+02  0.14326454472E+02 -0.14461287552E+02  0.24119543887E+02  0.00000000000E+00 0.  1.
         -2    1    1    2    0  501 -0.26944618983E+03 -0.44797770026E+03 -0.21916658977E+03  0.56685030054E+03  0.25500000000E-02 0. -1.
<mgrwt>
<rscale>  0 0.98923060E+02</rscale>
<asrwt>0</asrwt>
<pdfrwt beam="1">  1       11 0.10000000E+01 0.50694393E+03</pdfrwt>
<pdfrwt beam="2">  1       -2 0.75320015E-01 0.98923060E+02</pdfrwt>
<totfact> 0.13444109E+01</totfact>
</mgrwt>
</event>
<event>
 5    1  0.9955701E-004  0.6974731E+02  0.7818608E-02  0.1360954E+00
         11   -1    0    0    0    0  0.00000000000E+00  0.00000000000E+00  0.99997574106E+03  0.99997574106E+03  0.51100000000E-03 0. -1.
          2   -1    0    0  501    0 -0.00000000000E+00 -0.00000000000E+00 -0.26769108732E+02  0.26769108853E+02  0.25500000000E-02 0. -1.
         11    1    1    2    0    0  0.32544470016E+02  0.61748348952E+02  0.26829090670E+02  0.74778347357E+02  0.51100000000E-03 0. -1.
         22    1    1    2    0    0  0.14747601956E+02 -0.90058707521E+01  0.52169443008E+02  0.54956785343E+02  0.00000000000E+00 0.  1.
          2    1    1    2  501    0 -0.47292071972E+02 -0.52742478200E+02  0.89420809865E+03  0.89700971722E+03  0.25500000000E-02 0. -1.
<mgrwt>
<rscale>  0 0.69747305E+02</rscale>
<asrwt>0</asrwt>
<pdfrwt beam="1">  1       11 0.10000000E+01 0.17279973E+02</pdfrwt>
<pdfrwt beam="2">  1        2 0.41182244E-02 0.69747305E+02</pdfrwt>
<totfact> 0.22160159E+03</totfact>
</mgrwt>
</event>
<event>
 5    1  0.9955701E-004  0.3190401E+03  0.7818608E-02  0.1400190E+00
         11   -1    0    0    0    0  0.00000000000E+00  0.00000000000E+00  0.10001863754E+04  0.10001863754E+04  0.51100000000E-03 0.  1.
          2   -1    0    0  501    0 -0.00000000000E+00 -0.00000000000E+00 -0.20410733244E+03  0.20410733245E+03  0.25500000000E-02 0.  1.
         11    1    1    2    0    0  0.26604237864E+03 -0.19176434081E+03 -0.14597124752E+01  0.32795463162E+03  0.51100000000E-03 0.  1.
         22    1    1    2    0    0 -0.10517033111E+02  0.34703160118E+01 -0.58473338375E+01  0.12523673250E+02  0.00000000000E+00 0.  1.
          2    1    1    2  501    0 -0.25552534553E+03  0.18829402480E+03  0.80338608925E+03  0.86381540296E+03  0.25500000000E-02 0.  1.
<mgrwt>
<rscale>  0 0.59441586E+02</rscale>
<asrwt>0</asrwt>
<pdfrwt beam="1">  1       11 0.10000000E+01 0.31904013E+03</pdfrwt>
<pdfrwt beam="2">  1        2 0.31406980E-01 0.59441586E+02</pdfrwt>
<totfact> 0.20062477E+02</totfact>
</mgrwt>
</event>
<event>
 5    1  0.9955701E-004  0.6284747E+02  0.7818608E-02  0.1658014E+00
         11   -1    0    0    0    0  0.00000000000E+00  0.00000000000E+00  0.10001155669E+04  0.10001155669E+04  0.51100000000E-03 0. -1.
          2   -1    0    0  501    0 -0.00000000000E+00 -0.00000000000E+00 -0.16996928686E+02  0.16996928877E+02  0.25500000000E-02 0. -1.
         11    1    1    2    0    0  0.60156563589E+02 -0.38380864295E+02  0.10726858574E+03  0.12883498118E+03  0.51100000000E-03 0. -1.
         22    1    1    2    0    0 -0.60675975258E+01  0.80891670043E+01 -0.12387675202E+00  0.10112650889E+02  0.00000000000E+00 0. -1.
          2    1    1    2  501    0 -0.54088966063E+02  0.30291697291E+02  0.87597392925E+03  0.87816486374E+03  0.25500000000E-02 0. -1.
<mgrwt>
<rscale>  0 0.25209254E+02</rscale>
<asrwt>0</asrwt>
<pdfrwt beam="1">  1       11 0.10000000E+01 0.62847465E+02</pdfrwt>
<pdfrwt beam="2">  1        2 0.26152142E-02 0.25209254E+02</pdfrwt>
<totfact> 0.34673840E+03</totfact>
</mgrwt>
</event>
<event>
 5    1  0.9955701E-004  0.2036420E+03  0.7818608E-02  0.1366324E+00
         11   -1    0    0    0    0  0.00000000000E+00  0.00000000000E+00  0.10002873223E+04  0.10002873223E+04  0.51100000000E-03 0. -1.
          2   -1    0    0  501    0 -0.00000000000E+00 -0.00000000000E+00 -0.98294938140E+02  0.98294938173E+02  0.25500000000E-02 0. -1.
         11    1    1    2    0    0  0.20275139471E+03 -0.44659164059E+02  0.67240119989E+03  0.70372291607E+03  0.51100000000E-03 0. -1.
         22    1    1    2    0    0 -0.16041844631E+02 -0.16258350440E+02 -0.48964712819E+02  0.54029786597E+02  0.00000000000E+00 0. -1.
          2    1    1    2  501    0 -0.18670955007E+03  0.60917514498E+02  0.27855589707E+03  0.34082955779E+03  0.25500000000E-02 0. -1.
<mgrwt>
<rscale>  0 0.68199880E+02</rscale>
<asrwt>0</asrwt>
<pdfrwt beam="1">  1       11 0.10000000E+01 0.20364198E+03</pdfrwt>
<pdfrwt beam="2">  1        2 0.15126643E-01 0.68199880E+02</pdfrwt>
<totfact> 0.44851244E+02</totfact>
</mgrwt>
</event>
<event>
 5    1  0.9955701E-004  0.1242272E+03  0.7818608E-02  0.1451523E+00
         11   -1    0    0    0    0  0.00000000000E+00  0.00000000000E+00  0.10005051473E+04  0.10005051473E+04  0.51100000000E-03 0. -1.
          2   -1    0    0  501    0 -0.00000000000E+00 -0.00000000000E+00 -0.19409330470E+02  0.19409330637E+02  0.25500000000E-02 0. -1.
         11    1    1    2    0    0  0.10600995788E+03  0.52313918983E+02  0.46724648144E+03  0.48196901530E+03  0.51100000000E-03 0. -1.
         22    1    1    2    0    0  0.50556764095E+01  0.18549949668E+02  0.24344740911E+02  0.31021394338E+02  0.00000000000E+00 0. -1.
          2    1    1    2  501    0 -0.11106563429E+03 -0.70863868652E+02  0.48950459444E+03  0.50692406826E+03  0.25500000000E-02 0. -1.
<mgrwt>
<rscale>  0 0.48871883E+02</rscale>
<asrwt>0</asrwt>
<pdfrwt beam="1">  1       11 0.10000000E+01 0.12422718E+03</pdfrwt>
<pdfrwt beam="2">  1        2 0.29875592E-02 0.48871883E+02</pdfrwt>
<totfact> 0.32223994E+03</totfact>
</mgrwt>
</event>
<event>
 5    1  0.9955701E-004  0.1588421E+03  0.7818608E-02  0.1503279E+00
         11   -1    0    0    0    0  0.00000000000E+00  0.00000000000E+00  0.10002285834E+04  0.10002285834E+04  0.51100000000E-03 0.  1.
          2   -1    0    0  501    0 -0.00000000000E+00 -0.00000000000E+00 -0.68420114762E+02  0.68420114810E+02  0.25500000000E-02 0.  1.
         11    1    1    2    0    0 -0.15949305449E+03  0.21305395088E+02  0.77559220467E+03  0.79210808747E+03  0.51100000000E-03 0.  1.
         22    1    1    2    0    0  0.80043713831E+01 -0.66672474114E+01 -0.32484008455E+02  0.34113530374E+02  0.00000000000E+00 0.  1.
          2    1    1    2  501    0  0.15148868310E+03 -0.14638147677E+02  0.18870027242E+03  0.24242708037E+03  0.25500000000E-02 0.  1.
<mgrwt>
<rscale>  0 0.40678263E+02</rscale>
<asrwt>0</asrwt>
<pdfrwt beam="1">  1       11 0.10000000E+01 0.15884210E+03</pdfrwt>
<pdfrwt beam="2">  1        2 0.10528577E-01 0.40678263E+02</pdfrwt>
<totfact> 0.66014465E+02</totfact>
</mgrwt>
</event>
<event>
 5    1  0.9955701E-004  0.1812019E+03  0.7818608E-02  0.1231566E+00
         11   -1    0    0    0    0  0.00000000000E+00  0.00000000000E+00  0.10001579442E+04  0.10001579442E+04  0.51100000000E-03 0.  1.
          2   -1    0    0  501    0 -0.00000000000E+00 -0.00000000000E+00 -0.14948059602E+03  0.14948059604E+03  0.25500000000E-02 0.  1.
         11    1    1    2    0    0 -0.19260441316E+03 -0.79036585896E+02  0.77817905034E+03  0.80554694231E+03  0.51100000000E-03 0.  1.
         22    1    1    2    0    0  0.55383275286E+02  0.70163260107E+02 -0.92952191096E+02  0.12895852077E+03  0.00000000000E+00 0.  1.
          2    1    1    2  501    0  0.13722113787E+03  0.88733257896E+01  0.16545048888E+03  0.21513307711E+03  0.25500000000E-02 0.  1.
<mgrwt>
<rscale>  0 0.12726841E+03</rscale>
<asrwt>0</asrwt>
<pdfrwt beam="1">  1       11 0.10000000E+01 0.18120186E+03</pdfrwt>
<pdfrwt beam="2">  1        2 0.23000646E-01 0.12726841E+03</pdfrwt>
<totfact> 0.28669714E+02</totfact>
</mgrwt>
</event>
<event>
 5    1  0.9955701E-004  0.2347454E+03  0.7818608E-02  0.1355404E+00
         11   -1    0    0    0    0  0.00000000000E+00  0.00000000000E+00  0.99999878590E+03  0.99999878590E+03  0.51100000000E-03 0. -1.
         -2   -1    0    0    0  501 -0.00000000000E+00 -0.00000000000E+00 -0.13151709842E+03  0.13151709844E+03  0.25500000000E-02 0.  1.
         11    1    1    2    0    0 -0.22901560400E+03 -0.61723106702E+02  0.74753256492E+03  0.78425941141E+03  0.51100000000E-03 0. -1.
         22    1    1    2    0    0  0.14737837317E+02 -0.15948733587E+02 -0.55123736875E+02  0.59246876027E+02  0.00000000000E+00 0.  1.
         -2    1    1    2    0  501  0.21427776668E+03  0.77671840289E+02  0.17607285944E+03  0.28800959690E+03  0.25500000000E-02 0.  1.
<mgrwt>
<rscale>  0 0.71397687E+02</rscale>
<asrwt>0</asrwt>
<pdfrwt beam="1">  1       11 0.10000000E+01 0.23474539E+03</pdfrwt>
<pdfrwt beam="2">  1       -2 0.20233375E-01 0.71397687E+02</pdfrwt>
<totfact> 0.15824310E+02</totfact>
</mgrwt>
</event>
<event>
 5    1  0.9955701E-004  0.5142989E+03  0.7818608E-02  0.1124747E+00
         11   -1    0    0    0    0  0.00000000000E+00  0.00000000000E+00  0.10001927351E+04  0.10001927351E+04  0.51100000000E-03 0.  1.
          2   -1    0    0  501    0 -0.00000000000E+00 -0.00000000000E+00 -0.48472550743E+03  0.48472550743E+03  0.25500000000E-02 0.  1.
         11    1    1    2    0    0 -0.43175347409E+03  0.33469676924E+03  0.58069723496E+03  0.79727176572E+03  0.51100000000E-03 0.  1.
         22    1    1    2    0    0  0.31912790311E+02 -0.10034338766E+03 -0.18149421733E+03  0.20982700626E+03  0.00000000000E+00 0.  1.
          2    1    1    2  501    0  0.39984068378E+03 -0.23435338158E+03  0.11626421000E+03  0.47781947051E+03  0.25500000000E-02 0.  1.
<mgrwt>
<rscale>  0 0.23270916E+03</rscale>
<asrwt>0</asrwt>
<pdfrwt beam="1">  1       11 0.10000000E+01 0.51429888E+03</pdfrwt>
<pdfrwt beam="2">  1        2 0.74587526E-01 0.23270916E+03</pdfrwt>
<totfact> 0.80448043E+01</totfact>
</mgrwt>
</event>
<event>
 5    1  0.9955701E-004  0.3164647E+02  0.7818608E-02  0.1580571E+00
         11   -1    0    0    0    0  0.00000000000E+00  0.00000000000E+00  0.10001434271E+04  0.10001434271E+04  0.51100000000E-03 0.  1.
         -2   -1    0    0    0  501 -0.00000000000E+00 -0.00000000000E+00 -0.14549789985E+02  0.14549790209E+02  0.25500000000E-02 0.  1.
         11    1    1    2    0    0  0.74977202302E+01 -0.14608716961E+02  0.66260662671E+02  0.68264967867E+02  0.51100000000E-03 0.  1.
         22    1    1    2    0    0  0.80336941995E+01 -0.30272367567E+02  0.60350997856E+01  0.31896377694E+02  0.00000000000E+00 0.  1.
         -2    1    1    2    0  501 -0.15531414430E+02  0.44881084528E+02  0.91329787468E+03  0.91453187178E+03  0.25500000000E-02 0.  1.
<mgrwt>
<rscale>  0 0.31646467E+02</rscale>
<asrwt>0</asrwt>
<pdfrwt beam="1">  1       11 0.10000000E+01 0.16420435E+02</pdfrwt>
<pdfrwt beam="2">  1       -2 0.22387502E-02 0.31646467E+02</pdfrwt>
<totfact> 0.39344531E+03</totfact>
</mgrwt>
</event>
<event>
 5    1  0.9955701E-004  0.1298208E+03  0.7818608E-02  0.1270673E+00
         11   -1    0    0    0    0  0.00000000000E+00  0.00000000000E+00  0.10003335700E+04  0.10003335700E+04  0.51100000000E-03 0.  1.
          2   -1    0    0  501    0 -0.00000000000E+00 -0.00000000000E+00 -0.59418759388E+02  0.59418759442E+02  0.25500000000E-02 0.  1.
         11    1    1    2    0    0  0.13045842639E+03 -0.41767053870E+02  0.29446072842E+03  0.32476300342E+03  0.51100000000E-03 0.  1.
         22    1    1    2    0    0 -0.65995954960E+02  0.12429447393E+03  0.86195444637E+02  0.16502798853E+03  0.00000000000E+00 0.  1.
          2    1    1    2  501    0 -0.64462471427E+02 -0.82527420062E+02  0.56025863751E+03  0.56996133746E+03  0.25500000000E-02 0.  1.
<mgrwt>
<rscale>  0 0.10471956E+03</rscale>
<asrwt>0</asrwt>
<pdfrwt beam="1">  1       11 0.10000000E+01 0.12982078E+03</pdfrwt>
<pdfrwt beam="2">  1        2 0.91443966E-02 0.10471956E+03</pdfrwt>
<totfact> 0.83579666E+02</totfact>
</mgrwt>
</event>
<event>
 5    1  0.9955701E-004  0.2517783E+03  0.7818608E-02  0.1318405E+00
         11   -1    0    0    0    0  0.00000000000E+00  0.00000000000E+00  0.10002097957E+04  0.10002097957E+04  0.51100000000E-03 0.  1.
         -2   -1    0    0    0  501 -0.00000000000E+00 -0.00000000000E+00 -0.17493880073E+03  0.17493880075E+03  0.25500000000E-02 0. -1.
         11    1    1    2    0    0  0.20072319973E+03  0.15780475655E+03  0.85575740601E+03  0.89303576750E+03  0.51100000000E-03 0.  1.
         22    1    1    2    0    0 -0.27553790084E+02 -0.46319150302E+01 -0.42215080104E+02  0.50623897252E+02  0.00000000000E+00 0.  1.
         -2    1    1    2    0  501 -0.17316940965E+03 -0.15317284152E+03  0.11728669075E+02  0.23148893171E+03  0.25500000000E-02 0. -1.
<mgrwt>
<rscale>  0 0.83873636E+02</rscale>
<asrwt>0</asrwt>
<pdfrwt beam="1">  1       11 0.10000000E+01 0.25177831E+03</pdfrwt>
<pdfrwt beam="2">  1       -2 0.26919307E-01 0.83873636E+02</pdfrwt>
<totfact> 0.97771602E+01</totfact>
</mgrwt>
</event>
<event>
 5    1  0.9955701E-004  0.7652660E+02  0.7818608E-02  0.1339208E+00
         11   -1    0    0    0    0  0.00000000000E+00  0.00000000000E+00  0.10001305214E+04  0.10001305214E+04  0.51100000000E-03 0. -1.
          2   -1    0    0  501    0 -0.00000000000E+00 -0.00000000000E+00 -0.17717445644E+02  0.17717445828E+02  0.25500000000E-02 0. -1.
         11    1    1    2    0    0  0.36241849698E+02 -0.49097255406E+01  0.18387317326E+02  0.40934954661E+02  0.51100000000E-03 0. -1.
         22    1    1    2    0    0 -0.48960245815E+02  0.73536404615E+02  0.53150290030E+03  0.53879499023E+03  0.00000000000E+00 0. -1.
          2    1    1    2  501    0  0.12718396117E+02 -0.68626679074E+02  0.43252285809E+03  0.43811802229E+03  0.25500000000E-02 0. -1.
<mgrwt>
<rscale>  0 0.76526599E+02</rscale>
<asrwt>0</asrwt>
<pdfrwt beam="1">  1       11 0.10000000E+01 0.36572919E+02</pdfrwt>
<pdfrwt beam="2">  1        2 0.27261166E-02 0.76526599E+02</pdfrwt>
<totfact> 0.38466137E+03</totfact>
</mgrwt>
</event>
<event>
 5    1  0.9955701E-004  0.1867706E+03  0.7818608E-02  0.1475565E+00
         11   -1    0    0    0    0  0.00000000000E+00  0.00000000000E+00  0.99989291127E+03  0.99989291127E+03  0.51100000000E-03 0. -1.
          2   -1    0    0  501    0 -0.00000000000E+00 -0.00000000000E+00 -0.55081728225E+02  0.55081728285E+02  0.25500000000E-02 0. -1.
         11    1    1    2    0    0 -0.11768662787E+03 -0.14710327889E+03  0.74519353089E+03  0.76863705057E+03  0.51100000000E-03 0. -1.
         22    1    1    2    0    0  0.10742516351E+02 -0.35014461502E+00 -0.54512643315E+01  0.12051578387E+02  0.00000000000E+00 0. -1.
          2    1    1    2  501    0  0.10694411152E+03  0.14745342350E+03  0.20506891649E+03  0.27428601059E+03  0.25500000000E-02 0. -1.
<mgrwt>
<rscale>  0 0.44804594E+02</rscale>
<asrwt>0</asrwt>
<pdfrwt beam="1">  1       11 0.10000000E+01 0.18677059E+03</pdfrwt>
<pdfrwt beam="2">  1        2 0.84732043E-02 0.44804594E+02</pdfrwt>
<totfact> 0.86109359E+02</totfact>
</mgrwt>
</event>
<event>
 5    1  0.9955701E-004  0.7914564E+02  0.7818608E-02  0.1477922E+00
         11   -1    0    0    0    0  0.00000000000E+00  0.00000000000E+00  0.10001598323E+04  0.10001598323E+04  0.51100000000E-03 0.  1.
          2   -1    0    0  501    0 -0.00000000000E+00 -0.00000000000E+00 -0.10496738108E+02  0.10496738418E+02  0.25500000000E-02 0.  1.
         11    1    1    2    0    0  0.91398194279E+02  0.22627189478E+02  0.38026275117E+03  0.39174657567E+03  0.51100000000E-03 0.  1.
         22    1    1    2    0    0 -0.18544228575E+02 -0.16681981502E+02  0.64954355749E+02  0.69579057561E+02  0.00000000000E+00 0. -1.
          2    1    1    2  501    0 -0.72853965704E+02 -0.59452079761E+01  0.54444598723E+03  0.54933093745E+03  0.25500000000E-02 0.  1.
<mgrwt>
<rscale>  0 0.44431591E+02</rscale>
<asrwt>0</asrwt>
<pdfrwt beam="1">  1       11 0.10000000E+01 0.79145639E+02</pdfrwt>
<pdfrwt beam="2">  1        2 0.16151409E-02 0.44431591E+02</pdfrwt>
<totfact> 0.71259011E+03</totfact>
</mgrwt>
</event>
<event>
 5    1  0.9955701E-004  0.3747836E+02  0.7818608E-02  0.1608568E+00
         11   -1    0    0    0    0  0.00000000000E+00  0.00000000000E+00  0.99992645992E+03  0.99992645992E+03  0.51100000000E-03 0. -1.
          2   -1    0    0  501    0 -0.00000000000E+00 -0.00000000000E+00 -0.50713370401E+01  0.50713376812E+01  0.25500000000E-02 0. -1.
         11    1    1    2    0    0 -0.18773984591E+02  0.21279094018E+02  0.15434763071E+03  0.15693455147E+03  0.51100000000E-03 0. -1.
         22    1    1    2    0    0 -0.21443138982E+02 -0.69867286721E+01  0.36376726296E+02  0.42800570124E+02  0.00000000000E+00 0. -1.
          2    1    1    2  501    0  0.40217123573E+02 -0.14292365346E+02  0.80413076588E+03  0.80526267601E+03  0.25500000000E-02 0. -1.
<mgrwt>
<rscale>  0 0.29072948E+02</rscale>
<asrwt>0</asrwt>
<pdfrwt beam="1">  1       11 0.10000000E+01 0.37478357E+02</pdfrwt>
<pdfrwt beam="2">  1        2 0.78014835E-03 0.29072948E+02</pdfrwt>
<totfact> 0.17188587E+04</totfact>
</mgrwt>
</event>
<event>
 5    1  0.9955701E-004  0.2690600E+03  0.7818608E-02  0.1174495E+00
         11   -1    0    0    0    0  0.00000000000E+00  0.00000000000E+00  0.10001619058E+04  0.10001619058E+04  0.51100000000E-03 0. -1.
          2   -1    0    0  501    0 -0.00000000000E+00 -0.00000000000E+00 -0.14230356075E+03  0.14230356078E+03  0.25500000000E-02 0. -1.
         11    1    1    2    0    0  0.79056889409E+01 -0.27511451206E+03  0.64598222106E+03  0.70217058084E+03  0.51100000000E-03 0. -1.
         22    1    1    2    0    0  0.10711784670E+03  0.31181548332E+02  0.31793792763E+02  0.11600589337E+03  0.00000000000E+00 0.  1.
          2    1    1    2  501    0 -0.11502353564E+03  0.24393296373E+03  0.18008233122E+03  0.32428899237E+03  0.25500000000E-02 0. -1.
<mgrwt>
<rscale>  0 0.17325532E+03</rscale>
<asrwt>0</asrwt>
<pdfrwt beam="1">  1       11 0.10000000E+01 0.26906000E+03</pdfrwt>
<pdfrwt beam="2">  1        2 0.21896399E-01 0.17325532E+03</pdfrwt>
<totfact> 0.30555271E+02</totfact>
</mgrwt>
</event>
<event>
 5    1  0.9955701E-004  0.5153535E+02  0.7818608E-02  0.1683257E+00
         11   -1    0    0    0    0  0.00000000000E+00  0.00000000000E+00  0.10000617148E+04  0.10000617148E+04  0.51100000000E-03 0.  1.
          2   -1    0    0  501    0 -0.00000000000E+00 -0.00000000000E+00 -0.39874780753E+01  0.39874788906E+01  0.25500000000E-02 0.  1.
         11    1    1    2    0    0  0.38840399304E+02  0.34354848111E+02  0.26927124882E+03  0.27421859464E+03  0.51100000000E-03 0.  1.
         22    1    1    2    0    0 -0.79897124198E+01  0.71650496211E+01  0.54878445827E+02  0.55917951116E+02  0.00000000000E+00 0.  1.
          2    1    1    2  501    0 -0.30850686885E+02 -0.41519897732E+02  0.67192454205E+03  0.67391264791E+03  0.25500000000E-02 0.  1.
<mgrwt>
<rscale>  0 0.23517469E+02</rscale>
<asrwt>0</asrwt>
<pdfrwt beam="1">  1       11 0.10000000E+01 0.51535348E+02</pdfrwt>
<pdfrwt beam="2">  1        2 0.61349607E-03 0.23517469E+02</pdfrwt>
<totfact> 0.22422918E+04</totfact>
</mgrwt>
</event>
<event>
 5    1  0.9955701E-004  0.8477538E+02  0.7818608E-02  0.1573069E+00
         11   -1    0    0    0    0  0.00000000000E+00  0.00000000000E+00  0.10000588674E+04  0.10000588674E+04  0.51100000000E-03 0. -1.
         -2   -1    0    0    0  501 -0.00000000000E+00 -0.00000000000E+00 -0.11260538743E+02  0.11260539032E+02  0.25500000000E-02 0.  1.
         11    1    1    2    0    0 -0.79593885838E+02  0.95109458235E+01  0.34203928658E+03  0.35130687201E+03  0.51100000000E-03 0. -1.
         22    1    1    2    0    0 -0.83926972967E+01 -0.90954990820E+01  0.69743947052E+01  0.14205902047E+02  0.00000000000E+00 0. -1.
         -2    1    1    2    0  501  0.87986583135E+02 -0.41544674143E+00  0.63978464735E+03  0.64580663235E+03  0.25500000000E-02 0.  1.
<mgrwt>
<rscale>  0 0.32391046E+02</rscale>
<asrwt>0</asrwt>
<pdfrwt beam="1">  1       11 0.10000000E+01 0.84775375E+02</pdfrwt>
<pdfrwt beam="2">  1       -2 0.17324925E-02 0.32391046E+02</pdfrwt>
<totfact> 0.56403319E+03</totfact>
</mgrwt>
</event>
<event>
 5    1  0.9955701E-004  0.2994874E+03  0.7818608E-02  0.1216275E+00
         11   -1    0    0    0    0  0.00000000000E+00  0.00000000000E+00  0.10001120658E+04  0.10001120658E+04  0.51100000000E-03 0. -1.
          2   -1    0    0  501    0 -0.00000000000E+00 -0.00000000000E+00 -0.20086183575E+03  0.20086183577E+03  0.25500000000E-02 0. -1.
         11    1    1    2    0    0  0.13295492029E+03  0.26734631702E+03  0.75346996831E+03  0.81047397071E+03  0.51100000000E-03 0. -1.
         22    1    1    2    0    0  0.58797060750E+02 -0.23808468201E+02  0.49577010473E+02  0.80509735302E+02  0.00000000000E+00 0.  1.
          2    1    1    2  501    0 -0.19175198104E+03 -0.24353784882E+03 -0.37967487270E+01  0.30999019557E+03  0.25500000000E-02 0. -1.
<mgrwt>
<rscale>  0 0.13783264E+03</rscale>
<asrwt>0</asrwt>
<pdfrwt beam="1">  1       11 0.10000000E+01 0.29948739E+03</pdfrwt>
<pdfrwt beam="2">  1        2 0.30905283E-01 0.13783264E+03</pdfrwt>
<totfact> 0.20784845E+02</totfact>
</mgrwt>
</event>
<event>
 5    1  0.9955701E-004  0.1350426E+03  0.7818608E-02  0.1420551E+00
         11   -1    0    0    0    0  0.00000000000E+00  0.00000000000E+00  0.10002457483E+04  0.10002457483E+04  0.51100000000E-03 0.  1.
          2   -1    0    0  501    0 -0.00000000000E+00 -0.00000000000E+00 -0.94027340102E+02  0.94027340136E+02  0.25500000000E-02 0.  1.
         11    1    1    2    0    0 -0.45623283184E+02 -0.12332318686E+03  0.69591486214E+03  0.70822848554E+03  0.51100000000E-03 0.  1.
         22    1    1    2    0    0  0.11821213722E+02 -0.18935589017E+02 -0.68052961903E+02  0.71620550466E+02  0.00000000000E+00 0.  1.
          2    1    1    2  501    0  0.33802069462E+02  0.14225877588E+03  0.27835650795E+03  0.31442405242E+03  0.25500000000E-02 0.  1.
<mgrwt>
<rscale>  0 0.54904466E+02</rscale>
<asrwt>0</asrwt>
<pdfrwt beam="1">  1       11 0.10000000E+01 0.13504265E+03</pdfrwt>
<pdfrwt beam="2">  1        2 0.14469299E-01 0.54904466E+02</pdfrwt>
<totfact> 0.46631097E+02</totfact>
</mgrwt>
</event>
<event>
 5    1  0.9955701E-004  0.2629342E+03  0.7818608E-02  0.1278353E+00
         11   -1    0    0    0    0  0.00000000000E+00  0.00000000000E+00  0.10003123448E+04  0.10003123448E+04  0.51100000000E-03 0. -1.
          2   -1    0    0  501    0 -0.00000000000E+00 -0.00000000000E+00 -0.16406857099E+03  0.16406857101E+03  0.25500000000E-02 0. -1.
         11    1    1    2    0    0  0.17228567650E+03  0.19138354877E+03  0.78244766946E+03  0.82373197856E+03  0.51100000000E-03 0. -1.
         22    1    1    2    0    0  0.15595520071E+02  0.35465155656E+02 -0.83069051518E+01  0.39623253087E+02  0.00000000000E+00 0. -1.
          2    1    1    2  501    0 -0.18788119657E+03 -0.22684870443E+03  0.62103009490E+02  0.30102568415E+03  0.25500000000E-02 0. -1.
<mgrwt>
<rscale>  0 0.10092960E+03</rscale>
<asrwt>0</asrwt>
<pdfrwt beam="1">  1       11 0.10000000E+01 0.26293422E+03</pdfrwt>
<pdfrwt beam="2">  1        2 0.25249202E-01 0.10092960E+03</pdfrwt>
<totfact> 0.25701121E+02</totfact>
</mgrwt>
</event>
<event>
 5    1  0.9955701E-004  0.1610196E+03  0.7818608E-02  0.1347563E+00
         11   -1    0    0    0    0  0.00000000000E+00  0.00000000000E+00  0.10006244022E+04  0.10006244022E+04  0.51100000000E-03 0. -1.
          2   -1    0    0  501    0 -0.00000000000E+00 -0.00000000000E+00 -0.96745069807E+02  0.96745069841E+02  0.25500000000E-02 0. -1.
         11    1    1    2    0    0  0.16525233272E+03  0.68854187341E+00  0.90266694991E+03  0.91766901986E+03  0.51100000000E-03 0. -1.
         22    1    1    2    0    0 -0.33762229558E+02  0.23436153318E+01 -0.29206648825E+02  0.44703568237E+02  0.00000000000E+00 0. -1.
          2    1    1    2  501    0 -0.13149010316E+03 -0.30321572052E+01  0.30419031335E+02  0.13499688397E+03  0.25500000000E-02 0. -1.
<mgrwt>
<rscale>  0 0.73820485E+02</rscale>
<asrwt>0</asrwt>
<pdfrwt beam="1">  1       11 0.10000000E+01 0.16101964E+03</pdfrwt>
<pdfrwt beam="2">  1        2 0.14893150E-01 0.73820485E+02</pdfrwt>
<totfact> 0.45847450E+02</totfact>
</mgrwt>
</event>
<event>
 5    1  0.9955701E-004  0.9724138E+02  0.7818608E-02  0.1399392E+00
         11   -1    0    0    0    0  0.00000000000E+00  0.00000000000E+00  0.10003039582E+04  0.10003039582E+04  0.51100000000E-03 0. -1.
          2   -1    0    0  501    0 -0.00000000000E+00 -0.00000000000E+00 -0.25604897818E+02  0.25604897945E+02  0.25500000000E-02 0. -1.
         11    1    1    2    0    0 -0.11035437909E+03 -0.13415520356E+02  0.24369711488E+03  0.26785508950E+03  0.51100000000E-03 0. -1.
         22    1    1    2    0    0  0.24665311510E+02 -0.26994307633E+02  0.21840461352E+02  0.42591970940E+02  0.00000000000E+00 0.  1.
          2    1    1    2  501    0  0.85689067583E+02  0.40409827988E+02  0.70916148416E+03  0.71546179571E+03  0.25500000000E-02 0. -1.
<mgrwt>
<rscale>  0 0.59629890E+02</rscale>
<asrwt>0</asrwt>
<pdfrwt beam="1">  1       11 0.10000000E+01 0.97241382E+02</pdfrwt>
<pdfrwt beam="2">  1        2 0.39404123E-02 0.59629890E+02</pdfrwt>
<totfact> 0.23063439E+03</totfact>
</mgrwt>
</event>
<event>
 5    1  0.9955701E-004  0.1830755E+03  0.7818608E-02  0.1419430E+00
         11   -1    0    0    0    0  0.00000000000E+00  0.00000000000E+00  0.10002785934E+04  0.10002785934E+04  0.51100000000E-03 0. -1.
          2   -1    0    0  501    0 -0.00000000000E+00 -0.00000000000E+00 -0.20948884197E+03  0.20948884198E+03  0.25500000000E-02 0. -1.
         11    1    1    2    0    0 -0.97643964885E+02  0.15455575993E+03  0.93709434638E+03  0.95476051491E+03  0.51100000000E-03 0. -1.
         22    1    1    2    0    0 -0.16124712112E+02 -0.39792904637E+01 -0.27113720736E+02  0.31796146707E+02  0.00000000000E+00 0. -1.
          2    1    1    2  501    0  0.11376867700E+03 -0.15057646946E+03 -0.11919087422E+03  0.22321077376E+03  0.25500000000E-02 0. -1.
<mgrwt>
<rscale>  0 0.55141663E+02</rscale>
<asrwt>0</asrwt>
<pdfrwt beam="1">  1       11 0.10000000E+01 0.18307550E+03</pdfrwt>
<pdfrwt beam="2">  1        2 0.32238030E-01 0.55141663E+02</pdfrwt>
<totfact> 0.19484128E+02</totfact>
</mgrwt>
</event>
<event>
 5    1  0.9955701E-004  0.2183986E+03  0.7818608E-02  0.1135083E+00
         11   -1    0    0    0    0  0.00000000000E+00  0.00000000000E+00  0.10003514933E+04  0.10003514933E+04  0.51100000000E-03 0. -1.
          2   -1    0    0  501    0 -0.00000000000E+00 -0.00000000000E+00 -0.47046053949E+02  0.47046054018E+02  0.25500000000E-02 0. -1.
         11    1    1    2    0    0  0.10239305702E+03 -0.18954703402E+03  0.48088205571E+03  0.52693450042E+03  0.51100000000E-03 0. -1.
         22    1    1    2    0    0  0.62077575441E+00  0.17807046922E+02  0.31491132274E+02  0.36182422452E+02  0.00000000000E+00 0.  1.
          2    1    1    2  501    0 -0.10301383278E+03  0.17173998710E+03  0.44093225140E+03  0.48428062447E+03  0.25500000000E-02 0. -1.
<mgrwt>
<rscale>  0 0.21839856E+03</rscale>
<asrwt>0</asrwt>
<pdfrwt beam="1">  1       11 0.10000000E+01 0.21543541E+03</pdfrwt>
<pdfrwt beam="2">  1        2 0.72403983E-02 0.21839856E+03</pdfrwt>
<totfact> 0.11733395E+03</totfact>
</mgrwt>
</event>
<event>
 5    1  0.9955701E-004  0.4890742E+02  0.7818608E-02  0.1604493E+00
         11   -1    0    0    0    0  0.00000000000E+00  0.00000000000E+00  0.10001787158E+04  0.10001787158E+04  0.51100000000E-03 0.  1.
          2   -1    0    0  501    0 -0.00000000000E+00 -0.00000000000E+00 -0.46857855775E+01  0.46857862713E+01  0.25500000000E-02 0.  1.
         11    1    1    2    0    0 -0.12326449672E+02  0.40336603824E+02  0.15657132424E+03  0.16215289866E+03  0.51100000000E-03 0.  1.
         22    1    1    2    0    0  0.13721371558E+02  0.11193193461E+02  0.75383052577E+02  0.77434929025E+02  0.00000000000E+00 0. -1.
          2    1    1    2  501    0 -0.13949218868E+01 -0.51529797285E+02  0.76353855337E+03  0.76527667435E+03  0.25500000000E-02 0.  1.
<mgrwt>
<rscale>  0 0.29428537E+02</rscale>
<asrwt>0</asrwt>
<pdfrwt beam="1">  1       11 0.10000000E+01 0.48907416E+02</pdfrwt>
<pdfrwt beam="2">  1        2 0.72101896E-03 0.29428537E+02</pdfrwt>
<totfact> 0.19127496E+04</totfact>
</mgrwt>
</event>
<event>
 5    1  0.9955701E-004  0.3135607E+03  0.7818608E-02  0.1078652E+00
         11   -1    0    0    0    0  0.00000000000E+00  0.00000000000E+00  0.10005181615E+04  0.10005181615E+04  0.51100000000E-03 0. -1.
          2   -1    0    0  501    0 -0.00000000000E+00 -0.00000000000E+00 -0.97819139628E+02  0.97819139662E+02  0.25500000000E-02 0.  1.
         11    1    1    2    0    0 -0.11958662487E+02 -0.30407355495E+03  0.35824865468E+03  0.47004875812E+03  0.51100000000E-03 0. -1.
         22    1    1    2    0    0  0.23573632019E+02  0.27523740720E+02  0.75422020058E+02  0.83676481400E+02  0.00000000000E+00 0.  1.
          2    1    1    2  501    0 -0.11614969532E+02  0.27654981423E+03  0.46902834718E+03  0.54461206168E+03  0.25500000000E-02 0.  1.
<mgrwt>
<rscale>  0 0.31356067E+03</rscale>
<asrwt>0</asrwt>
<pdfrwt beam="1">  1       11 0.10000000E+01 0.30430877E+03</pdfrwt>
<pdfrwt beam="2">  1        2 0.15056896E-01 0.31356067E+03</pdfrwt>
<totfact> 0.48062582E+02</totfact>
</mgrwt>
</event>
<event>
 5    1  0.9955701E-004  0.3685915E+02  0.7818608E-02  0.1698559E+00
         11   -1    0    0    0    0  0.00000000000E+00  0.00000000000E+00  0.10002262627E+04  0.10002262627E+04  0.51100000000E-03 0. -1.
          2   -1    0    0  501    0 -0.00000000000E+00 -0.00000000000E+00 -0.57989296440E+01  0.57989302046E+01  0.25500000000E-02 0. -1.
         11    1    1    2    0    0  0.14492393111E+02 -0.22447813654E+02  0.33201368474E+02  0.42617656725E+02  0.51100000000E-03 0. -1.
         22    1    1    2    0    0 -0.28830827020E+01 -0.13517568625E+02  0.68422972973E+02  0.69805014561E+02  0.00000000000E+00 0. -1.
          2    1    1    2  501    0 -0.11609310409E+02  0.35965382279E+02  0.89280299159E+03  0.89360252160E+03  0.25500000000E-02 0. -1.
<mgrwt>
<rscale>  0 0.22571054E+02</rscale>
<asrwt>0</asrwt>
<pdfrwt beam="1">  1       11 0.10000000E+01 0.36859152E+02</pdfrwt>
<pdfrwt beam="2">  1        2 0.89234490E-03 0.22571054E+02</pdfrwt>
<totfact> 0.13599119E+04</totfact>
</mgrwt>
</event>
<event>
 5    1  0.9955701E-004  0.2070247E+03  0.7818608E-02  0.1149697E+00
         11   -1    0    0    0    0  0.00000000000E+00  0.00000000000E+00  0.10000792466E+04  0.10000792466E+04  0.51100000000E-03 0. -1.
          2   -1    0    0  501    0 -0.00000000000E+00 -0.00000000000E+00 -0.15360294560E+03  0.15360294562E+03  0.25500000000E-02 0. -1.
         11    1    1    2    0    0 -0.22121006035E+03  0.27465578760E+00  0.14853447172E+03  0.26645160072E+03  0.51100000000E-03 0. -1.
         22    1    1    2    0    0  0.82468297811E+02  0.17483653425E+03  0.46894576607E+02  0.19891690519E+03  0.00000000000E+00 0. -1.
          2    1    1    2  501    0  0.13874176254E+03 -0.17511119004E+03  0.65104725264E+03  0.68831368629E+03  0.25500000000E-02 0. -1.
<mgrwt>
<rscale>  0 0.20004989E+03</rscale>
<asrwt>0</asrwt>
<pdfrwt beam="1">  1       11 0.10000000E+01 0.20702467E+03</pdfrwt>
<pdfrwt beam="2">  1        2 0.23633094E-01 0.20004989E+03</pdfrwt>
<totfact> 0.28146168E+02</totfact>
</mgrwt>
</event>
<event>
 5    1  0.9955701E-004  0.8131408E+02  0.7818608E-02  0.1389637E+00
         11   -1    0    0    0    0  0.00000000000E+00  0.00000000000E+00  0.10002328802E+04  0.10002328802E+04  0.51100000000E-03 0. -1.
         -2   -1    0    0    0  501 -0.00000000000E+00 -0.00000000000E+00 -0.17134422758E+02  0.17134422948E+02  0.25500000000E-02 0.  1.
         11    1    1    2    0    0  0.83360541442E+02 -0.74396439372E+02  0.54724850179E+03  0.55853803162E+03  0.51100000000E-03 0. -1.
         22    1    1    2    0    0 -0.27988153211E+02  0.38092343084E+02  0.56140906974E+02  0.73390495009E+02  0.00000000000E+00 0.  1.
         -2    1    1    2    0  501 -0.55372388231E+02  0.36304096289E+02  0.37970904863E+03  0.38543877647E+03  0.25500000000E-02 0.  1.
<mgrwt>
<rscale>  0 0.61997078E+02</rscale>
<asrwt>0</asrwt>
<pdfrwt beam="1">  1       11 0.10000000E+01 0.81314083E+02</pdfrwt>
<pdfrwt beam="2">  1       -2 0.26366789E-02 0.61997078E+02</pdfrwt>
<totfact> 0.34606428E+03</totfact>
</mgrwt>
</event>
<event>
 5    1  0.9955701E-004  0.7073519E+02  0.7818608E-02  0.1370741E+00
         11   -1    0    0    0    0  0.00000000000E+00  0.00000000000E+00  0.10004647791E+04  0.10004647791E+04  0.51100000000E-03 0. -1.
          2   -1    0    0  501    0 -0.00000000000E+00 -0.00000000000E+00 -0.64667629911E+01  0.64667634938E+01  0.25500000000E-02 0. -1.
         11    1    1    2    0    0 -0.11596120204E+02 -0.11560005682E+02  0.90044762265E+02  0.91521379725E+02  0.51100000000E-03 0. -1.
         22    1    1    2    0    0 -0.14307141301E+02 -0.50188635671E+02  0.15668561879E+03  0.16514834718E+03  0.00000000000E+00 0. -1.
          2    1    1    2  501    0  0.25903261505E+02  0.61748641353E+02  0.74726763502E+03  0.75026181565E+03  0.25500000000E-02 0. -1.
<mgrwt>
<rscale>  0 0.66961733E+02</rscale>
<asrwt>0</asrwt>
<pdfrwt beam="1">  1       11 0.10000000E+01 0.70735195E+02</pdfrwt>
<pdfrwt beam="2">  1        2 0.99534903E-03 0.66961733E+02</pdfrwt>
<totfact> 0.14611747E+04</totfact>
</mgrwt>
</event>
<event>
 5    1  0.9955701E-004  0.4867544E+03  0.7818608E-02  0.1231174E+00
         11   -1    0    0    0    0  0.00000000000E+00  0.00000000000E+00  0.10000795625E+04  0.10000795625E+04  0.51100000000E-03 0.  1.
          2   -1    0    0  501    0 -0.00000000000E+00 -0.00000000000E+00 -0.65839476082E+03  0.65839476083E+03  0.25500000000E-02 0.  1.
         11    1    1    2    0    0 -0.27754258920E+03  0.40330152278E+03  0.82251050279E+03  0.95718625893E+03  0.51100000000E-03 0.  1.
         22    1    1    2    0    0  0.32710913569E+02 -0.68029452440E+01 -0.79722716039E+02  0.86440704435E+02  0.00000000000E+00 0.  1.
          2    1    1    2  501    0  0.24483167563E+03 -0.39649857754E+03 -0.40110298509E+03  0.61484735995E+03  0.25500000000E-02 0.  1.
<mgrwt>
<rscale>  0 0.12752596E+03</rscale>
<asrwt>0</asrwt>
<pdfrwt beam="1">  1       11 0.10000000E+01 0.48675435E+03</pdfrwt>
<pdfrwt beam="2">  1        2 0.10129956E+00 0.12752596E+03</pdfrwt>
<totfact> 0.57543178E+01</totfact>
</mgrwt>
</event>
<event>
 5    1  0.9955701E-004  0.9557269E+02  0.7818608E-02  0.1559808E+00
         11   -1    0    0    0    0  0.00000000000E+00  0.00000000000E+00  0.10002087367E+04  0.10002087367E+04  0.51100000000E-03 0. -1.
         -2   -1    0    0    0  501 -0.00000000000E+00 -0.00000000000E+00 -0.14687094923E+02  0.14687095144E+02  0.25500000000E-02 0. -1.
         11    1    1    2    0    0  0.87712967508E+02 -0.52067166612E+02  0.51430566431E+03  0.52432325035E+03  0.51100000000E-03 0. -1.
         22    1    1    2    0    0 -0.99980390657E+01  0.65125160898E+01  0.11889964910E+01  0.11991136878E+02  0.00000000000E+00 0. -1.
         -2    1    1    2    0  501 -0.77714928442E+02  0.45554650522E+02  0.47002698102E+03  0.47858144467E+03  0.25500000000E-02 0. -1.
<mgrwt>
<rscale>  0 0.33769467E+02</rscale>
<asrwt>0</asrwt>
<pdfrwt beam="1">  1       11 0.10000000E+01 0.95572690E+02</pdfrwt>
<pdfrwt beam="2">  1       -2 0.22600247E-02 0.33769467E+02</pdfrwt>
<totfact> 0.39259183E+03</totfact>
</mgrwt>
</event>
<event>
 5    1  0.1207577E-003  0.2007389E+03  0.7818608E-02  0.1433754E+00
         11   -1    0    0    0    0  0.00000000000E+00  0.00000000000E+00  0.10002093207E+04  0.10002093207E+04  0.51100000000E-03 0. -1.
          2   -1    0    0  501    0 -0.00000000000E+00 -0.00000000000E+00 -0.44437234308E+03  0.44437234308E+03  0.25500000000E-02 0.  1.
         11    1    1    2    0    0 -0.15534681836E+03  0.12733341452E+03  0.96391214500E+03  0.98461822841E+03  0.51100000000E-03 0. -1.
         22    1    1    2    0    0 -0.43283814975E+01 -0.12873047301E+02 -0.46728563301E+02  0.48662191293E+02  0.00000000000E+00 0. -1.
          2    1    1    2  501    0  0.15967519985E+03 -0.11446036722E+03 -0.36134660407E+03  0.41130124409E+03  0.25500000000E-02 0.  1.
<mgrwt>
<rscale>  0 0.52213829E+02</rscale>
<asrwt>0</asrwt>
<pdfrwt beam="1">  1       11 0.10000000E+01 0.20073887E+03</pdfrwt>
<pdfrwt beam="2">  1        2 0.68379284E-01 0.52213829E+02</pdfrwt>
<totfact> 0.89793426E+01</totfact>
</mgrwt>
</event>
<event>
 5    1  0.9955701E-004  0.2838458E+02  0.7818608E-02  0.1616663E+00
         11   -1    0    0    0    0  0.00000000000E+00  0.00000000000E+00  0.10002584482E+04  0.10002584482E+04  0.51100000000E-03 0.  1.
          2   -1    0    0  501    0 -0.00000000000E+00 -0.00000000000E+00 -0.38225686821E+01  0.38225695326E+01  0.25500000000E-02 0.  1.
         11    1    1    2    0    0  0.14682537417E+02  0.74914985539E+01  0.36101780595E+02  0.39686748645E+02  0.51100000000E-03 0.  1.
         22    1    1    2    0    0  0.15879514887E+02 -0.23128881137E+02  0.11533991944E+03  0.11870299555E+03  0.00000000000E+00 0.  1.
          2    1    1    2  501    0 -0.30562052304E+02  0.15637382583E+02  0.84499417951E+03  0.84569127357E+03  0.25500000000E-02 0.  1.
<mgrwt>
<rscale>  0 0.28384581E+02</rscale>
<asrwt>0</asrwt>
<pdfrwt beam="1">  1       11 0.10000000E+01 0.16483317E+02</pdfrwt>
<pdfrwt beam="2">  1        2 0.58823953E-03 0.28384581E+02</pdfrwt>
<totfact> 0.24822866E+04</totfact>
</mgrwt>
</event>
<event>
 5    1  0.9955701E-004  0.1202923E+03  0.7818608E-02  0.1518451E+00
         11   -1    0    0    0    0  0.00000000000E+00  0.00000000000E+00  0.10000667978E+04  0.10000667978E+04  0.51100000000E-03 0. -1.
          2   -1    0    0  501    0 -0.00000000000E+00 -0.00000000000E+00 -0.17477811088E+02  0.17477811274E+02  0.25500000000E-02 0. -1.
         11    1    1    2    0    0 -0.54752906425E+02  0.11018130372E+03  0.63121631151E+03  0.64309550797E+03  0.51100000000E-03 0. -1.
         22    1    1    2    0    0 -0.55467489956E+01 -0.11104777170E+02  0.22114644861E+02  0.25360205396E+02  0.00000000000E+00 0.  1.
          2    1    1    2  501    0  0.60299655420E+02 -0.99076526554E+02  0.32925803037E+03  0.34908889574E+03  0.25500000000E-02 0. -1.
<mgrwt>
<rscale>  0 0.38641797E+02</rscale>
<asrwt>0</asrwt>
<pdfrwt beam="1">  1       11 0.10000000E+01 0.12029234E+03</pdfrwt>
<pdfrwt beam="2">  1        2 0.26890736E-02 0.38641797E+02</pdfrwt>
<totfact> 0.35753914E+03</totfact>
</mgrwt>
</event>
<event>
 5    1  0.9955701E-004  0.3292865E+03  0.7818608E-02  0.1269177E+00
         11   -1    0    0    0    0  0.00000000000E+00  0.00000000000E+00  0.10002382316E+04  0.10002382316E+04  0.51100000000E-03 0. -1.
          2   -1    0    0  501    0 -0.00000000000E+00 -0.00000000000E+00 -0.22776227024E+03  0.22776227025E+03  0.25500000000E-02 0. -1.
         11    1    1    2    0    0 -0.16123944417E+03  0.29136475293E+03  0.79581293485E+03  0.86267595590E+03  0.51100000000E-03 0. -1.
         22    1    1    2    0    0  0.33421824761E+02 -0.49624594050E+01 -0.38630529007E+02  0.51322140885E+02  0.00000000000E+00 0. -1.
          2    1    1    2  501    0  0.12781761941E+03 -0.28640229353E+03  0.15293555572E+02  0.31400240512E+03  0.25500000000E-02 0. -1.
<mgrwt>
<rscale>  0 0.10547989E+03</rscale>
<asrwt>0</asrwt>
<pdfrwt beam="1">  1       11 0.10000000E+01 0.32928650E+03</pdfrwt>
<pdfrwt beam="2">  1        2 0.35048696E-01 0.10547989E+03</pdfrwt>
<totfact> 0.18080496E+02</totfact>
</mgrwt>
</event>
<event>
 5    1  0.9955701E-004  0.7496580E+02  0.7818608E-02  0.1560352E+00
         11   -1    0    0    0    0  0.00000000000E+00  0.00000000000E+00  0.10003726556E+04  0.10003726556E+04  0.51100000000E-03 0.  1.
          2   -1    0    0  501    0 -0.00000000000E+00 -0.00000000000E+00 -0.73928370315E+01  0.73928374713E+01  0.25500000000E-02 0.  1.
         11    1    1    2    0    0 -0.71840467026E+02  0.39831684035E+02  0.43017955600E+03  0.43795212770E+03  0.51100000000E-03 0.  1.
         22    1    1    2    0    0  0.14994699592E+02  0.22295092265E+01  0.52774345529E+02  0.54908499099E+02  0.00000000000E+00 0.  1.
          2    1    1    2  501    0  0.56845767434E+02 -0.42061193262E+02  0.51002591701E+03  0.51490486624E+03  0.25500000000E-02 0.  1.
<mgrwt>
<rscale>  0 0.33711224E+02</rscale>
<asrwt>0</asrwt>
<pdfrwt beam="1">  1       11 0.10000000E+01 0.74965796E+02</pdfrwt>
<pdfrwt beam="2">  1        2 0.11377834E-02 0.33711224E+02</pdfrwt>
<totfact> 0.10773625E+04</totfact>
</mgrwt>
</event>
<event>
 5    1  0.9955701E-004  0.1188064E+03  0.7818608E-02  0.1525133E+00
         11   -1    0    0    0    0  0.00000000000E+00  0.00000000000E+00  0.10004853178E+04  0.10004853178E+04  0.51100000000E-03 0.  1.
          2   -1    0    0  501    0 -0.00000000000E+00 -0.00000000000E+00 -0.16167969711E+02  0.16167969912E+02  0.25500000000E-02 0.  1.
         11    1    1    2    0    0  0.90863509224E+02  0.80405586913E+02  0.52164657462E+03  0.53557108261E+03  0.51100000000E-03 0.  1.
         22    1    1    2    0    0  0.29859947408E+01 -0.11643573732E+02  0.19612897434E+02  0.23003363224E+02  0.00000000000E+00 0.  1.
          2    1    1    2  501    0 -0.93849503965E+02 -0.68762013181E+02  0.44305787600E+03  0.45807884184E+03  0.25500000000E-02 0.  1.
<mgrwt>
<rscale>  0 0.37790154E+02</rscale>
<asrwt>0</asrwt>
<pdfrwt beam="1">  1       11 0.10000000E+01 0.11880643E+03</pdfrwt>
<pdfrwt beam="2">  1        2 0.24885871E-02 0.37790154E+02</pdfrwt>
<totfact> 0.39400569E+03</totfact>
</mgrwt>
</event>
<event>
 5    1  0.9955701E-004  0.7482736E+02  0.7818608E-02  0.1563414E+00
         11   -1    0    0    0    0  0.00000000000E+00  0.00000000000E+00  0.10000664849E+04  0.10000664849E+04  0.51100000000E-03 0. -1.
          2   -1    0    0  501    0 -0.00000000000E+00 -0.00000000000E+00 -0.72715860279E+01  0.72715864750E+01  0.25500000000E-02 0. -1.
         11    1    1    2    0    0  0.56512955981E+02  0.45615595583E+02  0.36295013628E+03  0.37014496914E+03  0.51100000000E-03 0. -1.
         22    1    1    2    0    0  0.11439939522E+02 -0.95410497709E+01  0.47306083939E+02  0.49596062592E+02  0.00000000000E+00 0. -1.
          2    1    1    2  501    0 -0.67952895504E+02 -0.36074545812E+02  0.58253867864E+03  0.58759703963E+03  0.25500000000E-02 0. -1.
<mgrwt>
<rscale>  0 0.33386533E+02</rscale>
<asrwt>0</asrwt>
<pdfrwt beam="1">  1       11 0.10000000E+01 0.74827363E+02</pdfrwt>
<pdfrwt beam="2">  1        2 0.11187799E-02 0.33386533E+02</pdfrwt>
<totfact> 0.10994817E+04</totfact>
</mgrwt>
</event>
<event>
 5    1  0.9955701E-004  0.6527521E+02  0.7818608E-02  0.1376939E+00
         11   -1    0    0    0    0  0.00000000000E+00  0.00000000000E+00  0.10000836986E+04  0.10000836986E+04  0.51100000000E-03 0.  1.
          2   -1    0    0  501    0 -0.00000000000E+00 -0.00000000000E+00 -0.15711997986E+02  0.15711998192E+02  0.25500000000E-02 0.  1.
         11    1    1    2    0    0  0.65311103298E+02 -0.14823730677E+01  0.62565268801E+02  0.90455240337E+02  0.51100000000E-03 0.  1.
         22    1    1    2    0    0 -0.46845101473E+00  0.11383618943E+02  0.62189010599E+02  0.63224040252E+02  0.00000000000E+00 0. -1.
          2    1    1    2  501    0 -0.64842652284E+02 -0.99012458752E+01  0.85961742124E+03  0.86211641623E+03  0.25500000000E-02 0.  1.
<mgrwt>
<rscale>  0 0.65275212E+02</rscale>
<asrwt>0</asrwt>
<pdfrwt beam="1">  1       11 0.10000000E+01 0.11393254E+02</pdfrwt>
<pdfrwt beam="2">  1        2 0.24174327E-02 0.65275212E+02</pdfrwt>
<totfact> 0.44208817E+03</totfact>
</mgrwt>
</event>
<event>
 5    1  0.9955701E-004  0.1889168E+03  0.7818608E-02  0.1385478E+00
         11   -1    0    0    0    0  0.00000000000E+00  0.00000000000E+00  0.10002650931E+04  0.10002650931E+04  0.51100000000E-03 0. -1.
          2   -1    0    0  501    0 -0.00000000000E+00 -0.00000000000E+00 -0.68418622303E+02  0.68418622350E+02  0.25500000000E-02 0. -1.
         11    1    1    2    0    0 -0.17987973373E+03  0.63271973283E+02  0.77334599973E+03  0.79650743657E+03  0.51100000000E-03 0. -1.
         22    1    1    2    0    0  0.14122323432E+02  0.15595583959E+02 -0.97333002857E+01  0.23181876382E+02  0.00000000000E+00 0. -1.
          2    1    1    2  501    0  0.16575741029E+03 -0.78867557243E+02  0.16823377139E+03  0.24899440254E+03  0.25500000000E-02 0. -1.
<mgrwt>
<rscale>  0 0.63045401E+02</rscale>
<asrwt>0</asrwt>
<pdfrwt beam="1">  1       11 0.10000000E+01 0.18891680E+03</pdfrwt>
<pdfrwt beam="2">  1        2 0.10528732E-01 0.63045401E+02</pdfrwt>
<totfact> 0.68154663E+02</totfact>
</mgrwt>
</event>
<event>
 5    1  0.9955701E-004  0.4529636E+02  0.7818608E-02  0.1487411E+00
         11   -1    0    0    0    0  0.00000000000E+00  0.00000000000E+00  0.10001453395E+04  0.10001453395E+04  0.51100000000E-03 0. -1.
          2   -1    0    0  501    0 -0.00000000000E+00 -0.00000000000E+00 -0.36374784869E+01  0.36374793807E+01  0.25500000000E-02 0. -1.
         11    1    1    2    0    0  0.30964961256E+02 -0.14456096123E+02  0.13922857847E+03  0.14336109864E+03  0.51100000000E-03 0. -1.
         22    1    1    2    0    0  0.53062032488E+01 -0.85881247732E+01  0.24021026886E+02  0.26056120446E+02  0.00000000000E+00 0. -1.
          2    1    1    2  501    0 -0.36271164505E+02  0.23044220896E+02  0.83325825562E+03  0.83436559976E+03  0.25500000000E-02 0. -1.
<mgrwt>
<rscale>  0 0.42972474E+02</rscale>
<asrwt>0</asrwt>
<pdfrwt beam="1">  1       11 0.10000000E+01 0.45296363E+02</pdfrwt>
<pdfrwt beam="2">  1        2 0.55969346E-03 0.42972474E+02</pdfrwt>
<totfact> 0.29176283E+04</totfact>
</mgrwt>
</event>
<event>
 5    1  0.9955701E-004  0.6342673E+03  0.7818608E-02  0.1185223E+00
         11   -1    0    0    0    0  0.00000000000E+00  0.00000000000E+00  0.10004619610E+04  0.10004619611E+04  0.51100000000E-03 0. -1.
         -2   -1    0    0    0  501 -0.00000000000E+00 -0.00000000000E+00 -0.75811403260E+03  0.75811403260E+03  0.25500000000E-02 0.  1.
         11    1    1    2    0    0 -0.52291863117E+02 -0.63948136827E+03  0.67942324965E+03  0.93449816023E+03  0.51100000000E-03 0. -1.
         22    1    1    2    0    0 -0.19760515469E+02  0.37003452839E+02 -0.14447396499E+03  0.15044088558E+03  0.00000000000E+00 0. -1.
         -2    1    1    2    0  501  0.72052378586E+02  0.60247791543E+03 -0.29260135620E+03  0.67363694784E+03  0.25500000000E-02 0.  1.
<mgrwt>
<rscale>  0 0.16311650E+03</rscale>
<asrwt>0</asrwt>
<pdfrwt beam="1">  1       11 0.10000000E+01 0.63426734E+03</pdfrwt>
<pdfrwt beam="2">  1       -2 0.11668680E+00 0.16311650E+03</pdfrwt>
<totfact> 0.49229234E+00</totfact>
</mgrwt>
</event>
<event>
 5    1  0.9955701E-004  0.4971824E+02  0.7818608E-02  0.1565207E+00
         11   -1    0    0    0    0  0.00000000000E+00  0.00000000000E+00  0.99992680593E+03  0.99992680593E+03  0.51100000000E-03 0. -1.
          2   -1    0    0  501    0 -0.00000000000E+00 -0.00000000000E+00 -0.10822960740E+02  0.10822961041E+02  0.25500000000E-02 0. -1.
         11    1    1    2    0    0  0.25570540698E+02 -0.63530801383E+02  0.18094357663E+03  0.19346987672E+03  0.51100000000E-03 0. -1.
         22    1    1    2    0    0 -0.22435835587E+02  0.30480734553E+02  0.81474217150E+02  0.89835905726E+02  0.00000000000E+00 0. -1.
          2    1    1    2  501    0 -0.31347051107E+01  0.33050066830E+02  0.72668605141E+03  0.72744398452E+03  0.25500000000E-02 0. -1.
<mgrwt>
<rscale>  0 0.33198393E+02</rscale>
<asrwt>0</asrwt>
<pdfrwt beam="1">  1       11 0.10000000E+01 0.49718241E+02</pdfrwt>
<pdfrwt beam="2">  1        2 0.16649490E-02 0.33198393E+02</pdfrwt>
<totfact> 0.65128404E+03</totfact>
</mgrwt>
</event>
<event>
 5    1  0.9955701E-004  0.4645991E+02  0.7818608E-02  0.1689451E+00
         11   -1    0    0    0    0  0.00000000000E+00  0.00000000000E+00  0.99989395649E+03  0.99989395649E+03  0.51100000000E-03 0.  1.
          2   -1    0    0  501    0 -0.00000000000E+00 -0.00000000000E+00 -0.50946612881E+01  0.50946619263E+01  0.25500000000E-02 0.  1.
         11    1    1    2    0    0  0.28939810469E+02  0.42308523315E+02  0.16883329215E+03  0.17644320421E+03  0.51100000000E-03 0.  1.
         22    1    1    2    0    0  0.41882239179E+01 -0.10723991342E+02  0.53509764742E+02  0.54734268358E+02  0.00000000000E+00 0.  1.
          2    1    1    2  501    0 -0.33128034387E+02 -0.31584531973E+02  0.77245623831E+03  0.77381114584E+03  0.25500000000E-02 0.  1.
<mgrwt>
<rscale>  0 0.23127573E+02</rscale>
<asrwt>0</asrwt>
<pdfrwt beam="1">  1       11 0.10000000E+01 0.46459906E+02</pdfrwt>
<pdfrwt beam="2">  1        2 0.78371095E-03 0.23127573E+02</pdfrwt>
<totfact> 0.16203861E+04</totfact>
</mgrwt>
</event>
<event>
 5    1  0.9955701E-004  0.7374412E+02  0.7818608E-02  0.1628391E+00
         11   -1    0    0    0    0  0.00000000000E+00  0.00000000000E+00  0.10000603764E+04  0.10000603764E+04  0.51100000000E-03 0.  1.
         -2   -1    0    0    0  501 -0.00000000000E+00 -0.00000000000E+00 -0.72523858732E+01  0.72523863215E+01  0.25500000000E-02 0.  1.
         11    1    1    2    0    0  0.61623252378E+02 -0.44503564896E+02  0.34285875398E+03  0.35118388019E+03  0.51100000000E-03 0.  1.
         22    1    1    2    0    0  0.24359731310E+01  0.99064004179E+01  0.25735213728E+02  0.27683423920E+02  0.00000000000E+00 0. -1.
         -2    1    1    2    0  501 -0.64059225509E+02  0.34597164478E+02  0.62421402282E+03  0.62844545862E+03  0.25500000000E-02 0.  1.
<mgrwt>
<rscale>  0 0.27428101E+02</rscale>
<asrwt>0</asrwt>
<pdfrwt beam="1">  1       11 0.10000000E+01 0.73744120E+02</pdfrwt>
<pdfrwt beam="2">  1       -2 0.11158190E-02 0.27428101E+02</pdfrwt>
<totfact> 0.99896395E+03</totfact>
</mgrwt>
</event>
<event>
 5    1  0.9955701E-004  0.1783870E+03  0.7818608E-02  0.1436192E+00
         11   -1    0    0    0    0  0.00000000000E+00  0.00000000000E+00  0.10001751018E+04  0.10001751018E+04  0.51100000000E-03 0.  1.
          2   -1    0    0  501    0 -0.00000000000E+00 -0.00000000000E+00 -0.57131545193E+02  0.57131545250E+02  0.25500000000E-02 0. -1.
         11    1    1    2    0    0  0.11248376444E+03 -0.13745190933E+03  0.74791429887E+03  0.76871413613E+03  0.51100000000E-03 0.  1.
         22    1    1    2    0    0  0.13384083551E+02  0.67837056695E+01 -0.73595556004E+01  0.16712732085E+02  0.00000000000E+00 0.  1.
          2    1    1    2  501    0 -0.12586784799E+03  0.13066820366E+03  0.20248881335E+03  0.27187977885E+03  0.25500000000E-02 0. -1.
<mgrwt>
<rscale>  0 0.51736937E+02</rscale>
<asrwt>0</asrwt>
<pdfrwt beam="1">  1       11 0.10000000E+01 0.17838699E+03</pdfrwt>
<pdfrwt beam="2">  1        2 0.87910073E-02 0.51736937E+02</pdfrwt>
<totfact> 0.83365028E+02</totfact>
</mgrwt>
</event>
<event>
 5    1  0.9955701E-004  0.1462173E+03  0.7818608E-02  0.1463787E+00
         11   -1    0    0    0    0  0.00000000000E+00  0.00000000000E+00  0.10002124333E+04  0.10002124333E+04  0.51100000000E-03 0. -1.
         -2   -1    0    0    0  501 -0.00000000000E+00 -0.00000000000E+00 -0.70631114936E+02  0.70631114983E+02  0.25500000000E-02 0.  1.
         11    1    1    2    0    0  0.82927041989E+02  0.11849975201E+03  0.83009045330E+03  0.84259672809E+03  0.51100000000E-03 0. -1.
         22    1    1    2    0    0  0.14569826775E+02  0.32975756536E+01 -0.24681556489E+02  0.28850183503E+02  0.00000000000E+00 0.  1.
         -2    1    1    2    0  501 -0.97496868764E+02 -0.12179732766E+03  0.12417242155E+03  0.19939663669E+03  0.25500000000E-02 0.  1.
<mgrwt>
<rscale>  0 0.46735889E+02</rscale>
<asrwt>0</asrwt>
<pdfrwt beam="1">  1       11 0.10000000E+01 0.14621732E+03</pdfrwt>
<pdfrwt beam="2">  1       -2 0.10868633E-01 0.46735889E+02</pdfrwt>
<totfact> 0.41634452E+02</totfact>
</mgrwt>
</event>
<event>
 5    1  0.9955701E-004  0.3579385E+03  0.7818608E-02  0.1247628E+00
         11   -1    0    0    0    0  0.00000000000E+00  0.00000000000E+00  0.99995660116E+03  0.99995660116E+03  0.51100000000E-03 0.  1.
          2   -1    0    0  501    0 -0.00000000000E+00 -0.00000000000E+00 -0.36286364979E+03  0.36286364980E+03  0.25500000000E-02 0.  1.
         11    1    1    2    0    0  0.36201467925E+03 -0.10865677676E+02  0.84117024964E+03  0.91582753825E+03  0.51100000000E-03 0.  1.
         22    1    1    2    0    0 -0.31658786936E+02 -0.21796956781E+02 -0.86781962200E+02  0.94913092239E+02  0.00000000000E+00 0.  1.
          2    1    1    2  501    0 -0.33035589232E+03  0.32662634457E+02 -0.11729533606E+03  0.35207962046E+03  0.25500000000E-02 0.  1.
<mgrwt>
<rscale>  0 0.11729451E+03</rscale>
<asrwt>0</asrwt>
<pdfrwt beam="1">  1       11 0.10000000E+01 0.35793848E+03</pdfrwt>
<pdfrwt beam="2">  1        2 0.55822753E-01 0.11729451E+03</pdfrwt>
<totfact> 0.11071481E+02</totfact>
</mgrwt>
</event>
<event>
 5    1  0.9955701E-004  0.2295345E+03  0.7818608E-02  0.1126968E+00
         11   -1    0    0    0    0  0.00000000000E+00  0.00000000000E+00  0.99999863217E+03  0.99999863217E+03  0.51100000000E-03 0.  1.
          2   -1    0    0  501    0 -0.00000000000E+00 -0.00000000000E+00 -0.23835404924E+03  0.23835404925E+03  0.25500000000E-02 0.  1.
         11    1    1    2    0    0 -0.15904196769E+03 -0.16024957899E+03  0.92787432472E+03  0.95494766219E+03  0.51100000000E-03 0.  1.
         22    1    1    2    0    0  0.16899402906E+02  0.15961663345E+02 -0.35169838604E+02  0.42157823269E+02  0.00000000000E+00 0.  1.
          2    1    1    2  501    0  0.14214256479E+03  0.14428791565E+03 -0.13105990319E+03  0.24124719596E+03  0.25500000000E-02 0.  1.
<mgrwt>
<rscale>  0 0.22953448E+03</rscale>
<asrwt>0</asrwt>
<pdfrwt beam="1">  1       11 0.10000000E+01 0.22577483E+03</pdfrwt>
<pdfrwt beam="2">  1        2 0.36669803E-01 0.22953448E+03</pdfrwt>
<totfact> 0.17392315E+02</totfact>
</mgrwt>
</event>
<event>
 5    1  0.9955701E-004  0.1631283E+03  0.7818608E-02  0.1490912E+00
         11   -1    0    0    0    0  0.00000000000E+00  0.00000000000E+00  0.99997977262E+03  0.99997977262E+03  0.51100000000E-03 0. -1.
          2   -1    0    0  501    0 -0.00000000000E+00 -0.00000000000E+00 -0.68363228401E+02  0.68363228449E+02  0.25500000000E-02 0. -1.
         11    1    1    2    0    0  0.14554246919E+03  0.72464320940E+02  0.81933149652E+03  0.83530700305E+03  0.51100000000E-03 0. -1.
         22    1    1    2    0    0  0.76025859419E+01 -0.80148449521E+01 -0.18524950162E+02  0.21568746628E+02  0.00000000000E+00 0. -1.
          2    1    1    2  501    0 -0.15314505513E+03 -0.64449475988E+02  0.13080999786E+03  0.21146725139E+03  0.25500000000E-02 0. -1.
<mgrwt>
<rscale>  0 0.42450968E+02</rscale>
<asrwt>0</asrwt>
<pdfrwt beam="1">  1       11 0.10000000E+01 0.16312831E+03</pdfrwt>
<pdfrwt beam="2">  1        2 0.10517207E-01 0.42450968E+02</pdfrwt>
<totfact> 0.66319392E+02</totfact>
</mgrwt>
</event>
<event>
 5    1  0.9955701E-004  0.1081862E+03  0.7818608E-02  0.1377761E+00
         11   -1    0    0    0    0  0.00000000000E+00  0.00000000000E+00  0.10006415883E+04  0.10006415883E+04  0.51100000000E-03 0. -1.
          2   -1    0    0  501    0 -0.00000000000E+00 -0.00000000000E+00 -0.18830347115E+02  0.18830347287E+02  0.25500000000E-02 0. -1.
         11    1    1    2    0    0  0.11222851310E+03  0.38528230756E+01  0.28945873123E+03  0.31047776166E+03  0.51100000000E-03 0. -1.
         22    1    1    2    0    0 -0.92742354930E+01 -0.38005306661E+02  0.11314392978E+03  0.11971617946E+03  0.00000000000E+00 0. -1.
          2    1    1    2  501    0 -0.10295427761E+03  0.34152483586E+02  0.57920858021E+03  0.58927799450E+03  0.25500000000E-02 0. -1.
<mgrwt>
<rscale>  0 0.65056106E+02</rscale>
<asrwt>0</asrwt>
<pdfrwt beam="1">  1       11 0.10000000E+01 0.10818618E+03</pdfrwt>
<pdfrwt beam="2">  1        2 0.28988351E-02 0.65056106E+02</pdfrwt>
<totfact> 0.34768569E+03</totfact>
</mgrwt>
</event>
<event>
 5    1  0.9955701E-004  0.3122383E+03  0.7818608E-02  0.1079278E+00
         11   -1    0    0    0    0  0.00000000000E+00  0.00000000000E+00  0.99998217389E+03  0.99998217389E+03  0.51100000000E-03 0. -1.
          2   -1    0    0  501    0 -0.00000000000E+00 -0.00000000000E+00 -0.17714077165E+03  0.17714077167E+03  0.25500000000E-02 0. -1.
         11    1    1    2    0    0  0.24757310616E+03 -0.18266895247E+03  0.80792917218E+03  0.86452873657E+03  0.51100000000E-03 0. -1.
         22    1    1    2    0    0 -0.73032905425E+01  0.97094714216E+01 -0.96686681263E+01  0.15527235149E+02  0.00000000000E+00 0. -1.
          2    1    1    2  501    0 -0.24026981562E+03  0.17295948105E+03  0.24580898187E+02  0.29706697384E+03  0.25500000000E-02 0. -1.
<mgrwt>
<rscale>  0 0.31223831E+03</rscale>
<asrwt>0</asrwt>
<pdfrwt beam="1">  1       11 0.10000000E+01 0.30766929E+03</pdfrwt>
<pdfrwt beam="2">  1        2 0.27251940E-01 0.31223831E+03</pdfrwt>
<totfact> 0.24206890E+02</totfact>
</mgrwt>
</event>
<event>
 5    1  0.9955701E-004  0.1120691E+03  0.7818608E-02  0.1418012E+00
         11   -1    0    0    0    0  0.00000000000E+00  0.00000000000E+00  0.10001703493E+04  0.10001703493E+04  0.51100000000E-03 0. -1.
         -2   -1    0    0    0  501 -0.00000000000E+00 -0.00000000000E+00 -0.45200484740E+02  0.45200484812E+02  0.25500000000E-02 0. -1.
         11    1    1    2    0    0  0.10236726239E+03 -0.51945999370E+02  0.69343632144E+03  0.70287365519E+03  0.51100000000E-03 0. -1.
         22    1    1    2    0    0 -0.20056690375E+02 -0.18711294427E+02 -0.24378870870E+02  0.36697584564E+02  0.00000000000E+00 0. -1.
         -2    1    1    2    0  501 -0.82310572013E+02  0.70657293797E+02  0.28591241395E+03  0.30579959432E+03  0.25500000000E-02 0. -1.
<mgrwt>
<rscale>  0 0.55443758E+02</rscale>
<asrwt>0</asrwt>
<pdfrwt beam="1">  1       11 0.10000000E+01 0.11206906E+03</pdfrwt>
<pdfrwt beam="2">  1       -2 0.69551051E-02 0.55443758E+02</pdfrwt>
<totfact> 0.83049671E+02</totfact>
</mgrwt>
</event>
<event>
 5    1  0.9955701E-004  0.1477346E+03  0.7818608E-02  0.1203285E+00
         11   -1    0    0    0    0  0.00000000000E+00  0.00000000000E+00  0.10002615115E+04  0.10002615115E+04  0.51100000000E-03 0. -1.
          2   -1    0    0  501    0 -0.00000000000E+00 -0.00000000000E+00 -0.45261560559E+02  0.45261560631E+02  0.25500000000E-02 0. -1.
         11    1    1    2    0    0  0.86544137937E+02  0.43735897766E+02  0.31015117695E+03  0.32495610339E+03  0.51100000000E-03 0. -1.
         22    1    1    2    0    0 -0.94974107865E+02  0.11447130580E+03  0.41958142656E+03  0.44516551363E+03  0.00000000000E+00 0. -1.
          2    1    1    2  501    0  0.84299699275E+01 -0.15820720356E+03  0.22526734745E+03  0.27540145512E+03  0.25500000000E-02 0. -1.
<mgrwt>
<rscale>  0 0.14773458E+03</rscale>
<asrwt>0</asrwt>
<pdfrwt beam="1">  1       11 0.10000000E+01 0.96967606E+02</pdfrwt>
<pdfrwt beam="2">  1        2 0.69651378E-02 0.14773458E+03</pdfrwt>
<totfact> 0.12023402E+03</totfact>
</mgrwt>
</event>
<event>
 5    1  0.9955701E-004  0.7908017E+02  0.7818608E-02  0.1549708E+00
         11   -1    0    0    0    0  0.00000000000E+00  0.00000000000E+00  0.10003727224E+04  0.10003727224E+04  0.51100000000E-03 0.  1.
          2   -1    0    0  501    0 -0.00000000000E+00 -0.00000000000E+00 -0.10469102951E+02  0.10469103261E+02  0.25500000000E-02 0.  1.
         11    1    1    2    0    0 -0.25029379365E+02  0.70546836690E+02  0.26048426842E+03  0.27102653024E+03  0.51100000000E-03 0.  1.
         22    1    1    2    0    0 -0.15380718859E+02  0.11229681747E-01  0.17627727599E+02  0.23394516858E+02  0.00000000000E+00 0.  1.
          2    1    1    2  501    0  0.40410098224E+02 -0.70558066372E+02  0.71179162347E+03  0.71642077861E+03  0.25500000000E-02 0.  1.
<mgrwt>
<rscale>  0 0.34875630E+02</rscale>
<asrwt>0</asrwt>
<pdfrwt beam="1">  1       11 0.10000000E+01 0.79080170E+02</pdfrwt>
<pdfrwt beam="2">  1        2 0.16112315E-02 0.34875630E+02</pdfrwt>
<totfact> 0.68585992E+03</totfact>
</mgrwt>
</event>
<event>
 5    1  0.9955701E-004  0.7564076E+02  0.7818608E-02  0.1351866E+00
         11   -1    0    0    0    0  0.00000000000E+00  0.00000000000E+00  0.99996662313E+03  0.99996662313E+03  0.51100000000E-03 0.  1.
          2   -1    0    0  501    0 -0.00000000000E+00 -0.00000000000E+00 -0.75766804175E+01  0.75766808466E+01  0.25500000000E-02 0.  1.
         11    1    1    2    0    0  0.15318524963E+02 -0.47246261676E+02  0.14964996654E+03  0.15767681800E+03  0.51100000000E-03 0.  1.
         22    1    1    2    0    0  0.20411317838E+02 -0.15811884229E+02  0.89562890484E+02  0.93210240482E+02  0.00000000000E+00 0.  1.
          2    1    1    2  501    0 -0.35729842802E+02  0.63058145905E+02  0.75317708569E+03  0.75665624549E+03  0.25500000000E-02 0.  1.
<mgrwt>
<rscale>  0 0.72477248E+02</rscale>
<asrwt>0</asrwt>
<pdfrwt beam="1">  1       11 0.10000000E+01 0.75640764E+02</pdfrwt>
<pdfrwt beam="2">  1        2 0.11656042E-02 0.72477248E+02</pdfrwt>
<totfact> 0.11950939E+04</totfact>
</mgrwt>
</event>
<event>
 5    1  0.9955701E-004  0.3212130E+03  0.7818608E-02  0.1292631E+00
         11   -1    0    0    0    0  0.00000000000E+00  0.00000000000E+00  0.99998675636E+03  0.99998675636E+03  0.51100000000E-03 0.  1.
          2   -1    0    0  501    0 -0.00000000000E+00 -0.00000000000E+00 -0.11814124871E+03  0.11814124874E+03  0.25500000000E-02 0.  1.
         11    1    1    2    0    0 -0.59198776765E+02 -0.31710979482E+03  0.53168293788E+03  0.62189216394E+03  0.51100000000E-03 0.  1.
         22    1    1    2    0    0 -0.26292611364E+02  0.87726308782E+01  0.10613129120E+02  0.29679942294E+02  0.00000000000E+00 0.  1.
          2    1    1    2  501    0  0.85491388129E+02  0.30833716394E+03  0.33954944065E+03  0.46655589886E+03  0.25500000000E-02 0.  1.
<mgrwt>
<rscale>  0 0.94356908E+02</rscale>
<asrwt>0</asrwt>
<pdfrwt beam="1">  1       11 0.10000000E+01 0.32121303E+03</pdfrwt>
<pdfrwt beam="2">  1        2 0.18175335E-01 0.94356908E+02</pdfrwt>
<totfact> 0.36943472E+02</totfact>
</mgrwt>
</event>
<event>
 5    1  0.9955701E-004  0.5955125E+02  0.7818608E-02  0.1645098E+00
         11   -1    0    0    0    0  0.00000000000E+00  0.00000000000E+00  0.10006542553E+04  0.10006542553E+04  0.51100000000E-03 0.  1.
          2   -1    0    0  501    0 -0.00000000000E+00 -0.00000000000E+00 -0.76507242426E+01  0.76507246676E+01  0.25500000000E-02 0.  1.
         11    1    1    2    0    0  0.40018574949E+02 -0.36165449148E+02  0.20532930762E+03  0.21229590345E+03  0.51100000000E-03 0.  1.
         22    1    1    2    0    0 -0.82475421356E+00 -0.11447717884E+02  0.82159054247E+01  0.14114941240E+02  0.00000000000E+00 0.  1.
          2    1    1    2  501    0 -0.39193820735E+02  0.47613167032E+02  0.77945831806E+03  0.78189413533E+03  0.25500000000E-02 0.  1.
<mgrwt>
<rscale>  0 0.26143690E+02</rscale>
<asrwt>0</asrwt>
<pdfrwt beam="1">  1       11 0.10000000E+01 0.59551251E+02</pdfrwt>
<pdfrwt beam="2">  1        2 0.11778046E-02 0.26143690E+02</pdfrwt>
<totfact> 0.97789318E+03</totfact>
</mgrwt>
</event>
<event>
 5    1  0.9955701E-004  0.5545759E+02  0.7818608E-02  0.1673260E+00
         11   -1    0    0    0    0  0.00000000000E+00  0.00000000000E+00  0.10001463258E+04  0.10001463258E+04  0.51100000000E-03 0. -1.
         -2   -1    0    0    0  501 -0.00000000000E+00 -0.00000000000E+00 -0.55955621422E+01  0.55955627233E+01  0.25500000000E-02 0. -1.
         11    1    1    2    0    0 -0.12326312408E+02  0.51628308475E+02  0.29962844417E+03  0.30429364891E+03  0.51100000000E-03 0. -1.
         22    1    1    2    0    0  0.91366602174E+01  0.52377869082E+01  0.11259929900E+02  0.15417489840E+02  0.00000000000E+00 0. -1.
         -2    1    1    2    0  501  0.31896521903E+01 -0.56866095383E+02  0.68366238960E+03  0.68603074978E+03  0.25500000000E-02 0. -1.
<mgrwt>
<rscale>  0 0.24167179E+02</rscale>
<asrwt>0</asrwt>
<pdfrwt beam="1">  1       11 0.10000000E+01 0.55457588E+02</pdfrwt>
<pdfrwt beam="2">  1       -2 0.86098170E-03 0.24167179E+02</pdfrwt>
<totfact> 0.13806546E+04</totfact>
</mgrwt>
</event>
<event>
 5    1  0.9955701E-004  0.2545084E+02  0.7818608E-02  0.1721900E+00
         11   -1    0    0    0    0  0.00000000000E+00  0.00000000000E+00  0.10000760713E+04  0.10000760713E+04  0.51100000000E-03 0. -1.
          2   -1    0    0  501    0 -0.00000000000E+00 -0.00000000000E+00 -0.72812875082E+01  0.72812879547E+01  0.25500000000E-02 0. -1.
         11    1    1    2    0    0 -0.19614144011E+02  0.36293720661E+02  0.11814683180E+03  0.12514240956E+03  0.51100000000E-03 0. -1.
         22    1    1    2    0    0  0.38682631535E+01 -0.17283347859E+02  0.18143148927E+02  0.25354514904E+02  0.00000000000E+00 0.  1.
          2    1    1    2  501    0  0.15745880857E+02 -0.19010372803E+02  0.85650480304E+03  0.85686043477E+03  0.25500000000E-02 0. -1.
<mgrwt>
<rscale>  0 0.21231065E+02</rscale>
<asrwt>0</asrwt>
<pdfrwt beam="1">  1       11 0.10000000E+01 0.25450836E+02</pdfrwt>
<pdfrwt beam="2">  1        2 0.11202833E-02 0.21231065E+02</pdfrwt>
<totfact> 0.99780906E+03</totfact>
</mgrwt>
</event>
<event>
 5    1  0.9955701E-004  0.2823456E+03  0.7818608E-02  0.1305872E+00
         11   -1    0    0    0    0  0.00000000000E+00  0.00000000000E+00  0.10001283613E+04  0.10001283613E+04  0.51100000000E-03 0. -1.
          2   -1    0    0  501    0 -0.00000000000E+00 -0.00000000000E+00 -0.10669103977E+03  0.10669103980E+03  0.25500000000E-02 0. -1.
         11    1    1    2    0    0  0.28510306942E+03  0.67529516339E+02  0.62232575016E+03  0.68784688346E+03  0.51100000000E-03 0. -1.
         22    1    1    2    0    0 -0.26109915905E+02 -0.98492564817E+01 -0.12512062531E+02  0.30582466718E+02  0.00000000000E+00 0. -1.
          2    1    1    2  501    0 -0.25899315351E+03 -0.57680259857E+02  0.28362363391E+03  0.38839005093E+03  0.25500000000E-02 0. -1.
<mgrwt>
<rscale>  0 0.88764230E+02</rscale>
<asrwt>0</asrwt>
<pdfrwt beam="1">  1       11 0.10000000E+01 0.28234557E+03</pdfrwt>
<pdfrwt beam="2">  1        2 0.16416113E-01 0.88764230E+02</pdfrwt>
<totfact> 0.41370566E+02</totfact>
</mgrwt>
</event>
<event>
 5    1  0.1347554E-003  0.2053066E+03  0.7818608E-02  0.1404592E+00
         11   -1    0    0    0    0  0.00000000000E+00  0.00000000000E+00  0.10001472994E+04  0.10001472994E+04  0.51100000000E-03 0. -1.
         -2   -1    0    0    0  501 -0.00000000000E+00 -0.00000000000E+00 -0.25306553471E+03  0.25306553472E+03  0.25500000000E-02 0.  1.
         11    1    1    2    0    0 -0.16761539301E+03 -0.11724320395E+03  0.92681610707E+03  0.94912011104E+03  0.51100000000E-03 0. -1.
         22    1    1    2    0    0 -0.16595718786E+02 -0.94304172624E+00 -0.42815545112E+02  0.45929055215E+02  0.00000000000E+00 0.  1.
         -2    1    1    2    0  501  0.18421111180E+03  0.11818624567E+03 -0.13691879724E+03  0.25816366789E+03  0.25500000000E-02 0.  1.
<mgrwt>
<rscale>  0 0.58418376E+02</rscale>
<asrwt>0</asrwt>
<pdfrwt beam="1">  1       11 0.10000000E+01 0.20530657E+03</pdfrwt>
<pdfrwt beam="2">  1       -2 0.38938893E-01 0.58418376E+02</pdfrwt>
<totfact> 0.49979673E+01</totfact>
</mgrwt>
</event>
<event>
 5    1  0.9955701E-004  0.1536039E+03  0.7818608E-02  0.1377921E+00
         11   -1    0    0    0    0  0.00000000000E+00  0.00000000000E+00  0.99962835482E+03  0.99962835482E+03  0.51100000000E-03 0. -1.
         -2   -1    0    0    0  501 -0.00000000000E+00 -0.00000000000E+00 -0.10523925412E+03  0.10523925415E+03  0.25500000000E-02 0.  1.
         11    1    1    2    0    0  0.12676856161E+03  0.87838033240E+02  0.90370458806E+03  0.91677029335E+03  0.51100000000E-03 0. -1.
         22    1    1    2    0    0 -0.21044093776E+02  0.17729555433E+02 -0.25880743352E+02  0.37775705091E+02  0.00000000000E+00 0. -1.
         -2    1    1    2    0  501 -0.10572446783E+03 -0.10556758867E+03  0.16565255994E+02  0.15032161052E+03  0.25500000000E-02 0.  1.
<mgrwt>
<rscale>  0 0.65013339E+02</rscale>
<asrwt>0</asrwt>
<pdfrwt beam="1">  1       11 0.10000000E+01 0.15360389E+03</pdfrwt>
<pdfrwt beam="2">  1       -2 0.16184637E-01 0.65013339E+02</pdfrwt>
<totfact> 0.22729260E+02</totfact>
</mgrwt>
</event>
<event>
 5    1  0.9955701E-004  0.9407690E+02  0.7818608E-02  0.1370745E+00
         11   -1    0    0    0    0  0.00000000000E+00  0.00000000000E+00  0.10001250175E+04  0.10001250175E+04  0.51100000000E-03 0. -1.
          2   -1    0    0  501    0 -0.00000000000E+00 -0.00000000000E+00 -0.53918793136E+02  0.53918793197E+02  0.25500000000E-02 0. -1.
         11    1    1    2    0    0 -0.26197771751E+02  0.11874215230E+03  0.31503453795E+03  0.33768740290E+03  0.51100000000E-03 0. -1.
         22    1    1    2    0    0  0.36093815152E+02 -0.31124026981E+02 -0.25320973211E+02  0.53968696779E+02  0.00000000000E+00 0. -1.
          2    1    1    2  501    0 -0.98960434009E+01 -0.87618125314E+02  0.65649265965E+03  0.66238771104E+03  0.25500000000E-02 0. -1.
<mgrwt>
<rscale>  0 0.66960406E+02</rscale>
<asrwt>0</asrwt>
<pdfrwt beam="1">  1       11 0.10000000E+01 0.94076902E+02</pdfrwt>
<pdfrwt beam="2">  1        2 0.82962358E-02 0.66960406E+02</pdfrwt>
<totfact> 0.91260693E+02</totfact>
</mgrwt>
</event>
<event>
 5    1  0.9955701E-004  0.5355800E+02  0.7818608E-02  0.1532828E+00
         11   -1    0    0    0    0  0.00000000000E+00  0.00000000000E+00  0.10001229512E+04  0.10001229512E+04  0.51100000000E-03 0. -1.
          2   -1    0    0  501    0 -0.00000000000E+00 -0.00000000000E+00 -0.11608596641E+02  0.11608596921E+02  0.25500000000E-02 0. -1.
         11    1    1    2    0    0  0.35759154717E+02  0.19125252783E+02  0.23184455476E+03  0.23536437711E+03  0.51100000000E-03 0. -1.
         22    1    1    2    0    0  0.25342531637E+02  0.13783265212E+00  0.10467292189E+02  0.27419465957E+02  0.00000000000E+00 0. -1.
          2    1    1    2  501    0 -0.61101686354E+02 -0.19263085435E+02  0.74620250760E+03  0.74894770504E+03  0.25500000000E-02 0. -1.
<mgrwt>
<rscale>  0 0.36841752E+02</rscale>
<asrwt>0</asrwt>
<pdfrwt beam="1">  1       11 0.10000000E+01 0.53558000E+02</pdfrwt>
<pdfrwt beam="2">  1        2 0.17861575E-02 0.36841752E+02</pdfrwt>
<totfact> 0.60484714E+03</totfact>
</mgrwt>
</event>
<event>
 5    1  0.9955701E-004  0.2282562E+03  0.7818608E-02  0.1127873E+00
         11   -1    0    0    0    0  0.00000000000E+00  0.00000000000E+00  0.10001705474E+04  0.10001705474E+04  0.51100000000E-03 0. -1.
          2   -1    0    0  501    0 -0.00000000000E+00 -0.00000000000E+00 -0.54917676440E+02  0.54917676499E+02  0.25500000000E-02 0. -1.
         11    1    1    2    0    0  0.20282362370E+03  0.10274190965E+02  0.24309844483E+03  0.31676463693E+03  0.51100000000E-03 0. -1.
         22    1    1    2    0    0 -0.80471857704E+02 -0.38277713176E+02  0.17438474595E+03  0.19583396751E+03  0.00000000000E+00 0. -1.
          2    1    1    2  501    0 -0.12235176600E+03  0.28003522211E+02  0.52776968013E+03  0.54248961941E+03  0.25500000000E-02 0. -1.
<mgrwt>
<rscale>  0 0.22825617E+03</rscale>
<asrwt>0</asrwt>
<pdfrwt beam="1">  1       11 0.10000000E+01 0.20308378E+03</pdfrwt>
<pdfrwt beam="2">  1        2 0.84503140E-02 0.22825617E+03</pdfrwt>
<totfact> 0.96595708E+02</totfact>
</mgrwt>
</event>
<event>
 5    1  0.9955701E-004  0.1686192E+03  0.7818608E-02  0.1410434E+00
         11   -1    0    0    0    0  0.00000000000E+00  0.00000000000E+00  0.10002180994E+04  0.10002180994E+04  0.51100000000E-03 0.  1.
          2   -1    0    0  501    0 -0.00000000000E+00 -0.00000000000E+00 -0.92234058983E+02  0.92234059018E+02  0.25500000000E-02 0.  1.
         11    1    1    2    0    0  0.12622158908E+03 -0.10662497169E+03  0.13235727266E+03  0.21170550716E+03  0.51100000000E-03 0.  1.
         22    1    1    2    0    0  0.14780230462E+02  0.12463918403E+02 -0.41728931697E+02  0.45990305664E+02  0.00000000000E+00 0.  1.
          2    1    1    2  501    0 -0.14100181954E+03  0.94161053282E+02  0.81735569948E+03  0.83475634562E+03  0.25500000000E-02 0.  1.
<mgrwt>
<rscale>  0 0.57097171E+02</rscale>
<asrwt>0</asrwt>
<pdfrwt beam="1">  1       11 0.10000000E+01 0.16861925E+03</pdfrwt>
<pdfrwt beam="2">  1        2 0.14192950E-01 0.57097171E+02</pdfrwt>
<totfact> 0.47778176E+02</totfact>
</mgrwt>
</event>
<event>
 5    1  0.9955701E-004  0.1182345E+03  0.7818608E-02  0.1375163E+00
         11   -1    0    0    0    0  0.00000000000E+00  0.00000000000E+00  0.10004934443E+04  0.10004934443E+04  0.51100000000E-03 0.  1.
         -2   -1    0    0    0  501 -0.00000000000E+00 -0.00000000000E+00 -0.54033076003E+02  0.54033076063E+02  0.25500000000E-02 0.  1.
         11    1    1    2    0    0  0.11985379783E+03 -0.11903977743E+02  0.66852472455E+03  0.67928782182E+03  0.51100000000E-03 0.  1.
         22    1    1    2    0    0 -0.11921310748E+02 -0.34568343337E+02 -0.28940120109E+02  0.46632805652E+02  0.00000000000E+00 0.  1.
         -2    1    1    2    0  501 -0.10793248708E+03  0.46472321079E+02  0.30687576385E+03  0.32860589288E+03  0.25500000000E-02 0.  1.
<mgrwt>
<rscale>  0 0.65752469E+02</rscale>
<asrwt>0</asrwt>
<pdfrwt beam="1">  1       11 0.10000000E+01 0.11823448E+03</pdfrwt>
<pdfrwt beam="2">  1       -2 0.83168826E-02 0.65752469E+02</pdfrwt>
<totfact> 0.64428339E+02</totfact>
</mgrwt>
</event>
<event>
 5    1  0.9955701E-004  0.5482192E+02  0.7818608E-02  0.1613872E+00
         11   -1    0    0    0    0  0.00000000000E+00  0.00000000000E+00  0.10001330124E+04  0.10001330124E+04  0.51100000000E-03 0. -1.
          2   -1    0    0  501    0 -0.00000000000E+00 -0.00000000000E+00 -0.68053148268E+01  0.68053153046E+01  0.25500000000E-02 0. -1.
         11    1    1    2    0    0 -0.50332741529E+02 -0.44327359594E+02  0.24937504961E+03  0.25823674225E+03  0.51100000000E-03 0. -1.
         22    1    1    2    0    0  0.10602082752E+02  0.10526738849E+02  0.38108177393E+02  0.40932255907E+02  0.00000000000E+00 0. -1.
          2    1    1    2  501    0  0.39730658778E+02  0.33800620745E+02  0.70584447057E+03  0.70776932954E+03  0.25500000000E-02 0. -1.
<mgrwt>
<rscale>  0 0.28619269E+02</rscale>
<asrwt>0</asrwt>
<pdfrwt beam="1">  1       11 0.10000000E+01 0.54821922E+02</pdfrwt>
<pdfrwt beam="2">  1        2 0.10471108E-02 0.28619269E+02</pdfrwt>
<totfact> 0.11625776E+04</totfact>
</mgrwt>
</event>
<event>
 5    1  0.9955701E-004  0.2290982E+03  0.7818608E-02  0.1127276E+00
         11   -1    0    0    0    0  0.00000000000E+00  0.00000000000E+00  0.10002913871E+04  0.10002913871E+04  0.51100000000E-03 0. -1.
          2   -1    0    0  501    0 -0.00000000000E+00 -0.00000000000E+00 -0.67563363057E+02  0.67563363106E+02  0.25500000000E-02 0. -1.
         11    1    1    2    0    0 -0.91444005388E+02  0.19999756487E+03  0.72841070391E+03  0.76088316162E+03  0.51100000000E-03 0. -1.
         22    1    1    2    0    0  0.28055090409E+02 -0.14415194677E+02  0.17256997688E+02  0.35953997061E+02  0.00000000000E+00 0.  1.
          2    1    1    2  501    0  0.63388914980E+02 -0.18558237019E+03  0.18706032241E+03  0.27101759149E+03  0.25500000000E-02 0. -1.
<mgrwt>
<rscale>  0 0.22909821E+03</rscale>
<asrwt>0</asrwt>
<pdfrwt beam="1">  1       11 0.10000000E+01 0.21991142E+03</pdfrwt>
<pdfrwt beam="2">  1        2 0.10397392E-01 0.22909821E+03</pdfrwt>
<totfact> 0.74508346E+02</totfact>
</mgrwt>
</event>
<event>
 5    1  0.9955701E-004  0.1583458E+03  0.7818608E-02  0.1412518E+00
         11   -1    0    0    0    0  0.00000000000E+00  0.00000000000E+00  0.10001529495E+04  0.10001529495E+04  0.51100000000E-03 0. -1.
          2   -1    0    0  501    0 -0.00000000000E+00 -0.00000000000E+00 -0.17776945459E+03  0.17776945461E+03  0.25500000000E-02 0.  1.
         11    1    1    2    0    0 -0.32083046932E+02  0.15729598034E+03  0.90309557668E+03  0.91725294655E+03  0.51100000000E-03 0. -1.
         22    1    1    2    0    0 -0.15192856316E+01 -0.20199874024E+02 -0.11388273956E+03  0.11567031386E+03  0.00000000000E+00 0.  1.
          2    1    1    2  501    0  0.33602332563E+02 -0.13709610632E+03  0.33170657765E+02  0.14499914367E+03  0.25500000000E-02 0.  1.
<mgrwt>
<rscale>  0 0.56635670E+02</rscale>
<asrwt>0</asrwt>
<pdfrwt beam="1">  1       11 0.10000000E+01 0.15834578E+03</pdfrwt>
<pdfrwt beam="2">  1        2 0.27353329E-01 0.56635670E+02</pdfrwt>
<totfact> 0.23177839E+02</totfact>
</mgrwt>
</event>
<event>
 5    1  0.9955701E-004  0.2715904E+02  0.7818608E-02  0.1734285E+00
         11   -1    0    0    0    0  0.00000000000E+00  0.00000000000E+00  0.10002714727E+04  0.10002714727E+04  0.51100000000E-03 0. -1.
          2   -1    0    0  501    0 -0.00000000000E+00 -0.00000000000E+00 -0.44311358290E+01  0.44311365627E+01  0.25500000000E-02 0. -1.
         11    1    1    2    0    0 -0.10088844533E+02  0.35899359455E+02  0.10493539293E+03  0.11136420198E+03  0.51100000000E-03 0. -1.
         22    1    1    2    0    0  0.12441568921E+02 -0.93691144522E+01  0.59428573616E+02  0.61435562216E+02  0.00000000000E+00 0.  1.
          2    1    1    2  501    0 -0.23527243885E+01 -0.26530245003E+02  0.83147637036E+03  0.83190284510E+03  0.25500000000E-02 0. -1.
<mgrwt>
<rscale>  0 0.20566847E+02</rscale>
<asrwt>0</asrwt>
<pdfrwt beam="1">  1       11 0.10000000E+01 0.27159045E+02</pdfrwt>
<pdfrwt beam="2">  1        2 0.68189831E-03 0.20566847E+02</pdfrwt>
<totfact> 0.18877481E+04</totfact>
</mgrwt>
</event>
<event>
 5    1  0.9955701E-004  0.1731846E+03  0.7818608E-02  0.1357391E+00
         11   -1    0    0    0    0  0.00000000000E+00  0.00000000000E+00  0.99980211560E+03  0.99980211560E+03  0.51100000000E-03 0. -1.
         -2   -1    0    0    0  501 -0.00000000000E+00 -0.00000000000E+00 -0.95665609832E+02  0.95665609866E+02  0.25500000000E-02 0.  1.
         11    1    1    2    0    0  0.15400359031E+03 -0.70442395702E+02  0.81208816363E+03  0.82955796811E+03  0.51100000000E-03 0. -1.
         22    1    1    2    0    0  0.26630814345E+02 -0.11339322347E+02 -0.22727993341E+02  0.36801388361E+02  0.00000000000E+00 0. -1.
         -2    1    1    2    0  501 -0.18063440465E+03  0.81781718049E+02  0.11477633547E+03  0.22910836899E+03  0.25500000000E-02 0.  1.
<mgrwt>
<rscale>  0 0.70800644E+02</rscale>
<asrwt>0</asrwt>
<pdfrwt beam="1">  1       11 0.10000000E+01 0.17318461E+03</pdfrwt>
<pdfrwt beam="2">  1       -2 0.14714873E-01 0.70800644E+02</pdfrwt>
<totfact> 0.26620735E+02</totfact>
</mgrwt>
</event>
<event>
 5    1  0.9955701E-004  0.1070189E+03  0.7818608E-02  0.1408568E+00
         11   -1    0    0    0    0  0.00000000000E+00  0.00000000000E+00  0.10002585818E+04  0.10002585818E+04  0.51100000000E-03 0.  1.
          2   -1    0    0  501    0 -0.00000000000E+00 -0.00000000000E+00 -0.18687589767E+02  0.18687589941E+02  0.25500000000E-02 0.  1.
         11    1    1    2    0    0  0.50963164754E+02  0.93446899525E+02  0.46315625178E+03  0.47522971368E+03  0.51100000000E-03 0.  1.
         22    1    1    2    0    0 -0.27631511996E+02  0.13853053596E+02  0.29872194153E+02  0.42985527013E+02  0.00000000000E+00 0.  1.
          2    1    1    2  501    0 -0.23331652758E+02 -0.10729995312E+03  0.48854254609E+03  0.50073093105E+03  0.25500000000E-02 0.  1.
<mgrwt>
<rscale>  0 0.57514496E+02</rscale>
<asrwt>0</asrwt>
<pdfrwt beam="1">  1       11 0.10000000E+01 0.10701886E+03</pdfrwt>
<pdfrwt beam="2">  1        2 0.28757572E-02 0.57514496E+02</pdfrwt>
<totfact> 0.34593317E+03</totfact>
</mgrwt>
</event>
<event>
 5    1  0.9955701E-004  0.1680603E+03  0.7818608E-02  0.1415494E+00
         11   -1    0    0    0    0  0.00000000000E+00  0.00000000000E+00  0.10003313978E+04  0.10003313978E+04  0.51100000000E-03 0. -1.
          2   -1    0    0  501    0 -0.00000000000E+00 -0.00000000000E+00 -0.27224650741E+03  0.27224650742E+03  0.25500000000E-02 0. -1.
         11    1    1    2    0    0 -0.14879067092E+03 -0.77953141874E+02  0.95544985619E+03  0.97010297586E+03  0.51100000000E-03 0. -1.
         22    1    1    2    0    0 -0.10740601809E+02  0.15247279044E+02 -0.60288653658E+02  0.63107541589E+02  0.00000000000E+00 0.  1.
          2    1    1    2  501    0  0.15953127273E+03  0.62705862830E+02 -0.16707631218E+03  0.23936738773E+03  0.25500000000E-02 0. -1.
<mgrwt>
<rscale>  0 0.55985752E+02</rscale>
<asrwt>0</asrwt>
<pdfrwt beam="1">  1       11 0.10000000E+01 0.16806034E+03</pdfrwt>
<pdfrwt beam="2">  1        2 0.41897957E-01 0.55985752E+02</pdfrwt>
<totfact> 0.14858325E+02</totfact>
</mgrwt>
</event>
<event>
 5    1  0.9955701E-004  0.1408541E+03  0.7818608E-02  0.1515226E+00
         11   -1    0    0    0    0  0.00000000000E+00  0.00000000000E+00  0.99986147356E+03  0.99986147356E+03  0.51100000000E-03 0. -1.
          2   -1    0    0  501    0 -0.00000000000E+00 -0.00000000000E+00 -0.47119463643E+02  0.47119463712E+02  0.25500000000E-02 0. -1.
         11    1    1    2    0    0 -0.89863789528E+02 -0.10744759792E+03  0.80488105556E+03  0.81697858023E+03  0.51100000000E-03 0. -1.
         22    1    1    2    0    0 -0.10398728982E+02  0.30366951082E+01 -0.10753118121E+02  0.15263834084E+02  0.00000000000E+00 0. -1.
          2    1    1    2  501    0  0.10026251851E+03  0.10441090281E+03  0.15861407248E+03  0.21473852295E+03  0.25500000000E-02 0. -1.
<mgrwt>
<rscale>  0 0.39062513E+02</rscale>
<asrwt>0</asrwt>
<pdfrwt beam="1">  1       11 0.10000000E+01 0.14085408E+03</pdfrwt>
<pdfrwt beam="2">  1        2 0.72481439E-02 0.39062513E+02</pdfrwt>
<totfact> 0.10271272E+03</totfact>
</mgrwt>
</event>
<event>
 5    1  0.9955701E-004  0.1041002E+03  0.7818608E-02  0.1336356E+00
         11   -1    0    0    0    0  0.00000000000E+00  0.00000000000E+00  0.10001435329E+04  0.10001435329E+04  0.51100000000E-03 0. -1.
          2   -1    0    0  501    0 -0.00000000000E+00 -0.00000000000E+00 -0.29285243503E+02  0.29285243614E+02  0.25500000000E-02 0. -1.
         11    1    1    2    0    0  0.61279722275E+02  0.84977279953E+02  0.33737448911E+03  0.35326744596E+03  0.51100000000E-03 0. -1.
         22    1    1    2    0    0  0.73371654891E+01 -0.12096393839E+03  0.18584100303E+03  0.22186254032E+03  0.00000000000E+00 0. -1.
          2    1    1    2  501    0 -0.68616887764E+02  0.35986658438E+02  0.44764279724E+03  0.45429879022E+03  0.25500000000E-02 0. -1.
<mgrwt>
<rscale>  0 0.77481074E+02</rscale>
<asrwt>0</asrwt>
<pdfrwt beam="1">  1       11 0.10000000E+01 0.10410016E+03</pdfrwt>
<pdfrwt beam="2">  1        2 0.45060686E-02 0.77481074E+02</pdfrwt>
<totfact> 0.19939885E+03</totfact>
</mgrwt>
</event>
<event>
 5    1  0.9955701E-004  0.4567534E+02  0.7818608E-02  0.1536861E+00
         11   -1    0    0    0    0  0.00000000000E+00  0.00000000000E+00  0.10001984926E+04  0.10001984926E+04  0.51100000000E-03 0. -1.
          2   -1    0    0  501    0 -0.00000000000E+00 -0.00000000000E+00 -0.71796330667E+01  0.71796335195E+01  0.25500000000E-02 0. -1.
         11    1    1    2    0    0  0.20067374273E+02  0.59941011881E+02  0.28838471333E+03  0.29523104054E+03  0.51100000000E-03 0. -1.
         22    1    1    2    0    0  0.81572758204E+01 -0.27768078236E+02  0.65832454356E+02  0.71913276690E+02  0.00000000000E+00 0. -1.
          2    1    1    2  501    0 -0.28224650093E+02 -0.32172933645E+02  0.63880169184E+03  0.64023380889E+03  0.25500000000E-02 0. -1.
<mgrwt>
<rscale>  0 0.36358077E+02</rscale>
<asrwt>0</asrwt>
<pdfrwt beam="1">  1       11 0.10000000E+01 0.45675341E+02</pdfrwt>
<pdfrwt beam="2">  1        2 0.11047782E-02 0.36358077E+02</pdfrwt>
<totfact> 0.11368230E+04</totfact>
</mgrwt>
</event>
<event>
 5    1  0.9955701E-004  0.2715997E+03  0.7818608E-02  0.1317415E+00
         11   -1    0    0    0    0  0.00000000000E+00  0.00000000000E+00  0.10000801317E+04  0.10000801317E+04  0.51100000000E-03 0. -1.
          2   -1    0    0  501    0 -0.00000000000E+00 -0.00000000000E+00 -0.25682771883E+03  0.25682771884E+03  0.25500000000E-02 0. -1.
         11    1    1    2    0    0 -0.17218072949E+03  0.21465466892E+03  0.86083673392E+03  0.90374925337E+03  0.51100000000E-03 0. -1.
         22    1    1    2    0    0  0.13484510133E+02 -0.22384333408E+02 -0.99863274501E+02  0.10322579130E+03  0.00000000000E+00 0. -1.
          2    1    1    2  501    0  0.15869621936E+03 -0.19227033551E+03 -0.17721046537E+02  0.24993280588E+03  0.25500000000E-02 0. -1.
<mgrwt>
<rscale>  0 0.84246606E+02</rscale>
<asrwt>0</asrwt>
<pdfrwt beam="1">  1       11 0.10000000E+01 0.27159973E+03</pdfrwt>
<pdfrwt beam="2">  1        2 0.39515122E-01 0.84246606E+02</pdfrwt>
<totfact> 0.15878834E+02</totfact>
</mgrwt>
</event>
<event>
 5    1  0.9955701E-004  0.2616013E+03  0.7818608E-02  0.1301785E+00
         11   -1    0    0    0    0  0.00000000000E+00  0.00000000000E+00  0.10001176861E+04  0.10001176861E+04  0.51100000000E-03 0. -1.
          2   -1    0    0  501    0 -0.00000000000E+00 -0.00000000000E+00 -0.96187768872E+02  0.96187768906E+02  0.25500000000E-02 0. -1.
         11    1    1    2    0    0  0.20248441241E+03  0.17633282126E+03  0.27191425617E+03  0.38213945600E+03  0.51100000000E-03 0. -1.
         22    1    1    2    0    0 -0.27622369868E+02  0.14652140568E+02  0.11570523865E+00  0.31268097609E+02  0.00000000000E+00 0.  1.
          2    1    1    2  501    0 -0.17486204254E+03 -0.19098496183E+03  0.63189995586E+03  0.68289790144E+03  0.25500000000E-02 0. -1.
<mgrwt>
<rscale>  0 0.90441781E+02</rscale>
<asrwt>0</asrwt>
<pdfrwt beam="1">  1       11 0.10000000E+01 0.26160133E+03</pdfrwt>
<pdfrwt beam="2">  1        2 0.14799859E-01 0.90441781E+02</pdfrwt>
<totfact> 0.46651851E+02</totfact>
</mgrwt>
</event>
<event>
 5    1  0.9955701E-004  0.8482144E+02  0.7818608E-02  0.1378165E+00
         11   -1    0    0    0    0  0.00000000000E+00  0.00000000000E+00  0.10001178964E+04  0.10001178964E+04  0.51100000000E-03 0.  1.
          2   -1    0    0  501    0 -0.00000000000E+00 -0.00000000000E+00 -0.21490514719E+02  0.21490514871E+02  0.25500000000E-02 0.  1.
         11    1    1    2    0    0  0.75442288774E+02  0.53301925012E+02  0.19874386197E+03  0.21916148570E+03  0.51100000000E-03 0.  1.
         22    1    1    2    0    0 -0.42474313174E+02  0.25868456968E+02  0.62104056481E+02  0.79562291174E+02  0.00000000000E+00 0.  1.
          2    1    1    2  501    0 -0.32967975600E+02 -0.79170381980E+02  0.71777946327E+03  0.72288463443E+03  0.25500000000E-02 0.  1.
<mgrwt>
<rscale>  0 0.64948552E+02</rscale>
<asrwt>0</asrwt>
<pdfrwt beam="1">  1       11 0.10000000E+01 0.84821442E+02</pdfrwt>
<pdfrwt beam="2">  1        2 0.33066227E-02 0.64948552E+02</pdfrwt>
<totfact> 0.29251151E+03</totfact>
</mgrwt>
</event>
<event>
 5    1  0.9955701E-004  0.7688561E+02  0.7818608E-02  0.1612679E+00
         11   -1    0    0    0    0  0.00000000000E+00  0.00000000000E+00  0.10000439997E+04  0.10000439997E+04  0.51100000000E-03 0.  1.
         -2   -1    0    0    0  501 -0.00000000000E+00 -0.00000000000E+00 -0.98967046257E+01  0.98967049542E+01  0.25500000000E-02 0.  1.
         11    1    1    2    0    0 -0.24979545208E+02  0.69134736340E+02  0.43816367652E+03  0.44428706584E+03  0.51100000000E-03 0.  1.
         22    1    1    2    0    0  0.59710289920E+01  0.89132872182E+01  0.34502794096E+01  0.11269618639E+02  0.00000000000E+00 0.  1.
         -2    1    1    2    0  501  0.19008516216E+02 -0.78048023558E+02  0.54853333910E+03  0.55438402014E+03  0.25500000000E-02 0.  1.
<mgrwt>
<rscale>  0 0.28720444E+02</rscale>
<asrwt>0</asrwt>
<pdfrwt beam="1">  1       11 0.10000000E+01 0.76885613E+02</pdfrwt>
<pdfrwt beam="2">  1       -2 0.15226369E-02 0.28720444E+02</pdfrwt>
<totfact> 0.65887512E+03</totfact>
</mgrwt>
</event>
<event>
 5    1  0.9955701E-004  0.1524059E+03  0.7818608E-02  0.1381922E+00
         11   -1    0    0    0    0  0.00000000000E+00  0.00000000000E+00  0.10005216200E+04  0.10005216200E+04  0.51100000000E-03 0. -1.
          2   -1    0    0  501    0 -0.00000000000E+00 -0.00000000000E+00 -0.35536159383E+02  0.35536159474E+02  0.25500000000E-02 0. -1.
         11    1    1    2    0    0 -0.47388440196E+02  0.16383636088E+03  0.31854503582E+03  0.36132943037E+03  0.51100000000E-03 0. -1.
         22    1    1    2    0    0 -0.11578784238E+01 -0.26818165840E+02  0.25586559758E+02  0.37084049694E+02  0.00000000000E+00 0. -1.
          2    1    1    2  501    0  0.48546318619E+02 -0.13701819504E+03  0.62085386507E+03  0.63764429943E+03  0.25500000000E-02 0. -1.
<mgrwt>
<rscale>  0 0.63961346E+02</rscale>
<asrwt>0</asrwt>
<pdfrwt beam="1">  1       11 0.10000000E+01 0.15240595E+03</pdfrwt>
<pdfrwt beam="2">  1        2 0.54699530E-02 0.63961346E+02</pdfrwt>
<totfact> 0.15272158E+03</totfact>
</mgrwt>
</event>
<event>
 5    1  0.9955701E-004  0.1312396E+03  0.7818608E-02  0.1367379E+00
         11   -1    0    0    0    0  0.00000000000E+00  0.00000000000E+00  0.10005076411E+04  0.10005076411E+04  0.51100000000E-03 0.  1.
          2   -1    0    0  501    0 -0.00000000000E+00 -0.00000000000E+00 -0.27106264228E+02  0.27106264348E+02  0.25500000000E-02 0.  1.
         11    1    1    2    0    0  0.96703376912E+02 -0.11346429474E+03  0.33520759657E+03  0.36686485534E+03  0.51100000000E-03 0.  1.
         22    1    1    2    0    0  0.88975192532E-02  0.35130917821E+02  0.61944130982E+02  0.71212757489E+02  0.00000000000E+00 0.  1.
          2    1    1    2  501    0 -0.96712274431E+02  0.78333376915E+02  0.57624964935E+03  0.58953629265E+03  0.25500000000E-02 0.  1.
<mgrwt>
<rscale>  0 0.67901152E+02</rscale>
<asrwt>0</asrwt>
<pdfrwt beam="1">  1       11 0.10000000E+01 0.13123963E+03</pdfrwt>
<pdfrwt beam="2">  1        2 0.41723113E-02 0.67901152E+02</pdfrwt>
<totfact> 0.21727351E+03</totfact>
</mgrwt>
</event>
<event>
 5    1  0.9955701E-004  0.8677268E+02  0.7818608E-02  0.1602224E+00
         11   -1    0    0    0    0  0.00000000000E+00  0.00000000000E+00  0.10000738225E+04  0.10000738225E+04  0.51100000000E-03 0.  1.
         -2   -1    0    0    0  501 -0.00000000000E+00 -0.00000000000E+00 -0.94373657512E+01  0.94373660957E+01  0.25500000000E-02 0.  1.
         11    1    1    2    0    0 -0.48090294169E+02  0.66323621847E+02  0.33103468712E+03  0.34102120651E+03  0.51100000000E-03 0.  1.
         22    1    1    2    0    0  0.72595682757E+00  0.10091049923E+02  0.18241650411E+02  0.20859389051E+02  0.00000000000E+00 0.  1.
         -2    1    1    2    0  501  0.47364337342E+02 -0.76414671770E+02  0.64136011921E+03  0.64763059303E+03  0.25500000000E-02 0.  1.
<mgrwt>
<rscale>  0 0.29629208E+02</rscale>
<asrwt>0</asrwt>
<pdfrwt beam="1">  1       11 0.10000000E+01 0.86772682E+02</pdfrwt>
<pdfrwt beam="2">  1       -2 0.14520096E-02 0.29629208E+02</pdfrwt>
<totfact> 0.70766916E+03</totfact>
</mgrwt>
</event>
<event>
 5    1  0.9955701E-004  0.1374475E+03  0.7818608E-02  0.1480579E+00
         11   -1    0    0    0    0  0.00000000000E+00  0.00000000000E+00  0.10006157021E+04  0.10006157021E+04  0.51100000000E-03 0. -1.
          2   -1    0    0  501    0 -0.00000000000E+00 -0.00000000000E+00 -0.23702318393E+02  0.23702318530E+02  0.25500000000E-02 0. -1.
         11    1    1    2    0    0  0.13084988196E+03  0.75425749334E+01  0.48174433325E+03  0.49925563058E+03  0.51100000000E-03 0. -1.
         22    1    1    2    0    0  0.14005113279E+02  0.15952685611E+01  0.69319515012E+01  0.15707960764E+02  0.00000000000E+00 0. -1.
          2    1    1    2  501    0 -0.14485499524E+03 -0.91378434945E+01  0.48823709892E+03  0.50935442925E+03  0.25500000000E-02 0. -1.
<mgrwt>
<rscale>  0 0.44016082E+02</rscale>
<asrwt>0</asrwt>
<pdfrwt beam="1">  1       11 0.10000000E+01 0.13744751E+03</pdfrwt>
<pdfrwt beam="2">  1        2 0.36487556E-02 0.44016082E+02</pdfrwt>
<totfact> 0.24558638E+03</totfact>
</mgrwt>
</event>
<event>
 5    1  0.9955701E-004  0.1352591E+03  0.7818608E-02  0.1531472E+00
         11   -1    0    0    0    0  0.00000000000E+00  0.00000000000E+00  0.10004244271E+04  0.10004244271E+04  0.51100000000E-03 0. -1.
          2   -1    0    0  501    0 -0.00000000000E+00 -0.00000000000E+00 -0.22037384905E+02  0.22037385053E+02  0.25500000000E-02 0.  1.
         11    1    1    2    0    0  0.11041163516E+03  0.81906053164E+02  0.60423570617E+03  0.61967743168E+03  0.51100000000E-03 0. -1.
         22    1    1    2    0    0 -0.95322445727E+01  0.34129713536E+01  0.62982050281E+01  0.11923902324E+02  0.00000000000E+00 0.  1.
          2    1    1    2  501    0 -0.10087939059E+03 -0.85319024517E+02  0.36785313102E+03  0.39086047817E+03  0.25500000000E-02 0.  1.
<mgrwt>
<rscale>  0 0.37006414E+02</rscale>
<asrwt>0</asrwt>
<pdfrwt beam="1">  1       11 0.10000000E+01 0.13525911E+03</pdfrwt>
<pdfrwt beam="2">  1        2 0.33918058E-02 0.37006414E+02</pdfrwt>
<totfact> 0.26360324E+03</totfact>
</mgrwt>
</event>
<event>
 5    1  0.9955701E-004  0.2247401E+03  0.7818608E-02  0.1130398E+00
         11   -1    0    0    0    0  0.00000000000E+00  0.00000000000E+00  0.10003288055E+04  0.10003288055E+04  0.51100000000E-03 0. -1.
          2   -1    0    0  501    0 -0.00000000000E+00 -0.00000000000E+00 -0.13610923365E+03  0.13610923367E+03  0.25500000000E-02 0. -1.
         11    1    1    2    0    0  0.13110952180E+03  0.18928714947E+03  0.79584732419E+03  0.82848795712E+03  0.51100000000E-03 0. -1.
         22    1    1    2    0    0 -0.43305710902E+02  0.17392104399E+02  0.69111085117E+02  0.83391917943E+02  0.00000000000E+00 0. -1.
          2    1    1    2  501    0 -0.87803810901E+02 -0.20667925387E+03 -0.73883743774E+00  0.22455816413E+03  0.25500000000E-02 0. -1.
<mgrwt>
<rscale>  0 0.22474007E+03</rscale>
<asrwt>0</asrwt>
<pdfrwt beam="1">  1       11 0.10000000E+01 0.46667654E+02</pdfrwt>
<pdfrwt beam="2">  1        2 0.20946767E-01 0.22474007E+03</pdfrwt>
<totfact> 0.32356961E+02</totfact>
</mgrwt>
</event>
<event>
 5    1  0.9955701E-004  0.3659834E+03  0.7818608E-02  0.1394217E+00
         11   -1    0    0    0    0  0.00000000000E+00  0.00000000000E+00  0.10000019963E+04  0.10000019963E+04  0.51100000000E-03 0. -1.
          2   -1    0    0  501    0 -0.00000000000E+00 -0.00000000000E+00 -0.25106147952E+03  0.25106147953E+03  0.25500000000E-02 0. -1.
         11    1    1    2    0    0 -0.35643985885E+03  0.82872994100E+02  0.78922085298E+03  0.86993497510E+03  0.51100000000E-03 0. -1.
         22    1    1    2    0    0 -0.24792779416E+01 -0.98155285496E+01 -0.89486414544E+01  0.13511831989E+02  0.00000000000E+00 0.  1.
          2    1    1    2  501    0  0.35891913679E+03 -0.73057465550E+02 -0.31331694753E+02  0.36761666873E+03  0.25500000000E-02 0. -1.
<mgrwt>
<rscale>  0 0.60869899E+02</rscale>
<asrwt>0</asrwt>
<pdfrwt beam="1">  1       11 0.10000000E+01 0.36598341E+03</pdfrwt>
<pdfrwt beam="2">  1        2 0.38624919E-01 0.60869899E+02</pdfrwt>
<totfact> 0.16180118E+02</totfact>
</mgrwt>
</event>
<event>
 5    1  0.9955701E-004  0.2529921E+02  0.7818608E-02  0.1719217E+00
         11   -1    0    0    0    0  0.00000000000E+00  0.00000000000E+00  0.10002341452E+04  0.10002341452E+04  0.51100000000E-03 0.  1.
          2   -1    0    0  501    0 -0.00000000000E+00 -0.00000000000E+00 -0.29151511321E+01  0.29151522474E+01  0.25500000000E-02 0.  1.
         11    1    1    2    0    0  0.16030794102E+02 -0.30754809786E+02  0.16732728924E+03  0.17088378042E+03  0.51100000000E-03 0.  1.
         22    1    1    2    0    0  0.34478892464E+01  0.21943135015E+02  0.12557026018E+03  0.12751972144E+03  0.00000000000E+00 0.  1.
          2    1    1    2  501    0 -0.19478683349E+02  0.88116747704E+01  0.70442144463E+03  0.70474579558E+03  0.25500000000E-02 0.  1.
<mgrwt>
<rscale>  0 0.21379072E+02</rscale>
<asrwt>0</asrwt>
<pdfrwt beam="1">  1       11 0.10000000E+01 0.25299210E+02</pdfrwt>
<pdfrwt beam="2">  1        2 0.44858987E-03 0.21379072E+02</pdfrwt>
<totfact> 0.32961894E+04</totfact>
</mgrwt>
</event>
<event>
 5    1  0.9955701E-004  0.1075433E+03  0.7818608E-02  0.1476468E+00
         11   -1    0    0    0    0  0.00000000000E+00  0.00000000000E+00  0.10003126839E+04  0.10003126839E+04  0.51100000000E-03 0. -1.
          2   -1    0    0  501    0 -0.00000000000E+00 -0.00000000000E+00 -0.10398649466E+03  0.10398649469E+03  0.25500000000E-02 0. -1.
         11    1    1    2    0    0  0.11374871495E+03 -0.84530980799E+01  0.59564152910E+03  0.60646438990E+03  0.51100000000E-03 0. -1.
         22    1    1    2    0    0 -0.15245497564E+02 -0.10562746046E+02 -0.91326193452E+02  0.93190506010E+02  0.00000000000E+00 0. -1.
          2    1    1    2  501    0 -0.98503217386E+02  0.19015844126E+02  0.39201085355E+03  0.40464428263E+03  0.25500000000E-02 0. -1.
<mgrwt>
<rscale>  0 0.44661186E+02</rscale>
<asrwt>0</asrwt>
<pdfrwt beam="1">  1       11 0.10000000E+01 0.10754329E+03</pdfrwt>
<pdfrwt beam="2">  1        2 0.16002924E-01 0.44661186E+02</pdfrwt>
<totfact> 0.41122130E+02</totfact>
</mgrwt>
</event>
<event>
 5    1  0.9955701E-004  0.2131270E+03  0.7818608E-02  0.1442924E+00
         11   -1    0    0    0    0  0.00000000000E+00  0.00000000000E+00  0.10004540612E+04  0.10004540612E+04  0.51100000000E-03 0. -1.
          2   -1    0    0  501    0 -0.00000000000E+00 -0.00000000000E+00 -0.23867041329E+03  0.23867041331E+03  0.25500000000E-02 0. -1.
         11    1    1    2    0    0 -0.14446097883E+03 -0.15693729392E+03  0.92775865262E+03  0.95196344790E+03  0.51100000000E-03 0. -1.
         22    1    1    2    0    0  0.10489063351E+02 -0.57102166560E+01 -0.39801806888E+02  0.41554913738E+02  0.00000000000E+00 0.  1.
          2    1    1    2  501    0  0.13397191548E+03  0.16264751058E+03 -0.12617319781E+03  0.24560611288E+03  0.25500000000E-02 0. -1.
<mgrwt>
<rscale>  0 0.50450994E+02</rscale>
<asrwt>0</asrwt>
<pdfrwt beam="1">  1       11 0.10000000E+01 0.21312704E+03</pdfrwt>
<pdfrwt beam="2">  1        2 0.36735197E-01 0.50450994E+02</pdfrwt>
<totfact> 0.16980401E+02</totfact>
</mgrwt>
</event>
<event>
 5    1  0.9955701E-004  0.9343755E+02  0.7818608E-02  0.1544589E+00
         11   -1    0    0    0    0  0.00000000000E+00  0.00000000000E+00  0.10002341472E+04  0.10002341472E+04  0.51100000000E-03 0. -1.
         -2   -1    0    0    0  501 -0.00000000000E+00 -0.00000000000E+00 -0.13862604019E+02  0.13862604254E+02  0.25500000000E-02 0.  1.
         11    1    1    2    0    0 -0.70716959224E+02  0.54653498229E+02  0.45515282437E+03  0.46384478732E+03  0.51100000000E-03 0. -1.
         22    1    1    2    0    0 -0.12934693209E+02 -0.37022549719E+01  0.40344930618E+01  0.14045999948E+02  0.00000000000E+00 0.  1.
         -2    1    1    2    0  501  0.83651652433E+02 -0.50951243257E+02  0.52718422576E+03  0.53620596419E+03  0.25500000000E-02 0.  1.
<mgrwt>
<rscale>  0 0.35455871E+02</rscale>
<asrwt>0</asrwt>
<pdfrwt beam="1">  1       11 0.10000000E+01 0.93437552E+02</pdfrwt>
<pdfrwt beam="2">  1       -2 0.21332076E-02 0.35455871E+02</pdfrwt>
<totfact> 0.42909847E+03</totfact>
</mgrwt>
</event>
<event>
 5    1  0.9955701E-004  0.1089738E+03  0.7818608E-02  0.1469966E+00
         11   -1    0    0    0    0  0.00000000000E+00  0.00000000000E+00  0.10000900833E+04  0.10000900833E+04  0.51100000000E-03 0. -1.
         -2   -1    0    0    0  501 -0.00000000000E+00 -0.00000000000E+00 -0.19728730896E+02  0.19728731060E+02  0.25500000000E-02 0. -1.
         11    1    1    2    0    0  0.87684391803E+02  0.53072970886E+02  0.56202707063E+03  0.57129652627E+03  0.51100000000E-03 0. -1.
         22    1    1    2    0    0  0.18151554799E+02  0.61724227217E+01  0.82408984041E+01  0.20868400763E+02  0.00000000000E+00 0. -1.
         -2    1    1    2    0  501 -0.10583594660E+03 -0.59245393608E+02  0.41009338334E+03  0.42765388730E+03  0.25500000000E-02 0. -1.
<mgrwt>
<rscale>  0 0.45708647E+02</rscale>
<asrwt>0</asrwt>
<pdfrwt beam="1">  1       11 0.10000000E+01 0.10897381E+03</pdfrwt>
<pdfrwt beam="2">  1       -2 0.30354627E-02 0.45708647E+02</pdfrwt>
<totfact> 0.27131965E+03</totfact>
</mgrwt>
</event>
<event>
 5    1  0.9955701E-004  0.1981329E+03  0.7818608E-02  0.1342556E+00
         11   -1    0    0    0    0  0.00000000000E+00  0.00000000000E+00  0.10000795658E+04  0.10000795658E+04  0.51100000000E-03 0. -1.
          2   -1    0    0  501    0 -0.00000000000E+00 -0.00000000000E+00 -0.80162903831E+02  0.80162903872E+02  0.25500000000E-02 0. -1.
         11    1    1    2    0    0  0.49740241699E+02 -0.19188855143E+03  0.63916813942E+03  0.66920192638E+03  0.51100000000E-03 0. -1.
         22    1    1    2    0    0 -0.28027666670E+02 -0.62388837780E+01 -0.30216063655E+02  0.41683141347E+02  0.00000000000E+00 0. -1.
          2    1    1    2  501    0 -0.21712575029E+02  0.19812743521E+03  0.31096458623E+03  0.36935740197E+03  0.25500000000E-02 0. -1.
<mgrwt>
<rscale>  0 0.75426248E+02</rscale>
<asrwt>0</asrwt>
<pdfrwt beam="1">  1       11 0.10000000E+01 0.19813289E+03</pdfrwt>
<pdfrwt beam="2">  1        2 0.12333735E-01 0.75426248E+02</pdfrwt>
<totfact> 0.57157813E+02</totfact>
</mgrwt>
</event>
<event>
 5    1  0.9955701E-004  0.9581911E+02  0.7818608E-02  0.1535205E+00
         11   -1    0    0    0    0  0.00000000000E+00  0.00000000000E+00  0.10000720467E+04  0.10000720467E+04  0.51100000000E-03 0. -1.
         -2   -1    0    0    0  501 -0.00000000000E+00 -0.00000000000E+00 -0.15405731827E+02  0.15405732038E+02  0.25500000000E-02 0. -1.
         11    1    1    2    0    0 -0.30297250527E+02  0.89543802068E+02  0.57177976599E+03  0.57954129850E+03  0.51100000000E-03 0. -1.
         22    1    1    2    0    0 -0.13842347563E+02 -0.16984365340E+01  0.27924542163E+01  0.14222976948E+02  0.00000000000E+00 0. -1.
         -2    1    1    2    0  501  0.44139598090E+02 -0.87845365534E+02  0.41009409469E+03  0.42171350331E+03  0.25500000000E-02 0. -1.
<mgrwt>
<rscale>  0 0.36555550E+02</rscale>
<asrwt>0</asrwt>
<pdfrwt beam="1">  1       11 0.10000000E+01 0.95819109E+02</pdfrwt>
<pdfrwt beam="2">  1       -2 0.23702833E-02 0.36555550E+02</pdfrwt>
<totfact> 0.37210929E+03</totfact>
</mgrwt>
</event>
<event>
 5    1  0.9955701E-004  0.8787779E+02  0.7818608E-02  0.1484824E+00
         11   -1    0    0    0    0  0.00000000000E+00  0.00000000000E+00  0.10003868856E+04  0.10003868856E+04  0.51100000000E-03 0.  1.
          2   -1    0    0  501    0 -0.00000000000E+00 -0.00000000000E+00 -0.21999976081E+02  0.21999976229E+02  0.25500000000E-02 0.  1.
         11    1    1    2    0    0 -0.70786425276E+02 -0.75558109600E+02  0.34108827824E+03  0.35645611158E+03  0.51100000000E-03 0.  1.
         22    1    1    2    0    0  0.11891372501E+02  0.17789407061E+02 -0.18521243142E+01  0.21477851569E+02  0.00000000000E+00 0. -1.
          2    1    1    2  501    0  0.58895052775E+02  0.57768702539E+02  0.63915075555E+03  0.64445289864E+03  0.25500000000E-02 0.  1.
<mgrwt>
<rscale>  0 0.43363514E+02</rscale>
<asrwt>0</asrwt>
<pdfrwt beam="1">  1       11 0.10000000E+01 0.87877789E+02</pdfrwt>
<pdfrwt beam="2">  1        2 0.33859211E-02 0.43363514E+02</pdfrwt>
<totfact> 0.26982593E+03</totfact>
</mgrwt>
</event>
<event>
 5    1  0.9955701E-004  0.3983666E+02  0.7818608E-02  0.1509417E+00
         11   -1    0    0    0    0  0.00000000000E+00  0.00000000000E+00  0.10001862263E+04  0.10001862263E+04  0.51100000000E-03 0. -1.
          2   -1    0    0  501    0 -0.00000000000E+00 -0.00000000000E+00 -0.53163773648E+01  0.53163779764E+01  0.25500000000E-02 0. -1.
         11    1    1    2    0    0  0.11535872535E+02  0.95136362765E+01  0.20476558168E+02  0.25354981069E+02  0.51100000000E-03 0. -1.
         22    1    1    2    0    0 -0.29802968539E+02 -0.30199873013E+02  0.16776013985E+03  0.17304252017E+03  0.00000000000E+00 0. -1.
          2    1    1    2  501    0  0.18267096004E+02  0.20686236736E+02  0.80663315094E+03  0.80710510306E+03  0.25500000000E-02 0. -1.
<mgrwt>
<rscale>  0 0.39836656E+02</rscale>
<asrwt>0</asrwt>
<pdfrwt beam="1">  1       11 0.10000000E+01 0.14952788E+02</pdfrwt>
<pdfrwt beam="2">  1        2 0.81805655E-03 0.39836656E+02</pdfrwt>
<totfact> 0.17265898E+04</totfact>
</mgrwt>
</event>
<event>
 5    1  0.9955701E-004  0.1314167E+03  0.7818608E-02  0.1225369E+00
         11   -1    0    0    0    0  0.00000000000E+00  0.00000000000E+00  0.10005986152E+04  0.10005986152E+04  0.51100000000E-03 0. -1.
          2   -1    0    0  501    0 -0.00000000000E+00 -0.00000000000E+00 -0.25735303260E+02  0.25735303387E+02  0.25500000000E-02 0. -1.
         11    1    1    2    0    0 -0.12593134855E+03  0.44321490687E+02  0.22613567188E+03  0.26260320101E+03  0.51100000000E-03 0. -1.
         22    1    1    2    0    0  0.11695120917E+01 -0.21747667327E+02  0.71746041977E+02  0.74978819223E+02  0.00000000000E+00 0. -1.
          2    1    1    2  501    0  0.12476183646E+03 -0.22573823361E+02  0.67698159813E+03  0.68875189840E+03  0.25500000000E-02 0. -1.
<mgrwt>
<rscale>  0 0.13141673E+03</rscale>
<asrwt>0</asrwt>
<pdfrwt beam="1">  1       11 0.10000000E+01 0.21779091E+02</pdfrwt>
<pdfrwt beam="2">  1        2 0.39616474E-02 0.13141673E+03</pdfrwt>
<totfact> 0.24818934E+03</totfact>
</mgrwt>
</event>
<event>
 5    1  0.9955701E-004  0.1686793E+03  0.7818608E-02  0.1319853E+00
         11   -1    0    0    0    0  0.00000000000E+00  0.00000000000E+00  0.99986073139E+03  0.99986073139E+03  0.51100000000E-03 0. -1.
         -2   -1    0    0    0  501 -0.00000000000E+00 -0.00000000000E+00 -0.61534143964E+02  0.61534144017E+02  0.25500000000E-02 0. -1.
         11    1    1    2    0    0  0.14327195948E+03  0.93846069628E+02  0.76852204768E+03  0.78737543582E+03  0.51100000000E-03 0. -1.
         22    1    1    2    0    0 -0.32138567177E+02  0.25727805253E+02  0.40354812486E+01  0.41365354733E+02  0.00000000000E+00 0.  1.
         -2    1    1    2    0  501 -0.11113339230E+03 -0.11957387488E+03  0.16576905850E+03  0.23265408486E+03  0.25500000000E-02 0. -1.
<mgrwt>
<rscale>  0 0.83331844E+02</rscale>
<asrwt>0</asrwt>
<pdfrwt beam="1">  1       11 0.10000000E+01 0.16867930E+03</pdfrwt>
<pdfrwt beam="2">  1       -2 0.94654727E-02 0.83331844E+02</pdfrwt>
<totfact> 0.53831663E+02</totfact>
</mgrwt>
</event>
<event>
 5    1  0.9955701E-004  0.2324449E+03  0.7818608E-02  0.1244559E+00
         11   -1    0    0    0    0  0.00000000000E+00  0.00000000000E+00  0.10000794864E+04  0.10000794864E+04  0.51100000000E-03 0.  1.
          2   -1    0    0  501    0 -0.00000000000E+00 -0.00000000000E+00 -0.12491032629E+04  0.12491032629E+04  0.25500000000E-02 0.  1.
         11    1    1    2    0    0  0.17379997012E+03 -0.15308187419E+03  0.96083540877E+03  0.98835478071E+03  0.51100000000E-03 0.  1.
         22    1    1    2    0    0  0.53004798331E+02 -0.30277670330E+02 -0.26709697881E+03  0.27398365290E+03  0.00000000000E+00 0.  1.
          2    1    1    2  501    0 -0.22680476845E+03  0.18335954452E+03 -0.94276220646E+03  0.98684431573E+03  0.25500000000E-02 0.  1.
<mgrwt>
<rscale>  0 0.11911814E+03</rscale>
<asrwt>0</asrwt>
<pdfrwt beam="1">  1       11 0.10000000E+01 0.23244492E+03</pdfrwt>
<pdfrwt beam="2">  1        2 0.19218500E+00 0.11911814E+03</pdfrwt>
<totfact> 0.24721696E+01</totfact>
</mgrwt>
</event>
<event>
 5    1  0.9955701E-004  0.4268849E+02  0.7818608E-02  0.1628159E+00
         11   -1    0    0    0    0  0.00000000000E+00  0.00000000000E+00  0.10002945171E+04  0.10002945171E+04  0.51100000000E-03 0. -1.
          2   -1    0    0  501    0 -0.00000000000E+00 -0.00000000000E+00 -0.44166381402E+01  0.44166388764E+01  0.25500000000E-02 0. -1.
         11    1    1    2    0    0  0.48329450289E+02 -0.15967057646E+02  0.29356078849E+03  0.29794063039E+03  0.51100000000E-03 0. -1.
         22    1    1    2    0    0 -0.37817541050E+02 -0.93867231126E+01  0.20337313098E+03  0.20707222746E+03  0.00000000000E+00 0. -1.
          2    1    1    2  501    0 -0.10511909239E+02  0.25353780759E+02  0.49894395949E+03  0.49969829813E+03  0.25500000000E-02 0. -1.
<mgrwt>
<rscale>  0 0.27446574E+02</rscale>
<asrwt>0</asrwt>
<pdfrwt beam="1">  1       11 0.10000000E+01 0.42688488E+02</pdfrwt>
<pdfrwt beam="2">  1        2 0.67968295E-03 0.27446574E+02</pdfrwt>
<totfact> 0.20346142E+04</totfact>
</mgrwt>
</event>
<event>
 5    1  0.9955701E-004  0.5201873E+02  0.7818608E-02  0.1528042E+00
         11   -1    0    0    0    0  0.00000000000E+00  0.00000000000E+00  0.99998271193E+03  0.99998271193E+03  0.51100000000E-03 0. -1.
          2   -1    0    0  501    0 -0.00000000000E+00 -0.00000000000E+00 -0.75964529086E+01  0.75964533366E+01  0.25500000000E-02 0. -1.
         11    1    1    2    0    0 -0.38459724402E+02  0.35635672498E+02  0.22087193116E+03  0.22700982695E+03  0.51100000000E-03 0. -1.
         22    1    1    2    0    0  0.22111976159E+02  0.15370336011E+02  0.47705201409E+02  0.54781136902E+02  0.00000000000E+00 0. -1.
          2    1    1    2  501    0  0.16347748243E+02 -0.51006008509E+02  0.72380912645E+03  0.72578820142E+03  0.25500000000E-02 0. -1.
<mgrwt>
<rscale>  0 0.37427622E+02</rscale>
<asrwt>0</asrwt>
<pdfrwt beam="1">  1       11 0.10000000E+01 0.52018734E+02</pdfrwt>
<pdfrwt beam="2">  1        2 0.11686649E-02 0.37427622E+02</pdfrwt>
<totfact> 0.10610915E+04</totfact>
</mgrwt>
</event>
<event>
 5    1  0.9955701E-004  0.2159585E+03  0.7818608E-02  0.1136932E+00
         11   -1    0    0    0    0  0.00000000000E+00  0.00000000000E+00  0.10003317931E+04  0.10003317931E+04  0.51100000000E-03 0.  1.
         -2   -1    0    0    0  501 -0.00000000000E+00 -0.00000000000E+00 -0.17133774528E+03  0.17133774530E+03  0.25500000000E-02 0. -1.
         11    1    1    2    0    0  0.98862387848E+02  0.18434120289E+03  0.91545285718E+03  0.93904706193E+03  0.51100000000E-03 0.  1.
         22    1    1    2    0    0 -0.18959294105E+02 -0.71711933948E+02 -0.51100656484E+02  0.90074043967E+02  0.00000000000E+00 0. -1.
         -2    1    1    2    0  501 -0.79903093743E+02 -0.11262926894E+03 -0.35358152911E+02  0.14254843246E+03  0.25500000000E-02 0. -1.
<mgrwt>
<rscale>  0 0.21595854E+03</rscale>
<asrwt>0</asrwt>
<pdfrwt beam="1">  1       11 0.10000000E+01 0.20917804E+03</pdfrwt>
<pdfrwt beam="2">  1       -2 0.26368398E-01 0.21595854E+03</pdfrwt>
<totfact> 0.10363880E+02</totfact>
</mgrwt>
</event>
<event>
 5    1  0.9955701E-004  0.1215703E+03  0.7818608E-02  0.1290055E+00
         11   -1    0    0    0    0  0.00000000000E+00  0.00000000000E+00  0.10003694248E+04  0.10003694248E+04  0.51100000000E-03 0.  1.
          2   -1    0    0  501    0 -0.00000000000E+00 -0.00000000000E+00 -0.55687196198E+02  0.55687196257E+02  0.25500000000E-02 0.  1.
         11    1    1    2    0    0 -0.92377067756E+02  0.84508252900E+02  0.72738580514E+03  0.73808216140E+03  0.51100000000E-03 0.  1.
         22    1    1    2    0    0  0.13422156417E+03  0.13355443822E+01  0.14913702685E+03  0.20064661658E+03  0.00000000000E+00 0. -1.
          2    1    1    2  501    0 -0.41844496410E+02 -0.85843797282E+02  0.68159396639E+02  0.11732784311E+03  0.25500000000E-02 0.  1.
<mgrwt>
<rscale>  0 0.95499316E+02</rscale>
<asrwt>0</asrwt>
<pdfrwt beam="1">  1       11 0.10000000E+01 0.12157032E+03</pdfrwt>
<pdfrwt beam="2">  1        2 0.85704257E-02 0.95499316E+02</pdfrwt>
<totfact> 0.89973026E+02</totfact>
</mgrwt>
</event>
<event>
 5    1  0.9955701E-004  0.1556737E+03  0.7818608E-02  0.1480513E+00
         11   -1    0    0    0    0  0.00000000000E+00  0.00000000000E+00  0.10001471235E+04  0.10001471235E+04  0.51100000000E-03 0.  1.
          2   -1    0    0  501    0 -0.00000000000E+00 -0.00000000000E+00 -0.26747166656E+02  0.26747166778E+02  0.25500000000E-02 0.  1.
         11    1    1    2    0    0  0.46305898563E+02 -0.15185334080E+03  0.43544310159E+03  0.46348070949E+03  0.51100000000E-03 0.  1.
         22    1    1    2    0    0  0.88764034673E+01  0.87315835611E+01  0.23757251428E+02  0.26822343026E+02  0.00000000000E+00 0. -1.
          2    1    1    2  501    0 -0.55182302030E+02  0.14312175724E+03  0.51419960384E+03  0.53659123776E+03  0.25500000000E-02 0.  1.
<mgrwt>
<rscale>  0 0.44026302E+02</rscale>
<asrwt>0</asrwt>
<pdfrwt beam="1">  1       11 0.10000000E+01 0.15567370E+03</pdfrwt>
<pdfrwt beam="2">  1        2 0.41155540E-02 0.44026302E+02</pdfrwt>
<totfact> 0.21057662E+03</totfact>
</mgrwt>
</event>
<event>
 5    1  0.9955701E-004  0.8377003E+02  0.7818608E-02  0.1562457E+00
         11   -1    0    0    0    0  0.00000000000E+00  0.00000000000E+00  0.10000905009E+04  0.10000905009E+04  0.51100000000E-03 0.  1.
          2   -1    0    0  501    0 -0.00000000000E+00 -0.00000000000E+00 -0.89460887250E+01  0.89460890884E+01  0.25500000000E-02 0.  1.
         11    1    1    2    0    0  0.61542882638E+01  0.89730180656E+02  0.40503356576E+03  0.41489946972E+03  0.51100000000E-03 0.  1.
         22    1    1    2    0    0 -0.94207103681E+01 -0.95108649750E+01  0.40604227797E+02  0.42754060058E+02  0.00000000000E+00 0. -1.
          2    1    1    2  501    0  0.32664221043E+01 -0.80219315680E+02  0.54550661867E+03  0.55138306025E+03  0.25500000000E-02 0.  1.
<mgrwt>
<rscale>  0 0.33487488E+02</rscale>
<asrwt>0</asrwt>
<pdfrwt beam="1">  1       11 0.10000000E+01 0.83770031E+02</pdfrwt>
<pdfrwt beam="2">  1        2 0.13764459E-02 0.33487488E+02</pdfrwt>
<totfact> 0.83722971E+03</totfact>
</mgrwt>
</event>
<event>
 5    1  0.9955701E-004  0.1943716E+03  0.7818608E-02  0.1302934E+00
         11   -1    0    0    0    0  0.00000000000E+00  0.00000000000E+00  0.10002641326E+04  0.10002641326E+04  0.51100000000E-03 0. -1.
          2   -1    0    0  501    0 -0.00000000000E+00 -0.00000000000E+00 -0.57679738196E+02  0.57679738252E+02  0.25500000000E-02 0. -1.
         11    1    1    2    0    0  0.57096542586E+02  0.20948335176E+03  0.29202398888E+03  0.36389737553E+03  0.51100000000E-03 0. -1.
         22    1    1    2    0    0  0.16037101589E+02 -0.38429313217E+02  0.48621751258E+02  0.64016212299E+02  0.00000000000E+00 0. -1.
          2    1    1    2  501    0 -0.73133644175E+02 -0.17105403854E+03  0.60193865424E+03  0.63003028299E+03  0.25500000000E-02 0. -1.
<mgrwt>
<rscale>  0 0.89966031E+02</rscale>
<asrwt>0</asrwt>
<pdfrwt beam="1">  1       11 0.10000000E+01 0.19437155E+03</pdfrwt>
<pdfrwt beam="2">  1        2 0.88761495E-02 0.89966031E+02</pdfrwt>
<totfact> 0.85828639E+02</totfact>
</mgrwt>
</event>
<event>
 5    1  0.9955701E-004  0.1430350E+03  0.7818608E-02  0.1293371E+00
         11   -1    0    0    0    0  0.00000000000E+00  0.00000000000E+00  0.10002652867E+04  0.10002652867E+04  0.51100000000E-03 0. -1.
          2   -1    0    0  501    0 -0.00000000000E+00 -0.00000000000E+00 -0.80955125302E+02  0.80955125342E+02  0.25500000000E-02 0.  1.
         11    1    1    2    0    0  0.14836869567E+03  0.23732195618E+02  0.87477917952E+03  0.88758948838E+03  0.51100000000E-03 0. -1.
         22    1    1    2    0    0 -0.51560664453E+02  0.34100957435E+02 -0.18393205131E+02  0.64495638704E+02  0.00000000000E+00 0.  1.
          2    1    1    2  501    0 -0.96808031217E+02 -0.57833153054E+02  0.62924186986E+02  0.12913528493E+03  0.25500000000E-02 0.  1.
<mgrwt>
<rscale>  0 0.94032085E+02</rscale>
<asrwt>0</asrwt>
<pdfrwt beam="1">  1       11 0.10000000E+01 0.14303495E+03</pdfrwt>
<pdfrwt beam="2">  1        2 0.12457938E-01 0.94032085E+02</pdfrwt>
<totfact> 0.57189103E+02</totfact>
</mgrwt>
</event>
<event>
 5    1  0.9955701E-004  0.1918687E+03  0.7818608E-02  0.1371161E+00
         11   -1    0    0    0    0  0.00000000000E+00  0.00000000000E+00  0.99993896430E+03  0.99993896430E+03  0.51100000000E-03 0.  1.
          2   -1    0    0  501    0 -0.00000000000E+00 -0.00000000000E+00 -0.19475498222E+03  0.19475498224E+03  0.25500000000E-02 0.  1.
         11    1    1    2    0    0  0.15433755182E+03  0.11703781212E+03  0.92356964524E+03  0.94366244970E+03  0.51100000000E-03 0.  1.
         22    1    1    2    0    0 -0.14404937243E+02 -0.18298807385E+02 -0.68951476637E+02  0.72778119646E+02  0.00000000000E+00 0.  1.
          2    1    1    2  501    0 -0.13993261458E+03 -0.98739004734E+02 -0.49434186515E+02  0.17825337720E+03  0.25500000000E-02 0.  1.
<mgrwt>
<rscale>  0 0.66845422E+02</rscale>
<asrwt>0</asrwt>
<pdfrwt beam="1">  1       11 0.10000000E+01 0.19186868E+03</pdfrwt>
<pdfrwt beam="2">  1        2 0.29960475E-01 0.66845422E+02</pdfrwt>
<totfact> 0.21148127E+02</totfact>
</mgrwt>
</event>
<event>
 5    1  0.1042012E-003  0.1809246E+03  0.7818608E-02  0.1463222E+00
         11   -1    0    0    0    0  0.00000000000E+00  0.00000000000E+00  0.10001532724E+04  0.10001532724E+04  0.51100000000E-03 0.  1.
          2   -1    0    0  501    0 -0.00000000000E+00 -0.00000000000E+00 -0.19530086560E+03  0.19530086562E+03  0.25500000000E-02 0.  1.
         11    1    1    2    0    0 -0.30121062174E+02  0.17871313093E+03  0.94312775229E+03  0.96038305832E+03  0.51100000000E-03 0.  1.
         22    1    1    2    0    0  0.11296212431E+02 -0.43977532778E+01 -0.20636321782E+02  0.23933291163E+02  0.00000000000E+00 0.  1.
          2    1    1    2  501    0  0.18824849743E+02 -0.17431537766E+03 -0.11763902369E+03  0.21113778856E+03  0.25500000000E-02 0.  1.
<mgrwt>
<rscale>  0 0.46831412E+02</rscale>
<asrwt>0</asrwt>
<pdfrwt beam="1">  1       11 0.10000000E+01 0.18092460E+03</pdfrwt>
<pdfrwt beam="2">  1        2 0.30050891E-01 0.46831412E+02</pdfrwt>
<totfact> 0.20871651E+02</totfact>
</mgrwt>
</event>
<event>
 5    1  0.9955701E-004  0.4661456E+03  0.7818608E-02  0.1120511E+00
         11   -1    0    0    0    0  0.00000000000E+00  0.00000000000E+00  0.99999458700E+03  0.99999458700E+03  0.51100000000E-03 0.  1.
          2   -1    0    0  501    0 -0.00000000000E+00 -0.00000000000E+00 -0.99288351438E+03  0.99288351438E+03  0.25500000000E-02 0.  1.
         11    1    1    2    0    0  0.23977400528E+03 -0.40170423390E+03  0.84871287654E+03  0.96910856562E+03  0.51100000000E-03 0.  1.
         22    1    1    2    0    0  0.91272516677E+02  0.81646751805E+02 -0.17859250940E+03  0.21654595077E+03  0.00000000000E+00 0. -1.
          2    1    1    2  501    0 -0.33104652196E+03  0.32005748210E+03 -0.66300929452E+03  0.80722358500E+03  0.25500000000E-02 0.  1.
<mgrwt>
<rscale>  0 0.23892463E+03</rscale>
<asrwt>0</asrwt>
<pdfrwt beam="1">  1       11 0.10000000E+01 0.46614563E+03</pdfrwt>
<pdfrwt beam="2">  1        2 0.15275048E+00 0.23892463E+03</pdfrwt>
<totfact> 0.33378056E+01</totfact>
</mgrwt>
</event>
<event>
 5    1  0.9955701E-004  0.4363975E+02  0.7818608E-02  0.1483017E+00
         11   -1    0    0    0    0  0.00000000000E+00  0.00000000000E+00  0.10004655449E+04  0.10004655449E+04  0.51100000000E-03 0. -1.
          2   -1    0    0  501    0 -0.00000000000E+00 -0.00000000000E+00 -0.66293281256E+01  0.66293286160E+01  0.25500000000E-02 0. -1.
         11    1    1    2    0    0 -0.97313173647E+01  0.14141346706E+02  0.76322837017E+02  0.78229480855E+02  0.51100000000E-03 0. -1.
         22    1    1    2    0    0  0.18801690243E+02 -0.41295898457E+02  0.89385802409E+02  0.10024308683E+03  0.00000000000E+00 0. -1.
          2    1    1    2  501    0 -0.90703728784E+01  0.27154551751E+02  0.82812757735E+03  0.82862230583E+03  0.25500000000E-02 0. -1.
<mgrwt>
<rscale>  0 0.43639749E+02</rscale>
<asrwt>0</asrwt>
<pdfrwt beam="1">  1       11 0.10000000E+01 0.17166145E+02</pdfrwt>
<pdfrwt beam="2">  1        2 0.10203715E-02 0.43639749E+02</pdfrwt>
<totfact> 0.13085837E+04</totfact>
</mgrwt>
</event>
<event>
 5    1  0.9955701E-004  0.2526018E+03  0.7818608E-02  0.1111671E+00
         11   -1    0    0    0    0  0.00000000000E+00  0.00000000000E+00  0.10005269320E+04  0.10005269320E+04  0.51100000000E-03 0.  1.
          2   -1    0    0  501    0 -0.00000000000E+00 -0.00000000000E+00 -0.52615032065E+03  0.52615032066E+03  0.25500000000E-02 0.  1.
         11    1    1    2    0    0 -0.16185922788E+03  0.19103532734E+03  0.95307690565E+03  0.98541792861E+03  0.51100000000E-03 0.  1.
         22    1    1    2    0    0  0.13927858299E+02 -0.99706604247E+01 -0.51308483550E+02  0.54092141669E+02  0.00000000000E+00 0. -1.
          2    1    1    2  501    0  0.14793136958E+03 -0.18106466692E+03 -0.42739181073E+03  0.48716718239E+03  0.25500000000E-02 0.  1.
<mgrwt>
<rscale>  0 0.25260183E+03</rscale>
<asrwt>0</asrwt>
<pdfrwt beam="1">  1       11 0.10000000E+01 0.25038551E+03</pdfrwt>
<pdfrwt beam="2">  1        2 0.80988854E-01 0.25260183E+03</pdfrwt>
<totfact> 0.73242411E+01</totfact>
</mgrwt>
</event>
<event>
 5    1  0.9955701E-004  0.1047116E+03  0.7818608E-02  0.1510389E+00
         11   -1    0    0    0    0  0.00000000000E+00  0.00000000000E+00  0.10000475616E+04  0.10000475616E+04  0.51100000000E-03 0. -1.
          2   -1    0    0  501    0 -0.00000000000E+00 -0.00000000000E+00 -0.14371628829E+02  0.14371629055E+02  0.25500000000E-02 0. -1.
         11    1    1    2    0    0  0.33103045709E+02  0.10283771407E+03  0.56758697951E+03  0.57777710787E+03  0.51100000000E-03 0. -1.
         22    1    1    2    0    0  0.99053167896E+01 -0.11338750061E+02  0.15725814086E+02  0.21771168602E+02  0.00000000000E+00 0.  1.
          2    1    1    2  501    0 -0.43008362499E+02 -0.91498964009E+02  0.40236313913E+03  0.41487091414E+03  0.25500000000E-02 0. -1.
<mgrwt>
<rscale>  0 0.39705618E+02</rscale>
<asrwt>0</asrwt>
<pdfrwt beam="1">  1       11 0.10000000E+01 0.10471162E+03</pdfrwt>
<pdfrwt beam="2">  1        2 0.22111249E-02 0.39705618E+02</pdfrwt>
<totfact> 0.46302922E+03</totfact>
</mgrwt>
</event>
<event>
 5    1  0.9955701E-004  0.1197959E+03  0.7818608E-02  0.1243434E+00
         11   -1    0    0    0    0  0.00000000000E+00  0.00000000000E+00  0.99996337415E+03  0.99996337415E+03  0.51100000000E-03 0. -1.
          2   -1    0    0  501    0 -0.00000000000E+00 -0.00000000000E+00 -0.43064386185E+02  0.43064386261E+02  0.25500000000E-02 0. -1.
         11    1    1    2    0    0 -0.41854325044E+02 -0.44222434156E+01  0.87552187052E+02  0.97142813525E+02  0.51100000000E-03 0. -1.
         22    1    1    2    0    0  0.12112813522E+03  0.29819008360E+02  0.71651459057E+02  0.14385802023E+03  0.00000000000E+00 0. -1.
          2    1    1    2  501    0 -0.79273810173E+02 -0.25396764945E+02  0.79769534185E+03  0.80202692665E+03  0.25500000000E-02 0. -1.
<mgrwt>
<rscale>  0 0.11979594E+03</rscale>
<asrwt>0</asrwt>
<pdfrwt beam="1">  1       11 0.10000000E+01 0.42087320E+02</pdfrwt>
<pdfrwt beam="2">  1        2 0.66250473E-02 0.11979594E+03</pdfrwt>
<totfact> 0.12625321E+03</totfact>
</mgrwt>
</event>
<event>
 5    1  0.9955701E-004  0.9827102E+02  0.7818608E-02  0.1572977E+00
         11   -1    0    0    0    0  0.00000000000E+00  0.00000000000E+00  0.10000295113E+04  0.10000295113E+04  0.51100000000E-03 0. -1.
         -2   -1    0    0    0  501 -0.00000000000E+00 -0.00000000000E+00 -0.12824451235E+02  0.12824451489E+02  0.25500000000E-02 0.  1.
         11    1    1    2    0    0  0.71712578065E+02 -0.63606121398E+02  0.37834815245E+03  0.39030213552E+03  0.51100000000E-03 0. -1.
         22    1    1    2    0    0 -0.37935610220E+01 -0.99862343221E+01  0.78448071238E+01  0.13253564802E+02  0.00000000000E+00 0.  1.
         -2    1    1    2    0  501 -0.67919017043E+02  0.73592355720E+02  0.60101210049E+03  0.60929826246E+03  0.25500000000E-02 0.  1.
<mgrwt>
<rscale>  0 0.32400316E+02</rscale>
<asrwt>0</asrwt>
<pdfrwt beam="1">  1       11 0.10000000E+01 0.98271022E+02</pdfrwt>
<pdfrwt beam="2">  1       -2 0.19730507E-02 0.32400316E+02</pdfrwt>
<totfact> 0.47097447E+03</totfact>
</mgrwt>
</event>
<event>
 5    1  0.9955701E-004  0.1635860E+03  0.7818608E-02  0.1184707E+00
         11   -1    0    0    0    0  0.00000000000E+00  0.00000000000E+00  0.10003076943E+04  0.10003076943E+04  0.51100000000E-03 0. -1.
          2   -1    0    0  501    0 -0.00000000000E+00 -0.00000000000E+00 -0.78223113517E+02  0.78223113558E+02  0.25500000000E-02 0. -1.
         11    1    1    2    0    0  0.35531370781E+02 -0.14608143871E+03  0.90115700402E+03  0.91361163026E+03  0.51100000000E-03 0. -1.
         22    1    1    2    0    0  0.12132827412E+01  0.56940759934E+02 -0.19738508735E+02  0.60277117748E+02  0.00000000000E+00 0. -1.
          2    1    1    2  501    0 -0.36744653522E+02  0.89140678774E+02  0.40666085502E+02  0.10464205986E+03  0.25500000000E-02 0. -1.
<mgrwt>
<rscale>  0 0.16358598E+03</rscale>
<asrwt>0</asrwt>
<pdfrwt beam="1">  1       11 0.10000000E+01 0.15034050E+03</pdfrwt>
<pdfrwt beam="2">  1        2 0.12038028E-01 0.16358598E+03</pdfrwt>
<totfact> 0.61283015E+02</totfact>
</mgrwt>
</event>
<event>
 5    1  0.9955701E-004  0.1642509E+03  0.7818608E-02  0.1183979E+00
         11   -1    0    0    0    0  0.00000000000E+00  0.00000000000E+00  0.10000307130E+04  0.10000307130E+04  0.51100000000E-03 0. -1.
          2   -1    0    0  501    0 -0.00000000000E+00 -0.00000000000E+00 -0.10549885951E+03  0.10549885954E+03  0.25500000000E-02 0. -1.
         11    1    1    2    0    0 -0.90601071825E+02 -0.91810559778E+02  0.66412647515E+03  0.67653655341E+03  0.51100000000E-03 0. -1.
         22    1    1    2    0    0  0.99133054469E+02 -0.82460515910E+02  0.21899868200E+03  0.25414075212E+03  0.00000000000E+00 0. -1.
          2    1    1    2  501    0 -0.85319826438E+01  0.17427107569E+03  0.11406696345E+02  0.17485226701E+03  0.25500000000E-02 0. -1.
<mgrwt>
<rscale>  0 0.16425087E+03</rscale>
<asrwt>0</asrwt>
<pdfrwt beam="1">  1       11 0.10000000E+01 0.12894611E+03</pdfrwt>
<pdfrwt beam="2">  1        2 0.16231092E-01 0.16425087E+03</pdfrwt>
<totfact> 0.42988900E+02</totfact>
</mgrwt>
</event>
<event>
 5    1  0.9955701E-004  0.2612027E+02  0.7818608E-02  0.1811082E+00
         11   -1    0    0    0    0  0.00000000000E+00  0.00000000000E+00  0.10001460347E+04  0.10001460347E+04  0.51100000000E-03 0. -1.
          2   -1    0    0  501    0 -0.00000000000E+00 -0.00000000000E+00 -0.20184472813E+01  0.20184488921E+01  0.25500000000E-02 0. -1.
         11    1    1    2    0    0  0.20658799247E+02 -0.11757081574E+02  0.12156340007E+03  0.12386555288E+03  0.51100000000E-03 0. -1.
         22    1    1    2    0    0 -0.48545846498E+01 -0.10026039179E+02  0.47141813585E+02  0.48440056171E+02  0.00000000000E+00 0. -1.
          2    1    1    2  501    0 -0.15804214597E+02  0.21783120753E+02  0.82942237379E+03  0.82985887457E+03  0.25500000000E-02 0. -1.
<mgrwt>
<rscale>  0 0.17057743E+02</rscale>
<asrwt>0</asrwt>
<pdfrwt beam="1">  1       11 0.10000000E+01 0.26120271E+02</pdfrwt>
<pdfrwt beam="2">  1        2 0.31057581E-03 0.17057743E+02</pdfrwt>
<totfact> 0.49805702E+04</totfact>
</mgrwt>
</event>
<event>
 5    1  0.9955701E-004  0.5626930E+02  0.7818608E-02  0.1525547E+00
         11   -1    0    0    0    0  0.00000000000E+00  0.00000000000E+00  0.10003307595E+04  0.10003307595E+04  0.51100000000E-03 0. -1.
          2   -1    0    0  501    0 -0.00000000000E+00 -0.00000000000E+00 -0.13906176105E+02  0.13906176339E+02  0.25500000000E-02 0. -1.
         11    1    1    2    0    0  0.17360167620E+02  0.45057145017E+02  0.18220511439E+03  0.18849462976E+03  0.51100000000E-03 0. -1.
         22    1    1    2    0    0 -0.20238196469E+02  0.15199139419E+02  0.70225743333E+01  0.26266232803E+02  0.00000000000E+00 0. -1.
          2    1    1    2  501    0  0.28780288495E+01 -0.60256284436E+02  0.79719689465E+03  0.79947607326E+03  0.25500000000E-02 0. -1.
<mgrwt>
<rscale>  0 0.37738281E+02</rscale>
<asrwt>0</asrwt>
<pdfrwt beam="1">  1       11 0.10000000E+01 0.56269300E+02</pdfrwt>
<pdfrwt beam="2">  1        2 0.21401193E-02 0.37738281E+02</pdfrwt>
<totfact> 0.47935454E+03</totfact>
</mgrwt>
</event>
<event>
 5    1  0.9955701E-004  0.1632363E+03  0.7818608E-02  0.1371806E+00
         11   -1    0    0    0    0  0.00000000000E+00  0.00000000000E+00  0.10006585001E+04  0.10006585001E+04  0.51100000000E-03 0. -1.
          2   -1    0    0  501    0 -0.00000000000E+00 -0.00000000000E+00 -0.36397643861E+02  0.36397643951E+02  0.25500000000E-02 0. -1.
         11    1    1    2    0    0  0.80765146235E+02 -0.16029993484E+03  0.42024299771E+03  0.45697183183E+03  0.51100000000E-03 0. -1.
         22    1    1    2    0    0 -0.18620308488E+02  0.19865743661E+02  0.19350165841E+02  0.33403481518E+02  0.00000000000E+00 0. -1.
          2    1    1    2  501    0 -0.62144837746E+02  0.14043419118E+03  0.52466769272E+03  0.54668083074E+03  0.25500000000E-02 0. -1.
<mgrwt>
<rscale>  0 0.66667795E+02</rscale>
<asrwt>0</asrwt>
<pdfrwt beam="1">  1       11 0.10000000E+01 0.16323630E+03</pdfrwt>
<pdfrwt beam="2">  1        2 0.56033247E-02 0.66667795E+02</pdfrwt>
<totfact> 0.14871211E+03</totfact>
</mgrwt>
</event>
<event>
 5    1  0.9955701E-004  0.3003558E+02  0.7818608E-02  0.1597696E+00
         11   -1    0    0    0    0  0.00000000000E+00  0.00000000000E+00  0.10002837652E+04  0.10002837652E+04  0.51100000000E-03 0. -1.
          2   -1    0    0  501    0 -0.00000000000E+00 -0.00000000000E+00 -0.16500470972E+02  0.16500471169E+02  0.25500000000E-02 0. -1.
         11    1    1    2    0    0 -0.13397109344E+02  0.75688817551E+01  0.73630981192E+01  0.17058303666E+02  0.51100000000E-03 0. -1.
         22    1    1    2    0    0  0.12991933702E+02  0.27055782279E+02  0.85100334985E+01  0.31196576194E+02  0.00000000000E+00 0. -1.
          2    1    1    2  501    0  0.40517564168E+00 -0.34624664035E+02  0.96791016264E+03  0.96852935653E+03  0.25500000000E-02 0. -1.
<mgrwt>
<rscale>  0 0.30035581E+02</rscale>
<asrwt>0</asrwt>
<pdfrwt beam="1">  1       11 0.10000000E+01 0.15387357E+02</pdfrwt>
<pdfrwt beam="2">  1        2 0.25392543E-02 0.30035581E+02</pdfrwt>
<totfact> 0.37046949E+03</totfact>
</mgrwt>
</event>
<event>
 5    1  0.9955701E-004  0.7669649E+02  0.7818608E-02  0.1623348E+00
         11   -1    0    0    0    0  0.00000000000E+00  0.00000000000E+00  0.10000996917E+04  0.10000996917E+04  0.51100000000E-03 0.  1.
          2   -1    0    0  501    0 -0.00000000000E+00 -0.00000000000E+00 -0.74828599651E+01  0.74828603996E+01  0.25500000000E-02 0.  1.
         11    1    1    2    0    0  0.36515384356E+02 -0.74336597865E+02  0.39599000068E+03  0.40455825751E+03  0.51100000000E-03 0.  1.
         22    1    1    2    0    0 -0.12489970031E+01  0.10023527929E+02  0.29662993776E+02  0.31335671453E+02  0.00000000000E+00 0.  1.
          2    1    1    2  501    0 -0.35266387352E+02  0.64313069937E+02  0.56696383732E+03  0.57168862318E+03  0.25500000000E-02 0.  1.
<mgrwt>
<rscale>  0 0.27833691E+02</rscale>
<asrwt>0</asrwt>
<pdfrwt beam="1">  1       11 0.10000000E+01 0.76696493E+02</pdfrwt>
<pdfrwt beam="2">  1        2 0.11513240E-02 0.27833691E+02</pdfrwt>
<totfact> 0.10205894E+04</totfact>
</mgrwt>
</event>
<event>
 5    1  0.9955701E-004  0.1328076E+03  0.7818608E-02  0.1445244E+00
         11   -1    0    0    0    0  0.00000000000E+00  0.00000000000E+00  0.10002125014E+04  0.10002125014E+04  0.51100000000E-03 0. -1.
          2   -1    0    0  501    0 -0.00000000000E+00 -0.00000000000E+00 -0.66164594692E+02  0.66164594741E+02  0.25500000000E-02 0. -1.
         11    1    1    2    0    0  0.12876552318E+03 -0.47887757995E+02  0.78682342448E+03  0.79872704890E+03  0.51100000000E-03 0. -1.
         22    1    1    2    0    0 -0.14882082619E+02  0.11549285642E+02 -0.40745076495E+02  0.44889014697E+02  0.00000000000E+00 0. -1.
          2    1    1    2  501    0 -0.11388344056E+03  0.36338472353E+02  0.18796955870E+03  0.22276103253E+03  0.25500000000E-02 0. -1.
<mgrwt>
<rscale>  0 0.50018019E+02</rscale>
<asrwt>0</asrwt>
<pdfrwt beam="1">  1       11 0.10000000E+01 0.13280762E+03</pdfrwt>
<pdfrwt beam="2">  1        2 0.10181331E-01 0.50018019E+02</pdfrwt>
<totfact> 0.69764256E+02</totfact>
</mgrwt>
</event>
<event>
 5    1  0.9955701E-004  0.1881532E+03  0.7818608E-02  0.1454262E+00
         11   -1    0    0    0    0  0.00000000000E+00  0.00000000000E+00  0.10001683100E+04  0.10001683100E+04  0.51100000000E-03 0. -1.
          2   -1    0    0  501    0 -0.00000000000E+00 -0.00000000000E+00 -0.98296983338E+02  0.98296983371E+02  0.25500000000E-02 0. -1.
         11    1    1    2    0    0  0.90371941505E+02 -0.16668531530E+03  0.88075207861E+03  0.90093024487E+03  0.51100000000E-03 0. -1.
         22    1    1    2    0    0 -0.82826935077E+01  0.92840232547E+01 -0.11615277767E+02  0.17020892372E+02  0.00000000000E+00 0. -1.
          2    1    1    2  501    0 -0.82089247997E+02  0.15740129204E+03  0.32734525813E+02  0.18051415612E+03  0.25500000000E-02 0. -1.
<mgrwt>
<rscale>  0 0.48383338E+02</rscale>
<asrwt>0</asrwt>
<pdfrwt beam="1">  1       11 0.10000000E+01 0.18815322E+03</pdfrwt>
<pdfrwt beam="2">  1        2 0.15125158E-01 0.48383338E+02</pdfrwt>
<totfact> 0.44017790E+02</totfact>
</mgrwt>
</event>
<event>
 5    1  0.9955701E-004  0.1322144E+03  0.7818608E-02  0.1289442E+00
         11   -1    0    0    0    0  0.00000000000E+00  0.00000000000E+00  0.10001696689E+04  0.10001696689E+04  0.51100000000E-03 0. -1.
          2   -1    0    0  501    0 -0.00000000000E+00 -0.00000000000E+00 -0.32056208305E+02  0.32056208406E+02  0.25500000000E-02 0. -1.
         11    1    1    2    0    0  0.38598954746E+02 -0.11553208787E+03  0.42018543407E+03  0.43748524734E+03  0.51100000000E-03 0. -1.
         22    1    1    2    0    0  0.69362787552E+02  0.14291947296E+01  0.11635003067E+03  0.13546427031E+03  0.00000000000E+00 0. -1.
          2    1    1    2  501    0 -0.10796174230E+03  0.11410289314E+03  0.43157799582E+03  0.45927635962E+03  0.25500000000E-02 0. -1.
<mgrwt>
<rscale>  0 0.95774234E+02</rscale>
<asrwt>0</asrwt>
<pdfrwt beam="1">  1       11 0.10000000E+01 0.13221437E+03</pdfrwt>
<pdfrwt beam="2">  1        2 0.49325610E-02 0.95774234E+02</pdfrwt>
<totfact> 0.18099716E+03</totfact>
</mgrwt>
</event>
<event>
 5    1  0.9955701E-004  0.3236561E+03  0.7818608E-02  0.1073979E+00
         11   -1    0    0    0    0  0.00000000000E+00  0.00000000000E+00  0.10003641628E+04  0.10003641628E+04  0.51100000000E-03 0.  1.
          2   -1    0    0  501    0 -0.00000000000E+00 -0.00000000000E+00 -0.10286925528E+03  0.10286925532E+03  0.25500000000E-02 0.  1.
         11    1    1    2    0    0  0.90383389743E+02  0.29848038296E+03  0.36495010160E+03  0.48005028155E+03  0.51100000000E-03 0.  1.
         22    1    1    2    0    0  0.12552836077E+02 -0.30813097780E+02  0.31199607518E+02  0.45611798887E+02  0.00000000000E+00 0. -1.
          2    1    1    2  501    0 -0.10293622582E+03 -0.26766728518E+03  0.50134519838E+03  0.57757133766E+03  0.25500000000E-02 0.  1.
<mgrwt>
<rscale>  0 0.32365607E+03</rscale>
<asrwt>0</asrwt>
<pdfrwt beam="1">  1       11 0.10000000E+01 0.31186502E+03</pdfrwt>
<pdfrwt beam="2">  1        2 0.15831802E-01 0.32365607E+03</pdfrwt>
<totfact> 0.45315466E+02</totfact>
</mgrwt>
</event>
<event>
 5    1  0.9955701E-004  0.9176704E+02  0.7818608E-02  0.1475273E+00
         11   -1    0    0    0    0  0.00000000000E+00  0.00000000000E+00  0.10001262461E+04  0.10001262461E+04  0.51100000000E-03 0. -1.
          2   -1    0    0  501    0 -0.00000000000E+00 -0.00000000000E+00 -0.13727555808E+02  0.13727556044E+02  0.25500000000E-02 0. -1.
         11    1    1    2    0    0 -0.10095424593E+03  0.10238593191E+02  0.48848473863E+03  0.49891274632E+03  0.51100000000E-03 0. -1.
         22    1    1    2    0    0  0.81078613392E+02  0.29968180532E+02  0.33325858783E+03  0.34428639206E+03  0.00000000000E+00 0. -1.
          2    1    1    2  501    0  0.19875632537E+02 -0.40206773722E+02  0.16465536387E+03  0.17065466381E+03  0.25500000000E-02 0. -1.
<mgrwt>
<rscale>  0 0.44851147E+02</rscale>
<asrwt>0</asrwt>
<pdfrwt beam="1">  1       11 0.10000000E+01 0.91767037E+02</pdfrwt>
<pdfrwt beam="2">  1        2 0.21121982E-02 0.44851147E+02</pdfrwt>
<totfact> 0.50092736E+03</totfact>
</mgrwt>
</event>
<event>
 5    1  0.9955701E-004  0.1734888E+03  0.7818608E-02  0.1460006E+00
         11   -1    0    0    0    0  0.00000000000E+00  0.00000000000E+00  0.10003665522E+04  0.10003665522E+04  0.51100000000E-03 0.  1.
          2   -1    0    0  501    0 -0.00000000000E+00 -0.00000000000E+00 -0.52109584224E+02  0.52109584286E+02  0.25500000000E-02 0.  1.
         11    1    1    2    0    0  0.11546159366E+03  0.12394418040E+03  0.60582755816E+03  0.62906324777E+03  0.51100000000E-03 0.  1.
         22    1    1    2    0    0  0.38511017831E+01  0.12353326789E+02 -0.16735392007E+02  0.21154408839E+02  0.00000000000E+00 0.  1.
          2    1    1    2  501    0 -0.11931269544E+03 -0.13629750719E+03  0.35916480185E+03  0.40225847991E+03  0.25500000000E-02 0.  1.
<mgrwt>
<rscale>  0 0.47380283E+02</rscale>
<asrwt>0</asrwt>
<pdfrwt beam="1">  1       11 0.10000000E+01 0.17348875E+03</pdfrwt>
<pdfrwt beam="2">  1        2 0.80197975E-02 0.47380283E+02</pdfrwt>
<totfact> 0.92462216E+02</totfact>
</mgrwt>
</event>
<event>
 5    1  0.9955701E-004  0.7369183E+02  0.7818608E-02  0.1561118E+00
         11   -1    0    0    0    0  0.00000000000E+00  0.00000000000E+00  0.10000236496E+04  0.10000236496E+04  0.51100000000E-03 0.  1.
          2   -1    0    0  501    0 -0.00000000000E+00 -0.00000000000E+00 -0.23385587919E+02  0.23385588058E+02  0.25500000000E-02 0.  1.
         11    1    1    2    0    0  0.50902530742E+02  0.30959347658E+02  0.24069786716E+02  0.64256544229E+02  0.51100000000E-03 0.  1.
         22    1    1    2    0    0  0.11617170979E+02  0.10028602198E+02  0.31338500369E+02  0.34894600284E+02  0.00000000000E+00 0. -1.
          2    1    1    2  501    0 -0.62519701721E+02 -0.40987949856E+02  0.92122977456E+03  0.92425809311E+03  0.25500000000E-02 0.  1.
<mgrwt>
<rscale>  0 0.33629609E+02</rscale>
<asrwt>0</asrwt>
<pdfrwt beam="1">  1       11 0.10000000E+01 0.73691830E+02</pdfrwt>
<pdfrwt beam="2">  1        2 0.35978678E-02 0.33629609E+02</pdfrwt>
<totfact> 0.24135541E+03</totfact>
</mgrwt>
</event>
<event>
 5    1  0.9955701E-004  0.1398045E+03  0.7818608E-02  0.1514047E+00
         11   -1    0    0    0    0  0.00000000000E+00  0.00000000000E+00  0.10001794559E+04  0.10001794559E+04  0.51100000000E-03 0.  1.
          2   -1    0    0  501    0 -0.00000000000E+00 -0.00000000000E+00 -0.32540222739E+02  0.32540222839E+02  0.25500000000E-02 0.  1.
         11    1    1    2    0    0 -0.10494816596E+02 -0.13730922100E+03  0.70612925910E+03  0.71943206344E+03  0.51100000000E-03 0.  1.
         22    1    1    2    0    0 -0.81813027178E+01 -0.73550979554E+01 -0.28422946114E+01  0.11362650164E+02  0.00000000000E+00 0.  1.
          2    1    1    2  501    0  0.18676119313E+02  0.14466431896E+03  0.26435226867E+03  0.30192496514E+03  0.25500000000E-02 0.  1.
<mgrwt>
<rscale>  0 0.39217943E+02</rscale>
<asrwt>0</asrwt>
<pdfrwt beam="1">  1       11 0.10000000E+01 0.13980445E+03</pdfrwt>
<pdfrwt beam="2">  1        2 0.50070864E-02 0.39217943E+02</pdfrwt>
<totfact> 0.16217625E+03</totfact>
</mgrwt>
</event>
<event>
 5    1  0.9955701E-004  0.2526862E+03  0.7818608E-02  0.1111619E+00
         11   -1    0    0    0    0  0.00000000000E+00  0.00000000000E+00  0.10001262838E+04  0.10001262838E+04  0.51100000000E-03 0. -1.
          2   -1    0    0  501    0 -0.00000000000E+00 -0.00000000000E+00 -0.69210965465E+03  0.69210965466E+03  0.25500000000E-02 0. -1.
         11    1    1    2    0    0  0.21639091898E+03  0.80186513652E+02  0.96296646433E+03  0.99023195172E+03  0.51100000000E-03 0. -1.
         22    1    1    2    0    0 -0.54279877774E+02 -0.64611375387E+02 -0.29684599973E+03  0.30860732738E+03  0.00000000000E+00 0. -1.
          2    1    1    2  501    0 -0.16211104121E+03 -0.15575138265E+02 -0.35810383545E+03  0.39339665935E+03  0.25500000000E-02 0. -1.
<mgrwt>
<rscale>  0 0.25268619E+03</rscale>
<asrwt>0</asrwt>
<pdfrwt beam="1">  1       11 0.10000000E+01 0.23077025E+03</pdfrwt>
<pdfrwt beam="2">  1        2 0.10649185E+00 0.25268619E+03</pdfrwt>
<totfact> 0.53187784E+01</totfact>
</mgrwt>
</event>
<event>
 5    1  0.9955701E-004  0.6849911E+02  0.7818608E-02  0.1634632E+00
         11   -1    0    0    0    0  0.00000000000E+00  0.00000000000E+00  0.10003544844E+04  0.10003544844E+04  0.51100000000E-03 0. -1.
          2   -1    0    0  501    0 -0.00000000000E+00 -0.00000000000E+00 -0.56996654820E+01  0.56996660524E+01  0.25500000000E-02 0. -1.
         11    1    1    2    0    0 -0.43041093251E+02  0.50384703947E+02  0.37162574044E+03  0.37748754292E+03  0.51100000000E-03 0. -1.
         22    1    1    2    0    0 -0.98491942405E+01 -0.39009999524E+01  0.43305294306E+02  0.44582204328E+02  0.00000000000E+00 0. -1.
          2    1    1    2  501    0  0.52890287491E+02 -0.46483703995E+02  0.57972378417E+03  0.58398440320E+03  0.25500000000E-02 0. -1.
<mgrwt>
<rscale>  0 0.26937929E+02</rscale>
<asrwt>0</asrwt>
<pdfrwt beam="1">  1       11 0.10000000E+01 0.68499109E+02</pdfrwt>
<pdfrwt beam="2">  1        2 0.87718247E-03 0.26937929E+02</pdfrwt>
<totfact> 0.14479635E+04</totfact>
</mgrwt>
</event>
<event>
 5    1  0.9955701E-004  0.1197644E+03  0.7818608E-02  0.1378080E+00
         11   -1    0    0    0    0  0.00000000000E+00  0.00000000000E+00  0.99977459658E+03  0.99977459658E+03  0.51100000000E-03 0. -1.
          2   -1    0    0  501    0 -0.00000000000E+00 -0.00000000000E+00 -0.30444658647E+02  0.30444658754E+02  0.25500000000E-02 0. -1.
         11    1    1    2    0    0  0.12949986788E+03  0.35103439591E+02  0.39134889110E+03  0.41371055319E+03  0.51100000000E-03 0. -1.
         22    1    1    2    0    0 -0.15895292836E+02 -0.31458520816E+02  0.91250156594E+01  0.36408306430E+02  0.00000000000E+00 0. -1.
          2    1    1    2  501    0 -0.11360457504E+03 -0.36449187746E+01  0.56885603117E+03  0.58010039572E+03  0.25500000000E-02 0. -1.
<mgrwt>
<rscale>  0 0.64971112E+02</rscale>
<asrwt>0</asrwt>
<pdfrwt beam="1">  1       11 0.10000000E+01 0.11976441E+03</pdfrwt>
<pdfrwt beam="2">  1        2 0.46827378E-02 0.64971112E+02</pdfrwt>
<totfact> 0.18643316E+03</totfact>
</mgrwt>
</event>
<event>
 5    1  0.9955701E-004  0.2850053E+03  0.7818608E-02  0.1206928E+00
         11   -1    0    0    0    0  0.00000000000E+00  0.00000000000E+00  0.10004320935E+04  0.10004320935E+04  0.51100000000E-03 0.  1.
          2   -1    0    0  501    0 -0.00000000000E+00 -0.00000000000E+00 -0.30774914054E+03  0.30774914055E+03  0.25500000000E-02 0.  1.
         11    1    1    2    0    0 -0.27188717589E+03  0.12335923865E+03  0.81073412992E+03  0.86396178596E+03  0.51100000000E-03 0.  1.
         22    1    1    2    0    0  0.16615054409E+03 -0.24335140991E+02 -0.21283339287E+03  0.27110192826E+03  0.00000000000E+00 0.  1.
          2    1    1    2  501    0  0.10573663180E+03 -0.99024097662E+02  0.94782215948E+02  0.17311751988E+03  0.25500000000E-02 0.  1.
<mgrwt>
<rscale>  0 0.14486548E+03</rscale>
<asrwt>0</asrwt>
<pdfrwt beam="1">  1       11 0.10000000E+01 0.28500528E+03</pdfrwt>
<pdfrwt beam="2">  1        2 0.47366478E-01 0.14486548E+03</pdfrwt>
<totfact> 0.13179218E+02</totfact>
</mgrwt>
</event>
<event>
 5    1  0.9955701E-004  0.1439283E+03  0.7818608E-02  0.1464171E+00
         11   -1    0    0    0    0  0.00000000000E+00  0.00000000000E+00  0.10002083633E+04  0.10002083633E+04  0.51100000000E-03 0. -1.
          2   -1    0    0  501    0 -0.00000000000E+00 -0.00000000000E+00 -0.36008855069E+02  0.36008855159E+02  0.25500000000E-02 0. -1.
         11    1    1    2    0    0  0.14599131504E+03 -0.12221137619E+02  0.37050783164E+03  0.39842047335E+03  0.51100000000E-03 0. -1.
         22    1    1    2    0    0 -0.33422358651E+01  0.14760264222E+02 -0.95618759994E+01  0.17901547785E+02  0.00000000000E+00 0. -1.
          2    1    1    2  501    0 -0.14264907918E+03 -0.25391266029E+01  0.60325355257E+03  0.61989519731E+03  0.25500000000E-02 0. -1.
<mgrwt>
<rscale>  0 0.46671185E+02</rscale>
<asrwt>0</asrwt>
<pdfrwt beam="1">  1       11 0.10000000E+01 0.14392825E+03</pdfrwt>
<pdfrwt beam="2">  1        2 0.55409780E-02 0.46671185E+02</pdfrwt>
<totfact> 0.14560319E+03</totfact>
</mgrwt>
</event>
<event>
 5    1  0.9955701E-004  0.1697135E+03  0.7818608E-02  0.1429208E+00
         11   -1    0    0    0    0  0.00000000000E+00  0.00000000000E+00  0.10000406419E+04  0.10000406419E+04  0.51100000000E-03 0. -1.
         -2   -1    0    0    0  501 -0.00000000000E+00 -0.00000000000E+00 -0.48955107966E+02  0.48955108032E+02  0.25500000000E-02 0.  1.
         11    1    1    2    0    0 -0.10857877143E+03  0.12880637322E+03  0.75356991757E+03  0.77217099923E+03  0.51100000000E-03 0. -1.
         22    1    1    2    0    0 -0.15597490776E+02 -0.57571681830E+01  0.64008170697E+01  0.17815643776E+02  0.00000000000E+00 0. -1.
         -2    1    1    2    0  501  0.12417626221E+03 -0.12304920504E+03  0.19111479931E+03  0.25900910694E+03  0.25500000000E-02 0.  1.
<mgrwt>
<rscale>  0 0.53119405E+02</rscale>
<asrwt>0</asrwt>
<pdfrwt beam="1">  1       11 0.10000000E+01 0.16971351E+03</pdfrwt>
<pdfrwt beam="2">  1       -2 0.75318610E-02 0.53119405E+02</pdfrwt>
<totfact> 0.73426237E+02</totfact>
</mgrwt>
</event>
<event>
 5    1  0.9955701E-004  0.3844933E+02  0.7818608E-02  0.1519943E+00
         11   -1    0    0    0    0  0.00000000000E+00  0.00000000000E+00  0.10003163665E+04  0.10003163665E+04  0.51100000000E-03 0. -1.
          2   -1    0    0  501    0 -0.00000000000E+00 -0.00000000000E+00 -0.15709653193E+02  0.15709653400E+02  0.25500000000E-02 0. -1.
         11    1    1    2    0    0  0.18361076383E+02 -0.12984910332E+02  0.18962563028E+02  0.29416250936E+02  0.51100000000E-03 0. -1.
         22    1    1    2    0    0 -0.37338078496E+02 -0.11162110944E+02  0.26876645328E+02  0.47340034755E+02  0.00000000000E+00 0. -1.
          2    1    1    2  501    0  0.18977002113E+02  0.24147021276E+02  0.93876750500E+03  0.93926973426E+03  0.25500000000E-02 0. -1.
<mgrwt>
<rscale>  0 0.38449328E+02</rscale>
<asrwt>0</asrwt>
<pdfrwt beam="1">  1       11 0.10000000E+01 0.22488609E+02</pdfrwt>
<pdfrwt beam="2">  1        2 0.24176343E-02 0.38449328E+02</pdfrwt>
<totfact> 0.41015561E+03</totfact>
</mgrwt>
</event>
<event>
 5    1  0.9955701E-004  0.5360468E+02  0.7818608E-02  0.1594315E+00
         11   -1    0    0    0    0  0.00000000000E+00  0.00000000000E+00  0.10000643226E+04  0.10000643226E+04  0.51100000000E-03 0. -1.
          2   -1    0    0  501    0 -0.00000000000E+00 -0.00000000000E+00 -0.49236892768E+01  0.49236899371E+01  0.25500000000E-02 0. -1.
         11    1    1    2    0    0  0.58007815553E+02  0.31183917324E+02  0.38977759880E+03  0.39530231456E+03  0.51100000000E-03 0. -1.
         22    1    1    2    0    0 -0.14676179116E+02 -0.89251883129E+01  0.68645137695E+02  0.70761600809E+02  0.00000000000E+00 0.  1.
          2    1    1    2  501    0 -0.43331636437E+02 -0.22258729011E+02  0.53671789686E+03  0.53892409721E+03  0.25500000000E-02 0. -1.
<mgrwt>
<rscale>  0 0.30344143E+02</rscale>
<asrwt>0</asrwt>
<pdfrwt beam="1">  1       11 0.10000000E+01 0.53604685E+02</pdfrwt>
<pdfrwt beam="2">  1        2 0.75753941E-03 0.30344143E+02</pdfrwt>
<totfact> 0.18041762E+04</totfact>
</mgrwt>
</event>
<event>
 5    1  0.9955701E-004  0.4327004E+02  0.7818608E-02  0.1715922E+00
         11   -1    0    0    0    0  0.00000000000E+00  0.00000000000E+00  0.10000039810E+04  0.10000039810E+04  0.51100000000E-03 0. -1.
          2   -1    0    0  501    0 -0.00000000000E+00 -0.00000000000E+00 -0.10606467914E+02  0.10606468220E+02  0.25500000000E-02 0. -1.
         11    1    1    2    0    0 -0.41550155883E+02 -0.32261587640E+02  0.15165690107E+03  0.16052115479E+03  0.51100000000E-03 0. -1.
         22    1    1    2    0    0  0.69049504581E+01  0.82334111795E+01 -0.53039086849E+00  0.10758657674E+02  0.00000000000E+00 0. -1.
          2    1    1    2  501    0  0.34645205425E+02  0.24028176460E+02  0.83827100290E+03  0.83933063678E+03  0.25500000000E-02 0. -1.
<mgrwt>
<rscale>  0 0.21562961E+02</rscale>
<asrwt>0</asrwt>
<pdfrwt beam="1">  1       11 0.10000000E+01 0.43270040E+02</pdfrwt>
<pdfrwt beam="2">  1        2 0.16317708E-02 0.21562961E+02</pdfrwt>
<totfact> 0.61619155E+03</totfact>
</mgrwt>
</event>
<event>
 5    1  0.9955701E-004  0.1536890E+03  0.7818608E-02  0.1343083E+00
         11   -1    0    0    0    0  0.00000000000E+00  0.00000000000E+00  0.10000865682E+04  0.10000865682E+04  0.51100000000E-03 0. -1.
          2   -1    0    0  501    0 -0.00000000000E+00 -0.00000000000E+00 -0.77282515348E+02  0.77282515390E+02  0.25500000000E-02 0. -1.
         11    1    1    2    0    0 -0.50920470744E+02 -0.14709901904E+03  0.78300732827E+03  0.79833044028E+03  0.51100000000E-03 0. -1.
         22    1    1    2    0    0  0.11386281506E+03  0.10584856591E+03  0.53204592072E+02  0.16431490552E+03  0.00000000000E+00 0. -1.
          2    1    1    2  501    0 -0.62942344318E+02  0.41250453121E+02  0.86592132458E+02  0.11472373774E+03  0.25500000000E-02 0. -1.
<mgrwt>
<rscale>  0 0.75255157E+02</rscale>
<asrwt>0</asrwt>
<pdfrwt beam="1">  1       11 0.10000000E+01 0.15368896E+03</pdfrwt>
<pdfrwt beam="2">  1        2 0.11890647E-01 0.75255157E+02</pdfrwt>
<totfact> 0.59669223E+02</totfact>
</mgrwt>
</event>
<event>
 5    1  0.9955701E-004  0.1010742E+03  0.7818608E-02  0.1419478E+00
         11   -1    0    0    0    0  0.00000000000E+00  0.00000000000E+00  0.10001703117E+04  0.10001703117E+04  0.51100000000E-03 0. -1.
          2   -1    0    0  501    0 -0.00000000000E+00 -0.00000000000E+00 -0.19576314914E+02  0.19576315080E+02  0.25500000000E-02 0. -1.
         11    1    1    2    0    0  0.90234975653E+02 -0.51935753516E+02  0.50957153314E+03  0.52009885668E+03  0.51100000000E-03 0. -1.
         22    1    1    2    0    0  0.72939037834E+01  0.29173817113E+02  0.16659052985E+02  0.34377851644E+02  0.00000000000E+00 0. -1.
          2    1    1    2  501    0 -0.97528879437E+02  0.22761936403E+02  0.45436341065E+03  0.46526991845E+03  0.25500000000E-02 0. -1.
<mgrwt>
<rscale>  0 0.55131488E+02</rscale>
<asrwt>0</asrwt>
<pdfrwt beam="1">  1       11 0.10000000E+01 0.10107416E+03</pdfrwt>
<pdfrwt beam="2">  1        2 0.30122536E-02 0.55131488E+02</pdfrwt>
<totfact> 0.32382339E+03</totfact>
</mgrwt>
</event>
<event>
 5    1  0.9955702E-004  0.2216868E+03  0.7818608E-02  0.1132632E+00
         11   -1    0    0    0    0  0.00000000000E+00  0.00000000000E+00  0.10002286476E+04  0.10002286476E+04  0.51100000000E-03 0. -1.
         -2   -1    0    0    0  501 -0.00000000000E+00 -0.00000000000E+00 -0.26854567663E+03  0.26854567664E+03  0.25500000000E-02 0.  1.
         11    1    1    2    0    0 -0.17729600087E+03  0.11852826728E+03  0.94040913641E+03  0.96428842465E+03  0.51100000000E-03 0. -1.
         22    1    1    2    0    0  0.27529015859E+02  0.40758121680E+01 -0.31773952163E+02  0.42237933130E+02  0.00000000000E+00 0. -1.
         -2    1    1    2    0  501  0.14976698501E+03 -0.12260407945E+03 -0.17695221331E+03  0.26224796643E+03  0.25500000000E-02 0.  1.
<mgrwt>
<rscale>  0 0.22168683E+03</rscale>
<asrwt>0</asrwt>
<pdfrwt beam="1">  1       11 0.10000000E+01 0.21326702E+03</pdfrwt>
<pdfrwt beam="2">  1       -2 0.41324165E-01 0.22168683E+03</pdfrwt>
<totfact> 0.45215319E+01</totfact>
</mgrwt>
</event>
<event>
 5    1  0.9955701E-004  0.2639783E+03  0.7818608E-02  0.1104776E+00
         11   -1    0    0    0    0  0.00000000000E+00  0.00000000000E+00  0.10001671164E+04  0.10001671164E+04  0.51100000000E-03 0. -1.
         -2   -1    0    0    0  501 -0.00000000000E+00 -0.00000000000E+00 -0.17382086502E+03  0.17382086504E+03  0.25500000000E-02 0. -1.
         11    1    1    2    0    0 -0.22728320835E+03  0.11504215016E+03  0.84758511869E+03  0.88503835314E+03  0.51100000000E-03 0. -1.
         22    1    1    2    0    0 -0.13016078282E+02 -0.27989851091E+01  0.16342432631E+02  0.21079082423E+02  0.00000000000E+00 0.  1.
         -2    1    1    2    0  501  0.24029928663E+03 -0.11224316505E+03 -0.37581299910E+02  0.26787054591E+03  0.25500000000E-02 0. -1.
<mgrwt>
<rscale>  0 0.26397828E+03</rscale>
<asrwt>0</asrwt>
<pdfrwt beam="1">  1       11 0.10000000E+01 0.13313625E+02</pdfrwt>
<pdfrwt beam="2">  1       -2 0.26746140E-01 0.26397828E+03</pdfrwt>
<totfact> 0.10139629E+02</totfact>
</mgrwt>
</event>
<event>
 5    1  0.9955701E-004  0.2637160E+03  0.7818608E-02  0.1104931E+00
         11   -1    0    0    0    0  0.00000000000E+00  0.00000000000E+00  0.10004926334E+04  0.10004926334E+04  0.51100000000E-03 0. -1.
          2   -1    0    0  501    0 -0.00000000000E+00 -0.00000000000E+00 -0.43356639073E+03  0.43356639074E+03  0.25500000000E-02 0. -1.
         11    1    1    2    0    0  0.22197990231E+03  0.11138990446E+03  0.94276408507E+03  0.97492918099E+03  0.51100000000E-03 0. -1.
         22    1    1    2    0    0 -0.21803851148E+02 -0.48583236640E+02 -0.89775404316E+02  0.10438085087E+03  0.00000000000E+00 0. -1.
          2    1    1    2  501    0 -0.20017605116E+03 -0.62806667818E+02 -0.28606243813E+03  0.35474899224E+03  0.25500000000E-02 0. -1.
<mgrwt>
<rscale>  0 0.26371600E+03</rscale>
<asrwt>0</asrwt>
<pdfrwt beam="1">  1       11 0.10000000E+01 0.24836020E+03</pdfrwt>
<pdfrwt beam="2">  1        2 0.66735380E-01 0.26371600E+03</pdfrwt>
<totfact> 0.90851769E+01</totfact>
</mgrwt>
</event>
<event>
 5    1  0.9955701E-004  0.1164564E+03  0.7818608E-02  0.1264921E+00
         11   -1    0    0    0    0  0.00000000000E+00  0.00000000000E+00  0.10001843272E+04  0.10001843272E+04  0.51100000000E-03 0. -1.
          2   -1    0    0  501    0 -0.00000000000E+00 -0.00000000000E+00 -0.12591517335E+02  0.12591517593E+02  0.25500000000E-02 0. -1.
         11    1    1    2    0    0 -0.73920034541E+02 -0.55336293044E+02  0.40649529554E+03  0.41685093514E+03  0.51100000000E-03 0. -1.
         22    1    1    2    0    0  0.60313648779E+00 -0.23532867480E+02  0.80216172386E+02  0.83599006799E+02  0.00000000000E+00 0. -1.
          2    1    1    2  501    0  0.73316898053E+02  0.78869160524E+02  0.50088134196E+03  0.51232590288E+03  0.25500000000E-02 0. -1.
<mgrwt>
<rscale>  0 0.10768339E+03</rscale>
<asrwt>0</asrwt>
<pdfrwt beam="1">  1       11 0.10000000E+01 0.11645639E+03</pdfrwt>
<pdfrwt beam="2">  1        2 0.19375135E-02 0.10768339E+03</pdfrwt>
<totfact> 0.63446206E+03</totfact>
</mgrwt>
</event>
<event>
 5    1  0.9955701E-004  0.1727129E+03  0.7818608E-02  0.1289875E+00
         11   -1    0    0    0    0  0.00000000000E+00  0.00000000000E+00  0.99997506364E+03  0.99997506364E+03  0.51100000000E-03 0.  1.
          2   -1    0    0  501    0 -0.00000000000E+00 -0.00000000000E+00 -0.16353721289E+03  0.16353721291E+03  0.25500000000E-02 0.  1.
         11    1    1    2    0    0 -0.81612812197E+02 -0.15214946089E+03  0.90302464662E+03  0.91938219581E+03  0.51100000000E-03 0.  1.
         22    1    1    2    0    0  0.46403602779E+02 -0.25387815774E+02 -0.58545184600E+01  0.53217580996E+02  0.00000000000E+00 0. -1.
          2    1    1    2  501    0  0.35209209418E+02  0.17753727667E+03 -0.60732277406E+02  0.19091249975E+03  0.25500000000E-02 0.  1.
<mgrwt>
<rscale>  0 0.95580213E+02</rscale>
<asrwt>0</asrwt>
<pdfrwt beam="1">  1       11 0.10000000E+01 0.17271295E+03</pdfrwt>
<pdfrwt beam="2">  1        2 0.25158943E-01 0.95580213E+02</pdfrwt>
<totfact> 0.25762315E+02</totfact>
</mgrwt>
</event>
<event>
 5    1  0.9955701E-004  0.2772894E+03  0.7818608E-02  0.1176429E+00
         11   -1    0    0    0    0  0.00000000000E+00  0.00000000000E+00  0.99997740571E+03  0.99997740571E+03  0.51100000000E-03 0. -1.
          2   -1    0    0  501    0 -0.00000000000E+00 -0.00000000000E+00 -0.47225411652E+03  0.47225411652E+03  0.25500000000E-02 0. -1.
         11    1    1    2    0    0 -0.16363388949E+03  0.23749319733E+03  0.90864667279E+03  0.95331938223E+03  0.51100000000E-03 0. -1.
         22    1    1    2    0    0  0.15368054520E+02 -0.10478587487E+03 -0.27239143753E+03  0.29225562768E+03  0.00000000000E+00 0. -1.
          2    1    1    2  501    0  0.14826583497E+03 -0.13270732246E+03 -0.10853194606E+03  0.22665651232E+03  0.25500000000E-02 0. -1.
<mgrwt>
<rscale>  0 0.17136756E+03</rscale>
<asrwt>0</asrwt>
<pdfrwt beam="1">  1       11 0.10000000E+01 0.27728939E+03</pdfrwt>
<pdfrwt beam="2">  1        2 0.72652836E-01 0.17136756E+03</pdfrwt>
<totfact> 0.83171001E+01</totfact>
</mgrwt>
</event>
<event>
 5    1  0.9955701E-004  0.1348843E+03  0.7818608E-02  0.1354036E+00
         11   -1    0    0    0    0  0.00000000000E+00  0.00000000000E+00  0.10005693764E+04  0.10005693764E+04  0.51100000000E-03 0. -1.
          2   -1    0    0  501    0 -0.00000000000E+00 -0.00000000000E+00 -0.33879324210E+02  0.33879324306E+02  0.25500000000E-02 0. -1.
         11    1    1    2    0    0  0.11633808607E+03  0.96648363204E+02  0.61618217643E+03  0.63447295524E+03  0.51100000000E-03 0. -1.
         22    1    1    2    0    0 -0.16119959795E+02 -0.34668411583E+02  0.98036589822E+01  0.39469780781E+02  0.00000000000E+00 0. -1.
          2    1    1    2  501    0 -0.10021812627E+03 -0.61979951621E+02  0.34070421676E+03  0.36050596467E+03  0.25500000000E-02 0. -1.
<mgrwt>
<rscale>  0 0.71812334E+02</rscale>
<asrwt>0</asrwt>
<pdfrwt beam="1">  1       11 0.10000000E+01 0.13488425E+03</pdfrwt>
<pdfrwt beam="2">  1        2 0.52151713E-02 0.71812334E+02</pdfrwt>
<totfact> 0.16406446E+03</totfact>
</mgrwt>
</event>
<event>
 5    1  0.9955701E-004  0.2465858E+03  0.7818608E-02  0.1115482E+00
         11   -1    0    0    0    0  0.00000000000E+00  0.00000000000E+00  0.10001685869E+04  0.10001685869E+04  0.51100000000E-03 0. -1.
          2   -1    0    0  501    0 -0.00000000000E+00 -0.00000000000E+00 -0.18518086845E+03  0.18518086846E+03  0.25500000000E-02 0. -1.
         11    1    1    2    0    0  0.22524860397E+03  0.71680557251E+02  0.89532781855E+03  0.92600590632E+03  0.51100000000E-03 0. -1.
         22    1    1    2    0    0 -0.33564832378E+02 -0.27973148842E+01 -0.38954987806E+02  0.51496737936E+02  0.00000000000E+00 0.  1.
          2    1    1    2  501    0 -0.19168377159E+03 -0.68883242366E+02 -0.41385112271E+02  0.20784681112E+03  0.25500000000E-02 0. -1.
<mgrwt>
<rscale>  0 0.24658578E+03</rscale>
<asrwt>0</asrwt>
<pdfrwt beam="1">  1       11 0.10000000E+01 0.23637901E+03</pdfrwt>
<pdfrwt beam="2">  1        2 0.28494166E-01 0.24658578E+03</pdfrwt>
<totfact> 0.22946743E+02</totfact>
</mgrwt>
</event>
<event>
 5    1  0.9955701E-004  0.1368799E+03  0.7818608E-02  0.1448846E+00
         11   -1    0    0    0    0  0.00000000000E+00  0.00000000000E+00  0.10001295977E+04  0.10001295977E+04  0.51100000000E-03 0. -1.
         -2   -1    0    0    0  501 -0.00000000000E+00 -0.00000000000E+00 -0.32897536604E+02  0.32897536703E+02  0.25500000000E-02 0. -1.
         11    1    1    2    0    0  0.13130945627E+03 -0.47946250288E+01  0.61988996389E+03  0.63366294595E+03  0.51100000000E-03 0. -1.
         22    1    1    2    0    0  0.17637361018E+02  0.23762799633E+01 -0.35617764612E+01  0.18149640815E+02  0.00000000000E+00 0. -1.
         -2    1    1    2    0  501 -0.14894681728E+03  0.24183450656E+01  0.35090387365E+03  0.38121454762E+03  0.25500000000E-02 0. -1.
<mgrwt>
<rscale>  0 0.49355977E+02</rscale>
<asrwt>0</asrwt>
<pdfrwt beam="1">  1       11 0.10000000E+01 0.13687986E+03</pdfrwt>
<pdfrwt beam="2">  1       -2 0.50618153E-02 0.49355977E+02</pdfrwt>
<totfact> 0.13111966E+03</totfact>
</mgrwt>
</event>
<event>
 5    1  0.9955701E-004  0.7767082E+02  0.7818608E-02  0.1453753E+00
         11   -1    0    0    0    0  0.00000000000E+00  0.00000000000E+00  0.10001856113E+04  0.10001856113E+04  0.51100000000E-03 0. -1.
          2   -1    0    0  501    0 -0.00000000000E+00 -0.00000000000E+00 -0.11791672002E+02  0.11791672278E+02  0.25500000000E-02 0. -1.
         11    1    1    2    0    0 -0.60924310291E+02  0.33510418365E+02  0.32535154927E+03  0.33269858782E+03  0.51100000000E-03 0. -1.
         22    1    1    2    0    0  0.29875270740E+01  0.30103889082E+02  0.39125918980E+02  0.49457122762E+02  0.00000000000E+00 0. -1.
          2    1    1    2  501    0  0.57936783217E+02 -0.63614307447E+02  0.62391647101E+03  0.62982157296E+03  0.25500000000E-02 0. -1.
<mgrwt>
<rscale>  0 0.48473483E+02</rscale>
<asrwt>0</asrwt>
<pdfrwt beam="1">  1       11 0.10000000E+01 0.77670823E+02</pdfrwt>
<pdfrwt beam="2">  1        2 0.18144401E-02 0.48473483E+02</pdfrwt>
<totfact> 0.61946067E+03</totfact>
</mgrwt>
</event>
<event>
 5    1  0.9955701E-004  0.2452396E+03  0.7818608E-02  0.1386860E+00
         11   -1    0    0    0    0  0.00000000000E+00  0.00000000000E+00  0.99996207277E+03  0.99996207277E+03  0.51100000000E-03 0. -1.
          2   -1    0    0  501    0 -0.00000000000E+00 -0.00000000000E+00 -0.97120117932E+02  0.97120117966E+02  0.25500000000E-02 0. -1.
         11    1    1    2    0    0 -0.24641567812E+03 -0.14807405525E+02  0.42132591938E+03  0.48831903099E+03  0.51100000000E-03 0. -1.
         22    1    1    2    0    0  0.41598535349E+01 -0.15478369870E+02 -0.34425434476E+02  0.37973607336E+02  0.00000000000E+00 0. -1.
          2    1    1    2  501    0  0.24225582459E+03  0.30285775395E+02  0.51594146993E+03  0.57078955241E+03  0.25500000000E-02 0. -1.
<mgrwt>
<rscale>  0 0.62694525E+02</rscale>
<asrwt>0</asrwt>
<pdfrwt beam="1">  1       11 0.10000000E+01 0.24523964E+03</pdfrwt>
<pdfrwt beam="2">  1        2 0.14940989E-01 0.62694525E+02</pdfrwt>
<totfact> 0.45289362E+02</totfact>
</mgrwt>
</event>
<event>
 5    1  0.9955701E-004  0.3328237E+02  0.7818608E-02  0.1601236E+00
         11   -1    0    0    0    0  0.00000000000E+00  0.00000000000E+00  0.10002064541E+04  0.10002064541E+04  0.51100000000E-03 0. -1.
          2   -1    0    0  501    0 -0.00000000000E+00 -0.00000000000E+00 -0.28699423239E+01  0.28699434568E+01  0.25500000000E-02 0. -1.
         11    1    1    2    0    0 -0.87211483105E+01  0.20078905195E+02  0.62153949141E+02  0.65896390309E+02  0.51100000000E-03 0. -1.
         22    1    1    2    0    0  0.58869553449E+01  0.95027962194E+01  0.40793541969E+02  0.42297428357E+02  0.00000000000E+00 0.  1.
          2    1    1    2  501    0  0.28341929656E+01 -0.29581701414E+02  0.89438902065E+03  0.89488257887E+03  0.25500000000E-02 0. -1.
<mgrwt>
<rscale>  0 0.29717162E+02</rscale>
<asrwt>0</asrwt>
<pdfrwt beam="1">  1       11 0.10000000E+01 0.33282375E+02</pdfrwt>
<pdfrwt beam="2">  1        2 0.44162082E-03 0.29717162E+02</pdfrwt>
<totfact> 0.36707530E+04</totfact>
</mgrwt>
</event>
<event>
 5    1  0.9955701E-004  0.7630594E+02  0.7818608E-02  0.1339874E+00
         11   -1    0    0    0    0  0.00000000000E+00  0.00000000000E+00  0.99998500227E+03  0.99998500227E+03  0.51100000000E-03 0.  1.
          2   -1    0    0  501    0 -0.00000000000E+00 -0.00000000000E+00 -0.16144093801E+02  0.16144094003E+02  0.25500000000E-02 0.  1.
         11    1    1    2    0    0  0.26301379445E+02 -0.10493449109E+02  0.94696964911E+02  0.98840225610E+02  0.51100000000E-03 0.  1.
         22    1    1    2    0    0 -0.75325376455E+02  0.27272552684E+02  0.10820567969E+03  0.13463347869E+03  0.00000000000E+00 0.  1.
          2    1    1    2  501    0  0.49023997010E+02 -0.16779103575E+02  0.78093826387E+03  0.78265539197E+03  0.25500000000E-02 0.  1.
<mgrwt>
<rscale>  0 0.76305939E+02</rscale>
<asrwt>0</asrwt>
<pdfrwt beam="1">  1       11 0.10000000E+01 0.28317412E+02</pdfrwt>
<pdfrwt beam="2">  1        2 0.24836694E-02 0.76305939E+02</pdfrwt>
<totfact> 0.43517245E+03</totfact>
</mgrwt>
</event>
<event>
 5    1  0.9955701E-004  0.2050993E+03  0.7818608E-02  0.1145507E+00
         11   -1    0    0    0    0  0.00000000000E+00  0.00000000000E+00  0.99997424344E+03  0.99997424344E+03  0.51100000000E-03 0.  1.
          2   -1    0    0  501    0 -0.00000000000E+00 -0.00000000000E+00 -0.41101641558E+02  0.41101641637E+02  0.25500000000E-02 0.  1.
         11    1    1    2    0    0  0.13169389025E+03  0.14820557289E+03  0.52434005272E+03  0.56057172908E+03  0.51100000000E-03 0.  1.
         22    1    1    2    0    0 -0.16841471333E+02 -0.11765564146E+02  0.17686699772E+02  0.27108725628E+02  0.00000000000E+00 0.  1.
          2    1    1    2  501    0 -0.11485241891E+03 -0.13644000874E+03  0.41684584940E+03  0.45339543037E+03  0.25500000000E-02 0.  1.
<mgrwt>
<rscale>  0 0.20509926E+03</rscale>
<asrwt>0</asrwt>
<pdfrwt beam="1">  1       11 0.10000000E+01 0.19826289E+03</pdfrwt>
<pdfrwt beam="2">  1        2 0.63231664E-02 0.20509926E+03</pdfrwt>
<totfact> 0.13919049E+03</totfact>
</mgrwt>
</event>
<event>
 5    1  0.9955701E-004  0.2108070E+03  0.7818608E-02  0.1376167E+00
         11   -1    0    0    0    0  0.00000000000E+00  0.00000000000E+00  0.10002664754E+04  0.10002664754E+04  0.51100000000E-03 0. -1.
          2   -1    0    0  501    0 -0.00000000000E+00 -0.00000000000E+00 -0.49337166783E+02  0.49337166849E+02  0.25500000000E-02 0.  1.
         11    1    1    2    0    0 -0.13008672598E+03 -0.15999385711E+03  0.46807229495E+03  0.51148046286E+03  0.51100000000E-03 0. -1.
         22    1    1    2    0    0  0.80201157688E+01 -0.18692584521E+02  0.30373766308E+02  0.36555446280E+02  0.00000000000E+00 0. -1.
          2    1    1    2  501    0  0.12206661021E+03  0.17868644163E+03  0.45248324736E+03  0.50156773311E+03  0.25500000000E-02 0.  1.
<mgrwt>
<rscale>  0 0.65482173E+02</rscale>
<asrwt>0</asrwt>
<pdfrwt beam="1">  1       11 0.10000000E+01 0.21080701E+03</pdfrwt>
<pdfrwt beam="2">  1        2 0.75923558E-02 0.65482173E+02</pdfrwt>
<totfact> 0.10157933E+03</totfact>
</mgrwt>
</event>
<event>
 5    1  0.9955701E-004  0.1537729E+03  0.7818608E-02  0.1242200E+00
         11   -1    0    0    0    0  0.00000000000E+00  0.00000000000E+00  0.99989740741E+03  0.99989740741E+03  0.51100000000E-03 0. -1.
         -2   -1    0    0    0  501 -0.00000000000E+00 -0.00000000000E+00 -0.87742730551E+02  0.87742730588E+02  0.25500000000E-02 0.  1.
         11    1    1    2    0    0  0.14819954371E+03 -0.55527270905E+02  0.78709297604E+03  0.80284602229E+03  0.51100000000E-03 0. -1.
         22    1    1    2    0    0 -0.60905517593E+02 -0.72252462983E+02  0.16917891291E+02  0.96000601697E+02  0.00000000000E+00 0.  1.
         -2    1    1    2    0  501 -0.87294026115E+02  0.12777973389E+03  0.10814380952E+03  0.18879351401E+03  0.25500000000E-02 0.  1.
<mgrwt>
<rscale>  0 0.12054566E+03</rscale>
<asrwt>0</asrwt>
<pdfrwt beam="1">  1       11 0.10000000E+01 0.15377291E+03</pdfrwt>
<pdfrwt beam="2">  1       -2 0.13497496E-01 0.12054566E+03</pdfrwt>
<totfact> 0.31473328E+02</totfact>
</mgrwt>
</event>
<event>
 5    1  0.9955701E-004  0.2416760E+03  0.7818608E-02  0.1227578E+00
         11   -1    0    0    0    0  0.00000000000E+00  0.00000000000E+00  0.10001900386E+04  0.10001900386E+04  0.51100000000E-03 0.  1.
          2   -1    0    0  501    0 -0.00000000000E+00 -0.00000000000E+00 -0.11945558327E+03  0.11945558330E+03  0.25500000000E-02 0.  1.
         11    1    1    2    0    0  0.21406409650E+03 -0.18248961674E+03  0.22015316279E+03  0.35720206147E+03  0.51100000000E-03 0.  1.
         22    1    1    2    0    0 -0.69819266496E+02  0.17041785995E+01  0.82489980345E+01  0.70325529982E+02  0.00000000000E+00 0. -1.
          2    1    1    2  501    0 -0.14424483000E+03  0.18078543814E+03  0.65233229452E+03  0.69211803048E+03  0.25500000000E-02 0.  1.
<mgrwt>
<rscale>  0 0.12991789E+03</rscale>
<asrwt>0</asrwt>
<pdfrwt beam="1">  1       11 0.10000000E+01 0.24167600E+03</pdfrwt>
<pdfrwt beam="2">  1        2 0.18381274E-01 0.12991789E+03</pdfrwt>
<totfact> 0.36921872E+02</totfact>
</mgrwt>
</event>
<event>
 5    1  0.9955701E-004  0.5720831E+02  0.7818608E-02  0.1422426E+00
         11   -1    0    0    0    0  0.00000000000E+00  0.00000000000E+00  0.10001351718E+04  0.10001351718E+04  0.51100000000E-03 0.  1.
          2   -1    0    0  501    0 -0.00000000000E+00 -0.00000000000E+00 -0.43850032627E+01  0.43850040042E+01  0.25500000000E-02 0.  1.
         11    1    1    2    0    0  0.13786320573E+02  0.76547146663E+01  0.44492675217E+02  0.47204400640E+02  0.51100000000E-03 0.  1.
         22    1    1    2    0    0  0.22683011458E+02  0.32859849254E+02  0.19221030903E+03  0.19631375805E+03  0.00000000000E+00 0.  1.
          2    1    1    2  501    0 -0.36469332031E+02 -0.40514563921E+02  0.75904718429E+03  0.76100201712E+03  0.25500000000E-02 0.  1.
<mgrwt>
<rscale>  0 0.54510935E+02</rscale>
<asrwt>0</asrwt>
<pdfrwt beam="1">  1       11 0.10000000E+01 0.57208311E+02</pdfrwt>
<pdfrwt beam="2">  1        2 0.67470711E-03 0.54510935E+02</pdfrwt>
<totfact> 0.23825665E+04</totfact>
</mgrwt>
</event>
<event>
 5    1  0.9955701E-004  0.3772875E+03  0.7818608E-02  0.1385812E+00
         11   -1    0    0    0    0  0.00000000000E+00  0.00000000000E+00  0.10008041017E+04  0.10008041017E+04  0.51100000000E-03 0. -1.
          2   -1    0    0  501    0 -0.00000000000E+00 -0.00000000000E+00 -0.58210034488E+03  0.58210034488E+03  0.25500000000E-02 0. -1.
         11    1    1    2    0    0 -0.32993927902E+03 -0.18328287726E+03  0.89356829460E+03  0.97000867937E+03  0.51100000000E-03 0. -1.
         22    1    1    2    0    0 -0.31334203901E+01  0.10028459472E+02 -0.55329400042E+01  0.11874415683E+02  0.00000000000E+00 0. -1.
          2    1    1    2  501    0  0.33307269941E+03  0.17325441779E+03 -0.46933159775E+03  0.60102135156E+03  0.25500000000E-02 0. -1.
<mgrwt>
<rscale>  0 0.62960325E+02</rscale>
<asrwt>0</asrwt>
<pdfrwt beam="1">  1       11 0.10000000E+01 0.37728745E+03</pdfrwt>
<pdfrwt beam="2">  1        2 0.89625907E-01 0.62960325E+02</pdfrwt>
<totfact> 0.67177593E+01</totfact>
</mgrwt>
</event>
<event>
 5    1  0.9955701E-004  0.3094772E+02  0.7818608E-02  0.1602587E+00
         11   -1    0    0    0    0  0.00000000000E+00  0.00000000000E+00  0.99994505267E+03  0.99994505267E+03  0.51100000000E-03 0.  1.
         -2   -1    0    0    0  501 -0.00000000000E+00 -0.00000000000E+00 -0.36554836981E+01  0.36554845875E+01  0.25500000000E-02 0. -1.
         11    1    1    2    0    0  0.10135312477E+02 -0.98025920035E+01  0.42252570096E+02  0.44543181846E+02  0.51100000000E-03 0.  1.
         22    1    1    2    0    0  0.96628599210E+01 -0.12197708675E+02  0.24339465775E+02  0.28888830939E+02  0.00000000000E+00 0. -1.
         -2    1    1    2    0  501 -0.19798172398E+02  0.22000300679E+02  0.92969753310E+03  0.93016852448E+03  0.25500000000E-02 0. -1.
<mgrwt>
<rscale>  0 0.29596974E+02</rscale>
<asrwt>0</asrwt>
<pdfrwt beam="1">  1       11 0.10000000E+01 0.30947718E+02</pdfrwt>
<pdfrwt beam="2">  1       -2 0.56235126E-03 0.29596974E+02</pdfrwt>
<totfact> 0.25793627E+04</totfact>
</mgrwt>
</event>
<event>
 5    1  0.9955701E-004  0.1295915E+03  0.7818608E-02  0.1350816E+00
         11   -1    0    0    0    0  0.00000000000E+00  0.00000000000E+00  0.10002587065E+04  0.10002587065E+04  0.51100000000E-03 0. -1.
          2   -1    0    0  501    0 -0.00000000000E+00 -0.00000000000E+00 -0.34340631440E+02  0.34340631535E+02  0.25500000000E-02 0. -1.
         11    1    1    2    0    0  0.92114316008E+02  0.11263076976E+03  0.68878980103E+03  0.70399014731E+03  0.51100000000E-03 0. -1.
         22    1    1    2    0    0 -0.88070521786E+02 -0.39941339686E+02  0.10003520047E+03  0.13913579251E+03  0.00000000000E+00 0. -1.
          2    1    1    2  501    0 -0.40437942224E+01 -0.72689430073E+02  0.17709307358E+03  0.19147339824E+03  0.25500000000E-02 0. -1.
<mgrwt>
<rscale>  0 0.72801824E+02</rscale>
<asrwt>0</asrwt>
<pdfrwt beam="1">  1       11 0.10000000E+01 0.12959148E+03</pdfrwt>
<pdfrwt beam="2">  1        2 0.52845407E-02 0.72801824E+02</pdfrwt>
<totfact> 0.16153320E+03</totfact>
</mgrwt>
</event>
<event>
 5    1  0.9955701E-004  0.3883167E+02  0.7818608E-02  0.1671738E+00
         11   -1    0    0    0    0  0.00000000000E+00  0.00000000000E+00  0.99990653315E+03  0.99990653315E+03  0.51100000000E-03 0.  1.
         -2   -1    0    0    0  501 -0.00000000000E+00 -0.00000000000E+00 -0.10014901652E+02  0.10014901977E+02  0.25500000000E-02 0.  1.
         11    1    1    2    0    0  0.35745779343E+02 -0.18522230033E+02  0.19902579632E+03  0.20305689190E+03  0.51100000000E-03 0.  1.
         22    1    1    2    0    0  0.31350489807E+01  0.14839363490E+02  0.13267089753E+00  0.15167492953E+02  0.00000000000E+00 0.  1.
         -2    1    1    2    0  501 -0.38880828323E+02  0.36828665426E+01  0.79073316428E+03  0.79169705027E+03  0.25500000000E-02 0.  1.
<mgrwt>
<rscale>  0 0.24268420E+02</rscale>
<asrwt>0</asrwt>
<pdfrwt beam="1">  1       11 0.10000000E+01 0.38831667E+02</pdfrwt>
<pdfrwt beam="2">  1       -2 0.15406101E-02 0.24268420E+02</pdfrwt>
<totfact> 0.62687115E+03</totfact>
</mgrwt>
</event>
<event>
 5    1  0.9955701E-004  0.1101243E+03  0.7818608E-02  0.1502015E+00
         11   -1    0    0    0    0  0.00000000000E+00  0.00000000000E+00  0.10000920635E+04  0.10000920635E+04  0.51100000000E-03 0. -1.
          2   -1    0    0  501    0 -0.00000000000E+00 -0.00000000000E+00 -0.16865080879E+02  0.16865081071E+02  0.25500000000E-02 0. -1.
         11    1    1    2    0    0 -0.77718151852E+02  0.84006622553E+02  0.31309279375E+03  0.33335314796E+03  0.51100000000E-03 0. -1.
         22    1    1    2    0    0 -0.53025337060E+01 -0.14198666774E+02  0.23695741283E+02  0.28128404804E+02  0.00000000000E+00 0. -1.
          2    1    1    2  501    0  0.83020685558E+02 -0.69807955779E+02  0.64643844759E+03  0.65547559180E+03  0.25500000000E-02 0. -1.
<mgrwt>
<rscale>  0 0.40854569E+02</rscale>
<asrwt>0</asrwt>
<pdfrwt beam="1">  1       11 0.10000000E+01 0.11012427E+03</pdfrwt>
<pdfrwt beam="2">  1        2 0.25948666E-02 0.40854569E+02</pdfrwt>
<totfact> 0.37752103E+03</totfact>
</mgrwt>
</event>
<event>
 5    1  0.9955701E-004  0.1092709E+03  0.7818608E-02  0.1406947E+00
         11   -1    0    0    0    0  0.00000000000E+00  0.00000000000E+00  0.10003940829E+04  0.10003940829E+04  0.51100000000E-03 0. -1.
          2   -1    0    0  501    0 -0.00000000000E+00 -0.00000000000E+00 -0.65452741581E+02  0.65452741631E+02  0.25500000000E-02 0. -1.
         11    1    1    2    0    0 -0.10928332560E+03 -0.35018427081E+02  0.68961588781E+03  0.69909885439E+03  0.51100000000E-03 0. -1.
         22    1    1    2    0    0  0.23585693128E+02 -0.19588360468E+02 -0.47643765468E+02  0.56656130950E+02  0.00000000000E+00 0. -1.
          2    1    1    2  501    0  0.85697632474E+02  0.54606787549E+02  0.29296921896E+03  0.31009183918E+03  0.25500000000E-02 0. -1.
<mgrwt>
<rscale>  0 0.57880596E+02</rscale>
<asrwt>0</asrwt>
<pdfrwt beam="1">  1       11 0.10000000E+01 0.10927093E+03</pdfrwt>
<pdfrwt beam="2">  1        2 0.10073621E-01 0.57880596E+02</pdfrwt>
<totfact> 0.71407583E+02</totfact>
</mgrwt>
</event>
<event>
 5    1  0.9955701E-004  0.7659846E+02  0.7818608E-02  0.1607802E+00
         11   -1    0    0    0    0  0.00000000000E+00  0.00000000000E+00  0.10003574583E+04  0.10003574583E+04  0.51100000000E-03 0. -1.
          2   -1    0    0  501    0 -0.00000000000E+00 -0.00000000000E+00 -0.71924614703E+01  0.71924619223E+01  0.25500000000E-02 0. -1.
         11    1    1    2    0    0 -0.67736703336E+02 -0.26252747844E+02  0.43602692242E+03  0.44203726633E+03  0.51100000000E-03 0. -1.
         22    1    1    2    0    0 -0.43857844308E+01 -0.10180529209E+02  0.26014117960E+02  0.28277422324E+02  0.00000000000E+00 0.  1.
          2    1    1    2  501    0  0.72122487767E+02  0.36433277054E+02  0.53112395649E+03  0.53723523161E+03  0.25500000000E-02 0. -1.
<mgrwt>
<rscale>  0 0.29139279E+02</rscale>
<asrwt>0</asrwt>
<pdfrwt beam="1">  1       11 0.10000000E+01 0.76598461E+02</pdfrwt>
<pdfrwt beam="2">  1        2 0.11069281E-02 0.29139279E+02</pdfrwt>
<totfact> 0.10848427E+04</totfact>
</mgrwt>
</event>
<event>
 5    1  0.9955701E-004  0.1319635E+03  0.7818608E-02  0.1511201E+00
         11   -1    0    0    0    0  0.00000000000E+00  0.00000000000E+00  0.10001312248E+04  0.10001312248E+04  0.51100000000E-03 0. -1.
          2   -1    0    0  501    0 -0.00000000000E+00 -0.00000000000E+00 -0.33591070755E+02  0.33591070852E+02  0.25500000000E-02 0. -1.
         11    1    1    2    0    0 -0.76429170390E+02  0.11347544682E+03  0.60305347340E+03  0.61837819083E+03  0.51100000000E-03 0. -1.
         22    1    1    2    0    0  0.93263436862E+01 -0.73609211474E+01 -0.13509805335E+02  0.17991072422E+02  0.00000000000E+00 0.  1.
          2    1    1    2  501    0  0.67102826704E+02 -0.10611452567E+03  0.37699648601E+03  0.39735303243E+03  0.25500000000E-02 0. -1.
<mgrwt>
<rscale>  0 0.39596587E+02</rscale>
<asrwt>0</asrwt>
<pdfrwt beam="1">  1       11 0.10000000E+01 0.13196348E+03</pdfrwt>
<pdfrwt beam="2">  1        2 0.51685351E-02 0.39596587E+02</pdfrwt>
<totfact> 0.15603707E+03</totfact>
</mgrwt>
</event>
<event>
 5    1  0.9955701E-004  0.5073004E+02  0.7818608E-02  0.1488531E+00
         11   -1    0    0    0    0  0.00000000000E+00  0.00000000000E+00  0.10003143174E+04  0.10003143174E+04  0.51100000000E-03 0.  1.
         -2   -1    0    0    0  501 -0.00000000000E+00 -0.00000000000E+00 -0.14024023398E+02  0.14024023630E+02  0.25500000000E-02 0.  1.
         11    1    1    2    0    0 -0.40406856258E+02 -0.39133697374E+02  0.27324322040E+03  0.27897314889E+03  0.51100000000E-03 0.  1.
         22    1    1    2    0    0 -0.11364732919E+02  0.34283033176E+02  0.21845103901E+02  0.42210094557E+02  0.00000000000E+00 0. -1.
         -2    1    1    2    0  501  0.51771589177E+02  0.48506641979E+01  0.69120196968E+03  0.69315509757E+03  0.25500000000E-02 0.  1.
<mgrwt>
<rscale>  0 0.42804766E+02</rscale>
<asrwt>0</asrwt>
<pdfrwt beam="1">  1       11 0.10000000E+01 0.50730036E+02</pdfrwt>
<pdfrwt beam="2">  1       -2 0.21582202E-02 0.42804766E+02</pdfrwt>
<totfact> 0.43537617E+03</totfact>
</mgrwt>
</event>
<event>
 5    1  0.9955701E-004  0.2688810E+03  0.7818608E-02  0.1101922E+00
         11   -1    0    0    0    0  0.00000000000E+00  0.00000000000E+00  0.10004634496E+04  0.10004634496E+04  0.51100000000E-03 0. -1.
          2   -1    0    0  501    0 -0.00000000000E+00 -0.00000000000E+00 -0.13711767884E+03  0.13711767887E+03  0.25500000000E-02 0. -1.
         11    1    1    2    0    0  0.15676606404E+03  0.70603828258E+01  0.31185818649E+03  0.34911456046E+03  0.51100000000E-03 0. -1.
         22    1    1    2    0    0  0.35390860716E+02 -0.24322357881E+03  0.33226559820E+03  0.41329245101E+03  0.00000000000E+00 0. -1.
          2    1    1    2  501    0 -0.19215692476E+03  0.23616319599E+03  0.21922198603E+03  0.37517411696E+03  0.25500000000E-02 0. -1.
<mgrwt>
<rscale>  0 0.26888097E+03</rscale>
<asrwt>0</asrwt>
<pdfrwt beam="1">  1       11 0.10000000E+01 0.15692498E+03</pdfrwt>
<pdfrwt beam="2">  1        2 0.21104803E-01 0.26888097E+03</pdfrwt>
<totfact> 0.32227880E+02</totfact>
</mgrwt>
</event>
<event>
 5    1  0.9955701E-004  0.1696820E+03  0.7818608E-02  0.1395659E+00
         11   -1    0    0    0    0  0.00000000000E+00  0.00000000000E+00  0.10001795245E+04  0.10001795245E+04  0.51100000000E-03 0. -1.
          2   -1    0    0  501    0 -0.00000000000E+00 -0.00000000000E+00 -0.33267468382E+02  0.33267468479E+02  0.25500000000E-02 0. -1.
         11    1    1    2    0    0  0.93070088536E+02  0.14514627380E+03  0.49410026436E+03  0.52332069844E+03  0.51100000000E-03 0. -1.
         22    1    1    2    0    0  0.14028778848E+02 -0.16405884702E+02  0.32224896071E+02  0.38786642231E+02  0.00000000000E+00 0.  1.
          2    1    1    2  501    0 -0.10709886738E+03 -0.12874038910E+03  0.44058689573E+03  0.47133965235E+03  0.25500000000E-02 0. -1.
<mgrwt>
<rscale>  0 0.60520845E+02</rscale>
<asrwt>0</asrwt>
<pdfrwt beam="1">  1       11 0.10000000E+01 0.16968201E+03</pdfrwt>
<pdfrwt beam="2">  1        2 0.51189907E-02 0.60520845E+02</pdfrwt>
<totfact> 0.16521984E+03</totfact>
</mgrwt>
</event>
<event>
 5    1  0.9955701E-004  0.7715340E+02  0.7818608E-02  0.1392217E+00
         11   -1    0    0    0    0  0.00000000000E+00  0.00000000000E+00  0.10002006461E+04  0.10002006461E+04  0.51100000000E-03 0. -1.
          2   -1    0    0  501    0 -0.00000000000E+00 -0.00000000000E+00 -0.16083578643E+02  0.16083578845E+02  0.25500000000E-02 0. -1.
         11    1    1    2    0    0 -0.75884759158E+01  0.50374444107E+02  0.76990265694E+02  0.92318311281E+02  0.51100000000E-03 0. -1.
         22    1    1    2    0    0 -0.45241161623E+02  0.18286959251E+02  0.91035158229E+02  0.10328879715E+03  0.00000000000E+00 0. -1.
          2    1    1    2  501    0  0.52829637539E+02 -0.68661403358E+02  0.81609164350E+03  0.82067711648E+03  0.25500000000E-02 0. -1.
<mgrwt>
<rscale>  0 0.61358575E+02</rscale>
<asrwt>0</asrwt>
<pdfrwt beam="1">  1       11 0.10000000E+01 0.77153395E+02</pdfrwt>
<pdfrwt beam="2">  1        2 0.24748931E-02 0.61358575E+02</pdfrwt>
<totfact> 0.42507105E+03</totfact>
</mgrwt>
</event>
<event>
 5    1  0.9955701E-004  0.2083696E+03  0.7818608E-02  0.1194339E+00
         11   -1    0    0    0    0  0.00000000000E+00  0.00000000000E+00  0.99990872533E+03  0.99990872533E+03  0.51100000000E-03 0.  1.
          2   -1    0    0  501    0 -0.00000000000E+00 -0.00000000000E+00 -0.16968148065E+03  0.16968148067E+03  0.25500000000E-02 0.  1.
         11    1    1    2    0    0  0.16765621611E+03 -0.11213382659E+03  0.66155314628E+03  0.69161778984E+03  0.51100000000E-03 0.  1.
         22    1    1    2    0    0  0.83140858380E+02  0.80106720018E+02 -0.66022461347E+02  0.13299794858E+03  0.00000000000E+00 0.  1.
          2    1    1    2  501    0 -0.25079707449E+03  0.32027106567E+02  0.23469655974E+03  0.34497446759E+03  0.25500000000E-02 0.  1.
<mgrwt>
<rscale>  0 0.15510311E+03</rscale>
<asrwt>0</asrwt>
<pdfrwt beam="1">  1       11 0.10000000E+01 0.20836955E+03</pdfrwt>
<pdfrwt beam="2">  1        2 0.26102460E-01 0.15510311E+03</pdfrwt>
<totfact> 0.25051645E+02</totfact>
</mgrwt>
</event>
<event>
 5    1  0.9955701E-004  0.1321675E+03  0.7818608E-02  0.1373188E+00
         11   -1    0    0    0    0  0.00000000000E+00  0.00000000000E+00  0.10004123606E+04  0.10004123606E+04  0.51100000000E-03 0.  1.
          2   -1    0    0  501    0 -0.00000000000E+00 -0.00000000000E+00 -0.38878292780E+02  0.38878292864E+02  0.25500000000E-02 0.  1.
         11    1    1    2    0    0 -0.13452041428E+03 -0.15936920494E+02  0.65228162038E+03  0.66619894895E+03  0.51100000000E-03 0.  1.
         22    1    1    2    0    0  0.14260457876E+02 -0.30033674084E+02 -0.48762568594E+01  0.33602977826E+02  0.00000000000E+00 0.  1.
          2    1    1    2  501    0  0.12025995640E+03  0.45970594578E+02  0.31412870431E+03  0.33948872670E+03  0.25500000000E-02 0.  1.
<mgrwt>
<rscale>  0 0.66288853E+02</rscale>
<asrwt>0</asrwt>
<pdfrwt beam="1">  1       11 0.10000000E+01 0.13216753E+03</pdfrwt>
<pdfrwt beam="2">  1        2 0.59837421E-02 0.66288853E+02</pdfrwt>
<totfact> 0.13680685E+03</totfact>
</mgrwt>
</event>
<event>
 5    1  0.9955701E-004  0.1952657E+03  0.7818608E-02  0.1351805E+00
         11   -1    0    0    0    0  0.00000000000E+00  0.00000000000E+00  0.10000396579E+04  0.10000396579E+04  0.51100000000E-03 0. -1.
         -2   -1    0    0    0  501 -0.00000000000E+00 -0.00000000000E+00 -0.63398804094E+02  0.63398804146E+02  0.25500000000E-02 0.  1.
         11    1    1    2    0    0 -0.10695797476E+03 -0.15623117561E+03  0.64752393539E+03  0.67463726217E+03  0.51100000000E-03 0. -1.
         22    1    1    2    0    0 -0.25971037125E+02 -0.70675725944E+01 -0.47023163339E+01  0.27323197665E+02  0.00000000000E+00 0. -1.
         -2    1    1    2    0  501  0.13292901189E+03  0.16329874821E+03  0.29381923473E+03  0.36147800219E+03  0.25500000000E-02 0.  1.
<mgrwt>
<rscale>  0 0.72496048E+02</rscale>
<asrwt>0</asrwt>
<pdfrwt beam="1">  1       11 0.10000000E+01 0.19526565E+03</pdfrwt>
<pdfrwt beam="2">  1       -2 0.97540487E-02 0.72496048E+02</pdfrwt>
<totfact> 0.50872391E+02</totfact>
</mgrwt>
</event>
<event>
 5    1  0.9955701E-004  0.2901209E+03  0.7818608E-02  0.1090286E+00
         11   -1    0    0    0    0  0.00000000000E+00  0.00000000000E+00  0.10000529736E+04  0.10000529736E+04  0.51100000000E-03 0.  1.
         -2   -1    0    0    0  501 -0.00000000000E+00 -0.00000000000E+00 -0.84254495367E+02  0.84254495406E+02  0.25500000000E-02 0.  1.
         11    1    1    2    0    0 -0.19271866537E+03 -0.20722014687E+03  0.36582170213E+03  0.46249993621E+03  0.51100000000E-03 0.  1.
         22    1    1    2    0    0  0.49418536069E+02  0.22169312407E+02  0.13354420011E+03  0.14411010896E+03  0.00000000000E+00 0. -1.
         -2    1    1    2    0  501  0.14330012930E+03  0.18505083446E+03  0.41643257603E+03  0.47769742388E+03  0.25500000000E-02 0.  1.
<mgrwt>
<rscale>  0 0.29012093E+03</rscale>
<asrwt>0</asrwt>
<pdfrwt beam="1">  1       11 0.10000000E+01 0.28298543E+03</pdfrwt>
<pdfrwt beam="2">  1       -2 0.12962916E-01 0.29012093E+03</pdfrwt>
<totfact> 0.34975585E+02</totfact>
</mgrwt>
</event>
<event>
 5    1  0.9955701E-004  0.1741388E+03  0.7818608E-02  0.1173599E+00
         11   -1    0    0    0    0  0.00000000000E+00  0.00000000000E+00  0.10002228948E+04  0.10002228948E+04  0.51100000000E-03 0. -1.
          2   -1    0    0  501    0 -0.00000000000E+00 -0.00000000000E+00 -0.28644650632E+02  0.28644650745E+02  0.25500000000E-02 0. -1.
         11    1    1    2    0    0 -0.15425285879E+03 -0.56522019680E+02  0.48482725721E+03  0.51190443687E+03  0.51100000000E-03 0. -1.
         22    1    1    2    0    0  0.27363978362E+02  0.76884285227E+01  0.34412718463E+02  0.44633333249E+02  0.00000000000E+00 0. -1.
          2    1    1    2  501    0  0.12688888043E+03  0.48833591158E+02  0.45233826850E+03  0.47232977543E+03  0.25500000000E-02 0. -1.
<mgrwt>
<rscale>  0 0.17413883E+03</rscale>
<asrwt>0</asrwt>
<pdfrwt beam="1">  1       11 0.10000000E+01 0.16428233E+03</pdfrwt>
<pdfrwt beam="2">  1        2 0.44078515E-02 0.17413883E+03</pdfrwt>
<totfact> 0.22078277E+03</totfact>
</mgrwt>
</event>
<event>
 5    1  0.9955701E-004  0.3118425E+03  0.7818608E-02  0.1081329E+00
         11   -1    0    0    0    0  0.00000000000E+00  0.00000000000E+00  0.10004801409E+04  0.10004801409E+04  0.51100000000E-03 0. -1.
          2   -1    0    0  501    0 -0.00000000000E+00 -0.00000000000E+00 -0.97107674327E+02  0.97107674361E+02  0.25500000000E-02 0. -1.
         11    1    1    2    0    0  0.25418998695E+03  0.15731615084E+03  0.50460311568E+03  0.58650253634E+03  0.51100000000E-03 0. -1.
         22    1    1    2    0    0  0.41666686148E+01  0.10285580442E+02  0.86966550939E+01  0.14099152535E+02  0.00000000000E+00 0. -1.
          2    1    1    2  501    0 -0.25835665556E+03 -0.16760173129E+03  0.39007269578E+03  0.49698612637E+03  0.25500000000E-02 0. -1.
<mgrwt>
<rscale>  0 0.30795860E+03</rscale>
<asrwt>0</asrwt>
<pdfrwt beam="1">  1       11 0.10000000E+01 0.31184248E+03</pdfrwt>
<pdfrwt beam="2">  1        2 0.14946815E-01 0.30795860E+03</pdfrwt>
<totfact> 0.48457217E+02</totfact>
</mgrwt>
</event>
<event>
 5    1  0.9955701E-004  0.1680036E+03  0.7818608E-02  0.1342103E+00
         11   -1    0    0    0    0  0.00000000000E+00  0.00000000000E+00  0.10000377771E+04  0.10000377771E+04  0.51100000000E-03 0. -1.
          2   -1    0    0  501    0 -0.00000000000E+00 -0.00000000000E+00 -0.49204235953E+03  0.49204235954E+03  0.25500000000E-02 0.  1.
         11    1    1    2    0    0  0.63648889538E+02  0.15553561487E+03  0.96911051015E+03  0.98357393698E+03  0.51100000000E-03 0. -1.
         22    1    1    2    0    0  0.30452840176E+02 -0.15111090016E+02 -0.15632701210E+03  0.15998079644E+03  0.00000000000E+00 0. -1.
          2    1    1    2  501    0 -0.94101729714E+02 -0.14042452485E+03 -0.30478808045E+03  0.34852540324E+03  0.25500000000E-02 0.  1.
<mgrwt>
<rscale>  0 0.75574011E+02</rscale>
<asrwt>0</asrwt>
<pdfrwt beam="1">  1       11 0.10000000E+01 0.16800358E+03</pdfrwt>
<pdfrwt beam="2">  1        2 0.75701682E-01 0.75574011E+02</pdfrwt>
<totfact> 0.80383258E+01</totfact>
</mgrwt>
</event>
<event>
 5    1  0.9955701E-004  0.8157484E+02  0.7818608E-02  0.1480053E+00
         11   -1    0    0    0    0  0.00000000000E+00  0.00000000000E+00  0.10003999533E+04  0.10003999533E+04  0.51100000000E-03 0.  1.
          2   -1    0    0  501    0 -0.00000000000E+00 -0.00000000000E+00 -0.30775216083E+02  0.30775216189E+02  0.25500000000E-02 0.  1.
         11    1    1    2    0    0  0.71375354093E+01 -0.78518973839E+02  0.43114415676E+03  0.43829380280E+03  0.51100000000E-03 0.  1.
         22    1    1    2    0    0 -0.23180177780E+02 -0.55637298979E+01 -0.17990390737E+02  0.29865195314E+02  0.00000000000E+00 0.  1.
          2    1    1    2  501    0  0.16042642371E+02  0.84082703737E+02  0.55647097123E+03  0.56301617141E+03  0.25500000000E-02 0.  1.
<mgrwt>
<rscale>  0 0.44097888E+02</rscale>
<asrwt>0</asrwt>
<pdfrwt beam="1">  1       11 0.10000000E+01 0.81574843E+02</pdfrwt>
<pdfrwt beam="2">  1        2 0.47365421E-02 0.44097888E+02</pdfrwt>
<totfact> 0.17624358E+03</totfact>
</mgrwt>
</event>
<event>
 5    1  0.9955701E-004  0.5945873E+02  0.7818608E-02  0.1400117E+00
         11   -1    0    0    0    0  0.00000000000E+00  0.00000000000E+00  0.99966189348E+03  0.99966189348E+03  0.51100000000E-03 0.  1.
          2   -1    0    0  501    0 -0.00000000000E+00 -0.00000000000E+00 -0.70553578317E+01  0.70553582925E+01  0.25500000000E-02 0.  1.
         11    1    1    2    0    0 -0.21221259183E+02  0.10473703356E+00  0.78232157853E+02  0.81059381528E+02  0.51100000000E-03 0.  1.
         22    1    1    2    0    0  0.63760702860E+02  0.73620609282E+01  0.20148061357E+03  0.21145700465E+03  0.00000000000E+00 0.  1.
          2    1    1    2  501    0 -0.42539443677E+02 -0.74667979618E+01  0.71289376423E+03  0.71420086560E+03  0.25500000000E-02 0.  1.
<mgrwt>
<rscale>  0 0.59458732E+02</rscale>
<asrwt>0</asrwt>
<pdfrwt beam="1">  1       11 0.10000000E+01 0.21221528E+02</pdfrwt>
<pdfrwt beam="2">  1        2 0.10850727E-02 0.59458732E+02</pdfrwt>
<totfact> 0.12739862E+04</totfact>
</mgrwt>
</event>
<event>
 5    1  0.9955701E-004  0.3950582E+03  0.7818608E-02  0.1126806E+00
         11   -1    0    0    0    0  0.00000000000E+00  0.00000000000E+00  0.10005033944E+04  0.10005033944E+04  0.51100000000E-03 0. -1.
          2   -1    0    0  501    0 -0.00000000000E+00 -0.00000000000E+00 -0.55090590613E+03  0.55090590614E+03  0.25500000000E-02 0. -1.
         11    1    1    2    0    0 -0.31725635888E+03 -0.21231707354E+03  0.71722620548E+03  0.81249219491E+03  0.51100000000E-03 0. -1.
         22    1    1    2    0    0 -0.12787831140E+03  0.38782619560E+02 -0.22181979272E+03  0.25896133794E+03  0.00000000000E+00 0. -1.
          2    1    1    2  501    0  0.44513467028E+03  0.17353445398E+03 -0.45808924461E+02  0.47995576772E+03  0.25500000000E-02 0. -1.
<mgrwt>
<rscale>  0 0.22976422E+03</rscale>
<asrwt>0</asrwt>
<pdfrwt beam="1">  1       11 0.10000000E+01 0.39505823E+03</pdfrwt>
<pdfrwt beam="2">  1        2 0.84797417E-01 0.22976422E+03</pdfrwt>
<totfact> 0.69641148E+01</totfact>
</mgrwt>
</event>
<event>
 5    1  0.2426233E-003  0.3885118E+03  0.7818608E-02  0.1360689E+00
         11   -1    0    0    0    0  0.00000000000E+00  0.00000000000E+00  0.99991110890E+03  0.99991110890E+03  0.51100000000E-03 0.  1.
         -2   -1    0    0    0  501 -0.00000000000E+00 -0.00000000000E+00 -0.97437396918E+03  0.97437396918E+03  0.25500000000E-02 0.  1.
         11    1    1    2    0    0  0.11769984078E+02 -0.38815422177E+03  0.91537297815E+03  0.99433893695E+03  0.51100000000E-03 0.  1.
         22    1    1    2    0    0  0.11978822883E+02 -0.37405376408E+01 -0.67953274607E+02  0.69102325209E+02  0.00000000000E+00 0. -1.
         -2    1    1    2    0  501 -0.23748806961E+02  0.39189475941E+03 -0.82188256382E+03  0.91084381592E+03  0.25500000000E-02 0.  1.
<mgrwt>
<rscale>  0 0.69825020E+02</rscale>
<asrwt>0</asrwt>
<pdfrwt beam="1">  1       11 0.10000000E+01 0.38851176E+03</pdfrwt>
<pdfrwt beam="2">  1       -2 0.14989036E+00 0.69825020E+02</pdfrwt>
<totfact> 0.27569736E+00</totfact>
</mgrwt>
</event>
<event>
 5    1  0.1046521E-003  0.1951694E+03  0.7818608E-02  0.1351920E+00
         11   -1    0    0    0    0  0.00000000000E+00  0.00000000000E+00  0.10001045685E+04  0.10001045685E+04  0.51100000000E-03 0.  1.
         -2   -1    0    0    0  501 -0.00000000000E+00 -0.00000000000E+00 -0.48929344184E+03  0.48929344185E+03  0.25500000000E-02 0. -1.
         11    1    1    2    0    0 -0.50696232087E+02 -0.18800813499E+03  0.95618423636E+03  0.97581015604E+03  0.51100000000E-03 0.  1.
         22    1    1    2    0    0  0.16756703672E+02 -0.21046499021E+02 -0.13618794667E+03  0.13881966380E+03  0.00000000000E+00 0.  1.
         -2    1    1    2    0  501  0.33939528415E+02  0.20905463401E+03 -0.30918516302E+03  0.37476819052E+03  0.25500000000E-02 0. -1.
<mgrwt>
<rscale>  0 0.72460583E+02</rscale>
<asrwt>0</asrwt>
<pdfrwt beam="1">  1       11 0.10000000E+01 0.19516938E+03</pdfrwt>
<pdfrwt beam="2">  1       -2 0.75283783E-01 0.72460583E+02</pdfrwt>
<totfact> 0.13517862E+01</totfact>
</mgrwt>
</event>
<event>
 5    1  0.9955701E-004  0.1984029E+03  0.7818608E-02  0.1438945E+00
         11   -1    0    0    0    0  0.00000000000E+00  0.00000000000E+00  0.99984092104E+03  0.99984092104E+03  0.51100000000E-03 0.  1.
          2   -1    0    0  501    0 -0.00000000000E+00 -0.00000000000E+00 -0.96781162499E+02  0.96781162532E+02  0.25500000000E-02 0.  1.
         11    1    1    2    0    0 -0.10372276960E+03 -0.16865022794E+03  0.85025723138E+03  0.87300553941E+03  0.51100000000E-03 0.  1.
         22    1    1    2    0    0 -0.12564686707E+02  0.40964309936E+01 -0.47807871451E+01  0.14053754824E+02  0.00000000000E+00 0.  1.
          2    1    1    2  501    0  0.11628745631E+03  0.16455379694E+03  0.57583314305E+02  0.20956278934E+03  0.25500000000E-02 0.  1.
<mgrwt>
<rscale>  0 0.51205606E+02</rscale>
<asrwt>0</asrwt>
<pdfrwt beam="1">  1       11 0.10000000E+01 0.19840294E+03</pdfrwt>
<pdfrwt beam="2">  1        2 0.14887041E-01 0.51205606E+02</pdfrwt>
<totfact> 0.44965448E+02</totfact>
</mgrwt>
</event>
<event>
 5    1  0.9955701E-004  0.1571342E+03  0.7818608E-02  0.1452287E+00
         11   -1    0    0    0    0  0.00000000000E+00  0.00000000000E+00  0.10000866940E+04  0.10000866940E+04  0.51100000000E-03 0. -1.
          2   -1    0    0  501    0 -0.00000000000E+00 -0.00000000000E+00 -0.14095631006E+03  0.14095631009E+03  0.25500000000E-02 0. -1.
         11    1    1    2    0    0 -0.86993542212E+02 -0.13156235393E+03  0.94164685369E+03  0.95476453978E+03  0.51100000000E-03 0. -1.
         22    1    1    2    0    0 -0.32991598057E+01  0.14750623950E+02 -0.22055074575E+02  0.26737458309E+02  0.00000000000E+00 0. -1.
          2    1    1    2  501    0  0.90292702018E+02  0.11681172998E+03 -0.60461395142E+02  0.15954100603E+03  0.25500000000E-02 0. -1.
<mgrwt>
<rscale>  0 0.48734940E+02</rscale>
<asrwt>0</asrwt>
<pdfrwt beam="1">  1       11 0.10000000E+01 0.15713419E+03</pdfrwt>
<pdfrwt beam="2">  1        2 0.21687466E-01 0.48734940E+02</pdfrwt>
<totfact> 0.29558264E+02</totfact>
</mgrwt>
</event>
<event>
 5    1  0.9955701E-004  0.9608074E+02  0.7818608E-02  0.1288760E+00
         11   -1    0    0    0    0  0.00000000000E+00  0.00000000000E+00  0.10001642105E+04  0.10001642105E+04  0.51100000000E-03 0.  1.
         -2   -1    0    0    0  501 -0.00000000000E+00 -0.00000000000E+00 -0.64495670914E+02  0.64495670965E+02  0.25500000000E-02 0.  1.
         11    1    1    2    0    0 -0.67667712635E+02 -0.59697731669E+02  0.23645738686E+03  0.25309056541E+03  0.51100000000E-03 0.  1.
         22    1    1    2    0    0 -0.58472285196E+02  0.76529874764E+02 -0.45271300245E+01  0.96417450566E+02  0.00000000000E+00 0.  1.
         -2    1    1    2    0  501  0.12613999783E+03 -0.16832143095E+02  0.70373828276E+03  0.71515186550E+03  0.25500000000E-02 0.  1.
<mgrwt>
<rscale>  0 0.96080743E+02</rscale>
<asrwt>0</asrwt>
<pdfrwt beam="1">  1       11 0.10000000E+01 0.90237124E+02</pdfrwt>
<pdfrwt beam="2">  1       -2 0.99240400E-02 0.96080743E+02</pdfrwt>
<totfact> 0.50525422E+02</totfact>
</mgrwt>
</event>
<event>
 5    1  0.9955701E-004  0.1553247E+03  0.7818608E-02  0.1350048E+00
         11   -1    0    0    0    0  0.00000000000E+00  0.00000000000E+00  0.10001626876E+04  0.10001626876E+04  0.51100000000E-03 0. -1.
          2   -1    0    0  501    0 -0.00000000000E+00 -0.00000000000E+00 -0.34042927128E+02  0.34042927224E+02  0.25500000000E-02 0. -1.
         11    1    1    2    0    0  0.20804639488E+02  0.16588741515E+03  0.43195307367E+03  0.46317915042E+03  0.51100000000E-03 0. -1.
         22    1    1    2    0    0 -0.29342946200E+02 -0.17852460782E+02  0.30325543679E+02  0.45818745586E+02  0.00000000000E+00 0.  1.
          2    1    1    2  501    0  0.85383067117E+01 -0.14803495437E+03  0.50384114314E+03  0.52520771884E+03  0.25500000000E-02 0. -1.
<mgrwt>
<rscale>  0 0.73040678E+02</rscale>
<asrwt>0</asrwt>
<pdfrwt beam="1">  1       11 0.10000000E+01 0.15532471E+03</pdfrwt>
<pdfrwt beam="2">  1        2 0.52382253E-02 0.73040678E+02</pdfrwt>
<totfact> 0.16340821E+03</totfact>
</mgrwt>
</event>
<event>
 5    1  0.9955701E-004  0.1510084E+03  0.7818608E-02  0.1463590E+00
         11   -1    0    0    0    0  0.00000000000E+00  0.00000000000E+00  0.10004131633E+04  0.10004131633E+04  0.51100000000E-03 0. -1.
          2   -1    0    0  501    0 -0.00000000000E+00 -0.00000000000E+00 -0.53604628480E+02  0.53604628540E+02  0.25500000000E-02 0. -1.
         11    1    1    2    0    0 -0.10624634712E+03  0.11111047432E+03  0.79005760485E+03  0.80487566914E+03  0.51100000000E-03 0. -1.
         22    1    1    2    0    0  0.14151043225E+02 -0.30925392509E+01 -0.18576229029E+02  0.23556147994E+02  0.00000000000E+00 0.  1.
          2    1    1    2  501    0  0.92095303891E+02 -0.10801793507E+03  0.17532715895E+03  0.22558597467E+03  0.25500000000E-02 0. -1.
<mgrwt>
<rscale>  0 0.46769212E+02</rscale>
<asrwt>0</asrwt>
<pdfrwt beam="1">  1       11 0.10000000E+01 0.15100836E+03</pdfrwt>
<pdfrwt beam="2">  1        2 0.82502730E-02 0.46769212E+02</pdfrwt>
<totfact> 0.89246345E+02</totfact>
</mgrwt>
</event>
<event>
 5    1  0.9955701E-004  0.1126956E+03  0.7818608E-02  0.1255658E+00
         11   -1    0    0    0    0  0.00000000000E+00  0.00000000000E+00  0.10000705763E+04  0.10000705763E+04  0.51100000000E-03 0.  1.
         -2   -1    0    0    0  501 -0.00000000000E+00 -0.00000000000E+00 -0.13974330649E+02  0.13974330882E+02  0.25500000000E-02 0.  1.
         11    1    1    2    0    0  0.10992452516E+03  0.75543242648E+01  0.65730960245E+03  0.66648059426E+03  0.51100000000E-03 0.  1.
         22    1    1    2    0    0 -0.10415901325E+02  0.26355590687E+01  0.16869595506E+02  0.20000510608E+02  0.00000000000E+00 0.  1.
         -2    1    1    2    0  501 -0.99508623833E+02 -0.10189883333E+02  0.31191704768E+03  0.32756380230E+03  0.25500000000E-02 0.  1.
<mgrwt>
<rscale>  0 0.11269558E+03</rscale>
<asrwt>0</asrwt>
<pdfrwt beam="1">  1       11 0.10000000E+01 0.11018380E+03</pdfrwt>
<pdfrwt beam="2">  1       -2 0.21500487E-02 0.11269558E+03</pdfrwt>
<totfact> 0.50171827E+03</totfact>
</mgrwt>
</event>
<event>
 5    1  0.9955701E-004  0.7746168E+02  0.7818608E-02  0.1523039E+00
         11   -1    0    0    0    0  0.00000000000E+00  0.00000000000E+00  0.10001116623E+04  0.10001116623E+04  0.51100000000E-03 0.  1.
          2   -1    0    0  501    0 -0.00000000000E+00 -0.00000000000E+00 -0.13030604921E+02  0.13030605170E+02  0.25500000000E-02 0.  1.
         11    1    1    2    0    0  0.78719734545E+02 -0.41969786421E+02  0.42129019302E+03  0.43063172934E+03  0.51100000000E-03 0.  1.
         22    1    1    2    0    0 -0.18453524109E+02  0.29932218132E+01  0.83610522820E+01  0.20479236415E+02  0.00000000000E+00 0.  1.
          2    1    1    2  501    0 -0.60266210435E+02  0.38976564608E+02  0.55742981209E+03  0.56203130173E+03  0.25500000000E-02 0.  1.
<mgrwt>
<rscale>  0 0.38054203E+02</rscale>
<asrwt>0</asrwt>
<pdfrwt beam="1">  1       11 0.10000000E+01 0.77461678E+02</pdfrwt>
<pdfrwt beam="2">  1        2 0.20049323E-02 0.38054203E+02</pdfrwt>
<totfact> 0.52270193E+03</totfact>
</mgrwt>
</event>
<event>
 5    1  0.9955701E-004  0.1620527E+03  0.7818608E-02  0.1364958E+00
         11   -1    0    0    0    0  0.00000000000E+00  0.00000000000E+00  0.99997355879E+03  0.99997355879E+03  0.51100000000E-03 0. -1.
          2   -1    0    0  501    0 -0.00000000000E+00 -0.00000000000E+00 -0.82302613665E+02  0.82302613705E+02  0.25500000000E-02 0. -1.
         11    1    1    2    0    0 -0.16256204830E+03 -0.45808193647E+02  0.80964047527E+03  0.82706862433E+03  0.51100000000E-03 0. -1.
         22    1    1    2    0    0  0.28828980283E+02  0.34141788510E+01 -0.41191193266E+02  0.50393264670E+02  0.00000000000E+00 0. -1.
          2    1    1    2  501    0  0.13373306802E+03  0.42394014796E+02  0.14922166313E+03  0.20481428350E+03  0.25500000000E-02 0. -1.
<mgrwt>
<rscale>  0 0.68589078E+02</rscale>
<asrwt>0</asrwt>
<pdfrwt beam="1">  1       11 0.10000000E+01 0.16205269E+03</pdfrwt>
<pdfrwt beam="2">  1        2 0.12661605E-01 0.68589078E+02</pdfrwt>
<totfact> 0.55114227E+02</totfact>
</mgrwt>
</event>
<event>
 5    1  0.9955701E-004  0.8055508E+02  0.7818608E-02  0.1528003E+00
         11   -1    0    0    0    0  0.00000000000E+00  0.00000000000E+00  0.10000902151E+04  0.10000902151E+04  0.51100000000E-03 0. -1.
          2   -1    0    0  501    0 -0.00000000000E+00 -0.00000000000E+00 -0.11392446199E+02  0.11392446485E+02  0.25500000000E-02 0. -1.
         11    1    1    2    0    0  0.77933944095E+01  0.87956759401E+02  0.44257129752E+03  0.45129422987E+03  0.51100000000E-03 0. -1.
         22    1    1    2    0    0 -0.12600832614E+02 -0.11990673550E+02  0.13154064956E+02  0.21807949459E+02  0.00000000000E+00 0. -1.
          2    1    1    2  501    0  0.48074382047E+01 -0.75966085851E+02  0.53297240638E+03  0.53838048222E+03  0.25500000000E-02 0. -1.
<mgrwt>
<rscale>  0 0.37432448E+02</rscale>
<asrwt>0</asrwt>
<pdfrwt beam="1">  1       11 0.10000000E+01 0.80555076E+02</pdfrwt>
<pdfrwt beam="2">  1        2 0.17528421E-02 0.37432448E+02</pdfrwt>
<totfact> 0.62163069E+03</totfact>
</mgrwt>
</event>
<event>
 5    1  0.9955701E-004  0.1385723E+03  0.7818608E-02  0.1215263E+00
         11   -1    0    0    0    0  0.00000000000E+00  0.00000000000E+00  0.10000379934E+04  0.10000379934E+04  0.51100000000E-03 0. -1.
          2   -1    0    0  501    0 -0.00000000000E+00 -0.00000000000E+00 -0.25906046771E+02  0.25906046897E+02  0.25500000000E-02 0. -1.
         11    1    1    2    0    0 -0.73628530592E+02  0.10723021745E+03  0.75886403977E+03  0.76993123778E+03  0.51100000000E-03 0. -1.
         22    1    1    2    0    0  0.22671482114E+02 -0.84533596586E+01  0.20276954199E+02  0.31569134647E+02  0.00000000000E+00 0. -1.
          2    1    1    2  501    0  0.50957048478E+02 -0.98776857788E+02  0.19499095270E+03  0.22444366791E+03  0.25500000000E-02 0. -1.
<mgrwt>
<rscale>  0 0.13857230E+03</rscale>
<asrwt>0</asrwt>
<pdfrwt beam="1">  1       11 0.10000000E+01 0.13007490E+03</pdfrwt>
<pdfrwt beam="2">  1        2 0.39856970E-02 0.13857230E+03</pdfrwt>
<totfact> 0.24739207E+03</totfact>
</mgrwt>
</event>
<event>
 5    1  0.9955701E-004  0.3163540E+03  0.7818608E-02  0.1301569E+00
         11   -1    0    0    0    0  0.00000000000E+00  0.00000000000E+00  0.10000012528E+04  0.10000012528E+04  0.51100000000E-03 0.  1.
          2   -1    0    0  501    0 -0.00000000000E+00 -0.00000000000E+00 -0.11753033216E+03  0.11753033219E+03  0.25500000000E-02 0.  1.
         11    1    1    2    0    0  0.30650958859E+03 -0.55565211727E+02  0.54242631044E+03  0.62550933079E+03  0.51100000000E-03 0.  1.
         22    1    1    2    0    0  0.79550613703E+01 -0.24656275477E+02  0.66385753574E+01  0.26744823884E+02  0.00000000000E+00 0.  1.
          2    1    1    2  501    0 -0.31446464996E+03  0.80221487205E+02  0.33340603484E+03  0.46527743031E+03  0.25500000000E-02 0.  1.
<mgrwt>
<rscale>  0 0.90531989E+02</rscale>
<asrwt>0</asrwt>
<pdfrwt beam="1">  1       11 0.10000000E+01 0.31635399E+03</pdfrwt>
<pdfrwt beam="2">  1        2 0.18081612E-01 0.90531989E+02</pdfrwt>
<totfact> 0.37098505E+02</totfact>
</mgrwt>
</event>
<event>
 5    1  0.9955701E-004  0.1275808E+03  0.7818608E-02  0.1471573E+00
         11   -1    0    0    0    0  0.00000000000E+00  0.00000000000E+00  0.10000611701E+04  0.10000611701E+04  0.51100000000E-03 0. -1.
          2   -1    0    0  501    0 -0.00000000000E+00 -0.00000000000E+00 -0.20548983158E+02  0.20548983316E+02  0.25500000000E-02 0. -1.
         11    1    1    2    0    0  0.48094896099E+02  0.12603189823E+03  0.58272727859E+03  0.59813730833E+03  0.51100000000E-03 0. -1.
         22    1    1    2    0    0 -0.28366650815E+01 -0.15938438468E+02  0.13339966245E+02  0.20977015732E+02  0.00000000000E+00 0. -1.
          2    1    1    2  501    0 -0.45258231018E+02 -0.11009345976E+03  0.38344494211E+03  0.40149582936E+03  0.25500000000E-02 0. -1.
<mgrwt>
<rscale>  0 0.45446599E+02</rscale>
<asrwt>0</asrwt>
<pdfrwt beam="1">  1       11 0.10000000E+01 0.12758083E+03</pdfrwt>
<pdfrwt beam="2">  1        2 0.31615753E-02 0.45446599E+02</pdfrwt>
<totfact> 0.29657476E+03</totfact>
</mgrwt>
</event>
<event>
 5    1  0.9955701E-004  0.1255073E+03  0.7818608E-02  0.1237809E+00
         11   -1    0    0    0    0  0.00000000000E+00  0.00000000000E+00  0.99995531589E+03  0.99995531589E+03  0.51100000000E-03 0. -1.
          2   -1    0    0  501    0 -0.00000000000E+00 -0.00000000000E+00 -0.17589233426E+02  0.17589233611E+02  0.25500000000E-02 0. -1.
         11    1    1    2    0    0  0.83674481472E+02 -0.72780076182E+02  0.30008842870E+03  0.31992409002E+03  0.51100000000E-03 0. -1.
         22    1    1    2    0    0  0.11572483405E+02 -0.54615042350E+01  0.18497134052E+02  0.22492095696E+02  0.00000000000E+00 0. -1.
          2    1    1    2  501    0 -0.95246964876E+02  0.78241580417E+02  0.66378051971E+03  0.67512836378E+03  0.25500000000E-02 0. -1.
<mgrwt>
<rscale>  0 0.12326285E+03</rscale>
<asrwt>0</asrwt>
<pdfrwt beam="1">  1       11 0.10000000E+01 0.12550730E+03</pdfrwt>
<pdfrwt beam="2">  1        2 0.27059149E-02 0.12326285E+03</pdfrwt>
<totfact> 0.41031834E+03</totfact>
</mgrwt>
</event>
<event>
 5    1  0.9955701E-004  0.2473705E+03  0.7818608E-02  0.1190970E+00
         11   -1    0    0    0    0  0.00000000000E+00  0.00000000000E+00  0.10000956530E+04  0.10000956530E+04  0.51100000000E-03 0.  1.
          2   -1    0    0  501    0 -0.00000000000E+00 -0.00000000000E+00 -0.10477192553E+03  0.10477192556E+03  0.25500000000E-02 0.  1.
         11    1    1    2    0    0  0.92651145772E+02 -0.27549119473E+03  0.57571817682E+03  0.64492716822E+03  0.51100000000E-03 0.  1.
         22    1    1    2    0    0  0.18353429055E+02  0.99238481580E+02  0.34097658128E+02  0.10652593522E+03  0.00000000000E+00 0.  1.
          2    1    1    2  501    0 -0.11100457483E+03  0.17625271315E+03  0.28550789248E+03  0.35341447508E+03  0.25500000000E-02 0.  1.
<mgrwt>
<rscale>  0 0.15800305E+03</rscale>
<asrwt>0</asrwt>
<pdfrwt beam="1">  1       11 0.10000000E+01 0.24737054E+03</pdfrwt>
<pdfrwt beam="2">  1        2 0.16120299E-01 0.15800305E+03</pdfrwt>
<totfact> 0.43270314E+02</totfact>
</mgrwt>
</event>
<event>
 5    1  0.9955701E-004  0.1749161E+03  0.7818608E-02  0.1382373E+00
         11   -1    0    0    0    0  0.00000000000E+00  0.00000000000E+00  0.99984527294E+03  0.99984527294E+03  0.51100000000E-03 0.  1.
          2   -1    0    0  501    0 -0.00000000000E+00 -0.00000000000E+00 -0.92696392195E+02  0.92696392230E+02  0.25500000000E-02 0.  1.
         11    1    1    2    0    0 -0.28968744921E+02 -0.16965348678E+03  0.83432046420E+03  0.85188739323E+03  0.51100000000E-03 0.  1.
         22    1    1    2    0    0 -0.80481997597E+00 -0.23289112196E+02 -0.13787306654E+02  0.27076194468E+02  0.00000000000E+00 0. -1.
          2    1    1    2  501    0  0.29773564897E+02  0.19294259898E+03  0.86615723204E+02  0.21357807748E+03  0.25500000000E-02 0.  1.
<mgrwt>
<rscale>  0 0.63844134E+02</rscale>
<asrwt>0</asrwt>
<pdfrwt beam="1">  1       11 0.10000000E+01 0.17491615E+03</pdfrwt>
<pdfrwt beam="2">  1        2 0.14258776E-01 0.63844134E+02</pdfrwt>
<totfact> 0.47828078E+02</totfact>
</mgrwt>
</event>
<event>
 5    1  0.9955701E-004  0.1097114E+03  0.7818608E-02  0.1413818E+00
         11   -1    0    0    0    0  0.00000000000E+00  0.00000000000E+00  0.10001838134E+04  0.10001838134E+04  0.51100000000E-03 0.  1.
          2   -1    0    0  501    0 -0.00000000000E+00 -0.00000000000E+00 -0.19890152942E+02  0.19890153106E+02  0.25500000000E-02 0.  1.
         11    1    1    2    0    0  0.54710391343E+02  0.87427375260E+02  0.52828170324E+03  0.53825489393E+03  0.51100000000E-03 0.  1.
         22    1    1    2    0    0 -0.10755224390E+02  0.26870562011E+02  0.27233480611E+02  0.39741218157E+02  0.00000000000E+00 0.  1.
          2    1    1    2  501    0 -0.43955166953E+02 -0.11429793727E+03  0.42477847657E+03  0.44207785437E+03  0.25500000000E-02 0.  1.
<mgrwt>
<rscale>  0 0.56350567E+02</rscale>
<asrwt>0</asrwt>
<pdfrwt beam="1">  1       11 0.10000000E+01 0.10971142E+03</pdfrwt>
<pdfrwt beam="2">  1        2 0.30605859E-02 0.56350567E+02</pdfrwt>
<totfact> 0.31804106E+03</totfact>
</mgrwt>
</event>
<event>
 5    1  0.9955701E-004  0.4575825E+02  0.7818608E-02  0.1598037E+00
         11   -1    0    0    0    0  0.00000000000E+00  0.00000000000E+00  0.10002402900E+04  0.10002402900E+04  0.51100000000E-03 0. -1.
          2   -1    0    0  501    0 -0.00000000000E+00 -0.00000000000E+00 -0.64567274327E+02  0.64567274378E+02  0.25500000000E-02 0. -1.
         11    1    1    2    0    0  0.39369562331E+01 -0.44094149082E+02  0.12697928800E+03  0.13447502812E+03  0.51100000000E-03 0. -1.
         22    1    1    2    0    0 -0.19673331461E+02  0.23169181554E+00 -0.58586195152E+02  0.61801585047E+02  0.00000000000E+00 0. -1.
          2    1    1    2  501    0  0.15736375228E+02  0.43862457267E+02  0.86727992285E+03  0.86853095123E+03  0.25500000000E-02 0. -1.
<mgrwt>
<rscale>  0 0.30004654E+02</rscale>
<asrwt>0</asrwt>
<pdfrwt beam="1">  1       11 0.10000000E+01 0.45758252E+02</pdfrwt>
<pdfrwt beam="2">  1        2 0.99358134E-02 0.30004654E+02</pdfrwt>
<totfact> 0.68879117E+02</totfact>
</mgrwt>
</event>
<event>
 5    1  0.9955701E-004  0.2134302E+03  0.7818608E-02  0.1365768E+00
         11   -1    0    0    0    0  0.00000000000E+00  0.00000000000E+00  0.10000846684E+04  0.10000846684E+04  0.51100000000E-03 0. -1.
          2   -1    0    0  501    0 -0.00000000000E+00 -0.00000000000E+00 -0.90709257253E+02  0.90709257289E+02  0.25500000000E-02 0. -1.
         11    1    1    2    0    0 -0.21005854696E+03 -0.16118840828E+02  0.77012193696E+03  0.79841856690E+03  0.51100000000E-03 0. -1.
         22    1    1    2    0    0 -0.13279793571E+02 -0.17406372281E+02 -0.73836201339E+01  0.23105249610E+02  0.00000000000E+00 0.  1.
          2    1    1    2  501    0  0.22333834053E+03  0.33525213108E+02  0.14663709434E+03  0.26927010920E+03  0.25500000000E-02 0. -1.
<mgrwt>
<rscale>  0 0.68357729E+02</rscale>
<asrwt>0</asrwt>
<pdfrwt beam="1">  1       11 0.10000000E+01 0.21343017E+03</pdfrwt>
<pdfrwt beam="2">  1        2 0.13956452E-01 0.68357729E+02</pdfrwt>
<totfact> 0.49207881E+02</totfact>
</mgrwt>
</event>
<event>
 5    1  0.9955701E-004  0.2527766E+03  0.7818608E-02  0.1249230E+00
         11   -1    0    0    0    0  0.00000000000E+00  0.00000000000E+00  0.10001640130E+04  0.10001640130E+04  0.51100000000E-03 0. -1.
         -2   -1    0    0    0  501 -0.00000000000E+00 -0.00000000000E+00 -0.34225748177E+03  0.34225748178E+03  0.25500000000E-02 0.  1.
         11    1    1    2    0    0 -0.24949576280E+03  0.47220305974E+02  0.91643602383E+03  0.95096418373E+03  0.51100000000E-03 0. -1.
         22    1    1    2    0    0  0.10130118409E+02 -0.52594871577E+02 -0.35589830840E+02  0.64307665751E+02  0.00000000000E+00 0.  1.
         -2    1    1    2    0  501  0.23936564439E+03  0.53745656033E+01 -0.22293966172E+03  0.32714964534E+03  0.25500000000E-02 0.  1.
<mgrwt>
<rscale>  0 0.11635766E+03</rscale>
<asrwt>0</asrwt>
<pdfrwt beam="1">  1       11 0.10000000E+01 0.25277657E+03</pdfrwt>
<pdfrwt beam="2">  1       -2 0.52663632E-01 0.11635766E+03</pdfrwt>
<totfact> 0.28131787E+01</totfact>
</mgrwt>
</event>
<event>
 5    1  0.9955701E-004  0.2316538E+03  0.7818608E-02  0.1332875E+00
         11   -1    0    0    0    0  0.00000000000E+00  0.00000000000E+00  0.10001753141E+04  0.10001753141E+04  0.51100000000E-03 0.  1.
          2   -1    0    0  501    0 -0.00000000000E+00 -0.00000000000E+00 -0.89025716471E+02  0.89025716508E+02  0.25500000000E-02 0.  1.
         11    1    1    2    0    0 -0.37527732650E+02  0.23215197497E+03  0.71587772818E+03  0.75351429443E+03  0.51100000000E-03 0.  1.
         22    1    1    2    0    0 -0.21035215562E+02 -0.16468562880E+02 -0.13429430587E+02  0.29900559576E+02  0.00000000000E+00 0.  1.
          2    1    1    2  501    0  0.58562948212E+02 -0.21568341209E+03  0.20870130002E+03  0.30578617659E+03  0.25500000000E-02 0.  1.
<mgrwt>
<rscale>  0 0.78667928E+02</rscale>
<asrwt>0</asrwt>
<pdfrwt beam="1">  1       11 0.10000000E+01 0.23165381E+03</pdfrwt>
<pdfrwt beam="2">  1        2 0.13698665E-01 0.78667928E+02</pdfrwt>
<totfact> 0.50669393E+02</totfact>
</mgrwt>
</event>
<event>
 5    1  0.9955701E-004  0.2970303E+03  0.7818608E-02  0.1280285E+00
         11   -1    0    0    0    0  0.00000000000E+00  0.00000000000E+00  0.10003900083E+04  0.10003900083E+04  0.51100000000E-03 0.  1.
         -2   -1    0    0    0  501 -0.00000000000E+00 -0.00000000000E+00 -0.13577426008E+03  0.13577426010E+03  0.25500000000E-02 0. -1.
         11    1    1    2    0    0  0.10301406526E+03 -0.29269763365E+03  0.56912715826E+03  0.64822027479E+03  0.51100000000E-03 0.  1.
         22    1    1    2    0    0  0.33433381671E+01  0.33503593972E+02 -0.39065268824E+02  0.51572899351E+02  0.00000000000E+00 0.  1.
         -2    1    1    2    0  501 -0.10635740342E+03  0.25919403968E+03  0.33455385883E+03  0.43637109429E+03  0.25500000000E-02 0. -1.
<mgrwt>
<rscale>  0 0.10000505E+03</rscale>
<asrwt>0</asrwt>
<pdfrwt beam="1">  1       11 0.10000000E+01 0.29703030E+03</pdfrwt>
<pdfrwt beam="2">  1       -2 0.20896494E-01 0.10000505E+03</pdfrwt>
<totfact> 0.15190601E+02</totfact>
</mgrwt>
</event>
<event>
 5    1  0.9955701E-004  0.1634857E+03  0.7818608E-02  0.1407537E+00
         11   -1    0    0    0    0  0.00000000000E+00  0.00000000000E+00  0.10001507229E+04  0.10001507229E+04  0.51100000000E-03 0. -1.
          2   -1    0    0  501    0 -0.00000000000E+00 -0.00000000000E+00 -0.96062016627E+02  0.96062016661E+02  0.25500000000E-02 0. -1.
         11    1    1    2    0    0 -0.77787664494E+02 -0.14267884418E+03  0.88517823045E+03  0.89997148454E+03  0.51100000000E-03 0. -1.
         22    1    1    2    0    0 -0.20332967196E+02 -0.16234753248E+01 -0.19803400127E+01  0.20493583720E+02  0.00000000000E+00 0.  1.
          2    1    1    2  501    0  0.98120631690E+02  0.14430231951E+03  0.20890815848E+02  0.17574767131E+03  0.25500000000E-02 0. -1.
<mgrwt>
<rscale>  0 0.57747106E+02</rscale>
<asrwt>0</asrwt>
<pdfrwt beam="1">  1       11 0.10000000E+01 0.16348569E+03</pdfrwt>
<pdfrwt beam="2">  1        2 0.14780999E-01 0.57747106E+02</pdfrwt>
<totfact> 0.45640598E+02</totfact>
</mgrwt>
</event>
<event>
 5    1  0.1552141E-003  0.1791050E+03  0.7818608E-02  0.1168672E+00
         11   -1    0    0    0    0  0.00000000000E+00  0.00000000000E+00  0.99998337186E+03  0.99998337186E+03  0.51100000000E-03 0. -1.
          2   -1    0    0  501    0 -0.00000000000E+00 -0.00000000000E+00 -0.28920382409E+03  0.28920382410E+03  0.25500000000E-02 0. -1.
         11    1    1    2    0    0 -0.15421978447E+03  0.87309062569E+02  0.96337367487E+03  0.97953838708E+03  0.51100000000E-03 0. -1.
         22    1    1    2    0    0  0.83260340627E+01 -0.81582487771E+01 -0.28400725642E+02  0.30699854777E+02  0.00000000000E+00 0. -1.
          2    1    1    2  501    0  0.14589375041E+03 -0.79150813791E+02 -0.22419340146E+03  0.27894895410E+03  0.25500000000E-02 0. -1.
<mgrwt>
<rscale>  0 0.17910497E+03</rscale>
<asrwt>0</asrwt>
<pdfrwt beam="1">  1       11 0.10000000E+01 0.17721911E+03</pdfrwt>
<pdfrwt beam="2">  1        2 0.44492155E-01 0.17910497E+03</pdfrwt>
<totfact> 0.14099985E+02</totfact>
</mgrwt>
</event>
<event>
 5    1  0.9955701E-004  0.1962757E+03  0.7818608E-02  0.1392030E+00
         11   -1    0    0    0    0  0.00000000000E+00  0.00000000000E+00  0.10000616543E+04  0.10000616543E+04  0.51100000000E-03 0. -1.
          2   -1    0    0  501    0 -0.00000000000E+00 -0.00000000000E+00 -0.50848888469E+02  0.50848888533E+02  0.25500000000E-02 0. -1.
         11    1    1    2    0    0  0.61992784731E+02 -0.19750155424E+03  0.35486960781E+03  0.41083136180E+03  0.51100000000E-03 0. -1.
         22    1    1    2    0    0  0.41928046447E+01  0.18747268737E+02  0.38627602619E+01  0.19594912929E+02  0.00000000000E+00 0. -1.
          2    1    1    2  501    0 -0.66185589376E+02  0.17875428551E+03  0.59048039779E+03  0.62048426814E+03  0.25500000000E-02 0. -1.
<mgrwt>
<rscale>  0 0.61404679E+02</rscale>
<asrwt>0</asrwt>
<pdfrwt beam="1">  1       11 0.10000000E+01 0.19627573E+03</pdfrwt>
<pdfrwt beam="2">  1        2 0.78233880E-02 0.61404679E+02</pdfrwt>
<totfact> 0.97397115E+02</totfact>
</mgrwt>
</event>
<event>
 5    1  0.9955701E-004  0.1993184E+03  0.7818608E-02  0.1221726E+00
         11   -1    0    0    0    0  0.00000000000E+00  0.00000000000E+00  0.99970913738E+03  0.99970913738E+03  0.51100000000E-03 0. -1.
          2   -1    0    0  501    0 -0.00000000000E+00 -0.00000000000E+00 -0.46168385617E+03  0.46168385618E+03  0.25500000000E-02 0. -1.
         11    1    1    2    0    0 -0.18960002870E+03 -0.66218244658E+02  0.74321356804E+03  0.76986975166E+03  0.51100000000E-03 0. -1.
         22    1    1    2    0    0  0.10041224935E+03  0.16614330572E+03 -0.40606774697E+03  0.45008580625E+03  0.00000000000E+00 0. -1.
          2    1    1    2  501    0  0.89187779350E+02 -0.99925061065E+02  0.20087946015E+03  0.24143743564E+03  0.25500000000E-02 0. -1.
<mgrwt>
<rscale>  0 0.13393834E+03</rscale>
<asrwt>0</asrwt>
<pdfrwt beam="1">  1       11 0.10000000E+01 0.19931840E+03</pdfrwt>
<pdfrwt beam="2">  1        2 0.71007624E-01 0.13393834E+03</pdfrwt>
<totfact> 0.85534241E+01</totfact>
</mgrwt>
</event>
<event>
 5    1  0.9955701E-004  0.1122016E+03  0.7818608E-02  0.1299112E+00
         11   -1    0    0    0    0  0.00000000000E+00  0.00000000000E+00  0.10001522588E+04  0.10001522588E+04  0.51100000000E-03 0.  1.
          2   -1    0    0  501    0 -0.00000000000E+00 -0.00000000000E+00 -0.34908892156E+02  0.34908892249E+02  0.25500000000E-02 0.  1.
         11    1    1    2    0    0 -0.54868042872E+02  0.54611640630E+02  0.60941063832E+02  0.98522823154E+02  0.51100000000E-03 0.  1.
         22    1    1    2    0    0  0.32035274406E+02  0.67503890024E+02  0.11252224555E+03  0.13507142450E+03  0.00000000000E+00 0.  1.
          2    1    1    2  501    0  0.22832768467E+02 -0.12211553065E+03  0.79178005724E+03  0.80146690337E+03  0.25500000000E-02 0.  1.
<mgrwt>
<rscale>  0 0.91562361E+02</rscale>
<asrwt>0</asrwt>
<pdfrwt beam="1">  1       11 0.10000000E+01 0.11220160E+03</pdfrwt>
<pdfrwt beam="2">  1        2 0.53714164E-02 0.91562361E+02</pdfrwt>
<totfact> 0.16153618E+03</totfact>
</mgrwt>
</event>
<event>
 5    1  0.9955701E-004  0.7687812E+02  0.7818608E-02  0.1344682E+00
         11   -1    0    0    0    0  0.00000000000E+00  0.00000000000E+00  0.10004619168E+04  0.10004619168E+04  0.51100000000E-03 0. -1.
          2   -1    0    0  501    0 -0.00000000000E+00 -0.00000000000E+00 -0.59570260879E+01  0.59570266337E+01  0.25500000000E-02 0. -1.
         11    1    1    2    0    0  0.33687710922E+02 -0.37921488868E+02  0.28843215621E+03  0.29285834446E+03  0.51100000000E-03 0. -1.
         22    1    1    2    0    0  0.67492308781E+01 -0.24933394597E+02  0.12049547525E+03  0.12323305498E+03  0.00000000000E+00 0. -1.
          2    1    1    2  501    0 -0.40436941800E+02  0.62854883465E+02  0.58557725929E+03  0.59032754403E+03  0.25500000000E-02 0. -1.
<mgrwt>
<rscale>  0 0.74738763E+02</rscale>
<asrwt>0</asrwt>
<pdfrwt beam="1">  1       11 0.10000000E+01 0.76878117E+02</pdfrwt>
<pdfrwt beam="2">  1        2 0.91688890E-03 0.74738763E+02</pdfrwt>
<totfact> 0.16646096E+04</totfact>
</mgrwt>
</event>
<event>
 5    1  0.9955701E-004  0.1999878E+03  0.7818608E-02  0.1284445E+00
         11   -1    0    0    0    0  0.00000000000E+00  0.00000000000E+00  0.10000547207E+04  0.10000547207E+04  0.51100000000E-03 0.  1.
         -2   -1    0    0    0  501 -0.00000000000E+00 -0.00000000000E+00 -0.11421447615E+03  0.11421447617E+03  0.25500000000E-02 0.  1.
         11    1    1    2    0    0 -0.14299005702E+02  0.17011805596E+03  0.45241432823E+02  0.17661087671E+03  0.51100000000E-03 0.  1.
         22    1    1    2    0    0 -0.38486138570E+02  0.28809512982E+02 -0.20531136450E+02  0.52275218452E+02  0.00000000000E+00 0. -1.
         -2    1    1    2    0  501  0.52785144272E+02 -0.19892756894E+03  0.86112994814E+03  0.88538310168E+03  0.25500000000E-02 0.  1.
<mgrwt>
<rscale>  0 0.98052719E+02</rscale>
<asrwt>0</asrwt>
<pdfrwt beam="1">  1       11 0.10000000E+01 0.19998778E+03</pdfrwt>
<pdfrwt beam="2">  1       -2 0.17572419E-01 0.98052719E+02</pdfrwt>
<totfact> 0.20272233E+02</totfact>
</mgrwt>
</event>
<event>
 5    1  0.9955701E-004  0.3806548E+03  0.7818608E-02  0.1050692E+00
         11   -1    0    0    0    0  0.00000000000E+00  0.00000000000E+00  0.99989063637E+03  0.99989063637E+03  0.51100000000E-03 0. -1.
          2   -1    0    0  501    0 -0.00000000000E+00 -0.00000000000E+00 -0.46438689738E+03  0.46438689738E+03  0.25500000000E-02 0. -1.
         11    1    1    2    0    0  0.15079936211E+03 -0.34569464563E+03  0.87588395961E+03  0.95363407360E+03  0.51100000000E-03 0. -1.
         22    1    1    2    0    0  0.29405872822E+01  0.20592847283E+02 -0.22860846483E+02  0.30908424656E+02  0.00000000000E+00 0.  1.
          2    1    1    2  501    0 -0.15373994939E+03  0.32510179835E+03 -0.31751937413E+03  0.47973503550E+03  0.25500000000E-02 0. -1.
<mgrwt>
<rscale>  0 0.38065476E+03</rscale>
<asrwt>0</asrwt>
<pdfrwt beam="1">  1       11 0.10000000E+01 0.37715413E+03</pdfrwt>
<pdfrwt beam="2">  1        2 0.71436323E-01 0.38065476E+03</pdfrwt>
<totfact> 0.83838987E+01</totfact>
</mgrwt>
</event>
<event>
 5    1  0.9955701E-004  0.7594370E+02  0.7818608E-02  0.1538908E+00
         11   -1    0    0    0    0  0.00000000000E+00  0.00000000000E+00  0.99996307435E+03  0.99996307435E+03  0.51100000000E-03 0.  1.
         -2   -1    0    0    0  501 -0.00000000000E+00 -0.00000000000E+00 -0.81999341803E+01  0.81999345768E+01  0.25500000000E-02 0.  1.
         11    1    1    2    0    0 -0.14052366900E+02  0.68310980827E+02  0.29078819876E+03  0.29903450580E+03  0.51100000000E-03 0.  1.
         22    1    1    2    0    0 -0.16158672376E+02  0.58217950750E+01  0.43025403658E+02  0.46326896624E+02  0.00000000000E+00 0. -1.
         -2    1    1    2    0  501  0.30211039276E+02 -0.74132775902E+02  0.65794953774E+03  0.66280160650E+03  0.25500000000E-02 0.  1.
<mgrwt>
<rscale>  0 0.36116011E+02</rscale>
<asrwt>0</asrwt>
<pdfrwt beam="1">  1       11 0.10000000E+01 0.75943695E+02</pdfrwt>
<pdfrwt beam="2">  1       -2 0.12614817E-02 0.36116011E+02</pdfrwt>
<totfact> 0.89281970E+03</totfact>
</mgrwt>
</event>
<event>
 5    1  0.9955701E-004  0.2826657E+03  0.7818608E-02  0.1094242E+00
         11   -1    0    0    0    0  0.00000000000E+00  0.00000000000E+00  0.10003096202E+04  0.10003096202E+04  0.51100000000E-03 0.  1.
          2   -1    0    0  501    0 -0.00000000000E+00 -0.00000000000E+00 -0.40763898012E+03  0.40763898013E+03  0.25500000000E-02 0.  1.
         11    1    1    2    0    0  0.21151310786E+03 -0.17989460667E+03  0.92842124767E+03  0.96905411481E+03  0.51100000000E-03 0.  1.
         22    1    1    2    0    0 -0.28265995797E+02  0.20945553356E+02 -0.74500317385E+02  0.82389198408E+02  0.00000000000E+00 0.  1.
          2    1    1    2  501    0 -0.18324711207E+03  0.15894905332E+03 -0.26125029018E+03  0.35650528714E+03  0.25500000000E-02 0.  1.
<mgrwt>
<rscale>  0 0.28266570E+03</rscale>
<asrwt>0</asrwt>
<pdfrwt beam="1">  1       11 0.10000000E+01 0.27766862E+03</pdfrwt>
<pdfrwt beam="2">  1        2 0.62733105E-01 0.28266570E+03</pdfrwt>
<totfact> 0.97179259E+01</totfact>
</mgrwt>
</event>
<event>
 5    1  0.9955701E-004  0.9536483E+02  0.7818608E-02  0.1540788E+00
         11   -1    0    0    0    0  0.00000000000E+00  0.00000000000E+00  0.10002681149E+04  0.10002681149E+04  0.51100000000E-03 0. -1.
          2   -1    0    0  501    0 -0.00000000000E+00 -0.00000000000E+00 -0.12594777633E+02  0.12594777891E+02  0.25500000000E-02 0. -1.
         11    1    1    2    0    0  0.38043115921E+02 -0.90778058561E+02  0.33060869580E+03  0.34494933588E+03  0.51100000000E-03 0. -1.
         22    1    1    2    0    0 -0.13510537107E+02 -0.13422219696E+00  0.21372813103E+02  0.25285366686E+02  0.00000000000E+00 0. -1.
          2    1    1    2  501    0 -0.24532578814E+02  0.90912280758E+02  0.63569182836E+03  0.64262819022E+03  0.25500000000E-02 0. -1.
<mgrwt>
<rscale>  0 0.35895585E+02</rscale>
<asrwt>0</asrwt>
<pdfrwt beam="1">  1       11 0.10000000E+01 0.95364829E+02</pdfrwt>
<pdfrwt beam="2">  1        2 0.19381776E-02 0.35895585E+02</pdfrwt>
<totfact> 0.54118836E+03</totfact>
</mgrwt>
</event>
<event>
 5    1  0.9955701E-004  0.1858186E+03  0.7818608E-02  0.1373837E+00
         11   -1    0    0    0    0  0.00000000000E+00  0.00000000000E+00  0.10002686947E+04  0.10002686947E+04  0.51100000000E-03 0. -1.
          2   -1    0    0  501    0 -0.00000000000E+00 -0.00000000000E+00 -0.65644775519E+02  0.65644775569E+02  0.25500000000E-02 0. -1.
         11    1    1    2    0    0 -0.15676862818E+03 -0.10097568720E+03  0.79278846553E+03  0.81442374920E+03  0.51100000000E-03 0. -1.
         22    1    1    2    0    0  0.15795107294E+02 -0.17429508878E+02  0.14279529835E+02  0.27516870579E+02  0.00000000000E+00 0. -1.
          2    1    1    2  501    0  0.14097352088E+03  0.11840519608E+03  0.12755592381E+03  0.22397285048E+03  0.25500000000E-02 0. -1.
<mgrwt>
<rscale>  0 0.66111879E+02</rscale>
<asrwt>0</asrwt>
<pdfrwt beam="1">  1       11 0.10000000E+01 0.18581860E+03</pdfrwt>
<pdfrwt beam="2">  1        2 0.10101910E-01 0.66111879E+02</pdfrwt>
<totfact> 0.71837311E+02</totfact>
</mgrwt>
</event>
<event>
 5    1  0.9955701E-004  0.3811505E+02  0.7818608E-02  0.1583067E+00
         11   -1    0    0    0    0  0.00000000000E+00  0.00000000000E+00  0.10000410486E+04  0.10000410486E+04  0.51100000000E-03 0. -1.
          2   -1    0    0  501    0 -0.00000000000E+00 -0.00000000000E+00 -0.45626497544E+01  0.45626504669E+01  0.25500000000E-02 0. -1.
         11    1    1    2    0    0  0.27455454930E+02 -0.18907084478E+02  0.95444514817E+02  0.10109864123E+03  0.51100000000E-03 0. -1.
         22    1    1    2    0    0  0.12665429103E+02  0.22563130471E+02  0.13786227323E+03  0.14026943477E+03  0.00000000000E+00 0. -1.
          2    1    1    2  501    0 -0.40120884034E+02 -0.36560459932E+01  0.76217161077E+03  0.76323562305E+03  0.25500000000E-02 0. -1.
<mgrwt>
<rscale>  0 0.31404154E+02</rscale>
<asrwt>0</asrwt>
<pdfrwt beam="1">  1       11 0.10000000E+01 0.38115054E+02</pdfrwt>
<pdfrwt beam="2">  1        2 0.70197496E-03 0.31404154E+02</pdfrwt>
<totfact> 0.20111040E+04</totfact>
</mgrwt>
</event>
<event>
 5    1  0.9955701E-004  0.3346968E+03  0.7818608E-02  0.1394388E+00
         11   -1    0    0    0    0  0.00000000000E+00  0.00000000000E+00  0.99993293118E+03  0.99993293118E+03  0.51100000000E-03 0.  1.
          2   -1    0    0  501    0 -0.00000000000E+00 -0.00000000000E+00 -0.34785991794E+03  0.34785991795E+03  0.25500000000E-02 0.  1.
         11    1    1    2    0    0  0.13411197998E+03 -0.30788033712E+03  0.86721605344E+03  0.92996774595E+03  0.51100000000E-03 0.  1.
         22    1    1    2    0    0 -0.11512816148E+01  0.10994951898E+02 -0.53403486255E+02  0.54535738381E+02  0.00000000000E+00 0.  1.
          2    1    1    2  501    0 -0.13296069837E+03  0.29688538522E+03 -0.16173955395E+03  0.36328936481E+03  0.25500000000E-02 0.  1.
<mgrwt>
<rscale>  0 0.60828400E+02</rscale>
<asrwt>0</asrwt>
<pdfrwt beam="1">  1       11 0.10000000E+01 0.33469681E+03</pdfrwt>
<pdfrwt beam="2">  1        2 0.53513320E-01 0.60828400E+02</pdfrwt>
<totfact> 0.11563736E+02</totfact>
</mgrwt>
</event>
<event>
 5    1  0.9955701E-004  0.3551192E+02  0.7818608E-02  0.1768405E+00
         11   -1    0    0    0    0  0.00000000000E+00  0.00000000000E+00  0.10006820457E+04  0.10006820457E+04  0.51100000000E-03 0.  1.
          2   -1    0    0  501    0 -0.00000000000E+00 -0.00000000000E+00 -0.54718155240E+01  0.54718161181E+01  0.25500000000E-02 0.  1.
         11    1    1    2    0    0  0.26704566195E+02 -0.30981458692E+02  0.13199454511E+03  0.13818662952E+03  0.51100000000E-03 0.  1.
         22    1    1    2    0    0  0.12631491254E+01  0.99656581949E+01  0.10489578430E+02  0.14523813019E+02  0.00000000000E+00 0.  1.
          2    1    1    2  501    0 -0.27967715320E+02  0.21015800497E+02  0.85272610663E+03  0.85344341928E+03  0.25500000000E-02 0.  1.
<mgrwt>
<rscale>  0 0.18887324E+02</rscale>
<asrwt>0</asrwt>
<pdfrwt beam="1">  1       11 0.10000000E+01 0.35511924E+02</pdfrwt>
<pdfrwt beam="2">  1        2 0.84239195E-03 0.18887324E+02</pdfrwt>
<totfact> 0.14041439E+04</totfact>
</mgrwt>
</event>
<event>
 5    1  0.9955701E-004  0.1933005E+03  0.7818608E-02  0.1155518E+00
         11   -1    0    0    0    0  0.00000000000E+00  0.00000000000E+00  0.99999425511E+03  0.99999425511E+03  0.51100000000E-03 0.  1.
          2   -1    0    0  501    0 -0.00000000000E+00 -0.00000000000E+00 -0.14091969251E+03  0.14091969253E+03  0.25500000000E-02 0.  1.
         11    1    1    2    0    0 -0.68255386659E+02 -0.13695676500E+03  0.61973638695E+03  0.63834876251E+03  0.51100000000E-03 0.  1.
         22    1    1    2    0    0 -0.17036309215E+03  0.22845644418E+02  0.56164658909E+02  0.18083134558E+03  0.00000000000E+00 0.  1.
          2    1    1    2  501    0  0.23861847881E+03  0.11411112058E+03  0.18317351674E+03  0.32173383954E+03  0.25500000000E-02 0.  1.
<mgrwt>
<rscale>  0 0.19330047E+03</rscale>
<asrwt>0</asrwt>
<pdfrwt beam="1">  1       11 0.10000000E+01 0.15302272E+03</pdfrwt>
<pdfrwt beam="2">  1        2 0.21679828E-01 0.19330047E+03</pdfrwt>
<totfact> 0.30993010E+02</totfact>
</mgrwt>
</event>
<event>
 5    1  0.9955701E-004  0.1156517E+03  0.7818608E-02  0.1250448E+00
         11   -1    0    0    0    0  0.00000000000E+00  0.00000000000E+00  0.10002266489E+04  0.10002266489E+04  0.51100000000E-03 0.  1.
         -2   -1    0    0    0  501 -0.00000000000E+00 -0.00000000000E+00 -0.12680962849E+02  0.12680963105E+02  0.25500000000E-02 0. -1.
         11    1    1    2    0    0 -0.86695941630E+02  0.57668051624E+02  0.57990038991E+03  0.58917421252E+03  0.51100000000E-03 0.  1.
         22    1    1    2    0    0  0.41820855100E+02 -0.13841735521E+02  0.93116638383E+02  0.10301109604E+03  0.00000000000E+00 0. -1.
         -2    1    1    2    0  501  0.44875086530E+02 -0.43826316103E+02  0.31452865780E+03  0.32072230349E+03  0.25500000000E-02 0. -1.
<mgrwt>
<rscale>  0 0.11565166E+03</rscale>
<asrwt>0</asrwt>
<pdfrwt beam="1">  1       11 0.10000000E+01 0.10412392E+03</pdfrwt>
<pdfrwt beam="2">  1       -2 0.19513595E-02 0.11565166E+03</pdfrwt>
<totfact> 0.57912208E+03</totfact>
</mgrwt>
</event>
<event>
 5    1  0.9955701E-004  0.8517736E+02  0.7818608E-02  0.1443091E+00
         11   -1    0    0    0    0  0.00000000000E+00  0.00000000000E+00  0.10005334285E+04  0.10005334285E+04  0.51100000000E-03 0. -1.
          2   -1    0    0  501    0 -0.00000000000E+00 -0.00000000000E+00 -0.30124419738E+02  0.30124419846E+02  0.25500000000E-02 0. -1.
         11    1    1    2    0    0  0.51913536614E+02 -0.47774155424E+02  0.32205952824E+03  0.32969641330E+03  0.51100000000E-03 0. -1.
         22    1    1    2    0    0  0.26626452988E+02 -0.13482523824E+02 -0.12710899787E+02  0.32439380708E+02  0.00000000000E+00 0. -1.
          2    1    1    2  501    0 -0.78539989601E+02  0.61256679248E+02  0.66106038031E+03  0.66852205434E+03  0.25500000000E-02 0. -1.
<mgrwt>
<rscale>  0 0.50419728E+02</rscale>
<asrwt>0</asrwt>
<pdfrwt beam="1">  1       11 0.10000000E+01 0.85177357E+02</pdfrwt>
<pdfrwt beam="2">  1        2 0.46369982E-02 0.50419728E+02</pdfrwt>
<totfact> 0.18377384E+03</totfact>
</mgrwt>
</event>
<event>
 5    1  0.9955701E-004  0.1293375E+03  0.7818608E-02  0.1331705E+00
         11   -1    0    0    0    0  0.00000000000E+00  0.00000000000E+00  0.10002977164E+04  0.10002977164E+04  0.51100000000E-03 0. -1.
          2   -1    0    0  501    0 -0.00000000000E+00 -0.00000000000E+00 -0.33889957677E+02  0.33889957773E+02  0.25500000000E-02 0. -1.
         11    1    1    2    0    0 -0.88761916631E+02  0.10727830087E+03  0.77102405376E+03  0.78349563059E+03  0.51100000000E-03 0. -1.
         22    1    1    2    0    0  0.47456030918E+02 -0.92125145254E+01  0.42164642427E+02  0.64146725290E+02  0.00000000000E+00 0. -1.
          2    1    1    2  501    0  0.41305885713E+02 -0.98065786350E+02  0.15321906256E+03  0.18654531832E+03  0.25500000000E-02 0. -1.
<mgrwt>
<rscale>  0 0.79072292E+02</rscale>
<asrwt>0</asrwt>
<pdfrwt beam="1">  1       11 0.10000000E+01 0.12933748E+03</pdfrwt>
<pdfrwt beam="2">  1        2 0.52153917E-02 0.79072292E+02</pdfrwt>
<totfact> 0.16554388E+03</totfact>
</mgrwt>
</event>
<event>
 5    1  0.9955701E-004  0.1715863E+03  0.7818608E-02  0.1176204E+00
         11   -1    0    0    0    0  0.00000000000E+00  0.00000000000E+00  0.10000463820E+04  0.10000463820E+04  0.51100000000E-03 0.  1.
         -2   -1    0    0    0  501 -0.00000000000E+00 -0.00000000000E+00 -0.40611020552E+02  0.40611020632E+02  0.25500000000E-02 0. -1.
         11    1    1    2    0    0  0.71513355479E+02  0.15012710308E+03  0.75810270853E+03  0.77612629370E+03  0.51100000000E-03 0.  1.
         22    1    1    2    0    0 -0.12489951352E+02 -0.80332483115E+01  0.63498820054E+01  0.16150943152E+02  0.00000000000E+00 0. -1.
         -2    1    1    2    0  501 -0.59023404127E+02 -0.14209385477E+03  0.19498277096E+03  0.24838016582E+03  0.25500000000E-02 0. -1.
<mgrwt>
<rscale>  0 0.17158634E+03</rscale>
<asrwt>0</asrwt>
<pdfrwt beam="1">  1       11 0.10000000E+01 0.16628983E+03</pdfrwt>
<pdfrwt beam="2">  1       -2 0.62481389E-02 0.17158634E+03</pdfrwt>
<totfact> 0.10741377E+03</totfact>
</mgrwt>
</event>
<event>
 5    1  0.9955701E-004  0.8112673E+02  0.7818608E-02  0.1594304E+00
         11   -1    0    0    0    0  0.00000000000E+00  0.00000000000E+00  0.10000191252E+04  0.10000191252E+04  0.51100000000E-03 0. -1.
          2   -1    0    0  501    0 -0.00000000000E+00 -0.00000000000E+00 -0.79411134242E+01  0.79411138337E+01  0.25500000000E-02 0. -1.
         11    1    1    2    0    0 -0.71341939803E+02  0.36249090675E+02  0.40332534881E+03  0.41118731247E+03  0.51100000000E-03 0. -1.
         22    1    1    2    0    0  0.37485497937E+01  0.10713684012E+02  0.31664083838E+02  0.33637016158E+02  0.00000000000E+00 0. -1.
          2    1    1    2  501    0  0.67593390009E+02 -0.46962774687E+02  0.55708857909E+03  0.56313591036E+03  0.25500000000E-02 0. -1.
<mgrwt>
<rscale>  0 0.30345203E+02</rscale>
<asrwt>0</asrwt>
<pdfrwt beam="1">  1       11 0.10000000E+01 0.81126728E+02</pdfrwt>
<pdfrwt beam="2">  1        2 0.12217331E-02 0.30345203E+02</pdfrwt>
<totfact> 0.96082492E+03</totfact>
</mgrwt>
</event>
<event>
 5    1  0.9955701E-004  0.6135675E+02  0.7818608E-02  0.1392225E+00
         11   -1    0    0    0    0  0.00000000000E+00  0.00000000000E+00  0.10001986634E+04  0.10001986634E+04  0.51100000000E-03 0. -1.
          2   -1    0    0  501    0 -0.00000000000E+00 -0.00000000000E+00 -0.10843457365E+02  0.10843457664E+02  0.25500000000E-02 0. -1.
         11    1    1    2    0    0  0.75280507732E+01  0.53629855272E+02  0.13329804154E+03  0.14387911872E+03  0.51100000000E-03 0. -1.
         22    1    1    2    0    0  0.28318687551E+02  0.33640729224E+02  0.26527371207E+03  0.26889363891E+03  0.00000000000E+00 0. -1.
          2    1    1    2  501    0 -0.35846738324E+02 -0.87270584496E+02  0.59078345247E+03  0.59826936349E+03  0.25500000000E-02 0. -1.
<mgrwt>
<rscale>  0 0.61356746E+02</rscale>
<asrwt>0</asrwt>
<pdfrwt beam="1">  1       11 0.10000000E+01 0.43973250E+02</pdfrwt>
<pdfrwt beam="2">  1        2 0.16685556E-02 0.61356746E+02</pdfrwt>
<totfact> 0.71814503E+03</totfact>
</mgrwt>
</event>
<event>
 5    1  0.9955701E-004  0.2443187E+03  0.7818608E-02  0.1319277E+00
         11   -1    0    0    0    0  0.00000000000E+00  0.00000000000E+00  0.10004684739E+04  0.10004684739E+04  0.51100000000E-03 0.  1.
          2   -1    0    0  501    0 -0.00000000000E+00 -0.00000000000E+00 -0.30225040702E+03  0.30225040703E+03  0.25500000000E-02 0.  1.
         11    1    1    2    0    0 -0.12456211318E+03 -0.21091320882E+03  0.87723568958E+03  0.91079226873E+03  0.51100000000E-03 0.  1.
         22    1    1    2    0    0 -0.21014353839E+02  0.19354953102E+02 -0.14636080235E+03  0.14912310935E+03  0.00000000000E+00 0.  1.
          2    1    1    2  501    0  0.14557646702E+03  0.19155825572E+03 -0.32656820349E+02  0.24280350287E+03  0.25500000000E-02 0.  1.
<mgrwt>
<rscale>  0 0.83546799E+02</rscale>
<asrwt>0</asrwt>
<pdfrwt beam="1">  1       11 0.10000000E+01 0.24431872E+03</pdfrwt>
<pdfrwt beam="2">  1        2 0.46521845E-01 0.83546799E+02</pdfrwt>
<totfact> 0.13391937E+02</totfact>
</mgrwt>
</event>
<event>
 5    1  0.9955701E-004  0.1679668E+03  0.7818608E-02  0.1275125E+00
         11   -1    0    0    0    0  0.00000000000E+00  0.00000000000E+00  0.10002327165E+04  0.10002327165E+04  0.51100000000E-03 0. -1.
          2   -1    0    0  501    0 -0.00000000000E+00 -0.00000000000E+00 -0.55561099734E+03  0.55561099734E+03  0.25500000000E-02 0. -1.
         11    1    1    2    0    0 -0.65470124107E+02  0.15492723992E+03  0.96895752023E+03  0.98344672598E+03  0.51100000000E-03 0. -1.
         22    1    1    2    0    0  0.61490039213E+02  0.11464930179E+02 -0.12543967038E+03  0.14016982718E+03  0.00000000000E+00 0. -1.
          2    1    1    2  501    0  0.39800848943E+01 -0.16639217010E+03 -0.39889613069E+03  0.43222716068E+03  0.25500000000E-02 0. -1.
<mgrwt>
<rscale>  0 0.10250014E+03</rscale>
<asrwt>0</asrwt>
<pdfrwt beam="1">  1       11 0.10000000E+01 0.16796680E+03</pdfrwt>
<pdfrwt beam="2">  1        2 0.85498505E-01 0.10250014E+03</pdfrwt>
<totfact> 0.70082232E+01</totfact>
</mgrwt>
</event>
<event>
 5    1  0.9955701E-004  0.1039634E+03  0.7818608E-02  0.1325022E+00
         11   -1    0    0    0    0  0.00000000000E+00  0.00000000000E+00  0.99994240567E+03  0.99994240567E+03  0.51100000000E-03 0.  1.
         -2   -1    0    0    0  501 -0.00000000000E+00 -0.00000000000E+00 -0.35056411506E+02  0.35056411599E+02  0.25500000000E-02 0.  1.
         11    1    1    2    0    0  0.79919594411E+01 -0.86031483004E+02  0.40925328100E+03  0.41827447388E+03  0.51100000000E-03 0.  1.
         22    1    1    2    0    0  0.39997128472E+02 -0.49695125301E+02  0.27754277730E+02  0.69567777721E+02  0.00000000000E+00 0.  1.
         -2    1    1    2    0  501 -0.47989087913E+02  0.13572660830E+03  0.52787843543E+03  0.54715656567E+03  0.25500000000E-02 0.  1.
<mgrwt>
<rscale>  0 0.81437066E+02</rscale>
<asrwt>0</asrwt>
<pdfrwt beam="1">  1       11 0.10000000E+01 0.10396337E+03</pdfrwt>
<pdfrwt beam="2">  1       -2 0.53929833E-02 0.81437066E+02</pdfrwt>
<totfact> 0.12588222E+03</totfact>
</mgrwt>
</event>
<event>
 5    1  0.9955701E-004  0.3572151E+03  0.7818608E-02  0.1382158E+00
         11   -1    0    0    0    0  0.00000000000E+00  0.00000000000E+00  0.10001113672E+04  0.10001113672E+04  0.51100000000E-03 0. -1.
          2   -1    0    0  501    0 -0.00000000000E+00 -0.00000000000E+00 -0.24966576517E+03  0.24966576518E+03  0.25500000000E-02 0. -1.
         11    1    1    2    0    0  0.21582459718E+03  0.28577013673E+03  0.79887353543E+03  0.87546773407E+03  0.51100000000E-03 0. -1.
         22    1    1    2    0    0 -0.11302138274E+02  0.17089247097E+01 -0.16482019213E+02  0.20057809217E+02  0.00000000000E+00 0. -1.
          2    1    1    2  501    0 -0.20452245890E+03 -0.28747906144E+03 -0.31945914149E+02  0.35425158913E+03  0.25500000000E-02 0. -1.
<mgrwt>
<rscale>  0 0.63899806E+02</rscale>
<asrwt>0</asrwt>
<pdfrwt beam="1">  1       11 0.10000000E+01 0.35721511E+03</pdfrwt>
<pdfrwt beam="2">  1        2 0.38414394E-01 0.63899806E+02</pdfrwt>
<totfact> 0.16285631E+02</totfact>
</mgrwt>
</event>
<event>
 5    1  0.9955701E-004  0.3479125E+03  0.7818608E-02  0.1077443E+00
         11   -1    0    0    0    0  0.00000000000E+00  0.00000000000E+00  0.10000230091E+04  0.10000230091E+04  0.51100000000E-03 0.  1.
          2   -1    0    0  501    0 -0.00000000000E+00 -0.00000000000E+00 -0.22544972580E+03  0.22544972581E+03  0.25500000000E-02 0.  1.
         11    1    1    2    0    0 -0.16607278253E+03 -0.13502683103E+03 -0.10978664705E+02  0.21431972675E+03  0.51100000000E-03 0.  1.
         22    1    1    2    0    0 -0.13024638399E+03  0.24867695183E+02 -0.30452580449E+02  0.13605102889E+03  0.00000000000E+00 0.  1.
          2    1    1    2  501    0  0.29631916652E+03  0.11015913584E+03  0.81600452846E+03  0.87510197928E+03  0.25500000000E-02 0.  1.
<mgrwt>
<rscale>  0 0.31613302E+03</rscale>
<asrwt>0</asrwt>
<pdfrwt beam="1">  1       11 0.10000000E+01 0.34791252E+03</pdfrwt>
<pdfrwt beam="2">  1        2 0.34685370E-01 0.31613302E+03</pdfrwt>
<totfact> 0.18536484E+02</totfact>
</mgrwt>
</event>
<event>
 5    1  0.9955701E-004  0.2115122E+03  0.7818608E-02  0.1305994E+00
         11   -1    0    0    0    0  0.00000000000E+00  0.00000000000E+00  0.10000027772E+04  0.10000027772E+04  0.51100000000E-03 0. -1.
          2   -1    0    0  501    0 -0.00000000000E+00 -0.00000000000E+00 -0.62222147866E+02  0.62222147918E+02  0.25500000000E-02 0. -1.
         11    1    1    2    0    0  0.11157357672E+02  0.22700197951E+03  0.32889391112E+03  0.39978192819E+03  0.51100000000E-03 0. -1.
         22    1    1    2    0    0 -0.28965222140E+02 -0.23358009042E+02  0.27799946616E+02  0.46448010850E+02  0.00000000000E+00 0.  1.
          2    1    1    2  501    0  0.17807864469E+02 -0.20364397047E+03  0.58108677158E+03  0.61599498606E+03  0.25500000000E-02 0. -1.
<mgrwt>
<rscale>  0 0.88715022E+02</rscale>
<asrwt>0</asrwt>
<pdfrwt beam="1">  1       11 0.10000000E+01 0.21151220E+03</pdfrwt>
<pdfrwt beam="2">  1        2 0.95726644E-02 0.88715022E+02</pdfrwt>
<totfact> 0.78187905E+02</totfact>
</mgrwt>
</event>
<event>
 5    1  0.9955701E-004  0.6603971E+02  0.7818608E-02  0.1512762E+00
         11   -1    0    0    0    0  0.00000000000E+00  0.00000000000E+00  0.10001561829E+04  0.10001561829E+04  0.51100000000E-03 0. -1.
         -2   -1    0    0    0  501 -0.00000000000E+00 -0.00000000000E+00 -0.69910352794E+01  0.69910357445E+01  0.25500000000E-02 0. -1.
         11    1    1    2    0    0  0.57106690984E+02  0.27473975291E+01  0.29531785029E+03  0.30080118858E+03  0.51100000000E-03 0. -1.
         22    1    1    2    0    0  0.13402981171E+02  0.19294005961E+02  0.63405174896E+02  0.67617414723E+02  0.00000000000E+00 0. -1.
         -2    1    1    2    0  501 -0.70509672156E+02 -0.22041403490E+02  0.63444212241E+03  0.63872861532E+03  0.25500000000E-02 0. -1.
<mgrwt>
<rscale>  0 0.39388305E+02</rscale>
<asrwt>0</asrwt>
<pdfrwt beam="1">  1       11 0.10000000E+01 0.66039712E+02</pdfrwt>
<pdfrwt beam="2">  1       -2 0.10757119E-02 0.39388305E+02</pdfrwt>
<totfact> 0.11314321E+04</totfact>
</mgrwt>
</event>
<event>
 5    1  0.9955701E-004  0.1261543E+03  0.7818608E-02  0.1390513E+00
         11   -1    0    0    0    0  0.00000000000E+00  0.00000000000E+00  0.10000701625E+04  0.10000701625E+04  0.51100000000E-03 0. -1.
          2   -1    0    0  501    0 -0.00000000000E+00 -0.00000000000E+00 -0.23016749591E+02  0.23016749732E+02  0.25500000000E-02 0. -1.
         11    1    1    2    0    0  0.84175808848E+02 -0.89739312484E+02  0.58280598126E+03  0.59565218273E+03  0.51100000000E-03 0. -1.
         22    1    1    2    0    0 -0.15450368082E+02 -0.26011336338E+02  0.63369361841E+02  0.70220933575E+02  0.00000000000E+00 0. -1.
          2    1    1    2  501    0 -0.68725440765E+02  0.11575064882E+03  0.33087806978E+03  0.35721379590E+03  0.25500000000E-02 0. -1.
<mgrwt>
<rscale>  0 0.61779209E+02</rscale>
<asrwt>0</asrwt>
<pdfrwt beam="1">  1       11 0.10000000E+01 0.12615432E+03</pdfrwt>
<pdfrwt beam="2">  1        2 0.35412868E-02 0.61779209E+02</pdfrwt>
<totfact> 0.26594512E+03</totfact>
</mgrwt>
</event>
<event>
 5    1  0.9955701E-004  0.7115865E+02  0.7818608E-02  0.1510396E+00
         11   -1    0    0    0    0  0.00000000000E+00  0.00000000000E+00  0.10003629793E+04  0.10003629793E+04  0.51100000000E-03 0.  1.
          2   -1    0    0  501    0 -0.00000000000E+00 -0.00000000000E+00 -0.11105872853E+02  0.11105873146E+02  0.25500000000E-02 0.  1.
         11    1    1    2    0    0  0.55429793943E+02 -0.44664899279E+02  0.29102879089E+03  0.29960836505E+03  0.51100000000E-03 0.  1.
         22    1    1    2    0    0 -0.15703112915E+02 -0.15627578016E+02  0.20144952923E+02  0.29943748565E+02  0.00000000000E+00 0.  1.
          2    1    1    2  501    0 -0.39726681028E+02  0.60292477295E+02  0.67808336268E+03  0.68191673887E+03  0.25500000000E-02 0.  1.
<mgrwt>
<rscale>  0 0.39704694E+02</rscale>
<asrwt>0</asrwt>
<pdfrwt beam="1">  1       11 0.10000000E+01 0.71158647E+02</pdfrwt>
<pdfrwt beam="2">  1        2 0.17092160E-02 0.39704694E+02</pdfrwt>
<totfact> 0.64897122E+03</totfact>
</mgrwt>
</event>
<event>
 5    1  0.9955701E-004  0.8721910E+02  0.7818608E-02  0.1422760E+00
         11   -1    0    0    0    0  0.00000000000E+00  0.00000000000E+00  0.99997573501E+03  0.99997573501E+03  0.51100000000E-03 0. -1.
         -2   -1    0    0    0  501 -0.00000000000E+00 -0.00000000000E+00 -0.25187770954E+02  0.25187771083E+02  0.25500000000E-02 0.  1.
         11    1    1    2    0    0 -0.13621545793E+01  0.10748668862E+03  0.52381204671E+03  0.53472825245E+03  0.51100000000E-03 0. -1.
         22    1    1    2    0    0  0.10605244976E+02 -0.32284500967E+02  0.86602772279E+00  0.33992796703E+02  0.00000000000E+00 0.  1.
         -2    1    1    2    0  501 -0.92430903966E+01 -0.75202187654E+02  0.45010988962E+03  0.45644245693E+03  0.25500000000E-02 0.  1.
<mgrwt>
<rscale>  0 0.54441320E+02</rscale>
<asrwt>0</asrwt>
<pdfrwt beam="1">  1       11 0.10000000E+01 0.87219100E+02</pdfrwt>
<pdfrwt beam="2">  1       -2 0.38749476E-02 0.54441320E+02</pdfrwt>
<totfact> 0.19556830E+03</totfact>
</mgrwt>
</event>
<event>
 5    1  0.9955701E-004  0.2744274E+03  0.7818608E-02  0.1293523E+00
         11   -1    0    0    0    0  0.00000000000E+00  0.00000000000E+00  0.10002444291E+04  0.10002444291E+04  0.51100000000E-03 0. -1.
          2   -1    0    0  501    0 -0.00000000000E+00 -0.00000000000E+00 -0.49510216721E+03  0.49510216721E+03  0.25500000000E-02 0.  1.
         11    1    1    2    0    0  0.14076680811E+03 -0.23427660094E+03  0.91797554003E+03  0.95779951561E+03  0.51100000000E-03 0. -1.
         22    1    1    2    0    0  0.31612626704E+02 -0.59854755398E+01 -0.10867882578E+03  0.11334139252E+03  0.00000000000E+00 0.  1.
          2    1    1    2  501    0 -0.17237943482E+03  0.24026207648E+03 -0.30415445239E+03  0.42420568815E+03  0.25500000000E-02 0.  1.
<mgrwt>
<rscale>  0 0.93965432E+02</rscale>
<asrwt>0</asrwt>
<pdfrwt beam="1">  1       11 0.10000000E+01 0.27442738E+03</pdfrwt>
<pdfrwt beam="2">  1        2 0.76188180E-01 0.93965432E+02</pdfrwt>
<totfact> 0.79605417E+01</totfact>
</mgrwt>
</event>
<event>
 5    1  0.9955701E-004  0.1621130E+03  0.7818608E-02  0.1202482E+00
         11   -1    0    0    0    0  0.00000000000E+00  0.00000000000E+00  0.10002237134E+04  0.10002237134E+04  0.51100000000E-03 0.  1.
         -2   -1    0    0    0  501 -0.00000000000E+00 -0.00000000000E+00 -0.25207393536E+02  0.25207393665E+02  0.25500000000E-02 0. -1.
         11    1    1    2    0    0  0.54192565797E+02  0.89423484408E+02  0.19175138606E+03  0.21840784740E+03  0.51100000000E-03 0.  1.
         22    1    1    2    0    0  0.97372999252E+01  0.44474144893E+02  0.20879483962E+03  0.21370084143E+03  0.00000000000E+00 0.  1.
         -2    1    1    2    0  501 -0.63929865722E+02 -0.13389762930E+03  0.57447009421E+03  0.59332241826E+03  0.25500000000E-02 0. -1.
<mgrwt>
<rscale>  0 0.14837656E+03</rscale>
<asrwt>0</asrwt>
<pdfrwt beam="1">  1       11 0.10000000E+01 0.16211305E+03</pdfrwt>
<pdfrwt beam="2">  1       -2 0.38789280E-02 0.14837656E+03</pdfrwt>
<totfact> 0.21762829E+03</totfact>
</mgrwt>
</event>
<event>
 5    1  0.9955701E-004  0.4773699E+02  0.7818608E-02  0.1625080E+00
         11   -1    0    0    0    0  0.00000000000E+00  0.00000000000E+00  0.10003114638E+04  0.10003114638E+04  0.51100000000E-03 0.  1.
          2   -1    0    0  501    0 -0.00000000000E+00 -0.00000000000E+00 -0.75844439289E+01  0.75844443575E+01  0.25500000000E-02 0.  1.
         11    1    1    2    0    0  0.48660910043E+02  0.35997244874E+02  0.17852660211E+03  0.18850844402E+03  0.51100000000E-03 0.  1.
         22    1    1    2    0    0 -0.83368093236E+01 -0.13733281297E+02  0.31758019571E+02  0.35590408988E+02  0.00000000000E+00 0. -1.
          2    1    1    2  501    0 -0.40324100719E+02 -0.22263963578E+02  0.78244239822E+03  0.78379705519E+03  0.25500000000E-02 0.  1.
<mgrwt>
<rscale>  0 0.27693426E+02</rscale>
<asrwt>0</asrwt>
<pdfrwt beam="1">  1       11 0.10000000E+01 0.47736992E+02</pdfrwt>
<pdfrwt beam="2">  1        2 0.11672010E-02 0.27693426E+02</pdfrwt>
<totfact> 0.10014038E+04</totfact>
</mgrwt>
</event>
<event>
 5    1  0.9955701E-004  0.4849802E+02  0.7818608E-02  0.1453615E+00
         11   -1    0    0    0    0  0.00000000000E+00  0.00000000000E+00  0.10000090413E+04  0.10000090413E+04  0.51100000000E-03 0. -1.
          2   -1    0    0  501    0 -0.00000000000E+00 -0.00000000000E+00 -0.23589640766E+02  0.23589640903E+02  0.25500000000E-02 0. -1.
         11    1    1    2    0    0 -0.12880710104E+02  0.39469617968E+02  0.14052648916E+03  0.14653142185E+03  0.51100000000E-03 0. -1.
         22    1    1    2    0    0  0.33784763315E+02  0.33833069209E+02  0.11524556895E+02  0.49182336422E+02  0.00000000000E+00 0. -1.
          2    1    1    2  501    0 -0.20904053210E+02 -0.73302687177E+02  0.82436835447E+03  0.82788492392E+03  0.25500000000E-02 0. -1.
<mgrwt>
<rscale>  0 0.48498021E+02</rscale>
<asrwt>0</asrwt>
<pdfrwt beam="1">  1       11 0.10000000E+01 0.41518230E+02</pdfrwt>
<pdfrwt beam="2">  1        2 0.36292082E-02 0.48498021E+02</pdfrwt>
<totfact> 0.25027826E+03</totfact>
</mgrwt>
</event>
<event>
 5    1  0.9955701E-004  0.9501625E+02  0.7818608E-02  0.1467545E+00
         11   -1    0    0    0    0  0.00000000000E+00  0.00000000000E+00  0.10000290062E+04  0.10000290062E+04  0.51100000000E-03 0. -1.
          2   -1    0    0  501    0 -0.00000000000E+00 -0.00000000000E+00 -0.11822507369E+02  0.11822507644E+02  0.25500000000E-02 0. -1.
         11    1    1    2    0    0 -0.90384682481E+02 -0.44961689812E+02  0.39576390922E+03  0.40843606136E+03  0.51100000000E-03 0. -1.
         22    1    1    2    0    0  0.12999357759E+01  0.22336075142E+02  0.10053538775E+03  0.10299492354E+03  0.00000000000E+00 0. -1.
          2    1    1    2  501    0  0.89084746705E+02  0.22625614670E+02  0.49190720183E+03  0.50042052891E+03  0.25500000000E-02 0. -1.
<mgrwt>
<rscale>  0 0.46107269E+02</rscale>
<asrwt>0</asrwt>
<pdfrwt beam="1">  1       11 0.10000000E+01 0.95016251E+02</pdfrwt>
<pdfrwt beam="2">  1        2 0.18189000E-02 0.46107269E+02</pdfrwt>
<totfact> 0.61260880E+03</totfact>
</mgrwt>
</event>
<event>
 5    1  0.9955701E-004  0.1232174E+03  0.7818608E-02  0.1388758E+00
         11   -1    0    0    0    0  0.00000000000E+00  0.00000000000E+00  0.99999106981E+03  0.99999106981E+03  0.51100000000E-03 0.  1.
         -2   -1    0    0    0  501 -0.00000000000E+00 -0.00000000000E+00 -0.32522322584E+02  0.32522322684E+02  0.25500000000E-02 0. -1.
         11    1    1    2    0    0  0.84575271734E+02 -0.10127972720E+03  0.62542212751E+03  0.63918964112E+03  0.51100000000E-03 0.  1.
         22    1    1    2    0    0  0.42246900401E+01  0.31129915284E+02 -0.16673766257E+01  0.31459494216E+02  0.00000000000E+00 0. -1.
         -2    1    1    2    0  501 -0.88799961774E+02  0.70149811919E+02  0.34371399634E+03  0.36186425716E+03  0.25500000000E-02 0. -1.
<mgrwt>
<rscale>  0 0.62216622E+02</rscale>
<asrwt>0</asrwt>
<pdfrwt beam="1">  1       11 0.10000000E+01 0.12321738E+03</pdfrwt>
<pdfrwt beam="2">  1       -2 0.50033894E-02 0.62216622E+02</pdfrwt>
<totfact> 0.13683940E+03</totfact>
</mgrwt>
</event>
<event>
 5    1  0.9955701E-004  0.1235181E+03  0.7818608E-02  0.1237404E+00
         11   -1    0    0    0    0  0.00000000000E+00  0.00000000000E+00  0.10001601268E+04  0.10001601268E+04  0.51100000000E-03 0.  1.
          2   -1    0    0  501    0 -0.00000000000E+00 -0.00000000000E+00 -0.14766610186E+02  0.14766610406E+02  0.25500000000E-02 0.  1.
         11    1    1    2    0    0 -0.34549635486E+02  0.11273795439E+03  0.53995999145E+03  0.55268464430E+03  0.51100000000E-03 0.  1.
         22    1    1    2    0    0  0.17203667023E+02 -0.13125559644E+02  0.60613961591E+02  0.64360693088E+02  0.00000000000E+00 0. -1.
          2    1    1    2  501    0  0.17345968463E+02 -0.99612394747E+02  0.38481956355E+03  0.39788139980E+03  0.25500000000E-02 0.  1.
<mgrwt>
<rscale>  0 0.12351812E+03</rscale>
<asrwt>0</asrwt>
<pdfrwt beam="1">  1       11 0.10000000E+01 0.11791320E+03</pdfrwt>
<pdfrwt beam="2">  1        2 0.22721499E-02 0.12351812E+03</pdfrwt>
<totfact> 0.51966483E+03</totfact>
</mgrwt>
</event>
<event>
 5    1  0.1745100E-003  0.2692326E+03  0.7818608E-02  0.1432336E+00
         11   -1    0    0    0    0  0.00000000000E+00  0.00000000000E+00  0.10001054678E+04  0.10001054678E+04  0.51100000000E-03 0. -1.
          2   -1    0    0  501    0 -0.00000000000E+00 -0.00000000000E+00 -0.13938311993E+04  0.13938311993E+04  0.25500000000E-02 0. -1.
         11    1    1    2    0    0 -0.20170932476E+03  0.17830446334E+03  0.96741115976E+03  0.10041730356E+04  0.51100000000E-03 0. -1.
         22    1    1    2    0    0 -0.74656984111E+01 -0.70014325426E+01 -0.46633719573E+02  0.47743696041E+02  0.00000000000E+00 0. -1.
          2    1    1    2  501    0  0.20917502317E+03 -0.17130303079E+03 -0.13145031717E+04  0.13420199354E+04  0.25500000000E-02 0. -1.
<mgrwt>
<rscale>  0 0.52493952E+02</rscale>
<asrwt>0</asrwt>
<pdfrwt beam="1">  1       11 0.10000000E+01 0.26923258E+03</pdfrwt>
<pdfrwt beam="2">  1        2 0.21445818E+00 0.52493952E+02</pdfrwt>
<totfact> 0.22032474E+01</totfact>
</mgrwt>
</event>
<event>
 5    1  0.9955701E-004  0.2278046E+03  0.7818608E-02  0.1323681E+00
         11   -1    0    0    0    0  0.00000000000E+00  0.00000000000E+00  0.10001205839E+04  0.10001205839E+04  0.51100000000E-03 0. -1.
          2   -1    0    0  501    0 -0.00000000000E+00 -0.00000000000E+00 -0.60918536695E+02  0.60918536748E+02  0.25500000000E-02 0. -1.
         11    1    1    2    0    0  0.20910946603E+03  0.10698566414E+03  0.43899366695E+03  0.49788366185E+03  0.51100000000E-03 0. -1.
         22    1    1    2    0    0 -0.24179294691E+02  0.16832350667E+02  0.25891160493E+02  0.39221403754E+02  0.00000000000E+00 0. -1.
          2    1    1    2  501    0 -0.18493017134E+03 -0.12381801481E+03  0.47431721974E+03  0.52393405502E+03  0.25500000000E-02 0. -1.
<mgrwt>
<rscale>  0 0.81923182E+02</rscale>
<asrwt>0</asrwt>
<pdfrwt beam="1">  1       11 0.10000000E+01 0.22780456E+03</pdfrwt>
<pdfrwt beam="2">  1        2 0.93732124E-02 0.81923182E+02</pdfrwt>
<totfact> 0.79789861E+02</totfact>
</mgrwt>
</event>
<event>
 5    1  0.9955701E-004  0.9991715E+02  0.7818608E-02  0.1400507E+00
         11   -1    0    0    0    0  0.00000000000E+00  0.00000000000E+00  0.10001636089E+04  0.10001636089E+04  0.51100000000E-03 0. -1.
          2   -1    0    0  501    0 -0.00000000000E+00 -0.00000000000E+00 -0.17986348988E+02  0.17986349169E+02  0.25500000000E-02 0. -1.
         11    1    1    2    0    0 -0.99273409797E+02  0.66495281815E+02  0.55010399759E+03  0.56293093764E+03  0.51100000000E-03 0. -1.
         22    1    1    2    0    0  0.22973176115E+02 -0.26766941742E+02  0.37927906173E+02  0.51795386452E+02  0.00000000000E+00 0. -1.
          2    1    1    2  501    0  0.76300233682E+02 -0.39728340073E+02  0.39414535616E+03  0.40342363398E+03  0.25500000000E-02 0. -1.
<mgrwt>
<rscale>  0 0.59367067E+02</rscale>
<asrwt>0</asrwt>
<pdfrwt beam="1">  1       11 0.10000000E+01 0.99917146E+02</pdfrwt>
<pdfrwt beam="2">  1        2 0.27675833E-02 0.59367067E+02</pdfrwt>
<totfact> 0.36526912E+03</totfact>
</mgrwt>
</event>
<event>
 5    1  0.9955701E-004  0.2588249E+03  0.7818608E-02  0.1107851E+00
         11   -1    0    0    0    0  0.00000000000E+00  0.00000000000E+00  0.10001079379E+04  0.10001079379E+04  0.51100000000E-03 0. -1.
          2   -1    0    0  501    0 -0.00000000000E+00 -0.00000000000E+00 -0.78294271212E+02  0.78294271254E+02  0.25500000000E-02 0. -1.
         11    1    1    2    0    0  0.24715374540E+02  0.31867517117E+01  0.10215940827E+03  0.10515488493E+03  0.51100000000E-03 0. -1.
         22    1    1    2    0    0 -0.14555912389E+03  0.21939730313E+03  0.33185689145E+03  0.42361731736E+03  0.00000000000E+00 0. -1.
          2    1    1    2  501    0  0.12084374935E+03 -0.22258405484E+03  0.48779736701E+03  0.54963000690E+03  0.25500000000E-02 0. -1.
<mgrwt>
<rscale>  0 0.25882487E+03</rscale>
<asrwt>0</asrwt>
<pdfrwt beam="1">  1       11 0.10000000E+01 0.24919974E+02</pdfrwt>
<pdfrwt beam="2">  1        2 0.12046572E-01 0.25882487E+03</pdfrwt>
<totfact> 0.62496844E+02</totfact>
</mgrwt>
</event>
<event>
 5    1  0.9955701E-004  0.2649055E+03  0.7818608E-02  0.1104231E+00
         11   -1    0    0    0    0  0.00000000000E+00  0.00000000000E+00  0.99998505168E+03  0.99998505168E+03  0.51100000000E-03 0. -1.
          2   -1    0    0  501    0 -0.00000000000E+00 -0.00000000000E+00 -0.67177358370E+03  0.67177358370E+03  0.25500000000E-02 0. -1.
         11    1    1    2    0    0 -0.17048235875E+03 -0.18896158664E+03  0.95656776761E+03  0.98984474030E+03  0.51100000000E-03 0. -1.
         22    1    1    2    0    0  0.25199081107E+02  0.15007173234E+01 -0.37198758396E+02  0.44955460929E+02  0.00000000000E+00 0. -1.
          2    1    1    2  501    0  0.14528327764E+03  0.18746086931E+03 -0.59115754123E+03  0.63695843415E+03  0.25500000000E-02 0. -1.
<mgrwt>
<rscale>  0 0.26490549E+03</rscale>
<asrwt>0</asrwt>
<pdfrwt beam="1">  1       11 0.10000000E+01 0.25450092E+03</pdfrwt>
<pdfrwt beam="2">  1        2 0.10334823E+00 0.26490549E+03</pdfrwt>
<totfact> 0.55073050E+01</totfact>
</mgrwt>
</event>
<event>
 5    1  0.9955701E-004  0.1618714E+03  0.7818608E-02  0.1296094E+00
         11   -1    0    0    0    0  0.00000000000E+00  0.00000000000E+00  0.99983490835E+03  0.99983490835E+03  0.51100000000E-03 0. -1.
         -2   -1    0    0    0  501 -0.00000000000E+00 -0.00000000000E+00 -0.11295707534E+03  0.11295707537E+03  0.25500000000E-02 0.  1.
         11    1    1    2    0    0  0.14120004210E+03 -0.63476817975E+02  0.72671560477E+03  0.74302242801E+03  0.51100000000E-03 0. -1.
         22    1    1    2    0    0  0.50737867852E+02  0.16190831923E+02 -0.55704116883E+02  0.77067651516E+02  0.00000000000E+00 0.  1.
         -2    1    1    2    0  501 -0.19193790995E+03  0.47285986052E+02  0.21586634512E+03  0.29270190419E+03  0.25500000000E-02 0.  1.
<mgrwt>
<rscale>  0 0.92849557E+02</rscale>
<asrwt>0</asrwt>
<pdfrwt beam="1">  1       11 0.10000000E+01 0.16187145E+03</pdfrwt>
<pdfrwt beam="2">  1       -2 0.17375142E-01 0.92849557E+02</pdfrwt>
<totfact> 0.20603980E+02</totfact>
</mgrwt>
</event>
<event>
 5    1  0.9955701E-004  0.6503327E+02  0.7818608E-02  0.1516108E+00
         11   -1    0    0    0    0  0.00000000000E+00  0.00000000000E+00  0.10001803038E+04  0.10001803038E+04  0.51100000000E-03 0. -1.
          2   -1    0    0  501    0 -0.00000000000E+00 -0.00000000000E+00 -0.76203284628E+01  0.76203288894E+01  0.25500000000E-02 0. -1.
         11    1    1    2    0    0  0.48815644374E+02  0.61307184887E+02  0.44730884031E+03  0.45412194031E+03  0.51100000000E-03 0. -1.
         22    1    1    2    0    0 -0.45334016439E+01 -0.22879429556E+02  0.52453779348E+02  0.57405740089E+02  0.00000000000E+00 0. -1.
          2    1    1    2  501    0 -0.44282242730E+02 -0.38427755331E+02  0.49279735569E+03  0.49627295230E+03  0.25500000000E-02 0. -1.
<mgrwt>
<rscale>  0 0.38946768E+02</rscale>
<asrwt>0</asrwt>
<pdfrwt beam="1">  1       11 0.10000000E+01 0.65033273E+02</pdfrwt>
<pdfrwt beam="2">  1        2 0.11725696E-02 0.38946768E+02</pdfrwt>
<totfact> 0.10643592E+04</totfact>
</mgrwt>
</event>
<event>
 5    1  0.9955701E-004  0.2062663E+03  0.7818608E-02  0.1406814E+00
         11   -1    0    0    0    0  0.00000000000E+00  0.00000000000E+00  0.10002787932E+04  0.10002787932E+04  0.51100000000E-03 0. -1.
          2   -1    0    0  501    0 -0.00000000000E+00 -0.00000000000E+00 -0.50984534092E+02  0.50984534156E+02  0.25500000000E-02 0. -1.
         11    1    1    2    0    0  0.20751334959E+03  0.40707743837E+02  0.56881506652E+03  0.60685211590E+03  0.51100000000E-03 0. -1.
         22    1    1    2    0    0 -0.13954161658E+02  0.83446282116E+01  0.18602596445E+01  0.16364962985E+02  0.00000000000E+00 0.  1.
          2    1    1    2  501    0 -0.19355918794E+03 -0.49052372049E+02  0.37861893290E+03  0.42804624843E+03  0.25500000000E-02 0. -1.
<mgrwt>
<rscale>  0 0.57910798E+02</rscale>
<asrwt>0</asrwt>
<pdfrwt beam="1">  1       11 0.10000000E+01 0.20626629E+03</pdfrwt>
<pdfrwt beam="2">  1        2 0.78459610E-02 0.57910798E+02</pdfrwt>
<totfact> 0.96585420E+02</totfact>
</mgrwt>
</event>
<event>
 5    1  0.9955701E-004  0.5034867E+02  0.7818608E-02  0.1473895E+00
         11   -1    0    0    0    0  0.00000000000E+00  0.00000000000E+00  0.10001922757E+04  0.10001922757E+04  0.51100000000E-03 0. -1.
          2   -1    0    0  501    0 -0.00000000000E+00 -0.00000000000E+00 -0.81551364832E+01  0.81551368818E+01  0.25500000000E-02 0. -1.
         11    1    1    2    0    0 -0.40465561396E+02 -0.75294210879E+01  0.16740438961E+03  0.17239020709E+03  0.51100000000E-03 0. -1.
         22    1    1    2    0    0 -0.88566827134E+01  0.39363719773E+02  0.85989846182E+02  0.94985245747E+02  0.00000000000E+00 0. -1.
          2    1    1    2  501    0  0.49322244109E+02 -0.31834298685E+02  0.73864290340E+03  0.74097195971E+03  0.25500000000E-02 0. -1.
<mgrwt>
<rscale>  0 0.45071676E+02</rscale>
<asrwt>0</asrwt>
<pdfrwt beam="1">  1       11 0.10000000E+01 0.50348669E+02</pdfrwt>
<pdfrwt beam="2">  1        2 0.12548776E-02 0.45071676E+02</pdfrwt>
<totfact> 0.99883970E+03</totfact>
</mgrwt>
</event>
<event>
 5    1  0.9955701E-004  0.1759178E+03  0.7818608E-02  0.1171813E+00
         11   -1    0    0    0    0  0.00000000000E+00  0.00000000000E+00  0.10001764883E+04  0.10001764883E+04  0.51100000000E-03 0. -1.
          2   -1    0    0  501    0 -0.00000000000E+00 -0.00000000000E+00 -0.11835818094E+03  0.11835818097E+03  0.25500000000E-02 0. -1.
         11    1    1    2    0    0  0.10441060238E+03 -0.95605084815E+02  0.65799224416E+03  0.67304955205E+03  0.51100000000E-03 0. -1.
         22    1    1    2    0    0  0.25116775152E+02  0.20960799076E+03  0.14270825509E+03  0.25481759801E+03  0.00000000000E+00 0. -1.
          2    1    1    2  501    0 -0.12952737753E+03 -0.11400290594E+03  0.81117808129E+02  0.19066751924E+03  0.25500000000E-02 0. -1.
<mgrwt>
<rscale>  0 0.17591780E+03</rscale>
<asrwt>0</asrwt>
<pdfrwt beam="1">  1       11 0.10000000E+01 0.14156944E+03</pdfrwt>
<pdfrwt beam="2">  1        2 0.18212164E-01 0.17591780E+03</pdfrwt>
<totfact> 0.37707498E+02</totfact>
</mgrwt>
</event>
<event>
 5    1  0.9955701E-004  0.1286118E+03  0.7818608E-02  0.1356643E+00
         11   -1    0    0    0    0  0.00000000000E+00  0.00000000000E+00  0.10002118657E+04  0.10002118657E+04  0.51100000000E-03 0.  1.
          2   -1    0    0  501    0 -0.00000000000E+00 -0.00000000000E+00 -0.11231366708E+03  0.11231366711E+03  0.25500000000E-02 0.  1.
         11    1    1    2    0    0  0.20621487264E+01 -0.12680328294E+03  0.72349848892E+03  0.73452936530E+03  0.51100000000E-03 0.  1.
         22    1    1    2    0    0 -0.65165255613E+02  0.15939920729E+03 -0.26573319205E+02  0.17424339045E+03  0.00000000000E+00 0.  1.
          2    1    1    2  501    0  0.63103106887E+02 -0.32595924345E+02  0.19097302886E+03  0.20375277701E+03  0.25500000000E-02 0.  1.
<mgrwt>
<rscale>  0 0.71024618E+02</rscale>
<asrwt>0</asrwt>
<pdfrwt beam="1">  1       11 0.10000000E+01 0.12861185E+03</pdfrwt>
<pdfrwt beam="2">  1        2 0.17282686E-01 0.71024618E+02</pdfrwt>
<totfact> 0.38628294E+02</totfact>
</mgrwt>
</event>
<event>
 5    1  0.9955701E-004  0.5221822E+02  0.7818608E-02  0.1648634E+00
         11   -1    0    0    0    0  0.00000000000E+00  0.00000000000E+00  0.10002272119E+04  0.10002272119E+04  0.51100000000E-03 0.  1.
          2   -1    0    0  501    0 -0.00000000000E+00 -0.00000000000E+00 -0.81560781400E+01  0.81560785386E+01  0.25500000000E-02 0.  1.
         11    1    1    2    0    0 -0.52120659243E+02  0.14616919136E+02  0.11864468832E+03  0.13041004376E+03  0.51100000000E-03 0.  1.
         22    1    1    2    0    0  0.66794300922E+01  0.10953444890E+02  0.26489210082E+02  0.29432481922E+02  0.00000000000E+00 0.  1.
          2    1    1    2  501    0  0.45441229151E+02 -0.25570364026E+02  0.84693723540E+03  0.84854076481E+03  0.25500000000E-02 0.  1.
<mgrwt>
<rscale>  0 0.25882938E+02</rscale>
<asrwt>0</asrwt>
<pdfrwt beam="1">  1       11 0.10000000E+01 0.52218216E+02</pdfrwt>
<pdfrwt beam="2">  1        2 0.12550663E-02 0.25882938E+02</pdfrwt>
<totfact> 0.89824069E+03</totfact>
</mgrwt>
</event>
<event>
 5    1  0.9955701E-004  0.1607519E+03  0.7818608E-02  0.1498046E+00
         11   -1    0    0    0    0  0.00000000000E+00  0.00000000000E+00  0.10001715418E+04  0.10001715418E+04  0.51100000000E-03 0. -1.
          2   -1    0    0  501    0 -0.00000000000E+00 -0.00000000000E+00 -0.54811070894E+02  0.54811070953E+02  0.25500000000E-02 0.  1.
         11    1    1    2    0    0 -0.13301180351E+03  0.94560764192E+02  0.78227265432E+03  0.79911475002E+03  0.51100000000E-03 0. -1.
         22    1    1    2    0    0  0.78540230349E+01 -0.72225538848E+01 -0.16836678445E+02  0.19933005381E+02  0.00000000000E+00 0.  1.
          2    1    1    2  501    0  0.12515778048E+03 -0.87338210307E+02  0.17992449501E+03  0.23593485733E+03  0.25500000000E-02 0.  1.
<mgrwt>
<rscale>  0 0.41415432E+02</rscale>
<asrwt>0</asrwt>
<pdfrwt beam="1">  1       11 0.10000000E+01 0.16075187E+03</pdfrwt>
<pdfrwt beam="2">  1        2 0.84339187E-02 0.41415432E+02</pdfrwt>
<totfact> 0.86005643E+02</totfact>
</mgrwt>
</event>
<event>
 5    1  0.9955701E-004  0.7357635E+02  0.7818608E-02  0.1438267E+00
         11   -1    0    0    0    0  0.00000000000E+00  0.00000000000E+00  0.10003949738E+04  0.10003949738E+04  0.51100000000E-03 0. -1.
          2   -1    0    0  501    0 -0.00000000000E+00 -0.00000000000E+00 -0.12637043040E+02  0.12637043298E+02  0.25500000000E-02 0. -1.
         11    1    1    2    0    0 -0.61962132771E+02  0.71321131179E+02  0.53703852108E+03  0.54528559744E+03  0.51100000000E-03 0. -1.
         22    1    1    2    0    0  0.12648064498E+02 -0.33510515101E+02  0.46081055751E+02  0.58364302934E+02  0.00000000000E+00 0. -1.
          2    1    1    2  501    0  0.49314068273E+02 -0.37810616078E+02  0.40463835398E+03  0.40938211677E+03  0.25500000000E-02 0. -1.
<mgrwt>
<rscale>  0 0.51335711E+02</rscale>
<asrwt>0</asrwt>
<pdfrwt beam="1">  1       11 0.10000000E+01 0.73576345E+02</pdfrwt>
<pdfrwt beam="2">  1        2 0.19449283E-02 0.51335711E+02</pdfrwt>
<totfact> 0.57007412E+03</totfact>
</mgrwt>
</event>
<event>
 5    1  0.9955701E-004  0.2264631E+03  0.7818608E-02  0.1297427E+00
         11   -1    0    0    0    0  0.00000000000E+00  0.00000000000E+00  0.10001650715E+04  0.10001650715E+04  0.51100000000E-03 0.  1.
          2   -1    0    0  501    0 -0.00000000000E+00 -0.00000000000E+00 -0.27562497990E+03  0.27562497991E+03  0.25500000000E-02 0.  1.
         11    1    1    2    0    0  0.11965938445E+03 -0.19222589515E+03  0.78634687196E+03  0.81829735799E+03  0.51100000000E-03 0.  1.
         22    1    1    2    0    0  0.31700741080E+02  0.20220937730E+02 -0.19085974932E+03  0.19452831984E+03  0.00000000000E+00 0.  1.
          2    1    1    2  501    0 -0.15136012553E+03  0.17200495742E+03  0.12905296897E+03  0.26296437360E+03  0.25500000000E-02 0.  1.
<mgrwt>
<rscale>  0 0.92277855E+02</rscale>
<asrwt>0</asrwt>
<pdfrwt beam="1">  1       11 0.10000000E+01 0.22646308E+03</pdfrwt>
<pdfrwt beam="2">  1        2 0.42410842E-01 0.92277855E+02</pdfrwt>
<totfact> 0.14762834E+02</totfact>
</mgrwt>
</event>
<event>
 5    1  0.9955701E-004  0.2596186E+02  0.7818608E-02  0.1647559E+00
         11   -1    0    0    0    0  0.00000000000E+00  0.00000000000E+00  0.99998251143E+03  0.99998251143E+03  0.51100000000E-03 0.  1.
          2   -1    0    0  501    0 -0.00000000000E+00 -0.00000000000E+00 -0.97540590287E+02  0.97540590321E+02  0.25500000000E-02 0.  1.
         11    1    1    2    0    0  0.26460407716E+01 -0.16646327416E+02  0.13167055378E+01  0.16906669156E+02  0.51100000000E-03 0.  1.
         22    1    1    2    0    0 -0.22502655699E+02  0.12988285529E+02 -0.87759899198E+02  0.91525215005E+02  0.00000000000E+00 0.  1.
          2    1    1    2  501    0  0.19856614927E+02  0.36580418876E+01  0.98888511480E+03  0.98909121759E+03  0.25500000000E-02 0.  1.
<mgrwt>
<rscale>  0 0.25961861E+02</rscale>
<asrwt>0</asrwt>
<pdfrwt beam="1">  1       11 0.10000000E+01 0.16855327E+02</pdfrwt>
<pdfrwt beam="2">  1        2 0.15005982E-01 0.25961861E+02</pdfrwt>
<totfact> 0.42654395E+02</totfact>
</mgrwt>
</event>
<event>
 5    1  0.9955701E-004  0.1671032E+03  0.7818608E-02  0.1234876E+00
         11   -1    0    0    0    0  0.00000000000E+00  0.00000000000E+00  0.10002027990E+04  0.10002027990E+04  0.51100000000E-03 0.  1.
          2   -1    0    0  501    0 -0.00000000000E+00 -0.00000000000E+00 -0.18752595440E+03  0.18752595441E+03  0.25500000000E-02 0.  1.
         11    1    1    2    0    0 -0.18233187152E+03 -0.61515359524E+02  0.37609903983E+03  0.42246838769E+03  0.51100000000E-03 0.  1.
         22    1    1    2    0    0  0.22612577005E+02  0.90920693482E+02 -0.13876684129E+03  0.16743397917E+03  0.00000000000E+00 0.  1.
          2    1    1    2  501    0  0.15971929452E+03 -0.29405333958E+02  0.57534464608E+03  0.59782638658E+03  0.25500000000E-02 0.  1.
<mgrwt>
<rscale>  0 0.12512382E+03</rscale>
<asrwt>0</asrwt>
<pdfrwt beam="1">  1       11 0.10000000E+01 0.16710323E+03</pdfrwt>
<pdfrwt beam="2">  1        2 0.28855997E-01 0.12512382E+03</pdfrwt>
<totfact> 0.22344184E+02</totfact>
</mgrwt>
</event>
<event>
 5    1  0.9955701E-004  0.1415905E+03  0.7818608E-02  0.1360176E+00
         11   -1    0    0    0    0  0.00000000000E+00  0.00000000000E+00  0.10003396045E+04  0.10003396045E+04  0.51100000000E-03 0. -1.
          2   -1    0    0  501    0 -0.00000000000E+00 -0.00000000000E+00 -0.64021960391E+02  0.64021960441E+02  0.25500000000E-02 0. -1.
         11    1    1    2    0    0  0.14326863887E+03 -0.25942938837E+02  0.87986366731E+03  0.89182902622E+03  0.51100000000E-03 0. -1.
         22    1    1    2    0    0 -0.23729664477E+02  0.25156926165E+02 -0.96862634598E+01  0.35913668848E+02  0.00000000000E+00 0. -1.
          2    1    1    2  501    0 -0.11953897439E+03  0.78601267214E+00  0.66140240241E+02  0.13661886985E+03  0.25500000000E-02 0. -1.
<mgrwt>
<rscale>  0 0.69975647E+02</rscale>
<asrwt>0</asrwt>
<pdfrwt beam="1">  1       11 0.10000000E+01 0.14159049E+03</pdfrwt>
<pdfrwt beam="2">  1        2 0.98528770E-02 0.69975647E+02</pdfrwt>
<totfact> 0.74311832E+02</totfact>
</mgrwt>
</event>
<event>
 5    1  0.9955701E-004  0.9985393E+03  0.7818608E-02  0.1139937E+00
         11   -1    0    0    0    0  0.00000000000E+00  0.00000000000E+00  0.10001795237E+04  0.10001795237E+04  0.51100000000E-03 0. -1.
          2   -1    0    0  501    0 -0.00000000000E+00 -0.00000000000E+00 -0.12100211101E+04  0.12100211101E+04  0.25500000000E-02 0. -1.
         11    1    1    2    0    0 -0.96242444373E+03 -0.31160014195E+03  0.29799673832E+03  0.10545887892E+04  0.51100000000E-03 0. -1.
         22    1    1    2    0    0  0.43987504268E+02 -0.96789381161E+01 -0.81880464024E+02  0.93450482950E+02  0.00000000000E+00 0.  1.
          2    1    1    2  501    0  0.91843693946E+03  0.32127908007E+03 -0.42595786065E+03  0.10621613616E+04  0.25500000000E-02 0. -1.
<mgrwt>
<rscale>  0 0.21207074E+03</rscale>
<asrwt>0</asrwt>
<pdfrwt beam="1">  1       11 0.10000000E+01 0.99853932E+03</pdfrwt>
<pdfrwt beam="2">  1        2 0.18619051E+00 0.21207074E+03</pdfrwt>
<totfact> 0.25056846E+01</totfact>
</mgrwt>
</event>
<event>
 5    1  0.9955701E-004  0.1750181E+03  0.7818608E-02  0.1489106E+00
         11   -1    0    0    0    0  0.00000000000E+00  0.00000000000E+00  0.10000084512E+04  0.10000084512E+04  0.51100000000E-03 0. -1.
         -2   -1    0    0    0  501 -0.00000000000E+00 -0.00000000000E+00 -0.49542704502E+02  0.49542704567E+02  0.25500000000E-02 0.  1.
         11    1    1    2    0    0  0.13407572841E+03  0.11690394843E+03  0.63623290627E+03  0.66063238275E+03  0.51100000000E-03 0. -1.
         22    1    1    2    0    0 -0.10426311796E+02  0.11666184516E+00 -0.15003705146E+02  0.18271090711E+02  0.00000000000E+00 0.  1.
         -2    1    1    2    0  501 -0.12364941661E+03 -0.11702061027E+03  0.32923654556E+03  0.37064768230E+03  0.25500000000E-02 0.  1.
<mgrwt>
<rscale>  0 0.42718934E+02</rscale>
<asrwt>0</asrwt>
<pdfrwt beam="1">  1       11 0.10000000E+01 0.17501808E+03</pdfrwt>
<pdfrwt beam="2">  1       -2 0.76220187E-02 0.42718934E+02</pdfrwt>
<totfact> 0.70636044E+02</totfact>
</mgrwt>
</event>
<event>
 5    1  0.9955701E-004  0.1507831E+03  0.7818608E-02  0.1382790E+00
         11   -1    0    0    0    0  0.00000000000E+00  0.00000000000E+00  0.10000345216E+04  0.10000345216E+04  0.51100000000E-03 0. -1.
         -2   -1    0    0    0  501 -0.00000000000E+00 -0.00000000000E+00 -0.29086244682E+02  0.29086244794E+02  0.25500000000E-02 0. -1.
         11    1    1    2    0    0  0.14828338140E+03  0.89888340369E+01  0.42843522114E+03  0.45345947895E+03  0.51100000000E-03 0. -1.
         22    1    1    2    0    0  0.13570006295E+01  0.26907174156E+02  0.28986817715E+02  0.39573641139E+02  0.00000000000E+00 0.  1.
         -2    1    1    2    0  501 -0.14964038203E+03 -0.35896008193E+02  0.51352623810E+03  0.53608764634E+03  0.25500000000E-02 0. -1.
<mgrwt>
<rscale>  0 0.63736176E+02</rscale>
<asrwt>0</asrwt>
<pdfrwt beam="1">  1       11 0.10000000E+01 0.15078305E+03</pdfrwt>
<pdfrwt beam="2">  1       -2 0.44749612E-02 0.63736176E+02</pdfrwt>
<totfact> 0.16159020E+03</totfact>
</mgrwt>
</event>
<event>
 5    1  0.9955701E-004  0.1659546E+03  0.7818608E-02  0.1499623E+00
         11   -1    0    0    0    0  0.00000000000E+00  0.00000000000E+00  0.10000888761E+04  0.10000888761E+04  0.51100000000E-03 0. -1.
          2   -1    0    0  501    0 -0.00000000000E+00 -0.00000000000E+00 -0.39371836104E+02  0.39371836187E+02  0.25500000000E-02 0. -1.
         11    1    1    2    0    0  0.73904901616E+02  0.15659781677E+03  0.26849417804E+03  0.31949011619E+03  0.51100000000E-03 0. -1.
         22    1    1    2    0    0 -0.65005071694E+01 -0.78914442231E+01  0.16460504083E+01  0.10355721478E+02  0.00000000000E+00 0.  1.
          2    1    1    2  501    0 -0.67404394447E+02 -0.14870637255E+03  0.69057681152E+03  0.70961487459E+03  0.25500000000E-02 0. -1.
<mgrwt>
<rscale>  0 0.41191376E+02</rscale>
<asrwt>0</asrwt>
<pdfrwt beam="1">  1       11 0.10000000E+01 0.16595458E+03</pdfrwt>
<pdfrwt beam="2">  1        2 0.60577437E-02 0.41191376E+02</pdfrwt>
<totfact> 0.12865078E+03</totfact>
</mgrwt>
</event>
<event>
 5    1  0.9955701E-004  0.3244834E+02  0.7818608E-02  0.1674541E+00
         11   -1    0    0    0    0  0.00000000000E+00  0.00000000000E+00  0.10001710427E+04  0.10001710427E+04  0.51100000000E-03 0. -1.
          2   -1    0    0  501    0 -0.00000000000E+00 -0.00000000000E+00 -0.21328732888E+02  0.21328733041E+02  0.25500000000E-02 0. -1.
         11    1    1    2    0    0  0.48766266807E+02 -0.48362040217E+00  0.18095091696E+03  0.18740762262E+03  0.51100000000E-03 0. -1.
         22    1    1    2    0    0 -0.17820537933E+02  0.13759577617E+01 -0.13319539720E+02  0.22290692460E+02  0.00000000000E+00 0. -1.
          2    1    1    2  501    0 -0.30945728874E+02 -0.89233735951E+00  0.81121093256E+03  0.81180146065E+03  0.25500000000E-02 0. -1.
<mgrwt>
<rscale>  0 0.24082516E+02</rscale>
<asrwt>0</asrwt>
<pdfrwt beam="1">  1       11 0.10000000E+01 0.32448335E+02</pdfrwt>
<pdfrwt beam="2">  1        2 0.32819047E-02 0.24082516E+02</pdfrwt>
<totfact> 0.25823626E+03</totfact>
</mgrwt>
</event>
<event>
 5    1  0.9955701E-004  0.6548943E+02  0.7818608E-02  0.1591365E+00
         11   -1    0    0    0    0  0.00000000000E+00  0.00000000000E+00  0.10002340251E+04  0.10002340251E+04  0.51100000000E-03 0. -1.
         -2   -1    0    0    0  501 -0.00000000000E+00 -0.00000000000E+00 -0.73610977317E+01  0.73610981734E+01  0.25500000000E-02 0. -1.
         11    1    1    2    0    0  0.48524225932E+02  0.30887980610E+02  0.32930989334E+03  0.33429578774E+03  0.51100000000E-03 0. -1.
         22    1    1    2    0    0  0.12371586869E+02  0.71995523999E+01  0.14862466841E+02  0.20634501133E+02  0.00000000000E+00 0.  1.
         -2    1    1    2    0  501 -0.60895812801E+02 -0.38087533010E+02  0.64870056717E+03  0.65266483438E+03  0.25500000000E-02 0. -1.
<mgrwt>
<rscale>  0 0.30617204E+02</rscale>
<asrwt>0</asrwt>
<pdfrwt beam="1">  1       11 0.10000000E+01 0.65489428E+02</pdfrwt>
<pdfrwt beam="2">  1       -2 0.11327416E-02 0.30617204E+02</pdfrwt>
<totfact> 0.10016061E+04</totfact>
</mgrwt>
</event>
<event>
 5    1  0.9955701E-004  0.1619587E+03  0.7818608E-02  0.1186503E+00
         11   -1    0    0    0    0  0.00000000000E+00  0.00000000000E+00  0.99989407370E+03  0.99989407370E+03  0.51100000000E-03 0. -1.
          2   -1    0    0  501    0 -0.00000000000E+00 -0.00000000000E+00 -0.48688954420E+02  0.48688954487E+02  0.25500000000E-02 0. -1.
         11    1    1    2    0    0  0.58378962926E+02 -0.14928848229E+03  0.83247110888E+03  0.84776370609E+03  0.51100000000E-03 0. -1.
         22    1    1    2    0    0 -0.71642189145E+00  0.14511905394E+02  0.53113642482E+01  0.15469946628E+02  0.00000000000E+00 0. -1.
          2    1    1    2  501    0 -0.57662541034E+02  0.13477657689E+03  0.11342264615E+03  0.18534937546E+03  0.25500000000E-02 0. -1.
<mgrwt>
<rscale>  0 0.16195874E+03</rscale>
<asrwt>0</asrwt>
<pdfrwt beam="1">  1       11 0.10000000E+01 0.16029708E+03</pdfrwt>
<pdfrwt beam="2">  1        2 0.74898147E-02 0.16195874E+03</pdfrwt>
<totfact> 0.11029718E+03</totfact>
</mgrwt>
</event>
<event>
 5    1  0.9955701E-004  0.1130298E+03  0.7818608E-02  0.1255060E+00
         11   -1    0    0    0    0  0.00000000000E+00  0.00000000000E+00  0.10000540062E+04  0.10000540062E+04  0.51100000000E-03 0.  1.
         -2   -1    0    0    0  501 -0.00000000000E+00 -0.00000000000E+00 -0.21420884407E+03  0.21420884408E+03  0.25500000000E-02 0.  1.
         11    1    1    2    0    0  0.14657564028E+03  0.28705695932E+02  0.86024570832E+03  0.87311575062E+03  0.51100000000E-03 0.  1.
         22    1    1    2    0    0 -0.36674012404E+02 -0.52148677276E+01  0.11505238202E+03  0.12086864209E+03  0.00000000000E+00 0.  1.
         -2    1    1    2    0  501 -0.10990162788E+03 -0.23490828204E+02 -0.18945292826E+03  0.22027845753E+03  0.25500000000E-02 0.  1.
<mgrwt>
<rscale>  0 0.11302981E+03</rscale>
<asrwt>0</asrwt>
<pdfrwt beam="1">  1       11 0.10000000E+01 0.37042921E+02</pdfrwt>
<pdfrwt beam="2">  1       -2 0.32956986E-01 0.11302981E+03</pdfrwt>
<totfact> 0.68610785E+01</totfact>
</mgrwt>
</event>
<event>
 5    1  0.9955701E-004  0.6770673E+02  0.7818608E-02  0.1407171E+00
         11   -1    0    0    0    0  0.00000000000E+00  0.00000000000E+00  0.10001721604E+04  0.10001721604E+04  0.51100000000E-03 0. -1.
          2   -1    0    0  501    0 -0.00000000000E+00 -0.00000000000E+00 -0.11912750580E+02  0.11912750853E+02  0.25500000000E-02 0. -1.
         11    1    1    2    0    0 -0.40976008185E+02 -0.34673123518E+02  0.30791646323E+03  0.31256008554E+03  0.51100000000E-03 0. -1.
         22    1    1    2    0    0 -0.17247238044E+01 -0.49363960723E+02  0.99532262083E+02  0.11111456469E+03  0.00000000000E+00 0. -1.
          2    1    1    2  501    0  0.42700731989E+02  0.84037084241E+02  0.58081068445E+03  0.58841026098E+03  0.25500000000E-02 0. -1.
<mgrwt>
<rscale>  0 0.57830023E+02</rscale>
<asrwt>0</asrwt>
<pdfrwt beam="1">  1       11 0.10000000E+01 0.67706726E+02</pdfrwt>
<pdfrwt beam="2">  1        2 0.18330464E-02 0.57830023E+02</pdfrwt>
<totfact> 0.62780562E+03</totfact>
</mgrwt>
</event>
<event>
 5    1  0.9955701E-004  0.8757831E+02  0.7818608E-02  0.1308824E+00
         11   -1    0    0    0    0  0.00000000000E+00  0.00000000000E+00  0.10005503275E+04  0.10005503275E+04  0.51100000000E-03 0.  1.
          2   -1    0    0  501    0 -0.00000000000E+00 -0.00000000000E+00 -0.18702730620E+02  0.18702730794E+02  0.25500000000E-02 0.  1.
         11    1    1    2    0    0  0.37363666889E+02 -0.15812812393E+02  0.53418488654E+02  0.67079233519E+02  0.51100000000E-03 0.  1.
         22    1    1    2    0    0 -0.46905413113E+02 -0.75122275966E+02  0.20945508985E+03  0.22740912205E+03  0.00000000000E+00 0.  1.
          2    1    1    2  501    0  0.95417462240E+01  0.90935088359E+02  0.71897401837E+03  0.72476470272E+03  0.25500000000E-02 0.  1.
<mgrwt>
<rscale>  0 0.87578306E+02</rscale>
<asrwt>0</asrwt>
<pdfrwt beam="1">  1       11 0.10000000E+01 0.40572038E+02</pdfrwt>
<pdfrwt beam="2">  1        2 0.28789266E-02 0.87578306E+02</pdfrwt>
<totfact> 0.36354251E+03</totfact>
</mgrwt>
</event>
<event>
 5    1  0.9955701E-004  0.1887139E+03  0.7818608E-02  0.1202119E+00
         11   -1    0    0    0    0  0.00000000000E+00  0.00000000000E+00  0.10002188786E+04  0.10002188786E+04  0.51100000000E-03 0. -1.
          2   -1    0    0  501    0 -0.00000000000E+00 -0.00000000000E+00 -0.51110961506E+03  0.51110961506E+03  0.25500000000E-02 0. -1.
         11    1    1    2    0    0  0.81494102711E+02  0.17362498326E+03  0.93916950412E+03  0.95855426610E+03  0.51100000000E-03 0. -1.
         22    1    1    2    0    0  0.66709152941E+02 -0.96266384377E+02 -0.32062115297E+03  0.34134330458E+03  0.00000000000E+00 0. -1.
          2    1    1    2  501    0 -0.14820325565E+03 -0.77358598885E+02 -0.12943908758E+03  0.21143092302E+03  0.25500000000E-02 0. -1.
<mgrwt>
<rscale>  0 0.14866864E+03</rscale>
<asrwt>0</asrwt>
<pdfrwt beam="1">  1       11 0.10000000E+01 0.18871394E+03</pdfrwt>
<pdfrwt beam="2">  1        2 0.78649457E-01 0.14866864E+03</pdfrwt>
<totfact> 0.76368202E+01</totfact>
</mgrwt>
</event>
<event>
 5    1  0.9955701E-004  0.3268353E+03  0.7818608E-02  0.1072546E+00
         11   -1    0    0    0    0  0.00000000000E+00  0.00000000000E+00  0.10007031483E+04  0.10007031483E+04  0.51100000000E-03 0.  1.
          2   -1    0    0  501    0 -0.00000000000E+00 -0.00000000000E+00 -0.52624298806E+03  0.52624298807E+03  0.25500000000E-02 0.  1.
         11    1    1    2    0    0  0.31894048646E+03  0.40876150964E+02  0.91989049163E+03  0.97447032290E+03  0.51100000000E-03 0.  1.
         22    1    1    2    0    0 -0.35319763640E+02 -0.17768875066E+02 -0.80758527592E+02  0.89917508882E+02  0.00000000000E+00 0.  1.
          2    1    1    2  501    0 -0.28362072282E+03 -0.23107275898E+02 -0.36467180382E+03  0.46255830456E+03  0.25500000000E-02 0.  1.
<mgrwt>
<rscale>  0 0.32683535E+03</rscale>
<asrwt>0</asrwt>
<pdfrwt beam="1">  1       11 0.10000000E+01 0.32154921E+03</pdfrwt>
<pdfrwt beam="2">  1        2 0.81017385E-01 0.32683535E+03</pdfrwt>
<totfact> 0.72872186E+01</totfact>
</mgrwt>
</event>
<event>
 5    1  0.9955701E-004  0.3634087E+02  0.7818608E-02  0.1698590E+00
         11   -1    0    0    0    0  0.00000000000E+00  0.00000000000E+00  0.10000971136E+04  0.10000971136E+04  0.51100000000E-03 0. -1.
          2   -1    0    0  501    0 -0.00000000000E+00 -0.00000000000E+00 -0.30018634967E+01  0.30018645797E+01  0.25500000000E-02 0. -1.
         11    1    1    2    0    0 -0.24156788424E+02 -0.25161604423E+02  0.16475008493E+03  0.16840204052E+03  0.51100000000E-03 0. -1.
         22    1    1    2    0    0  0.10381725873E+02 -0.94169809882E+01  0.67160990018E+02  0.68608004950E+02  0.00000000000E+00 0. -1.
          2    1    1    2  501    0  0.13775062551E+02  0.34578585412E+02  0.76518417516E+03  0.76608893272E+03  0.25500000000E-02 0. -1.
<mgrwt>
<rscale>  0 0.22569188E+02</rscale>
<asrwt>0</asrwt>
<pdfrwt beam="1">  1       11 0.10000000E+01 0.36340865E+02</pdfrwt>
<pdfrwt beam="2">  1        2 0.46187007E-03 0.22569188E+02</pdfrwt>
<totfact> 0.32197368E+04</totfact>
</mgrwt>
</event>
<event>
 5    1  0.9955701E-004  0.2742721E+02  0.7818608E-02  0.1790696E+00
         11   -1    0    0    0    0  0.00000000000E+00  0.00000000000E+00  0.99998775798E+03  0.99998775798E+03  0.51100000000E-03 0. -1.
          2   -1    0    0  501    0 -0.00000000000E+00 -0.00000000000E+00 -0.41428967330E+01  0.41428975178E+01  0.25500000000E-02 0. -1.
         11    1    1    2    0    0  0.36638424896E+02  0.10700545106E+02  0.13537603518E+03  0.14065399655E+03  0.51100000000E-03 0. -1.
         22    1    1    2    0    0 -0.11475447290E+02 -0.21689962819E+01  0.25084325140E+02  0.27669727196E+02  0.00000000000E+00 0. -1.
          2    1    1    2  501    0 -0.25162977606E+02 -0.85315488243E+01  0.83538450093E+03  0.83580693175E+03  0.25500000000E-02 0. -1.
<mgrwt>
<rscale>  0 0.17897267E+02</rscale>
<asrwt>0</asrwt>
<pdfrwt beam="1">  1       11 0.10000000E+01 0.27427214E+02</pdfrwt>
<pdfrwt beam="2">  1        2 0.63736097E-03 0.17897267E+02</pdfrwt>
<totfact> 0.19873270E+04</totfact>
</mgrwt>
</event>
<event>
 5    1  0.9955701E-004  0.1896201E+03  0.7818608E-02  0.1158804E+00
         11   -1    0    0    0    0  0.00000000000E+00  0.00000000000E+00  0.10000167788E+04  0.10000167788E+04  0.51100000000E-03 0. -1.
          2   -1    0    0  501    0 -0.00000000000E+00 -0.00000000000E+00 -0.61228894257E+02  0.61228894310E+02  0.25500000000E-02 0. -1.
         11    1    1    2    0    0  0.95384380403E+02 -0.16037307652E+03  0.13972202049E+03  0.23310930206E+03  0.51100000000E-03 0. -1.
         22    1    1    2    0    0  0.10103877450E+02 -0.11815355282E+02  0.54642588563E+02  0.56811120785E+02  0.00000000000E+00 0.  1.
          2    1    1    2  501    0 -0.10548825785E+03  0.17218843180E+03  0.74442327546E+03  0.77132525023E+03  0.25500000000E-02 0. -1.
<mgrwt>
<rscale>  0 0.18962010E+03</rscale>
<asrwt>0</asrwt>
<pdfrwt beam="1">  1       11 0.10000000E+01 0.15546413E+02</pdfrwt>
<pdfrwt beam="2">  1        2 0.94199877E-02 0.18962010E+03</pdfrwt>
<totfact> 0.83427461E+02</totfact>
</mgrwt>
</event>
<event>
 5    1  0.9955701E-004  0.3347288E+03  0.7818608E-02  0.1069063E+00
         11   -1    0    0    0    0  0.00000000000E+00  0.00000000000E+00  0.99997560068E+03  0.99997560068E+03  0.51100000000E-03 0. -1.
          2   -1    0    0  501    0 -0.00000000000E+00 -0.00000000000E+00 -0.15687795906E+03  0.15687795908E+03  0.25500000000E-02 0.  1.
         11    1    1    2    0    0 -0.30474945073E+03  0.12943104431E+03  0.73329004938E+03  0.80457375018E+03  0.51100000000E-03 0. -1.
         22    1    1    2    0    0  0.17023830257E+02 -0.20003682866E+02  0.29660076145E+01  0.26433980517E+02  0.00000000000E+00 0. -1.
          2    1    1    2  501    0  0.28772562048E+03 -0.10942736144E+03  0.10684158462E+03  0.32584582907E+03  0.25500000000E-02 0.  1.
<mgrwt>
<rscale>  0 0.33472878E+03</rscale>
<asrwt>0</asrwt>
<pdfrwt beam="1">  1       11 0.10000000E+01 0.33109609E+03</pdfrwt>
<pdfrwt beam="2">  1        2 0.24134481E-01 0.33472878E+03</pdfrwt>
<totfact> 0.27793096E+02</totfact>
</mgrwt>
</event>
<event>
 5    1  0.9955701E-004  0.6261645E+02  0.7818608E-02  0.1465248E+00
         11   -1    0    0    0    0  0.00000000000E+00  0.00000000000E+00  0.99982078096E+03  0.99982078096E+03  0.51100000000E-03 0.  1.
         -2   -1    0    0    0  501 -0.00000000000E+00 -0.00000000000E+00 -0.85121750883E+01  0.85121754702E+01  0.25500000000E-02 0.  1.
         11    1    1    2    0    0 -0.34611194869E+02 -0.36961681900E+02  0.26167396207E+03  0.26652835340E+03  0.51100000000E-03 0.  1.
         22    1    1    2    0    0  0.79919095712E+01 -0.33579005452E+02  0.71827598435E+02  0.79690803250E+02  0.00000000000E+00 0.  1.
         -2    1    1    2    0  501  0.26619285298E+02  0.70540687352E+02  0.65780704537E+03  0.66211379978E+03  0.25500000000E-02 0.  1.
<mgrwt>
<rscale>  0 0.46490085E+02</rscale>
<asrwt>0</asrwt>
<pdfrwt beam="1">  1       11 0.10000000E+01 0.62616445E+02</pdfrwt>
<pdfrwt beam="2">  1       -2 0.13093307E-02 0.46490085E+02</pdfrwt>
<totfact> 0.88859830E+03</totfact>
</mgrwt>
</event>
<event>
 5    1  0.9955701E-004  0.3627338E+02  0.7818608E-02  0.1631148E+00
         11   -1    0    0    0    0  0.00000000000E+00  0.00000000000E+00  0.10002909593E+04  0.10002909593E+04  0.51100000000E-03 0. -1.
          2   -1    0    0  501    0 -0.00000000000E+00 -0.00000000000E+00 -0.10296180879E+02  0.10296181194E+02  0.25500000000E-02 0. -1.
         11    1    1    2    0    0  0.25574527026E+02 -0.21595634326E+02  0.59315884054E+02  0.68108750949E+02  0.51100000000E-03 0. -1.
         22    1    1    2    0    0 -0.15029970800E+02 -0.13810160690E+02  0.13313488535E+02  0.24369438596E+02  0.00000000000E+00 0.  1.
          2    1    1    2  501    0 -0.10544556226E+02  0.35405795016E+02  0.91736540580E+03  0.91810895091E+03  0.25500000000E-02 0. -1.
<mgrwt>
<rscale>  0 0.27210035E+02</rscale>
<asrwt>0</asrwt>
<pdfrwt beam="1">  1       11 0.10000000E+01 0.36273383E+02</pdfrwt>
<pdfrwt beam="2">  1        2 0.15844887E-02 0.27210035E+02</pdfrwt>
<totfact> 0.66980805E+03</totfact>
</mgrwt>
</event>
<event>
 5    1  0.9955701E-004  0.1407106E+03  0.7818608E-02  0.1511310E+00
         11   -1    0    0    0    0  0.00000000000E+00  0.00000000000E+00  0.10003841284E+04  0.10003841284E+04  0.51100000000E-03 0. -1.
          2   -1    0    0  501    0 -0.00000000000E+00 -0.00000000000E+00 -0.40161977546E+02  0.40161977627E+02  0.25500000000E-02 0. -1.
         11    1    1    2    0    0  0.12136885085E+03  0.74827369293E+02  0.82152733424E+03  0.83380854760E+03  0.51100000000E-03 0. -1.
         22    1    1    2    0    0 -0.56637303468E+01 -0.95863856994E+01 -0.39582937972E+01  0.11817136794E+02  0.00000000000E+00 0.  1.
          2    1    1    2  501    0 -0.11570512050E+03 -0.65240983594E+02  0.14265311039E+03  0.19492042161E+03  0.25500000000E-02 0. -1.
<mgrwt>
<rscale>  0 0.39582064E+02</rscale>
<asrwt>0</asrwt>
<pdfrwt beam="1">  1       11 0.10000000E+01 0.14071065E+03</pdfrwt>
<pdfrwt beam="2">  1        2 0.61811390E-02 0.39582064E+02</pdfrwt>
<totfact> 0.12496954E+03</totfact>
</mgrwt>
</event>
<event>
 5    1  0.9955701E-004  0.1401190E+03  0.7818608E-02  0.1213169E+00
         11   -1    0    0    0    0  0.00000000000E+00  0.00000000000E+00  0.10002203952E+04  0.10002203952E+04  0.51100000000E-03 0. -1.
          2   -1    0    0  501    0 -0.00000000000E+00 -0.00000000000E+00 -0.14047710621E+03  0.14047710623E+03  0.25500000000E-02 0. -1.
         11    1    1    2    0    0 -0.69205874734E+02 -0.49936355959E+02  0.12500983629E+03  0.15136232000E+03  0.51100000000E-03 0. -1.
         22    1    1    2    0    0 -0.90373062212E+01 -0.13718914202E+03 -0.73597836188E+02  0.15594606467E+03  0.00000000000E+00 0. -1.
          2    1    1    2  501    0  0.78243180955E+02  0.18712549798E+03  0.80833128890E+03  0.83338911679E+03  0.25500000000E-02 0. -1.
<mgrwt>
<rscale>  0 0.14011899E+03</rscale>
<asrwt>0</asrwt>
<pdfrwt beam="1">  1       11 0.10000000E+01 0.85341038E+02</pdfrwt>
<pdfrwt beam="2">  1        2 0.21616625E-01 0.14011899E+03</pdfrwt>
<totfact> 0.30812564E+02</totfact>
</mgrwt>
</event>
<event>
 5    1  0.9955701E-004  0.1180473E+03  0.7818608E-02  0.1253430E+00
         11   -1    0    0    0    0  0.00000000000E+00  0.00000000000E+00  0.10002911016E+04  0.10002911016E+04  0.51100000000E-03 0.  1.
          2   -1    0    0  501    0 -0.00000000000E+00 -0.00000000000E+00 -0.62170638823E+02  0.62170638875E+02  0.25500000000E-02 0.  1.
         11    1    1    2    0    0  0.11104610714E+03  0.40048919850E+02  0.69271961575E+03  0.70270592707E+03  0.51100000000E-03 0.  1.
         22    1    1    2    0    0 -0.90426269866E+02  0.87985647823E+02  0.79279760361E+02  0.14900894237E+03  0.00000000000E+00 0.  1.
          2    1    1    2  501    0 -0.20619837276E+02 -0.12803456767E+03  0.16612108667E+03  0.21074687103E+03  0.25500000000E-02 0.  1.
<mgrwt>
<rscale>  0 0.11394728E+03</rscale>
<asrwt>0</asrwt>
<pdfrwt beam="1">  1       11 0.10000000E+01 0.11804725E+03</pdfrwt>
<pdfrwt beam="2">  1        2 0.95674977E-02 0.11394728E+03</pdfrwt>
<totfact> 0.79485330E+02</totfact>
</mgrwt>
</event>
<event>
 5    1  0.9955701E-004  0.1645149E+03  0.7818608E-02  0.1183692E+00
         11   -1    0    0    0    0  0.00000000000E+00  0.00000000000E+00  0.10002636697E+04  0.10002636697E+04  0.51100000000E-03 0. -1.
          2   -1    0    0  501    0 -0.00000000000E+00 -0.00000000000E+00 -0.48987771903E+02  0.48987771969E+02  0.25500000000E-02 0. -1.
         11    1    1    2    0    0  0.76269226493E+02 -0.14233013983E+03  0.82819674620E+03  0.84379186653E+03  0.51100000000E-03 0. -1.
         22    1    1    2    0    0 -0.17377769627E+01  0.16893423722E+02  0.22732259931E+02  0.28375399123E+02  0.00000000000E+00 0. -1.
          2    1    1    2  501    0 -0.74531449530E+02  0.12543671610E+03  0.10034689164E+03  0.17708417598E+03  0.25500000000E-02 0. -1.
<mgrwt>
<rscale>  0 0.16451492E+03</rscale>
<asrwt>0</asrwt>
<pdfrwt beam="1">  1       11 0.10000000E+01 0.16147713E+03</pdfrwt>
<pdfrwt beam="2">  1        2 0.75385672E-02 0.16451492E+03</pdfrwt>
<totfact> 0.10950049E+03</totfact>
</mgrwt>
</event>
<event>
 5    1  0.9955701E-004  0.2050568E+03  0.7818608E-02  0.1348381E+00
         11   -1    0    0    0    0  0.00000000000E+00  0.00000000000E+00  0.10003020350E+04  0.10003020350E+04  0.51100000000E-03 0. -1.
          2   -1    0    0  501    0 -0.00000000000E+00 -0.00000000000E+00 -0.14372155674E+03  0.14372155676E+03  0.25500000000E-02 0. -1.
         11    1    1    2    0    0  0.19083924620E+03  0.50833053599E+02  0.63447555005E+03  0.66450194946E+03  0.51100000000E-03 0. -1.
         22    1    1    2    0    0  0.26390075962E+02 -0.27929344874E-01 -0.91179651751E+02  0.94921893063E+02  0.00000000000E+00 0. -1.
          2    1    1    2  501    0 -0.21722932216E+03 -0.50805124254E+02  0.31328457993E+03  0.38459974920E+03  0.25500000000E-02 0. -1.
<mgrwt>
<rscale>  0 0.73562679E+02</rscale>
<asrwt>0</asrwt>
<pdfrwt beam="1">  1       11 0.10000000E+01 0.20505680E+03</pdfrwt>
<pdfrwt beam="2">  1        2 0.22117686E-01 0.73562679E+02</pdfrwt>
<totfact> 0.29408442E+02</totfact>
</mgrwt>
</event>
<event>
 5    1  0.9955701E-004  0.5728581E+02  0.7818608E-02  0.1409588E+00
         11   -1    0    0    0    0  0.00000000000E+00  0.00000000000E+00  0.99962516425E+03  0.99962516425E+03  0.51100000000E-03 0. -1.
          2   -1    0    0  501    0 -0.00000000000E+00 -0.00000000000E+00 -0.25162917276E+02  0.25162917406E+02  0.25500000000E-02 0. -1.
         11    1    1    2    0    0  0.17690037577E+02  0.18278158178E+01  0.40319447087E+02  0.44067404664E+02  0.51100000000E-03 0. -1.
         22    1    1    2    0    0 -0.40410772800E+02 -0.41338488090E+02  0.14039963621E+02  0.59489677544E+02  0.00000000000E+00 0. -1.
          2    1    1    2  501    0  0.22720735222E+02  0.39510672272E+02  0.92010283626E+03  0.92123099945E+03  0.25500000000E-02 0. -1.
<mgrwt>
<rscale>  0 0.57285807E+02</rscale>
<asrwt>0</asrwt>
<pdfrwt beam="1">  1       11 0.10000000E+01 0.17784225E+02</pdfrwt>
<pdfrwt beam="2">  1        2 0.38697669E-02 0.57285807E+02</pdfrwt>
<totfact> 0.23500602E+03</totfact>
</mgrwt>
</event>
<event>
 5    1  0.9955701E-004  0.1588712E+03  0.7818608E-02  0.1324877E+00
         11   -1    0    0    0    0  0.00000000000E+00  0.00000000000E+00  0.10002615704E+04  0.10002615704E+04  0.51100000000E-03 0.  1.
         -2   -1    0    0    0  501 -0.00000000000E+00 -0.00000000000E+00 -0.81608500824E+02  0.81608500863E+02  0.25500000000E-02 0.  1.
         11    1    1    2    0    0  0.94533329412E+02  0.13965217054E+03  0.80508401716E+03  0.82255671768E+03  0.51100000000E-03 0.  1.
         22    1    1    2    0    0 -0.36176212182E+02 -0.20937340580E+02 -0.39149629223E+02  0.57269398693E+02  0.00000000000E+00 0.  1.
         -2    1    1    2    0  501 -0.58357117230E+02 -0.11871482996E+03  0.15271868167E+03  0.20204395492E+03  0.25500000000E-02 0.  1.
<mgrwt>
<rscale>  0 0.81489457E+02</rscale>
<asrwt>0</asrwt>
<pdfrwt beam="1">  1       11 0.10000000E+01 0.15887119E+03</pdfrwt>
<pdfrwt beam="2">  1       -2 0.12558438E-01 0.81489457E+02</pdfrwt>
<totfact> 0.34551233E+02</totfact>
</mgrwt>
</event>
<event>
 5    1  0.9955701E-004  0.3708162E+03  0.7818608E-02  0.1178349E+00
         11   -1    0    0    0    0  0.00000000000E+00  0.00000000000E+00  0.10006178459E+04  0.10006178459E+04  0.51100000000E-03 0. -1.
          2   -1    0    0  501    0 -0.00000000000E+00 -0.00000000000E+00 -0.65314104353E+03  0.65314104353E+03  0.25500000000E-02 0. -1.
         11    1    1    2    0    0 -0.38174612492E+03 -0.38627941193E+01  0.85726223058E+03  0.93842610633E+03  0.51100000000E-03 0. -1.
         22    1    1    2    0    0  0.75538511430E+02 -0.17312289047E+02 -0.37005914379E+03  0.37808669901E+03  0.00000000000E+00 0. -1.
          2    1    1    2  501    0  0.30620761349E+03  0.21175083167E+02 -0.13972628438E+03  0.33724608413E+03  0.25500000000E-02 0. -1.
<mgrwt>
<rscale>  0 0.16952032E+03</rscale>
<asrwt>0</asrwt>
<pdfrwt beam="1">  1       11 0.10000000E+01 0.37081625E+03</pdfrwt>
<pdfrwt beam="2">  1        2 0.10054532E+00 0.16952032E+03</pdfrwt>
<totfact> 0.57604465E+01</totfact>
</mgrwt>
</event>
<event>
 5    1  0.9955701E-004  0.8875274E+02  0.7818608E-02  0.1322110E+00
         11   -1    0    0    0    0  0.00000000000E+00  0.00000000000E+00  0.10003830909E+04  0.10003830909E+04  0.51100000000E-03 0.  1.
          2   -1    0    0  501    0 -0.00000000000E+00 -0.00000000000E+00 -0.21472497909E+02  0.21472498060E+02  0.25500000000E-02 0.  1.
         11    1    1    2    0    0 -0.77177438643E+02  0.10112266748E+03  0.44973672444E+03  0.46738129212E+03  0.51100000000E-03 0.  1.
         22    1    1    2    0    0  0.72788258532E+02 -0.24128558506E+02  0.16124994759E+03  0.17855493136E+03  0.00000000000E+00 0.  1.
          2    1    1    2  501    0  0.43891801107E+01 -0.76994108979E+02  0.36792392101E+03  0.37591936553E+03  0.25500000000E-02 0.  1.
<mgrwt>
<rscale>  0 0.82497537E+02</rscale>
<asrwt>0</asrwt>
<pdfrwt beam="1">  1       11 0.10000000E+01 0.88752741E+02</pdfrwt>
<pdfrwt beam="2">  1        2 0.33047267E-02 0.82497537E+02</pdfrwt>
<totfact> 0.30084102E+03</totfact>
</mgrwt>
</event>
<event>
 5    1  0.9955701E-004  0.1490693E+03  0.7818608E-02  0.1498961E+00
         11   -1    0    0    0    0  0.00000000000E+00  0.00000000000E+00  0.99982983792E+03  0.99982983792E+03  0.51100000000E-03 0. -1.
          2   -1    0    0  501    0 -0.00000000000E+00 -0.00000000000E+00 -0.97367958603E+02  0.97367958636E+02  0.25500000000E-02 0. -1.
         11    1    1    2    0    0 -0.12793063302E+02  0.14780161048E+03  0.82001852665E+03  0.83333028421E+03  0.51100000000E-03 0. -1.
         22    1    1    2    0    0 -0.10926958867E+02  0.33675461708E+01 -0.56217869391E+02  0.57368873409E+02  0.00000000000E+00 0. -1.
          2    1    1    2  501    0  0.23720022169E+02 -0.15116915665E+03  0.13866122207E+03  0.20649863895E+03  0.25500000000E-02 0. -1.
<mgrwt>
<rscale>  0 0.41285278E+02</rscale>
<asrwt>0</asrwt>
<pdfrwt beam="1">  1       11 0.10000000E+01 0.14906929E+03</pdfrwt>
<pdfrwt beam="2">  1        2 0.14977137E-01 0.41285278E+02</pdfrwt>
<totfact> 0.44089002E+02</totfact>
</mgrwt>
</event>
<event>
 5    1  0.9955701E-004  0.5302896E+02  0.7818608E-02  0.1651860E+00
         11   -1    0    0    0    0  0.00000000000E+00  0.00000000000E+00  0.99998490763E+03  0.99998490763E+03  0.51100000000E-03 0.  1.
          2   -1    0    0  501    0 -0.00000000000E+00 -0.00000000000E+00 -0.10117730286E+02  0.10117730608E+02  0.25500000000E-02 0.  1.
         11    1    1    2    0    0 -0.23308081172E+02 -0.56848802682E+02  0.29849744343E+03  0.30475527354E+03  0.51100000000E-03 0.  1.
         22    1    1    2    0    0  0.93040550427E+01  0.82052550027E+01  0.28222957849E+00  0.12408517374E+02  0.00000000000E+00 0.  1.
          2    1    1    2  501    0  0.14004026130E+02  0.48643547680E+02  0.69108750434E+03  0.69293884733E+03  0.25500000000E-02 0.  1.
<mgrwt>
<rscale>  0 0.25648395E+02</rscale>
<asrwt>0</asrwt>
<pdfrwt beam="1">  1       11 0.10000000E+01 0.53028956E+02</pdfrwt>
<pdfrwt beam="2">  1        2 0.15565504E-02 0.25648395E+02</pdfrwt>
<totfact> 0.67772499E+03</totfact>
</mgrwt>
</event>
<event>
 5    1  0.9955701E-004  0.1475878E+03  0.7818608E-02  0.1365702E+00
         11   -1    0    0    0    0  0.00000000000E+00  0.00000000000E+00  0.10000310344E+04  0.10000310344E+04  0.51100000000E-03 0. -1.
          2   -1    0    0  501    0 -0.00000000000E+00 -0.00000000000E+00 -0.67394087746E+02  0.67394087794E+02  0.25500000000E-02 0. -1.
         11    1    1    2    0    0 -0.58543958801E+02 -0.17911470589E+03  0.18370647164E+03  0.26316827449E+03  0.51100000000E-03 0. -1.
         22    1    1    2    0    0  0.47220609820E+02  0.11168208657E+03  0.11653563141E+03  0.16817618096E+03  0.00000000000E+00 0. -1.
          2    1    1    2  501    0  0.11323348981E+02  0.67432619317E+02  0.63239484363E+03  0.63608066677E+03  0.25500000000E-02 0. -1.
<mgrwt>
<rscale>  0 0.68376724E+02</rscale>
<asrwt>0</asrwt>
<pdfrwt beam="1">  1       11 0.10000000E+01 0.14758780E+03</pdfrwt>
<pdfrwt beam="2">  1        2 0.10368643E-01 0.68376724E+02</pdfrwt>
<totfact> 0.69790039E+02</totfact>
</mgrwt>
</event>
<event>
 5    1  0.9955701E-004  0.2655160E+03  0.7818608E-02  0.1333949E+00
         11   -1    0    0    0    0  0.00000000000E+00  0.00000000000E+00  0.99998399286E+03  0.99998399286E+03  0.51100000000E-03 0. -1.
          2   -1    0    0  501    0 -0.00000000000E+00 -0.00000000000E+00 -0.65094316052E+03  0.65094316053E+03  0.25500000000E-02 0. -1.
         11    1    1    2    0    0 -0.11010044308E+03 -0.24205567633E+03  0.95116194870E+03  0.98763460382E+03  0.51100000000E-03 0. -1.
         22    1    1    2    0    0 -0.12176188933E+02  0.19618451365E+02 -0.70446220609E+02  0.74133752158E+02  0.00000000000E+00 0. -1.
          2    1    1    2  501    0  0.12227663201E+03  0.22243722497E+03 -0.53167489575E+03  0.58915879741E+03  0.25500000000E-02 0. -1.
<mgrwt>
<rscale>  0 0.78299026E+02</rscale>
<asrwt>0</asrwt>
<pdfrwt beam="1">  1       11 0.10000000E+01 0.26551605E+03</pdfrwt>
<pdfrwt beam="2">  1        2 0.10014350E+00 0.78299026E+02</pdfrwt>
<totfact> 0.59071184E+01</totfact>
</mgrwt>
</event>
<event>
 5    1  0.9955701E-004  0.4658994E+02  0.7818608E-02  0.1551984E+00
         11   -1    0    0    0    0  0.00000000000E+00  0.00000000000E+00  0.10003209692E+04  0.10003209692E+04  0.51100000000E-03 0.  1.
          2   -1    0    0  501    0 -0.00000000000E+00 -0.00000000000E+00 -0.11627584303E+02  0.11627584582E+02  0.25500000000E-02 0.  1.
         11    1    1    2    0    0  0.10909138745E+02 -0.35770941658E+02  0.32551298693E+02  0.49579800546E+02  0.51100000000E-03 0.  1.
         22    1    1    2    0    0 -0.23622083241E+02 -0.10194973506E+02  0.64354920701E+02  0.69307258782E+02  0.00000000000E+00 0. -1.
          2    1    1    2  501    0  0.12712944496E+02  0.45965915165E+02  0.89178716551E+03  0.89306149446E+03  0.25500000000E-02 0.  1.
<mgrwt>
<rscale>  0 0.34621883E+02</rscale>
<asrwt>0</asrwt>
<pdfrwt beam="1">  1       11 0.10000000E+01 0.46589941E+02</pdfrwt>
<pdfrwt beam="2">  1        2 0.17894333E-02 0.34621883E+02</pdfrwt>
<totfact> 0.59705237E+03</totfact>
</mgrwt>
</event>
<event>
 5    1  0.9955701E-004  0.3905711E+03  0.7818608E-02  0.1194323E+00
         11   -1    0    0    0    0  0.00000000000E+00  0.00000000000E+00  0.10006092544E+04  0.10006092544E+04  0.51100000000E-03 0. -1.
          2   -1    0    0  501    0 -0.00000000000E+00 -0.00000000000E+00 -0.12542567101E+04  0.12542567101E+04  0.25500000000E-02 0. -1.
         11    1    1    2    0    0 -0.39174801735E+03  0.54836720546E+00  0.92328117485E+03  0.10029531084E+04  0.51100000000E-03 0. -1.
         22    1    1    2    0    0  0.33370536451E+02  0.51783790420E+02 -0.12449139298E+03  0.13890018208E+03  0.00000000000E+00 0.  1.
          2    1    1    2  501    0  0.35837748090E+03 -0.52332157626E+02 -0.10524372376E+04  0.11130126740E+04  0.25500000000E-02 0. -1.
<mgrwt>
<rscale>  0 0.15511628E+03</rscale>
<asrwt>0</asrwt>
<pdfrwt beam="1">  1       11 0.10000000E+01 0.39057110E+03</pdfrwt>
<pdfrwt beam="2">  1        2 0.19308013E+00 0.15511628E+03</pdfrwt>
<totfact> 0.24125702E+01</totfact>
</mgrwt>
</event>
<event>
 5    1  0.9955701E-004  0.1309447E+03  0.7818608E-02  0.1230282E+00
         11   -1    0    0    0    0  0.00000000000E+00  0.00000000000E+00  0.10000943723E+04  0.10000943723E+04  0.51100000000E-03 0. -1.
          2   -1    0    0  501    0 -0.00000000000E+00 -0.00000000000E+00 -0.16808187234E+02  0.16808187427E+02  0.25500000000E-02 0. -1.
         11    1    1    2    0    0 -0.74379551792E+02  0.89780021362E+02  0.45335788088E+03  0.46810910920E+03  0.51100000000E-03 0. -1.
         22    1    1    2    0    0 -0.57825964564E+01  0.10155865865E+02  0.21483935249E+02  0.24456890788E+02  0.00000000000E+00 0. -1.
          2    1    1    2  501    0  0.80162148248E+02 -0.99935887227E+02  0.50844436893E+03  0.52433655973E+03  0.25500000000E-02 0. -1.
<mgrwt>
<rscale>  0 0.12811382E+03</rscale>
<asrwt>0</asrwt>
<pdfrwt beam="1">  1       11 0.10000000E+01 0.13094470E+03</pdfrwt>
<pdfrwt beam="2">  1        2 0.25861189E-02 0.12811382E+03</pdfrwt>
<totfact> 0.43799238E+03</totfact>
</mgrwt>
</event>
<event>
 5    1  0.9955701E-004  0.5345244E+02  0.7818608E-02  0.1550199E+00
         11   -1    0    0    0    0  0.00000000000E+00  0.00000000000E+00  0.10005550185E+04  0.10005550185E+04  0.51100000000E-03 0. -1.
          2   -1    0    0  501    0 -0.00000000000E+00 -0.00000000000E+00 -0.73968788917E+01  0.73968793312E+01  0.25500000000E-02 0. -1.
         11    1    1    2    0    0  0.27870451585E+02  0.43070824748E+02  0.27217988901E+03  0.27697247155E+03  0.51100000000E-03 0. -1.
         22    1    1    2    0    0  0.18946404961E+02 -0.12472680049E+02  0.29351967019E+02  0.37095444147E+02  0.00000000000E+00 0. -1.
          2    1    1    2  501    0 -0.46816856546E+02 -0.30598144699E+02  0.69162628357E+03  0.69388398212E+03  0.25500000000E-02 0. -1.
<mgrwt>
<rscale>  0 0.34820674E+02</rscale>
<asrwt>0</asrwt>
<pdfrwt beam="1">  1       11 0.10000000E+01 0.53452439E+02</pdfrwt>
<pdfrwt beam="2">  1        2 0.11386130E-02 0.34820674E+02</pdfrwt>
<totfact> 0.10831945E+04</totfact>
</mgrwt>
</event>
<event>
 5    1  0.9955701E-004  0.6621166E+02  0.7818608E-02  0.1622185E+00
         11   -1    0    0    0    0  0.00000000000E+00  0.00000000000E+00  0.10003667340E+04  0.10003667340E+04  0.51100000000E-03 0.  1.
          2   -1    0    0  501    0 -0.00000000000E+00 -0.00000000000E+00 -0.12262846656E+02  0.12262846921E+02  0.25500000000E-02 0.  1.
         11    1    1    2    0    0  0.59368602524E+02  0.29146353978E+02  0.96686699284E+02  0.11714289878E+03  0.51100000000E-03 0.  1.
         22    1    1    2    0    0 -0.59384208835E+01  0.10174085716E+02  0.46494606185E+02  0.47963791208E+02  0.00000000000E+00 0. -1.
          2    1    1    2  501    0 -0.53430181640E+02 -0.39320439694E+02  0.84492258185E+03  0.84752289091E+03  0.25500000000E-02 0.  1.
<mgrwt>
<rscale>  0 0.27928422E+02</rscale>
<asrwt>0</asrwt>
<pdfrwt beam="1">  1       11 0.10000000E+01 0.66211659E+02</pdfrwt>
<pdfrwt beam="2">  1        2 0.18872836E-02 0.27928422E+02</pdfrwt>
<totfact> 0.53649836E+03</totfact>
</mgrwt>
</event>
<event>
 5    1  0.9955701E-004  0.8092934E+02  0.7818608E-02  0.1395185E+00
         11   -1    0    0    0    0  0.00000000000E+00  0.00000000000E+00  0.10004340875E+04  0.10004340875E+04  0.51100000000E-03 0.  1.
          2   -1    0    0  501    0 -0.00000000000E+00 -0.00000000000E+00 -0.13453997489E+02  0.13453997730E+02  0.25500000000E-02 0.  1.
         11    1    1    2    0    0  0.27627552161E+02  0.76763489761E+02  0.26172085115E+03  0.27414178618E+03  0.51100000000E-03 0.  1.
         22    1    1    2    0    0  0.38549738103E+02 -0.24037672502E+02  0.11498643887E+03  0.12363564668E+03  0.00000000000E+00 0.  1.
          2    1    1    2  501    0 -0.66177290264E+02 -0.52725817260E+02  0.61027280000E+03  0.61611065238E+03  0.25500000000E-02 0.  1.
<mgrwt>
<rscale>  0 0.60635175E+02</rscale>
<asrwt>0</asrwt>
<pdfrwt beam="1">  1       11 0.10000000E+01 0.80929341E+02</pdfrwt>
<pdfrwt beam="2">  1        2 0.20707442E-02 0.60635175E+02</pdfrwt>
<totfact> 0.53748931E+03</totfact>
</mgrwt>
</event>
<event>
 5    1  0.9955701E-004  0.2154778E+03  0.7818608E-02  0.1379491E+00
         11   -1    0    0    0    0  0.00000000000E+00  0.00000000000E+00  0.10000171092E+04  0.10000171092E+04  0.51100000000E-03 0. -1.
          2   -1    0    0  501    0 -0.00000000000E+00 -0.00000000000E+00 -0.10018514850E+03  0.10018514853E+03  0.25500000000E-02 0. -1.
         11    1    1    2    0    0  0.16507558842E+02  0.21862652483E+03  0.81123160697E+03  0.84033729955E+03  0.51100000000E-03 0. -1.
         22    1    1    2    0    0  0.23182925440E+01 -0.19226410935E+02 -0.23412344891E+02  0.30383667505E+02  0.00000000000E+00 0.  1.
          2    1    1    2  501    0 -0.18825851386E+02 -0.19940011390E+03  0.11201269858E+03  0.22948129064E+03  0.25500000000E-02 0. -1.
<mgrwt>
<rscale>  0 0.64597777E+02</rscale>
<asrwt>0</asrwt>
<pdfrwt beam="1">  1       11 0.10000000E+01 0.21547779E+03</pdfrwt>
<pdfrwt beam="2">  1        2 0.15413363E-01 0.64597777E+02</pdfrwt>
<totfact> 0.43776980E+02</totfact>
</mgrwt>
</event>
<event>
 5    1  0.9955701E-004  0.5026847E+02  0.7818608E-02  0.1565579E+00
         11   -1    0    0    0    0  0.00000000000E+00  0.00000000000E+00  0.10001769210E+04  0.10001769210E+04  0.51100000000E-03 0. -1.
          2   -1    0    0  501    0 -0.00000000000E+00 -0.00000000000E+00 -0.11961592506E+02  0.11961592778E+02  0.25500000000E-02 0. -1.
         11    1    1    2    0    0 -0.41164529941E+02  0.22156693402E+01  0.16953113577E+03  0.17447129768E+03  0.51100000000E-03 0. -1.
         22    1    1    2    0    0 -0.10532672859E+02 -0.19170845724E+02  0.53541096342E+01  0.22519436345E+02  0.00000000000E+00 0. -1.
          2    1    1    2  501    0  0.51697202800E+02  0.16955176384E+02  0.81333008311E+03  0.81514777978E+03  0.25500000000E-02 0. -1.
<mgrwt>
<rscale>  0 0.33159564E+02</rscale>
<asrwt>0</asrwt>
<pdfrwt beam="1">  1       11 0.10000000E+01 0.50268472E+02</pdfrwt>
<pdfrwt beam="2">  1        2 0.18405705E-02 0.33159564E+02</pdfrwt>
<totfact> 0.57121050E+03</totfact>
</mgrwt>
</event>
<event>
 5    1  0.9955701E-004  0.2392660E+03  0.7818608E-02  0.1120283E+00
         11   -1    0    0    0    0  0.00000000000E+00  0.00000000000E+00  0.10006664255E+04  0.10006664255E+04  0.51100000000E-03 0. -1.
          2   -1    0    0  501    0 -0.00000000000E+00 -0.00000000000E+00 -0.94537113269E+02  0.94537113303E+02  0.25500000000E-02 0. -1.
         11    1    1    2    0    0 -0.58762312022E+02  0.18150607515E+02  0.14176775675E+03  0.15453333207E+03  0.51100000000E-03 0. -1.
         22    1    1    2    0    0  0.65342546022E+02  0.22924499479E+03  0.15863200907E+03  0.28633377421E+03  0.00000000000E+00 0. -1.
          2    1    1    2  501    0 -0.65802340001E+01 -0.24739560230E+03  0.60572954643E+03  0.65433643253E+03  0.25500000000E-02 0. -1.
<mgrwt>
<rscale>  0 0.23926597E+03</rscale>
<asrwt>0</asrwt>
<pdfrwt beam="1">  1       11 0.10000000E+01 0.61501657E+02</pdfrwt>
<pdfrwt beam="2">  1        2 0.14553863E-01 0.23926597E+03</pdfrwt>
<totfact> 0.49582256E+02</totfact>
</mgrwt>
</event>
<event>
 5    1  0.9955701E-004  0.4881523E+03  0.7818608E-02  0.1016918E+00
         11   -1    0    0    0    0  0.00000000000E+00  0.00000000000E+00  0.99896472201E+03  0.99896472201E+03  0.51100000000E-03 0. -1.
          2   -1    0    0  501    0 -0.00000000000E+00 -0.00000000000E+00 -0.24169396469E+04  0.24169396469E+04  0.25500000000E-02 0. -1.
         11    1    1    2    0    0 -0.18197686855E+03  0.40407603821E+03  0.76581141374E+03  0.88479384422E+03  0.51100000000E-03 0. -1.
         22    1    1    2    0    0  0.45112079832E+03  0.59773609081E+02 -0.23953925995E+03  0.51425860817E+03  0.00000000000E+00 0. -1.
          2    1    1    2  501    0 -0.26914392977E+03 -0.46384964730E+03 -0.19442470786E+04  0.20168519165E+04  0.25500000000E-02 0. -1.
<mgrwt>
<rscale>  0 0.48815228E+03</rscale>
<asrwt>0</asrwt>
<pdfrwt beam="1">  1       11 0.10000000E+01 0.44316253E+03</pdfrwt>
<pdfrwt beam="2">  1        2 0.37145190E+00 0.48815228E+03</pdfrwt>
<totfact> 0.52377485E+00</totfact>
</mgrwt>
</event>
<event>
 5    1  0.1319641E-003  0.2487146E+03  0.7818608E-02  0.1303644E+00
         11   -1    0    0    0    0  0.00000000000E+00  0.00000000000E+00  0.10004525737E+04  0.10004525737E+04  0.51100000000E-03 0. -1.
          2   -1    0    0  501    0 -0.00000000000E+00 -0.00000000000E+00 -0.92164980245E+03  0.92164980245E+03  0.25500000000E-02 0. -1.
         11    1    1    2    0    0  0.24685771119E+03 -0.30059072034E+02  0.96218586682E+03  0.99380275694E+03  0.51100000000E-03 0. -1.
         22    1    1    2    0    0 -0.21886195795E+01 -0.32257580611E+02 -0.84783897323E+02  0.90739466650E+02  0.00000000000E+00 0.  1.
          2    1    1    2  501    0 -0.24466909161E+03  0.62316652645E+02 -0.79859919829E+03  0.83756015253E+03  0.25500000000E-02 0. -1.
<mgrwt>
<rscale>  0 0.89673714E+02</rscale>
<asrwt>0</asrwt>
<pdfrwt beam="1">  1       11 0.10000000E+01 0.24871456E+03</pdfrwt>
<pdfrwt beam="2">  1        2 0.14185644E+00 0.89673714E+02</pdfrwt>
<totfact> 0.38615707E+01</totfact>
</mgrwt>
</event>
<event>
 5    1  0.9955701E-004  0.1335832E+03  0.7818608E-02  0.1386213E+00
         11   -1    0    0    0    0  0.00000000000E+00  0.00000000000E+00  0.10000660645E+04  0.10000660645E+04  0.51100000000E-03 0. -1.
          2   -1    0    0  501    0 -0.00000000000E+00 -0.00000000000E+00 -0.33055177806E+02  0.33055177905E+02  0.25500000000E-02 0. -1.
         11    1    1    2    0    0  0.90463889469E+02  0.11464434400E+03  0.20634682472E+03  0.25279646552E+03  0.51100000000E-03 0. -1.
         22    1    1    2    0    0 -0.29554988951E+02  0.11759469840E+01  0.53289291086E+02  0.60947754410E+02  0.00000000000E+00 0. -1.
          2    1    1    2  501    0 -0.60908900518E+02 -0.11582029098E+03  0.70737477089E+03  0.71937702247E+03  0.25500000000E-02 0. -1.
<mgrwt>
<rscale>  0 0.62858356E+02</rscale>
<asrwt>0</asrwt>
<pdfrwt beam="1">  1       11 0.10000000E+01 0.13358324E+03</pdfrwt>
<pdfrwt beam="2">  1        2 0.50857478E-02 0.62858356E+02</pdfrwt>
<totfact> 0.16723128E+03</totfact>
</mgrwt>
</event>
<event>
 5    1  0.9955701E-004  0.6462496E+02  0.7818608E-02  0.1553043E+00
         11   -1    0    0    0    0  0.00000000000E+00  0.00000000000E+00  0.10001869261E+04  0.10001869261E+04  0.51100000000E-03 0.  1.
          2   -1    0    0  501    0 -0.00000000000E+00 -0.00000000000E+00 -0.11538936984E+02  0.11538937266E+02  0.25500000000E-02 0.  1.
         11    1    1    2    0    0  0.73192022863E+02  0.20093035886E+02  0.22709228822E+03  0.23944040943E+03  0.51100000000E-03 0.  1.
         22    1    1    2    0    0 -0.16986481796E+02  0.71318992201E+01  0.16852600268E+02  0.24968273590E+02  0.00000000000E+00 0.  1.
          2    1    1    2  501    0 -0.56205541067E+02 -0.27224935107E+02  0.74470310067E+03  0.74731718038E+03  0.25500000000E-02 0.  1.
<mgrwt>
<rscale>  0 0.34504795E+02</rscale>
<asrwt>0</asrwt>
<pdfrwt beam="1">  1       11 0.10000000E+01 0.64624961E+02</pdfrwt>
<pdfrwt beam="2">  1        2 0.17755529E-02 0.34504795E+02</pdfrwt>
<totfact> 0.60280952E+03</totfact>
</mgrwt>
</event>
<event>
 5    1  0.9955701E-004  0.7322721E+02  0.7818608E-02  0.1349450E+00
         11   -1    0    0    0    0  0.00000000000E+00  0.00000000000E+00  0.10001496469E+04  0.10001496469E+04  0.51100000000E-03 0. -1.
          2   -1    0    0  501    0 -0.00000000000E+00 -0.00000000000E+00 -0.23326608994E+02  0.23326609133E+02  0.25500000000E-02 0. -1.
         11    1    1    2    0    0  0.29230472634E+02  0.55323208293E+02  0.34340853660E+03  0.34906231666E+03  0.51100000000E-03 0. -1.
         22    1    1    2    0    0 -0.30886940288E+02  0.61146090143E+02  0.65854851214E+02  0.95024780182E+02  0.00000000000E+00 0. -1.
          2    1    1    2  501    0  0.16564676542E+01 -0.11646929844E+03  0.56755965013E+03  0.57938915922E+03  0.25500000000E-02 0. -1.
<mgrwt>
<rscale>  0 0.73227209E+02</rscale>
<asrwt>0</asrwt>
<pdfrwt beam="1">  1       11 0.10000000E+01 0.62570583E+02</pdfrwt>
<pdfrwt beam="2">  1        2 0.35892460E-02 0.73227209E+02</pdfrwt>
<totfact> 0.26640630E+03</totfact>
</mgrwt>
</event>
<event>
 5    1  0.9955701E-004  0.4975538E+03  0.7818608E-02  0.1281072E+00
         11   -1    0    0    0    0  0.00000000000E+00  0.00000000000E+00  0.10003759279E+04  0.10003759279E+04  0.51100000000E-03 0. -1.
          2   -1    0    0  501    0 -0.00000000000E+00 -0.00000000000E+00 -0.34819714616E+03  0.34819714616E+03  0.25500000000E-02 0. -1.
         11    1    1    2    0    0  0.43224871380E+03 -0.22903254056E+03  0.44672263585E+03  0.66246205069E+03  0.51100000000E-03 0. -1.
         22    1    1    2    0    0  0.18934269553E+02 -0.62862701770E+01 -0.93717810639E+02  0.95817805168E+02  0.00000000000E+00 0. -1.
          2    1    1    2  501    0 -0.45118298336E+03  0.23531881074E+03  0.29917395649E+03  0.59029321816E+03  0.25500000000E-02 0. -1.
<mgrwt>
<rscale>  0 0.99631635E+02</rscale>
<asrwt>0</asrwt>
<pdfrwt beam="1">  1       11 0.10000000E+01 0.49755377E+03</pdfrwt>
<pdfrwt beam="2">  1        2 0.53588928E-01 0.99631635E+02</pdfrwt>
<totfact> 0.11559435E+02</totfact>
</mgrwt>
</event>
<event>
 5    1  0.9955701E-004  0.1564460E+03  0.7818608E-02  0.1295727E+00
         11   -1    0    0    0    0  0.00000000000E+00  0.00000000000E+00  0.99999938691E+03  0.99999938691E+03  0.51100000000E-03 0. -1.
          2   -1    0    0  501    0 -0.00000000000E+00 -0.00000000000E+00 -0.17962759467E+03  0.17962759469E+03  0.25500000000E-02 0. -1.
         11    1    1    2    0    0 -0.16318629506E+03  0.71637778218E+01  0.90001219527E+03  0.91471473052E+03  0.51100000000E-03 0. -1.
         22    1    1    2    0    0  0.45225723228E+02 -0.31812254645E+02 -0.12457821723E+03  0.13629790092E+03  0.00000000000E+00 0. -1.
          2    1    1    2  501    0  0.11796057183E+03  0.24648476824E+02  0.44937814203E+02  0.12861435016E+03  0.25500000000E-02 0. -1.
<mgrwt>
<rscale>  0 0.93007879E+02</rscale>
<asrwt>0</asrwt>
<pdfrwt beam="1">  1       11 0.10000000E+01 0.15644597E+03</pdfrwt>
<pdfrwt beam="2">  1        2 0.27634997E-01 0.93007879E+02</pdfrwt>
<totfact> 0.23251758E+02</totfact>
</mgrwt>
</event>
<event>
 5    1  0.9955701E-004  0.2045821E+03  0.7818608E-02  0.1145930E+00
         11   -1    0    0    0    0  0.00000000000E+00  0.00000000000E+00  0.10001367172E+04  0.10001367172E+04  0.51100000000E-03 0.  1.
          2   -1    0    0  501    0 -0.00000000000E+00 -0.00000000000E+00 -0.27463441054E+03  0.27463441055E+03  0.25500000000E-02 0.  1.
         11    1    1    2    0    0 -0.17860554593E+03 -0.90770831825E+02  0.95008334769E+03  0.97097767869E+03  0.51100000000E-03 0.  1.
         22    1    1    2    0    0  0.50846484728E+02  0.28259642723E+02 -0.94937234539E+02  0.11134204470E+03  0.00000000000E+00 0. -1.
          2    1    1    2  501    0  0.12775906120E+03  0.62511189102E+02 -0.12964380648E+03  0.19245140438E+03  0.25500000000E-02 0.  1.
<mgrwt>
<rscale>  0 0.20458205E+03</rscale>
<asrwt>0</asrwt>
<pdfrwt beam="1">  1       11 0.10000000E+01 0.20034791E+03</pdfrwt>
<pdfrwt beam="2">  1        2 0.42257223E-01 0.20458205E+03</pdfrwt>
<totfact> 0.14910564E+02</totfact>
</mgrwt>
</event>
<event>
 5    1  0.9955701E-004  0.5676219E+03  0.7818608E-02  0.9974955E-01
         11   -1    0    0    0    0  0.00000000000E+00  0.00000000000E+00  0.99996213251E+03  0.99996213251E+03  0.51100000000E-03 0.  1.
          2   -1    0    0  501    0 -0.00000000000E+00 -0.00000000000E+00 -0.32652864337E+03  0.32652864338E+03  0.25500000000E-02 0.  1.
         11    1    1    2    0    0 -0.65467543494E+02  0.55928084675E+03  0.43169787070E+03  0.70953795977E+03  0.51100000000E-03 0.  1.
         22    1    1    2    0    0 -0.61038928882E+01 -0.84371598511E+01 -0.15673101260E+01  0.10530889600E+02  0.00000000000E+00 0. -1.
          2    1    1    2  501    0  0.71571436382E+02 -0.55084368690E+03  0.24330292857E+03  0.60642192652E+03  0.25500000000E-02 0.  1.
<mgrwt>
<rscale>  0 0.56762194E+03</rscale>
<asrwt>0</asrwt>
<pdfrwt beam="1">  1       11 0.10000000E+01 0.56309952E+03</pdfrwt>
<pdfrwt beam="2">  1        2 0.50233272E-01 0.56762194E+03</pdfrwt>
<totfact> 0.12358518E+02</totfact>
</mgrwt>
</event>
<event>
 5    1  0.9955701E-004  0.2165206E+03  0.7818608E-02  0.1366116E+00
         11   -1    0    0    0    0  0.00000000000E+00  0.00000000000E+00  0.10001806840E+04  0.10001806840E+04  0.51100000000E-03 0. -1.
          2   -1    0    0  501    0 -0.00000000000E+00 -0.00000000000E+00 -0.16578884613E+03  0.16578884615E+03  0.25500000000E-02 0. -1.
         11    1    1    2    0    0  0.13702986722E+03 -0.16820502168E+03  0.89055436812E+03  0.91660089264E+03  0.51100000000E-03 0. -1.
         22    1    1    2    0    0  0.13360455919E+02  0.16868933563E+02 -0.26226575671E+02  0.33924857749E+02  0.00000000000E+00 0. -1.
          2    1    1    2  501    0 -0.15039032314E+03  0.15133608812E+03 -0.29935954554E+02  0.21544377977E+03  0.25500000000E-02 0. -1.
<mgrwt>
<rscale>  0 0.68258946E+02</rscale>
<asrwt>0</asrwt>
<pdfrwt beam="1">  1       11 0.10000000E+01 0.21652062E+03</pdfrwt>
<pdfrwt beam="2">  1        2 0.25510584E-01 0.68258946E+02</pdfrwt>
<totfact> 0.25120476E+02</totfact>
</mgrwt>
</event>
<event>
 5    1  0.2134612E-003  0.1590852E+03  0.7818608E-02  0.1477723E+00
         11   -1    0    0    0    0  0.00000000000E+00  0.00000000000E+00  0.10003887051E+04  0.10003887051E+04  0.51100000000E-03 0. -1.
         -2   -1    0    0    0  501 -0.00000000000E+00 -0.00000000000E+00 -0.14788802327E+03  0.14788802330E+03  0.25500000000E-02 0.  1.
         11    1    1    2    0    0 -0.76516317684E+02  0.13978502581E+03  0.94142793333E+03  0.95481995893E+03  0.51100000000E-03 0. -1.
         22    1    1    2    0    0  0.12388505721E+02  0.97725588660E+00 -0.21251851932E+02  0.24618515666E+02  0.00000000000E+00 0.  1.
         -2    1    1    2    0  501  0.64127811963E+02 -0.14076228170E+03 -0.67675399607E+02  0.16883825377E+03  0.25500000000E-02 0.  1.
<mgrwt>
<rscale>  0 0.44462905E+02</rscale>
<asrwt>0</asrwt>
<pdfrwt beam="1">  1       11 0.10000000E+01 0.15908516E+03</pdfrwt>
<pdfrwt beam="2">  1       -2 0.22760847E-01 0.44462905E+02</pdfrwt>
<totfact> 0.12728538E+02</totfact>
</mgrwt>
</event>
<event>
 5    1  0.9955701E-004  0.1594207E+03  0.7818608E-02  0.1189352E+00
         11   -1    0    0    0    0  0.00000000000E+00  0.00000000000E+00  0.10003098080E+04  0.10003098080E+04  0.51100000000E-03 0. -1.
          2   -1    0    0  501    0 -0.00000000000E+00 -0.00000000000E+00 -0.34761566214E+02  0.34761566308E+02  0.25500000000E-02 0. -1.
         11    1    1    2    0    0  0.95255934264E+02 -0.12460293162E+03  0.75421983501E+03  0.77035520580E+03  0.51100000000E-03 0. -1.
         22    1    1    2    0    0 -0.85216321104E+00  0.13739998309E+02  0.16573787121E+02  0.21545397541E+02  0.00000000000E+00 0.  1.
          2    1    1    2  501    0 -0.94403771053E+02  0.11086293331E+03  0.19475461968E+03  0.24317077099E+03  0.25500000000E-02 0. -1.
<mgrwt>
<rscale>  0 0.15942068E+03</rscale>
<asrwt>0</asrwt>
<pdfrwt beam="1">  1       11 0.10000000E+01 0.15684254E+03</pdfrwt>
<pdfrwt beam="2">  1        2 0.53495900E-02 0.15942068E+03</pdfrwt>
<totfact> 0.16994576E+03</totfact>
</mgrwt>
</event>
<event>
 5    1  0.9955701E-004  0.4257307E+02  0.7818608E-02  0.1573563E+00
         11   -1    0    0    0    0  0.00000000000E+00  0.00000000000E+00  0.10003595307E+04  0.10003595307E+04  0.51100000000E-03 0.  1.
         -2   -1    0    0    0  501 -0.00000000000E+00 -0.00000000000E+00 -0.55077807787E+01  0.55077813690E+01  0.25500000000E-02 0.  1.
         11    1    1    2    0    0  0.40425000200E+01 -0.31567680989E+02  0.18450670008E+03  0.18723136132E+03  0.51100000000E-03 0.  1.
         22    1    1    2    0    0 -0.18089357487E+02 -0.16624991838E+02  0.42039290172E+02  0.48692064303E+02  0.00000000000E+00 0. -1.
         -2    1    1    2    0  501  0.14046857467E+02  0.48192672827E+02  0.76830575965E+03  0.76994388642E+03  0.25500000000E-02 0.  1.
<mgrwt>
<rscale>  0 0.32341296E+02</rscale>
<asrwt>0</asrwt>
<pdfrwt beam="1">  1       11 0.10000000E+01 0.42573070E+02</pdfrwt>
<pdfrwt beam="2">  1       -2 0.84765556E-03 0.32341296E+02</pdfrwt>
<totfact> 0.15066784E+04</totfact>
</mgrwt>
</event>
<event>
 5    1  0.2400672E-003  0.1601966E+03  0.7818608E-02  0.1188475E+00
         11   -1    0    0    0    0  0.00000000000E+00  0.00000000000E+00  0.10001380759E+04  0.10001380759E+04  0.51100000000E-03 0. -1.
         -2   -1    0    0    0  501 -0.00000000000E+00 -0.00000000000E+00 -0.15031026825E+03  0.15031026827E+03  0.25500000000E-02 0.  1.
         11    1    1    2    0    0  0.14416349066E+03  0.64032144379E+02  0.94901199251E+03  0.96203273826E+03  0.51100000000E-03 0. -1.
         22    1    1    2    0    0 -0.12273781586E+02  0.23043336156E+01 -0.93290597196E+01  0.15588041028E+02  0.00000000000E+00 0.  1.
         -2    1    1    2    0  501 -0.13188970908E+03 -0.66336477994E+02 -0.89855125122E+02  0.17282756490E+03  0.25500000000E-02 0.  1.
<mgrwt>
<rscale>  0 0.16019656E+03</rscale>
<asrwt>0</asrwt>
<pdfrwt beam="1">  1       11 0.10000000E+01 0.15774418E+03</pdfrwt>
<pdfrwt beam="2">  1       -2 0.23127849E-01 0.16019656E+03</pdfrwt>
<totfact> 0.12959035E+02</totfact>
</mgrwt>
</event>
<event>
 5    1  0.9955701E-004  0.1971263E+02  0.7818608E-02  0.1839049E+00
         11   -1    0    0    0    0  0.00000000000E+00  0.00000000000E+00  0.99992513856E+03  0.99992513856E+03  0.51100000000E-03 0. -1.
          2   -1    0    0  501    0 -0.00000000000E+00 -0.00000000000E+00 -0.31862474754E+01  0.31862484958E+01  0.25500000000E-02 0. -1.
         11    1    1    2    0    0  0.77664043306E+01  0.11068244539E+02  0.33795675825E+02  0.36400148051E+02  0.51100000000E-03 0. -1.
         22    1    1    2    0    0 -0.89806441925E+01  0.93770678264E+01  0.22003817372E+02  0.25548959862E+02  0.00000000000E+00 0. -1.
          2    1    1    2  501    0  0.12142398619E+01 -0.20445312365E+02  0.94093939788E+03  0.94116227914E+03  0.25500000000E-02 0. -1.
<mgrwt>
<rscale>  0 0.15998326E+02</rscale>
<asrwt>0</asrwt>
<pdfrwt beam="1">  1       11 0.10000000E+01 0.19712628E+02</pdfrwt>
<pdfrwt beam="2">  1        2 0.49015529E-03 0.15998326E+02</pdfrwt>
<totfact> 0.27050510E+04</totfact>
</mgrwt>
</event>
<event>
 5    1  0.9955701E-004  0.1794159E+03  0.7818608E-02  0.1168370E+00
         11   -1    0    0    0    0  0.00000000000E+00  0.00000000000E+00  0.10002036301E+04  0.10002036301E+04  0.51100000000E-03 0. -1.
          2   -1    0    0  501    0 -0.00000000000E+00 -0.00000000000E+00 -0.24571252841E+03  0.24571252842E+03  0.25500000000E-02 0.  1.
         11    1    1    2    0    0  0.66718649091E+01  0.16592767248E+03  0.95933934827E+03  0.97360592203E+03  0.51100000000E-03 0. -1.
         22    1    1    2    0    0  0.16800560929E+02 -0.55735928164E+02 -0.33272371068E+02  0.67050751020E+02  0.00000000000E+00 0. -1.
          2    1    1    2  501    0 -0.23472425838E+02 -0.11019174432E+03 -0.17157587554E+03  0.20525948544E+03  0.25500000000E-02 0.  1.
<mgrwt>
<rscale>  0 0.17941589E+03</rscale>
<asrwt>0</asrwt>
<pdfrwt beam="1">  1       11 0.10000000E+01 0.16606175E+03</pdfrwt>
<pdfrwt beam="2">  1        2 0.37809624E-01 0.17941589E+03</pdfrwt>
<totfact> 0.16786373E+02</totfact>
</mgrwt>
</event>
<event>
 5    1  0.9955701E-004  0.2165717E+03  0.7818608E-02  0.1389934E+00
         11   -1    0    0    0    0  0.00000000000E+00  0.00000000000E+00  0.99997301671E+03  0.99997301671E+03  0.51100000000E-03 0. -1.
         -2   -1    0    0    0  501 -0.00000000000E+00 -0.00000000000E+00 -0.75051409905E+02  0.75051409949E+02  0.25500000000E-02 0.  1.
         11    1    1    2    0    0 -0.10260933519E+03 -0.19182095907E+03  0.73821697487E+03  0.76960266241E+03  0.51100000000E-03 0. -1.
         22    1    1    2    0    0  0.17120836461E+02 -0.45116828009E+01 -0.45821639419E+01  0.18288645363E+02  0.00000000000E+00 0.  1.
         -2    1    1    2    0  501  0.85488498725E+02  0.19633264187E+03  0.19128679587E+03  0.28713311888E+03  0.25500000000E-02 0.  1.
<mgrwt>
<rscale>  0 0.61923101E+02</rscale>
<asrwt>0</asrwt>
<pdfrwt beam="1">  1       11 0.10000000E+01 0.21657167E+03</pdfrwt>
<pdfrwt beam="2">  1       -2 0.11546059E-01 0.61923101E+02</pdfrwt>
<totfact> 0.38726214E+02</totfact>
</mgrwt>
</event>
<event>
 5    1  0.9955701E-004  0.1271636E+03  0.7818608E-02  0.1392857E+00
         11   -1    0    0    0    0  0.00000000000E+00  0.00000000000E+00  0.10002462126E+04  0.10002462126E+04  0.51100000000E-03 0.  1.
          2   -1    0    0  501    0 -0.00000000000E+00 -0.00000000000E+00 -0.44363013172E+02  0.44363013246E+02  0.25500000000E-02 0.  1.
         11    1    1    2    0    0 -0.11015340233E+03 -0.73870863903E+02  0.72644101846E+03  0.73844920602E+03  0.51100000000E-03 0.  1.
         22    1    1    2    0    0  0.52224778520E+02  0.93616904070E+02  0.53359840242E+02  0.11974483191E+03  0.00000000000E+00 0.  1.
          2    1    1    2  501    0  0.57928623815E+02 -0.19746040167E+02  0.17608234068E+03  0.18641518786E+03  0.25500000000E-02 0.  1.
<mgrwt>
<rscale>  0 0.61201565E+02</rscale>
<asrwt>0</asrwt>
<pdfrwt beam="1">  1       11 0.10000000E+01 0.12716356E+03</pdfrwt>
<pdfrwt beam="2">  1        2 0.68267592E-02 0.61201565E+02</pdfrwt>
<totfact> 0.11520153E+03</totfact>
</mgrwt>
</event>
<event>
 5    1  0.9955701E-004  0.1190659E+03  0.7818608E-02  0.1367254E+00
         11   -1    0    0    0    0  0.00000000000E+00  0.00000000000E+00  0.10003829976E+04  0.10003829976E+04  0.51100000000E-03 0. -1.
          2   -1    0    0  501    0 -0.00000000000E+00 -0.00000000000E+00 -0.40701096214E+02  0.40701096294E+02  0.25500000000E-02 0. -1.
         11    1    1    2    0    0 -0.25118871054E+02  0.12680465478E+03  0.68341087178E+03  0.69552914951E+03  0.51100000000E-03 0. -1.
         22    1    1    2    0    0 -0.14547734512E+02 -0.71651029906E+02  0.13761222160E+02  0.74396760019E+02  0.00000000000E+00 0. -1.
          2    1    1    2  501    0  0.39666605567E+02 -0.55153624871E+02  0.26250980745E+03  0.27115818436E+03  0.25500000000E-02 0. -1.
<mgrwt>
<rscale>  0 0.67936455E+02</rscale>
<asrwt>0</asrwt>
<pdfrwt beam="1">  1       11 0.10000000E+01 0.11906589E+03</pdfrwt>
<pdfrwt beam="2">  1        2 0.62641052E-02 0.67936455E+02</pdfrwt>
<totfact> 0.12943761E+03</totfact>
</mgrwt>
</event>
<event>
 5    1  0.9955701E-004  0.1269129E+03  0.7818608E-02  0.1291925E+00
         11   -1    0    0    0    0  0.00000000000E+00  0.00000000000E+00  0.10003260255E+04  0.10003260255E+04  0.51100000000E-03 0. -1.
          2   -1    0    0  501    0 -0.00000000000E+00 -0.00000000000E+00 -0.33896481451E+02  0.33896481547E+02  0.25500000000E-02 0. -1.
         11    1    1    2    0    0  0.66784318077E+02  0.13309359478E+03  0.68493666552E+03  0.70093672032E+03  0.51100000000E-03 0. -1.
         22    1    1    2    0    0 -0.62957316921E+02 -0.31984240592E+02  0.73154029374E+02  0.10167658243E+03  0.00000000000E+00 0. -1.
          2    1    1    2  501    0 -0.38270011559E+01 -0.10110935419E+03  0.20833884910E+03  0.23160920425E+03  0.25500000000E-02 0. -1.
<mgrwt>
<rscale>  0 0.94668249E+02</rscale>
<asrwt>0</asrwt>
<pdfrwt beam="1">  1       11 0.10000000E+01 0.12691290E+03</pdfrwt>
<pdfrwt beam="2">  1        2 0.52165433E-02 0.94668249E+02</pdfrwt>
<totfact> 0.16821355E+03</totfact>
</mgrwt>
</event>
<event>
 5    1  0.9955701E-004  0.3083267E+03  0.7818608E-02  0.1182961E+00
         11   -1    0    0    0    0  0.00000000000E+00  0.00000000000E+00  0.10003245071E+04  0.10003245071E+04  0.51100000000E-03 0. -1.
          2   -1    0    0  501    0 -0.00000000000E+00 -0.00000000000E+00 -0.11617601624E+04  0.11617601624E+04  0.25500000000E-02 0. -1.
         11    1    1    2    0    0 -0.89470148063E+02  0.29731103043E+03  0.94321192715E+03  0.99299924256E+03  0.51100000000E-03 0. -1.
         22    1    1    2    0    0  0.82017430810E+02 -0.33248226326E+02 -0.52066285977E+03  0.52813077647E+03  0.00000000000E+00 0.  1.
          2    1    1    2  501    0  0.74527172530E+01 -0.26406280410E+03 -0.58398472270E+03  0.64095465039E+03  0.25500000000E-02 0. -1.
<mgrwt>
<rscale>  0 0.16518778E+03</rscale>
<asrwt>0</asrwt>
<pdfrwt beam="1">  1       11 0.10000000E+01 0.30832665E+03</pdfrwt>
<pdfrwt beam="2">  1        2 0.17879033E+00 0.16518778E+03</pdfrwt>
<totfact> 0.27069134E+01</totfact>
</mgrwt>
</event>
<event>
 5    1  0.9955701E-004  0.1929896E+03  0.7818608E-02  0.1254772E+00
         11   -1    0    0    0    0  0.00000000000E+00  0.00000000000E+00  0.10003365637E+04  0.10003365637E+04  0.51100000000E-03 0. -1.
          2   -1    0    0  501    0 -0.00000000000E+00 -0.00000000000E+00 -0.14835390686E+03  0.14835390688E+03  0.25500000000E-02 0. -1.
         11    1    1    2    0    0 -0.16953339611E+03 -0.90786810162E+02  0.16833802003E+02  0.19304712945E+03  0.51100000000E-03 0. -1.
         22    1    1    2    0    0 -0.22696223191E+02  0.62388418519E+02 -0.27146923362E+02  0.71724394459E+02  0.00000000000E+00 0.  1.
          2    1    1    2  501    0  0.19222961930E+03  0.28398391643E+02  0.86229577818E+03  0.88391894666E+03  0.25500000000E-02 0. -1.
<mgrwt>
<rscale>  0 0.11319135E+03</rscale>
<asrwt>0</asrwt>
<pdfrwt beam="1">  1       11 0.10000000E+01 0.19298955E+03</pdfrwt>
<pdfrwt beam="2">  1        2 0.22831359E-01 0.11319135E+03</pdfrwt>
<totfact> 0.28806094E+02</totfact>
</mgrwt>
</event>
<event>
 5    1  0.9955701E-004  0.1209260E+03  0.7818608E-02  0.1511361E+00
         11   -1    0    0    0    0  0.00000000000E+00  0.00000000000E+00  0.10002842438E+04  0.10002842438E+04  0.51100000000E-03 0. -1.
          2   -1    0    0  501    0 -0.00000000000E+00 -0.00000000000E+00 -0.30335183981E+02  0.30335184088E+02  0.25500000000E-02 0. -1.
         11    1    1    2    0    0 -0.64856707757E+02 -0.10680302136E+03  0.27395554985E+03  0.30110616268E+03  0.51100000000E-03 0. -1.
         22    1    1    2    0    0  0.12919266558E+02 -0.91550637645E+00 -0.81398930891E+01  0.15297171628E+02  0.00000000000E+00 0. -1.
          2    1    1    2  501    0  0.51937441199E+02  0.10771852773E+03  0.70413340306E+03  0.71421609358E+03  0.25500000000E-02 0. -1.
<mgrwt>
<rscale>  0 0.39575141E+02</rscale>
<asrwt>0</asrwt>
<pdfrwt beam="1">  1       11 0.10000000E+01 0.12092597E+03</pdfrwt>
<pdfrwt beam="2">  1        2 0.46682778E-02 0.39575141E+02</pdfrwt>
<totfact> 0.17726576E+03</totfact>
</mgrwt>
</event>
<event>
 5    1  0.9955701E-004  0.9842492E+02  0.7818608E-02  0.1551808E+00
         11   -1    0    0    0    0  0.00000000000E+00  0.00000000000E+00  0.10001282433E+04  0.10001282433E+04  0.51100000000E-03 0. -1.
          2   -1    0    0  501    0 -0.00000000000E+00 -0.00000000000E+00 -0.11644924980E+02  0.11644925259E+02  0.25500000000E-02 0.  1.
         11    1    1    2    0    0 -0.84734489827E+02 -0.41998026916E+02  0.51871605884E+03  0.52726664766E+03  0.51100000000E-03 0. -1.
         22    1    1    2    0    0 -0.11771976575E+02  0.31738604764E+01  0.26095250055E+02  0.28803036268E+02  0.00000000000E+00 0.  1.
          2    1    1    2  501    0  0.96506466402E+02  0.38824166440E+02  0.44367200946E+03  0.45570348467E+03  0.25500000000E-02 0.  1.
<mgrwt>
<rscale>  0 0.34641432E+02</rscale>
<asrwt>0</asrwt>
<pdfrwt beam="1">  1       11 0.10000000E+01 0.98424923E+02</pdfrwt>
<pdfrwt beam="2">  1        2 0.17917566E-02 0.34641432E+02</pdfrwt>
<totfact> 0.59609839E+03</totfact>
</mgrwt>
</event>
<event>
 5    1  0.9955701E-004  0.5084137E+03  0.7818608E-02  0.1315191E+00
         11   -1    0    0    0    0  0.00000000000E+00  0.00000000000E+00  0.10017402156E+04  0.10017402156E+04  0.51100000000E-03 0. -1.
          2   -1    0    0  501    0 -0.00000000000E+00 -0.00000000000E+00 -0.25470383323E+04  0.25470383323E+04  0.25500000000E-02 0. -1.
         11    1    1    2    0    0 -0.32415968020E+03  0.39180378148E+03  0.90809661288E+03  0.10407829552E+04  0.51100000000E-03 0. -1.
         22    1    1    2    0    0 -0.80607271768E+01 -0.11741132517E+02 -0.42573129888E+02  0.44892102912E+02  0.00000000000E+00 0. -1.
          2    1    1    2  501    0  0.33222040737E+03 -0.38006264896E+03 -0.24108215997E+04  0.24631034899E+04  0.25500000000E-02 0. -1.
<mgrwt>
<rscale>  0 0.85092527E+02</rscale>
<asrwt>0</asrwt>
<pdfrwt beam="1">  1       11 0.10000000E+01 0.50841372E+03</pdfrwt>
<pdfrwt beam="2">  1        2 0.39253395E+00 0.85092527E+02</pdfrwt>
<totfact> 0.54859164E+00</totfact>
</mgrwt>
</event>
<event>
 5    1  0.9955701E-004  0.6469968E+02  0.7818608E-02  0.1523907E+00
         11   -1    0    0    0    0  0.00000000000E+00  0.00000000000E+00  0.10001944541E+04  0.10001944541E+04  0.51100000000E-03 0.  1.
         -2   -1    0    0    0  501 -0.00000000000E+00 -0.00000000000E+00 -0.63708086968E+02  0.63708087019E+02  0.25500000000E-02 0.  1.
         11    1    1    2    0    0 -0.47913284682E+02 -0.40846609374E+02  0.31321000318E+03  0.31947556157E+03  0.51100000000E-03 0.  1.
         22    1    1    2    0    0  0.64939833433E+02  0.74756477661E+02 -0.19168950516E+02  0.10086209190E+03  0.00000000000E+00 0.  1.
         -2    1    1    2    0  501 -0.17026548751E+02 -0.33909868287E+02  0.64244531445E+03  0.64356488763E+03  0.25500000000E-02 0.  1.
<mgrwt>
<rscale>  0 0.37944466E+02</rscale>
<asrwt>0</asrwt>
<pdfrwt beam="1">  1       11 0.10000000E+01 0.64699682E+02</pdfrwt>
<pdfrwt beam="2">  1       -2 0.98031498E-02 0.37944466E+02</pdfrwt>
<totfact> 0.47872079E+02</totfact>
</mgrwt>
</event>
<event>
 5    1  0.1093325E-003  0.1459969E+03  0.7818608E-02  0.1373271E+00
         11   -1    0    0    0    0  0.00000000000E+00  0.00000000000E+00  0.10001615433E+04  0.10001615433E+04  0.51100000000E-03 0. -1.
         -2   -1    0    0    0  501 -0.00000000000E+00 -0.00000000000E+00 -0.58310451708E+02  0.58310451763E+02  0.25500000000E-02 0.  1.
         11    1    1    2    0    0 -0.14075215791E+03 -0.21726766840E+02  0.79266524048E+03  0.80535793646E+03  0.51100000000E-03 0. -1.
         22    1    1    2    0    0 -0.28852762860E+02 -0.84948363177E+01  0.36324567500E+02  0.47160559504E+02  0.00000000000E+00 0. -1.
         -2    1    1    2    0  501  0.16960492077E+03  0.30221603158E+02  0.11286128363E+03  0.20595349911E+03  0.25500000000E-02 0.  1.
<mgrwt>
<rscale>  0 0.66266069E+02</rscale>
<asrwt>0</asrwt>
<pdfrwt beam="1">  1       11 0.10000000E+01 0.14599686E+03</pdfrwt>
<pdfrwt beam="2">  1       -2 0.89722877E-02 0.66266069E+02</pdfrwt>
<totfact> 0.57434297E+02</totfact>
</mgrwt>
</event>
<event>
 5    1  0.9955701E-004  0.2446413E+03  0.7818608E-02  0.1116739E+00
         11   -1    0    0    0    0  0.00000000000E+00  0.00000000000E+00  0.10001821081E+04  0.10001821081E+04  0.51100000000E-03 0. -1.
          2   -1    0    0  501    0 -0.00000000000E+00 -0.00000000000E+00 -0.80568994707E+02  0.80568994748E+02  0.25500000000E-02 0. -1.
         11    1    1    2    0    0  0.23546150213E+03  0.56526648174E+02  0.73616681087E+03  0.77497029257E+03  0.51100000000E-03 0. -1.
         22    1    1    2    0    0 -0.14331024001E+02 -0.12378721204E+01  0.21685061540E+01  0.14546923910E+02  0.00000000000E+00 0. -1.
          2    1    1    2  501    0 -0.22113047812E+03 -0.55288776053E+02  0.18127779640E+03  0.29123388640E+03  0.25500000000E-02 0. -1.
<mgrwt>
<rscale>  0 0.24464128E+03</rscale>
<asrwt>0</asrwt>
<pdfrwt beam="1">  1       11 0.10000000E+01 0.24215157E+03</pdfrwt>
<pdfrwt beam="2">  1        2 0.12397487E-01 0.24464128E+03</pdfrwt>
<totfact> 0.60204069E+02</totfact>
</mgrwt>
</event>
<event>
 5    1  0.9955701E-004  0.7720689E+02  0.7818608E-02  0.1521492E+00
         11   -1    0    0    0    0  0.00000000000E+00  0.00000000000E+00  0.99998362935E+03  0.99998362935E+03  0.51100000000E-03 0. -1.
          2   -1    0    0  501    0 -0.00000000000E+00 -0.00000000000E+00 -0.10999363905E+02  0.10999364201E+02  0.25500000000E-02 0. -1.
         11    1    1    2    0    0 -0.25057162286E+01 -0.87178831460E+02  0.38854978240E+03  0.39821773023E+03  0.51100000000E-03 0. -1.
         22    1    1    2    0    0  0.11660280992E+02  0.14938856155E+02  0.19164558558E+02  0.26952029251E+02  0.00000000000E+00 0. -1.
          2    1    1    2  501    0 -0.91545647632E+01  0.72239975305E+02  0.58126992449E+03  0.58581323407E+03  0.25500000000E-02 0. -1.
<mgrwt>
<rscale>  0 0.38250871E+02</rscale>
<asrwt>0</asrwt>
<pdfrwt beam="1">  1       11 0.10000000E+01 0.77206894E+02</pdfrwt>
<pdfrwt beam="2">  1        2 0.16921821E-02 0.38250871E+02</pdfrwt>
<totfact> 0.65345042E+03</totfact>
</mgrwt>
</event>
<event>
 5    1  0.9955701E-004  0.1805926E+03  0.7818608E-02  0.1167231E+00
         11   -1    0    0    0    0  0.00000000000E+00  0.00000000000E+00  0.10005252936E+04  0.10005252936E+04  0.51100000000E-03 0.  1.
          2   -1    0    0  501    0 -0.00000000000E+00 -0.00000000000E+00 -0.19432258503E+03  0.19432258505E+03  0.25500000000E-02 0.  1.
         11    1    1    2    0    0 -0.13490016334E+03  0.11784113545E+03  0.94829073934E+03  0.96505953888E+03  0.51100000000E-03 0.  1.
         22    1    1    2    0    0  0.10082911893E+02 -0.93432636064E+01 -0.39445546069E+01  0.14301090801E+02  0.00000000000E+00 0. -1.
          2    1    1    2  501    0  0.12481725145E+03 -0.10849787184E+03 -0.13814347616E+03  0.21548724896E+03  0.25500000000E-02 0.  1.
<mgrwt>
<rscale>  0 0.18059256E+03</rscale>
<asrwt>0</asrwt>
<pdfrwt beam="1">  1       11 0.10000000E+01 0.17912171E+03</pdfrwt>
<pdfrwt beam="2">  1        2 0.29911486E-01 0.18059256E+03</pdfrwt>
<totfact> 0.21639635E+02</totfact>
</mgrwt>
</event>
<event>
 5    1  0.9955701E-004  0.5861555E+02  0.7818608E-02  0.1417639E+00
         11   -1    0    0    0    0  0.00000000000E+00  0.00000000000E+00  0.10003017150E+04  0.10003017150E+04  0.51100000000E-03 0. -1.
          2   -1    0    0  501    0 -0.00000000000E+00 -0.00000000000E+00 -0.16244155052E+02  0.16244155253E+02  0.25500000000E-02 0. -1.
         11    1    1    2    0    0  0.54076533213E+02 -0.99779491760E+01  0.25344893742E+03  0.25934570517E+03  0.51100000000E-03 0. -1.
         22    1    1    2    0    0 -0.44386318873E+00  0.52592951370E+02  0.48132577309E+02  0.71294884436E+02  0.00000000000E+00 0. -1.
          2    1    1    2  501    0 -0.53632670024E+02 -0.42615002194E+02  0.68247604527E+03  0.68590528069E+03  0.25500000000E-02 0. -1.
<mgrwt>
<rscale>  0 0.55523625E+02</rscale>
<asrwt>0</asrwt>
<pdfrwt beam="1">  1       11 0.10000000E+01 0.58615547E+02</pdfrwt>
<pdfrwt beam="2">  1        2 0.24998547E-02 0.55523625E+02</pdfrwt>
<totfact> 0.41386845E+03</totfact>
</mgrwt>
</event>
<event>
 5    1  0.9955701E-004  0.3960581E+02  0.7818608E-02  0.1538929E+00
         11   -1    0    0    0    0  0.00000000000E+00  0.00000000000E+00  0.10001985376E+04  0.10001985376E+04  0.51100000000E-03 0.  1.
          2   -1    0    0  501    0 -0.00000000000E+00 -0.00000000000E+00 -0.32330925375E+01  0.32330935432E+01  0.25500000000E-02 0.  1.
         11    1    1    2    0    0  0.10588842080E+02  0.86238440237E+01  0.28151551600E+02  0.31289041534E+02  0.51100000000E-03 0.  1.
         22    1    1    2    0    0  0.23141804636E+02  0.42769329154E+01  0.10633985648E+03  0.10891281078E+03  0.00000000000E+00 0.  1.
          2    1    1    2  501    0 -0.33730646717E+02 -0.12900776939E+02  0.86247403702E+03  0.86322977887E+03  0.25500000000E-02 0.  1.
<mgrwt>
<rscale>  0 0.36113524E+02</rscale>
<asrwt>0</asrwt>
<pdfrwt beam="1">  1       11 0.10000000E+01 0.39605815E+02</pdfrwt>
<pdfrwt beam="2">  1        2 0.49749767E-03 0.36113524E+02</pdfrwt>
<totfact> 0.32845506E+04</totfact>
</mgrwt>
</event>
<event>
 5    1  0.9955701E-004  0.9092959E+02  0.7818608E-02  0.1300616E+00
         11   -1    0    0    0    0  0.00000000000E+00  0.00000000000E+00  0.10004042552E+04  0.10004042552E+04  0.51100000000E-03 0.  1.
          2   -1    0    0  501    0 -0.00000000000E+00 -0.00000000000E+00 -0.87135608541E+01  0.87135612273E+01  0.25500000000E-02 0.  1.
         11    1    1    2    0    0  0.58570390156E+02 -0.66098968386E+02  0.34776409278E+03  0.35880277096E+03  0.51100000000E-03 0.  1.
         22    1    1    2    0    0 -0.14673207104E+02  0.15366419477E+02  0.97673567539E+02  0.99957769333E+02  0.00000000000E+00 0. -1.
          2    1    1    2  501    0 -0.43897183052E+02  0.50732548909E+02  0.54625303404E+03  0.55035727615E+03  0.25500000000E-02 0.  1.
<mgrwt>
<rscale>  0 0.90929589E+02</rscale>
<asrwt>0</asrwt>
<pdfrwt beam="1">  1       11 0.10000000E+01 0.88315186E+02</pdfrwt>
<pdfrwt beam="2">  1        2 0.13410897E-02 0.90929589E+02</pdfrwt>
<totfact> 0.10226654E+04</totfact>
</mgrwt>
</event>
<event>
 5    1  0.9955701E-004  0.1886636E+03  0.7818608E-02  0.1450466E+00
         11   -1    0    0    0    0  0.00000000000E+00  0.00000000000E+00  0.99973095578E+03  0.99973095578E+03  0.51100000000E-03 0. -1.
          2   -1    0    0  501    0 -0.00000000000E+00 -0.00000000000E+00 -0.13259418682E+03  0.13259418684E+03  0.25500000000E-02 0. -1.
         11    1    1    2    0    0 -0.19015588541E+03 -0.38717945820E+01  0.87724173035E+03  0.89762314199E+03  0.51100000000E-03 0. -1.
         22    1    1    2    0    0  0.12287704721E+02 -0.34347905625E+01 -0.50559952331E+02  0.52144935068E+02  0.00000000000E+00 0.  1.
          2    1    1    2  501    0  0.17786818069E+03  0.73065851444E+01  0.40454990934E+02  0.18255706557E+03  0.25500000000E-02 0. -1.
<mgrwt>
<rscale>  0 0.49062311E+02</rscale>
<asrwt>0</asrwt>
<pdfrwt beam="1">  1       11 0.10000000E+01 0.18866362E+03</pdfrwt>
<pdfrwt beam="2">  1        2 0.20393617E-01 0.49062311E+02</pdfrwt>
<totfact> 0.31610375E+02</totfact>
</mgrwt>
</event>
<event>
 5    1  0.9955701E-004  0.8912365E+02  0.7818608E-02  0.1559699E+00
         11   -1    0    0    0    0  0.00000000000E+00  0.00000000000E+00  0.99999964819E+03  0.99999964819E+03  0.51100000000E-03 0.  1.
          2   -1    0    0  501    0 -0.00000000000E+00 -0.00000000000E+00 -0.17151275475E+02  0.17151275664E+02  0.25500000000E-02 0.  1.
         11    1    1    2    0    0 -0.89848260751E+01 -0.92073445382E+02  0.33787173832E+03  0.35030780465E+03  0.51100000000E-03 0.  1.
         22    1    1    2    0    0 -0.10969417620E+02  0.66046347029E+01 -0.28339114617E+01  0.13114128894E+02  0.00000000000E+00 0.  1.
          2    1    1    2  501    0  0.19954243695E+02  0.85468810679E+02  0.64781054585E+03  0.65372899031E+03  0.25500000000E-02 0.  1.
<mgrwt>
<rscale>  0 0.33781100E+02</rscale>
<asrwt>0</asrwt>
<pdfrwt beam="1">  1       11 0.10000000E+01 0.89123651E+02</pdfrwt>
<pdfrwt beam="2">  1        2 0.26386568E-02 0.33781100E+02</pdfrwt>
<totfact> 0.35912006E+03</totfact>
</mgrwt>
</event>
<event>
 5    1  0.9955701E-004  0.2933082E+03  0.7818608E-02  0.1094832E+00
         11   -1    0    0    0    0  0.00000000000E+00  0.00000000000E+00  0.10005016133E+04  0.10005016133E+04  0.51100000000E-03 0. -1.
          2   -1    0    0  501    0 -0.00000000000E+00 -0.00000000000E+00 -0.22955324347E+03  0.22955324349E+03  0.25500000000E-02 0. -1.
         11    1    1    2    0    0 -0.13094434917E+03 -0.25656215275E+03  0.36076292018E+03  0.46164969986E+03  0.51100000000E-03 0. -1.
         22    1    1    2    0    0 -0.22519283552E+03  0.14951940858E+03  0.11562071462E+03  0.29400002782E+03  0.00000000000E+00 0. -1.
          2    1    1    2  501    0  0.35613718469E+03  0.10704274418E+03  0.29456473506E+03  0.47440512913E+03  0.25500000000E-02 0. -1.
<mgrwt>
<rscale>  0 0.28157474E+03</rscale>
<asrwt>0</asrwt>
<pdfrwt beam="1">  1       11 0.10000000E+01 0.29330817E+03</pdfrwt>
<pdfrwt beam="2">  1        2 0.35333598E-01 0.28157474E+03</pdfrwt>
<totfact> 0.18144899E+02</totfact>
</mgrwt>
</event>
<event>
 5    1  0.9955701E-004  0.1515295E+03  0.7818608E-02  0.1198606E+00
         11   -1    0    0    0    0  0.00000000000E+00  0.00000000000E+00  0.10004601183E+04  0.10004601183E+04  0.51100000000E-03 0. -1.
          2   -1    0    0  501    0 -0.00000000000E+00 -0.00000000000E+00 -0.24000260799E+02  0.24000260934E+02  0.25500000000E-02 0. -1.
         11    1    1    2    0    0 -0.86673416695E+02  0.12108211019E+03  0.60991470407E+03  0.62782888180E+03  0.51100000000E-03 0. -1.
         22    1    1    2    0    0  0.19889168180E+02 -0.20653562947E+02  0.46667978798E+02  0.54772702311E+02  0.00000000000E+00 0.  1.
          2    1    1    2  501    0  0.66784248515E+02 -0.10042854725E+03  0.31987717464E+03  0.34185879514E+03  0.25500000000E-02 0. -1.
<mgrwt>
<rscale>  0 0.15152952E+03</rscale>
<asrwt>0</asrwt>
<pdfrwt beam="1">  1       11 0.10000000E+01 0.14890654E+03</pdfrwt>
<pdfrwt beam="2">  1        2 0.36940466E-02 0.15152952E+03</pdfrwt>
<totfact> 0.27593050E+03</totfact>
</mgrwt>
</event>
<event>
 5    1  0.9955701E-004  0.1955418E+03  0.7818608E-02  0.1153556E+00
         11   -1    0    0    0    0  0.00000000000E+00  0.00000000000E+00  0.10001163314E+04  0.10001163314E+04  0.51100000000E-03 0. -1.
          2   -1    0    0  501    0 -0.00000000000E+00 -0.00000000000E+00 -0.41322858164E+03  0.41322858165E+03  0.25500000000E-02 0. -1.
         11    1    1    2    0    0  0.10425895719E+03  0.10267783713E+03  0.85685350524E+03  0.86925864841E+03  0.51100000000E-03 0. -1.
         22    1    1    2    0    0  0.16640134598E+03  0.59752565756E+01 -0.16418401612E+03  0.23384076373E+03  0.00000000000E+00 0. -1.
          2    1    1    2  501    0 -0.27066030317E+03 -0.10865309370E+03 -0.10578173932E+03  0.31024550096E+03  0.25500000000E-02 0. -1.
<mgrwt>
<rscale>  0 0.19554180E+03</rscale>
<asrwt>0</asrwt>
<pdfrwt beam="1">  1       11 0.10000000E+01 0.14633068E+03</pdfrwt>
<pdfrwt beam="2">  1        2 0.63581022E-01 0.19554180E+03</pdfrwt>
<totfact> 0.96067689E+01</totfact>
</mgrwt>
</event>
<event>
 5    1  0.9955701E-004  0.1325389E+03  0.7818608E-02  0.1532081E+00
         11   -1    0    0    0    0  0.00000000000E+00  0.00000000000E+00  0.10000215054E+04  0.10000215054E+04  0.51100000000E-03 0.  1.
          2   -1    0    0  501    0 -0.00000000000E+00 -0.00000000000E+00 -0.27915459012E+02  0.27915459129E+02  0.25500000000E-02 0.  1.
         11    1    1    2    0    0  0.13476648965E+03 -0.13759223276E+01  0.77383094741E+03  0.78547962104E+03  0.51100000000E-03 0.  1.
         22    1    1    2    0    0 -0.92992736885E+01  0.44084756818E+01  0.37373763658E+01  0.10948932874E+02  0.00000000000E+00 0.  1.
          2    1    1    2  501    0 -0.12546721596E+03 -0.30325533541E+01  0.19453772258E+03  0.23150841059E+03  0.25500000000E-02 0.  1.
<mgrwt>
<rscale>  0 0.36932359E+02</rscale>
<asrwt>0</asrwt>
<pdfrwt beam="1">  1       11 0.10000000E+01 0.13253887E+03</pdfrwt>
<pdfrwt beam="2">  1        2 0.42947782E-02 0.36932359E+02</pdfrwt>
<totfact> 0.19527230E+03</totfact>
</mgrwt>
</event>
<event>
 5    1  0.9955701E-004  0.2579374E+03  0.7818608E-02  0.1428678E+00
         11   -1    0    0    0    0  0.00000000000E+00  0.00000000000E+00  0.10003394010E+04  0.10003394010E+04  0.51100000000E-03 0. -1.
          2   -1    0    0  501    0 -0.00000000000E+00 -0.00000000000E+00 -0.97788023982E+02  0.97788024015E+02  0.25500000000E-02 0. -1.
         11    1    1    2    0    0 -0.25897870771E+03 -0.18139185329E+02  0.74114969196E+03  0.78530367819E+03  0.51100000000E-03 0. -1.
         22    1    1    2    0    0  0.74990367644E+01 -0.80250018105E+01 -0.28143210781E+01  0.11338280716E+02  0.00000000000E+00 0. -1.
          2    1    1    2  501    0  0.25147967094E+03  0.26164187140E+02  0.16421600610E+03  0.30148546607E+03  0.25500000000E-02 0. -1.
<mgrwt>
<rscale>  0 0.53226334E+02</rscale>
<asrwt>0</asrwt>
<pdfrwt beam="1">  1       11 0.10000000E+01 0.25793737E+03</pdfrwt>
<pdfrwt beam="2">  1        2 0.15049417E-01 0.53226334E+02</pdfrwt>
<totfact> 0.44512710E+02</totfact>
</mgrwt>
</event>
<event>
 5    1  0.9955701E-004  0.1063867E+03  0.7818608E-02  0.1267411E+00
         11   -1    0    0    0    0  0.00000000000E+00  0.00000000000E+00  0.10000476136E+04  0.10000476137E+04  0.51100000000E-03 0.  1.
          2   -1    0    0  501    0 -0.00000000000E+00 -0.00000000000E+00 -0.10815398293E+02  0.10815398593E+02  0.25500000000E-02 0.  1.
         11    1    1    2    0    0 -0.23544992293E+02 -0.98805233026E+02  0.47318553555E+03  0.48396424639E+03  0.51100000000E-03 0.  1.
         22    1    1    2    0    0 -0.54408563154E+01  0.10966438862E+02  0.36076984323E+02  0.38097434252E+02  0.00000000000E+00 0. -1.
          2    1    1    2  501    0  0.28985848608E+02  0.87838794164E+02  0.47996969549E+03  0.48880133160E+03  0.25500000000E-02 0.  1.
<mgrwt>
<rscale>  0 0.10638672E+03</rscale>
<asrwt>0</asrwt>
<pdfrwt beam="1">  1       11 0.10000000E+01 0.10157190E+03</pdfrwt>
<pdfrwt beam="2">  1        2 0.16639866E-02 0.10638672E+03</pdfrwt>
<totfact> 0.77905913E+03</totfact>
</mgrwt>
</event>
<event>
 5    1  0.9955701E-004  0.1593020E+03  0.7818608E-02  0.1490683E+00
         11   -1    0    0    0    0  0.00000000000E+00  0.00000000000E+00  0.10002068171E+04  0.10002068171E+04  0.51100000000E-03 0. -1.
          2   -1    0    0  501    0 -0.00000000000E+00 -0.00000000000E+00 -0.11380859698E+03  0.11380859701E+03  0.25500000000E-02 0. -1.
         11    1    1    2    0    0  0.55157896836E+02  0.15021110126E+03  0.92754410391E+03  0.94124589413E+03  0.51100000000E-03 0. -1.
         22    1    1    2    0    0 -0.85645058299E+01 -0.74180585885E+01 -0.17308486768E+02  0.20687244078E+02  0.00000000000E+00 0. -1.
          2    1    1    2  501    0 -0.46593391007E+02 -0.14279304267E+03 -0.23837397069E+02  0.15208227585E+03  0.25500000000E-02 0. -1.
<mgrwt>
<rscale>  0 0.42484803E+02</rscale>
<asrwt>0</asrwt>
<pdfrwt beam="1">  1       11 0.10000000E+01 0.15930203E+03</pdfrwt>
<pdfrwt beam="2">  1        2 0.17512636E-01 0.42484803E+02</pdfrwt>
<totfact> 0.37096702E+02</totfact>
</mgrwt>
</event>
<event>
 5    1  0.1106955E-003  0.1577879E+03  0.7818608E-02  0.1501215E+00
         11   -1    0    0    0    0  0.00000000000E+00  0.00000000000E+00  0.10001020541E+04  0.10001020541E+04  0.51100000000E-03 0. -1.
          2   -1    0    0  501    0 -0.00000000000E+00 -0.00000000000E+00 -0.11910739957E+03  0.11910739960E+03  0.25500000000E-02 0. -1.
         11    1    1    2    0    0 -0.85530535970E+02  0.13328699219E+03  0.92844278180E+03  0.94185290462E+03  0.51100000000E-03 0. -1.
         22    1    1    2    0    0  0.10096694765E+02 -0.33448664981E+01 -0.22717718459E+02  0.25084379782E+02  0.00000000000E+00 0. -1.
          2    1    1    2  501    0  0.75433841204E+02 -0.12994212569E+03 -0.24730408777E+02  0.15227216933E+03  0.25500000000E-02 0. -1.
<mgrwt>
<rscale>  0 0.40966855E+02</rscale>
<asrwt>0</asrwt>
<pdfrwt beam="1">  1       11 0.10000000E+01 0.15778790E+03</pdfrwt>
<pdfrwt beam="2">  1        2 0.18326085E-01 0.40966855E+02</pdfrwt>
<totfact> 0.35217265E+02</totfact>
</mgrwt>
</event>
<event>
 5    1  0.9955701E-004  0.1667492E+03  0.7818608E-02  0.1405892E+00
         11   -1    0    0    0    0  0.00000000000E+00  0.00000000000E+00  0.10002176149E+04  0.10002176149E+04  0.51100000000E-03 0. -1.
          2   -1    0    0  501    0 -0.00000000000E+00 -0.00000000000E+00 -0.28837691770E+03  0.28837691771E+03  0.25500000000E-02 0. -1.
         11    1    1    2    0    0  0.16591933268E+03  0.90266644946E+01  0.95324207908E+03  0.96761622917E+03  0.51100000000E-03 0. -1.
         22    1    1    2    0    0  0.18579182253E+02  0.80748046860E+01 -0.52955656680E+02  0.56698236818E+02  0.00000000000E+00 0. -1.
          2    1    1    2  501    0 -0.18449851494E+03 -0.17101469181E+02 -0.18844572520E+03  0.26428006662E+03  0.25500000000E-02 0. -1.
<mgrwt>
<rscale>  0 0.58120683E+02</rscale>
<asrwt>0</asrwt>
<pdfrwt beam="1">  1       11 0.10000000E+01 0.16674923E+03</pdfrwt>
<pdfrwt beam="2">  1        2 0.44375333E-01 0.58120683E+02</pdfrwt>
<totfact> 0.14013807E+02</totfact>
</mgrwt>
</event>
<event>
 5    1  0.9955701E-004  0.2308130E+03  0.7818608E-02  0.1126069E+00
         11   -1    0    0    0    0  0.00000000000E+00  0.00000000000E+00  0.10001199087E+04  0.10001199087E+04  0.51100000000E-03 0. -1.
          2   -1    0    0  501    0 -0.00000000000E+00 -0.00000000000E+00 -0.22995808911E+03  0.22995808912E+03  0.25500000000E-02 0. -1.
         11    1    1    2    0    0  0.16691006109E+03  0.14938824862E+03  0.92526441602E+03  0.95199267690E+03  0.51100000000E-03 0. -1.
         22    1    1    2    0    0 -0.25208108376E+02 -0.49375880677E+01 -0.32744559511E+02  0.41617720762E+02  0.00000000000E+00 0. -1.
          2    1    1    2  501    0 -0.14170195271E+03 -0.14445066056E+03 -0.12235803690E+03  0.23646760018E+03  0.25500000000E-02 0. -1.
<mgrwt>
<rscale>  0 0.23081298E+03</rscale>
<asrwt>0</asrwt>
<pdfrwt beam="1">  1       11 0.10000000E+01 0.22399959E+03</pdfrwt>
<pdfrwt beam="2">  1        2 0.35382409E-01 0.23081298E+03</pdfrwt>
<totfact> 0.18081901E+02</totfact>
</mgrwt>
</event>
<event>
 5    1  0.9955701E-004  0.2061034E+03  0.7818608E-02  0.1144689E+00
         11   -1    0    0    0    0  0.00000000000E+00  0.00000000000E+00  0.99989598280E+03  0.99989598280E+03  0.51100000000E-03 0. -1.
          2   -1    0    0  501    0 -0.00000000000E+00 -0.00000000000E+00 -0.47902129693E+02  0.47902129761E+02  0.25500000000E-02 0. -1.
         11    1    1    2    0    0  0.19539842284E+03 -0.52298164956E+02  0.66065270728E+03  0.69092520676E+03  0.51100000000E-03 0. -1.
         22    1    1    2    0    0 -0.15713456665E+02 -0.28443931994E+01  0.11138458116E+02  0.19469682643E+02  0.00000000000E+00 0.  1.
          2    1    1    2  501    0 -0.17968496617E+03  0.55142558155E+02  0.28020268771E+03  0.33740322315E+03  0.25500000000E-02 0. -1.
<mgrwt>
<rscale>  0 0.20610339E+03</rscale>
<asrwt>0</asrwt>
<pdfrwt beam="1">  1       11 0.10000000E+01 0.20227615E+03</pdfrwt>
<pdfrwt beam="2">  1        2 0.73687916E-02 0.20610339E+03</pdfrwt>
<totfact> 0.11431668E+03</totfact>
</mgrwt>
</event>
<event>
 5    1  0.9955701E-004  0.2391622E+03  0.7818608E-02  0.1415687E+00
         11   -1    0    0    0    0  0.00000000000E+00  0.00000000000E+00  0.10000719381E+04  0.10000719381E+04  0.51100000000E-03 0. -1.
          2   -1    0    0  501    0 -0.00000000000E+00 -0.00000000000E+00 -0.18668266384E+03  0.18668266386E+03  0.25500000000E-02 0. -1.
         11    1    1    2    0    0 -0.23326917034E+03  0.59004279099E+02  0.48670925681E+02  0.24548904209E+03  0.51100000000E-03 0. -1.
         22    1    1    2    0    0 -0.12322069695E+01 -0.13028019176E+02 -0.70926704921E+02  0.72123817763E+02  0.00000000000E+00 0. -1.
          2    1    1    2  501    0  0.23450137731E+03 -0.45976259923E+02  0.83564505353E+03  0.86914174214E+03  0.25500000000E-02 0. -1.
<mgrwt>
<rscale>  0 0.55943846E+02</rscale>
<asrwt>0</asrwt>
<pdfrwt beam="1">  1       11 0.10000000E+01 0.23916223E+03</pdfrwt>
<pdfrwt beam="2">  1        2 0.28722475E-01 0.55943846E+02</pdfrwt>
<totfact> 0.22002659E+02</totfact>
</mgrwt>
</event>
<event>
 5    1  0.9955701E-004  0.9113308E+02  0.7818608E-02  0.1472671E+00
         11   -1    0    0    0    0  0.00000000000E+00  0.00000000000E+00  0.10003412716E+04  0.10003412716E+04  0.51100000000E-03 0.  1.
          2   -1    0    0  501    0 -0.00000000000E+00 -0.00000000000E+00 -0.15128838025E+02  0.15128838240E+02  0.25500000000E-02 0.  1.
         11    1    1    2    0    0  0.80169665885E+02 -0.49315769876E+02  0.32562625250E+03  0.33895674769E+03  0.51100000000E-03 0.  1.
         22    1    1    2    0    0 -0.16582348753E+02 -0.15187606866E+02  0.18664959343E+02  0.29223593204E+02  0.00000000000E+00 0. -1.
          2    1    1    2  501    0 -0.63587317132E+02  0.64503376742E+02  0.64092122175E+03  0.64728976896E+03  0.25500000000E-02 0.  1.
<mgrwt>
<rscale>  0 0.45268673E+02</rscale>
<asrwt>0</asrwt>
<pdfrwt beam="1">  1       11 0.10000000E+01 0.91133075E+02</pdfrwt>
<pdfrwt beam="2">  1        2 0.23283078E-02 0.45268673E+02</pdfrwt>
<totfact> 0.44143853E+03</totfact>
</mgrwt>
</event>
<event>
 5    1  0.9955701E-004  0.4098995E+03  0.7818608E-02  0.1040405E+00
         11   -1    0    0    0    0  0.00000000000E+00  0.00000000000E+00  0.99998804532E+03  0.99998804533E+03  0.51100000000E-03 0. -1.
          2   -1    0    0  501    0 -0.00000000000E+00 -0.00000000000E+00 -0.77672027420E+03  0.77672027420E+03  0.25500000000E-02 0. -1.
         11    1    1    2    0    0 -0.38674197283E+03 -0.14144235975E+03  0.87988810699E+03  0.97148256572E+03  0.51100000000E-03 0. -1.
         22    1    1    2    0    0 -0.52576853608E+01  0.21917668733E+02  0.84147224050E+01  0.24058990236E+02  0.00000000000E+00 0. -1.
          2    1    1    2  501    0  0.39199965819E+03  0.11952469102E+03 -0.66503505827E+03  0.78116676357E+03  0.25500000000E-02 0. -1.
<mgrwt>
<rscale>  0 0.40989951E+03</rscale>
<asrwt>0</asrwt>
<pdfrwt beam="1">  1       11 0.10000000E+01 0.22539464E+02</pdfrwt>
<pdfrwt beam="2">  1        2 0.11949399E+00 0.40989951E+03</pdfrwt>
<totfact> 0.45364691E+01</totfact>
</mgrwt>
</event>
<event>
 5    1  0.9955701E-004  0.6372188E+02  0.7818608E-02  0.1542719E+00
         11   -1    0    0    0    0  0.00000000000E+00  0.00000000000E+00  0.10002583151E+04  0.10002583151E+04  0.51100000000E-03 0.  1.
          2   -1    0    0  501    0 -0.00000000000E+00 -0.00000000000E+00 -0.14127343200E+02  0.14127343430E+02  0.25500000000E-02 0.  1.
         11    1    1    2    0    0  0.58752815749E+02 -0.83189231333E+01  0.31143668211E+03  0.31703927959E+03  0.51100000000E-03 0.  1.
         22    1    1    2    0    0  0.78173425704E+01  0.18374946938E+02  0.68242093905E+00  0.19980370821E+02  0.00000000000E+00 0.  1.
          2    1    1    2  501    0 -0.66570158319E+02 -0.10056023804E+02  0.67401186889E+03  0.67736600816E+03  0.25500000000E-02 0.  1.
<mgrwt>
<rscale>  0 0.35671323E+02</rscale>
<asrwt>0</asrwt>
<pdfrwt beam="1">  1       11 0.10000000E+01 0.63721878E+02</pdfrwt>
<pdfrwt beam="2">  1        2 0.21739988E-02 0.35671323E+02</pdfrwt>
<totfact> 0.46547674E+03</totfact>
</mgrwt>
</event>
<event>
 5    1  0.9955701E-004  0.5386940E+03  0.7818608E-02  0.1124527E+00
         11   -1    0    0    0    0  0.00000000000E+00  0.00000000000E+00  0.99996066340E+03  0.99996066340E+03  0.51100000000E-03 0.  1.
          2   -1    0    0  501    0 -0.00000000000E+00 -0.00000000000E+00 -0.66119995988E+03  0.66119995988E+03  0.25500000000E-02 0.  1.
         11    1    1    2    0    0 -0.59615375642E+03 -0.95043572421E+02 -0.17983648056E+03  0.62989978703E+03  0.51100000000E-03 0.  1.
         22    1    1    2    0    0  0.90310826400E+02 -0.44778576860E+02 -0.15035036648E+03  0.18101491378E+03  0.00000000000E+00 0.  1.
          2    1    1    2  501    0  0.50584293002E+03  0.13982214928E+03  0.66894755056E+03  0.85024592248E+03  0.25500000000E-02 0.  1.
<mgrwt>
<rscale>  0 0.23302734E+03</rscale>
<asrwt>0</asrwt>
<pdfrwt beam="1">  1       11 0.10000000E+01 0.53869405E+03</pdfrwt>
<pdfrwt beam="2">  1        2 0.10171907E+00 0.23302734E+03</pdfrwt>
<totfact> 0.56331192E+01</totfact>
</mgrwt>
</event>
<event>
 5    1  0.9955701E-004  0.1198758E+03  0.7818608E-02  0.1245515E+00
         11   -1    0    0    0    0  0.00000000000E+00  0.00000000000E+00  0.10001973745E+04  0.10001973745E+04  0.51100000000E-03 0. -1.
          2   -1    0    0  501    0 -0.00000000000E+00 -0.00000000000E+00 -0.14257535033E+02  0.14257535261E+02  0.25500000000E-02 0. -1.
         11    1    1    2    0    0 -0.84705808580E+01 -0.10925036213E+03  0.42956886876E+03  0.44332471775E+03  0.51100000000E-03 0. -1.
         22    1    1    2    0    0  0.44702681353E+01 -0.92282696353E+01  0.36380361164E+02  0.37797816552E+02  0.00000000000E+00 0. -1.
          2    1    1    2  501    0  0.40003127227E+01  0.11847863177E+03  0.51999060955E+03  0.53333237546E+03  0.25500000000E-02 0. -1.
<mgrwt>
<rscale>  0 0.11854615E+03</rscale>
<asrwt>0</asrwt>
<pdfrwt beam="1">  1       11 0.10000000E+01 0.11987580E+03</pdfrwt>
<pdfrwt beam="2">  1        2 0.21938998E-02 0.11854615E+03</pdfrwt>
<totfact> 0.54234225E+03</totfact>
</mgrwt>
</event>
<event>
 5    1  0.9955701E-004  0.1284690E+03  0.7818608E-02  0.1466991E+00
         11   -1    0    0    0    0  0.00000000000E+00  0.00000000000E+00  0.10002878340E+04  0.10002878340E+04  0.51100000000E-03 0. -1.
         -2   -1    0    0    0  501 -0.00000000000E+00 -0.00000000000E+00 -0.25638334456E+02  0.25638334583E+02  0.25500000000E-02 0.  1.
         11    1    1    2    0    0 -0.80896898868E+02  0.95223639255E+02  0.66397154607E+03  0.67562568313E+03  0.51100000000E-03 0. -1.
         22    1    1    2    0    0  0.28275009294E+00  0.16611464319E+02  0.96674683311E+01  0.19221879158E+02  0.00000000000E+00 0. -1.
         -2    1    1    2    0  501  0.80614148775E+02 -0.11183510357E+03  0.30101048519E+03  0.33107860634E+03  0.25500000000E-02 0.  1.
<mgrwt>
<rscale>  0 0.46199216E+02</rscale>
<asrwt>0</asrwt>
<pdfrwt beam="1">  1       11 0.10000000E+01 0.12846901E+03</pdfrwt>
<pdfrwt beam="2">  1       -2 0.39454944E-02 0.46199216E+02</pdfrwt>
<totfact> 0.18665315E+03</totfact>
</mgrwt>
</event>
<event>
 5    1  0.9955701E-004  0.6189945E+02  0.7818608E-02  0.1565815E+00
         11   -1    0    0    0    0  0.00000000000E+00  0.00000000000E+00  0.99993823788E+03  0.99993823788E+03  0.51100000000E-03 0. -1.
          2   -1    0    0  501    0 -0.00000000000E+00 -0.00000000000E+00 -0.67281118693E+01  0.67281123525E+01  0.25500000000E-02 0. -1.
         11    1    1    2    0    0  0.54398478517E+02 -0.36787106452E+02  0.24383155733E+03  0.25251992796E+03  0.51100000000E-03 0. -1.
         22    1    1    2    0    0  0.37011680062E+01  0.17346842588E+02  0.78634046296E+02  0.80609706793E+02  0.00000000000E+00 0. -1.
          2    1    1    2  501    0 -0.58099646523E+02  0.19440263865E+02  0.67074452238E+03  0.67353671548E+03  0.25500000000E-02 0. -1.
<mgrwt>
<rscale>  0 0.33135000E+02</rscale>
<asrwt>0</asrwt>
<pdfrwt beam="1">  1       11 0.10000000E+01 0.61899454E+02</pdfrwt>
<pdfrwt beam="2">  1        2 0.10350302E-02 0.33135000E+02</pdfrwt>
<totfact> 0.12166475E+04</totfact>
</mgrwt>
</event>
<event>
 5    1  0.9955701E-004  0.1239385E+03  0.7818608E-02  0.1411003E+00
         11   -1    0    0    0    0  0.00000000000E+00  0.00000000000E+00  0.10003170573E+04  0.10003170573E+04  0.51100000000E-03 0.  1.
          2   -1    0    0  501    0 -0.00000000000E+00 -0.00000000000E+00 -0.19336764872E+02  0.19336765040E+02  0.25500000000E-02 0.  1.
         11    1    1    2    0    0  0.12874115810E+03 -0.22005768250E+02  0.45750778191E+03  0.47578557159E+03  0.51100000000E-03 0.  1.
         22    1    1    2    0    0 -0.93737459630E+01  0.24452488058E+02  0.64316224758E+02  0.69443272192E+02  0.00000000000E+00 0. -1.
          2    1    1    2  501    0 -0.11936741214E+03 -0.24467198082E+01  0.45915628576E+03  0.47442497856E+03  0.25500000000E-02 0.  1.
<mgrwt>
<rscale>  0 0.56970618E+02</rscale>
<asrwt>0</asrwt>
<pdfrwt beam="1">  1       11 0.10000000E+01 0.12393846E+03</pdfrwt>
<pdfrwt beam="2">  1        2 0.29758300E-02 0.56970618E+02</pdfrwt>
<totfact> 0.33038496E+03</totfact>
</mgrwt>
</event>
<event>
 5    1  0.9955701E-004  0.1543619E+03  0.7818608E-02  0.1245503E+00
         11   -1    0    0    0    0  0.00000000000E+00  0.00000000000E+00  0.10001475870E+04  0.10001475870E+04  0.51100000000E-03 0. -1.
          2   -1    0    0  501    0 -0.00000000000E+00 -0.00000000000E+00 -0.52790334100E+02  0.52790334161E+02  0.25500000000E-02 0. -1.
         11    1    1    2    0    0  0.17457841304E+03  0.31630876630E+01  0.46071968736E+03  0.49269692281E+03  0.51100000000E-03 0. -1.
         22    1    1    2    0    0 -0.46029649335E+02 -0.78559983258E+02  0.61855036547E+02  0.11007472523E+03  0.00000000000E+00 0.  1.
          2    1    1    2  501    0 -0.12854876370E+03  0.75396895595E+02  0.42478252895E+03  0.45016627309E+03  0.25500000000E-02 0. -1.
<mgrwt>
<rscale>  0 0.11855333E+03</rscale>
<asrwt>0</asrwt>
<pdfrwt beam="1">  1       11 0.10000000E+01 0.15436186E+03</pdfrwt>
<pdfrwt beam="2">  1        2 0.81227883E-02 0.11855333E+03</pdfrwt>
<totfact> 0.97576571E+02</totfact>
</mgrwt>
</event>
<event>
 5    1  0.9955701E-004  0.1758803E+03  0.7818608E-02  0.1217674E+00
         11   -1    0    0    0    0  0.00000000000E+00  0.00000000000E+00  0.10002300198E+04  0.10002300198E+04  0.51100000000E-03 0.  1.
          2   -1    0    0  501    0 -0.00000000000E+00 -0.00000000000E+00 -0.88220526161E+02  0.88220526198E+02  0.25500000000E-02 0.  1.
         11    1    1    2    0    0  0.43139567137E+02  0.15433994346E+03  0.55902579582E+03  0.58154250128E+03  0.51100000000E-03 0.  1.
         22    1    1    2    0    0 -0.54987891345E+02  0.91128192799E+02  0.52353528929E+02  0.11861242645E+03  0.00000000000E+00 0. -1.
          2    1    1    2  501    0  0.11848324208E+02 -0.24546813626E+03  0.30063016886E+03  0.38829561824E+03  0.25500000000E-02 0.  1.
<mgrwt>
<rscale>  0 0.13681921E+03</rscale>
<asrwt>0</asrwt>
<pdfrwt beam="1">  1       11 0.10000000E+01 0.17588032E+03</pdfrwt>
<pdfrwt beam="2">  1        2 0.13575510E-01 0.13681921E+03</pdfrwt>
<totfact> 0.52632765E+02</totfact>
</mgrwt>
</event>
<event>
 5    1  0.9955701E-004  0.8352031E+02  0.7818608E-02  0.1348229E+00
         11   -1    0    0    0    0  0.00000000000E+00  0.00000000000E+00  0.10004074489E+04  0.10004074489E+04  0.51100000000E-03 0. -1.
          2   -1    0    0  501    0 -0.00000000000E+00 -0.00000000000E+00 -0.17084784760E+02  0.17084784950E+02  0.25500000000E-02 0. -1.
         11    1    1    2    0    0 -0.60130278676E+02  0.41321805800E+02  0.21577280695E+03  0.22777411238E+03  0.51100000000E-03 0. -1.
         22    1    1    2    0    0  0.36025497612E+02  0.53954590728E+02  0.13734992966E+03  0.15190107806E+03  0.00000000000E+00 0. -1.
          2    1    1    2  501    0  0.24104781064E+02 -0.95276396528E+02  0.63019992756E+03  0.63781704344E+03  0.25500000000E-02 0. -1.
<mgrwt>
<rscale>  0 0.73610366E+02</rscale>
<asrwt>0</asrwt>
<pdfrwt beam="1">  1       11 0.10000000E+01 0.83520309E+02</pdfrwt>
<pdfrwt beam="2">  1        2 0.26294993E-02 0.73610366E+02</pdfrwt>
<totfact> 0.40158972E+03</totfact>
</mgrwt>
</event>
<event>
 5    1  0.9955701E-004  0.2216433E+03  0.7818608E-02  0.1258632E+00
         11   -1    0    0    0    0  0.00000000000E+00  0.00000000000E+00  0.99966166814E+03  0.99966166814E+03  0.51100000000E-03 0. -1.
          2   -1    0    0  501    0 -0.00000000000E+00 -0.00000000000E+00 -0.14998376892E+03  0.14998376894E+03  0.25500000000E-02 0. -1.
         11    1    1    2    0    0  0.17073691958E+03 -0.16425911327E+03  0.79093601737E+03  0.82565848604E+03  0.51100000000E-03 0. -1.
         22    1    1    2    0    0 -0.44691447195E+02  0.33147538838E+02 -0.78445259184E+02  0.96175586673E+02  0.00000000000E+00 0. -1.
          2    1    1    2  501    0 -0.12604547239E+03  0.13111157443E+03  0.13718714104E+03  0.22781136436E+03  0.25500000000E-02 0. -1.
<mgrwt>
<rscale>  0 0.11105305E+03</rscale>
<asrwt>0</asrwt>
<pdfrwt beam="1">  1       11 0.10000000E+01 0.22164326E+03</pdfrwt>
<pdfrwt beam="2">  1        2 0.23066619E-01 0.11105305E+03</pdfrwt>
<totfact> 0.28465138E+02</totfact>
</mgrwt>
</event>
<event>
 5    1  0.9955701E-004  0.1633952E+03  0.7818608E-02  0.1429310E+00
         11   -1    0    0    0    0  0.00000000000E+00  0.00000000000E+00  0.10002572449E+04  0.10002572449E+04  0.51100000000E-03 0. -1.
          2   -1    0    0  501    0 -0.00000000000E+00 -0.00000000000E+00 -0.36906936868E+02  0.36906936956E+02  0.25500000000E-02 0. -1.
         11    1    1    2    0    0  0.16036810911E+02 -0.16585685095E+03  0.69077007047E+03  0.71058353806E+03  0.51100000000E-03 0. -1.
         22    1    1    2    0    0 -0.14684118946E+02  0.90627126974E+01  0.79826905177E+01  0.19012613144E+02  0.00000000000E+00 0. -1.
          2    1    1    2  501    0 -0.13526919648E+01  0.15679413825E+03  0.26459754701E+03  0.30756803062E+03  0.25500000000E-02 0. -1.
<mgrwt>
<rscale>  0 0.53098812E+02</rscale>
<asrwt>0</asrwt>
<pdfrwt beam="1">  1       11 0.10000000E+01 0.16339519E+03</pdfrwt>
<pdfrwt beam="2">  1        2 0.56794508E-02 0.53098812E+02</pdfrwt>
<totfact> 0.14303789E+03</totfact>
</mgrwt>
</event>
<event>
 5    1  0.9955701E-004  0.7362652E+02  0.7818608E-02  0.1627075E+00
         11   -1    0    0    0    0  0.00000000000E+00  0.00000000000E+00  0.10002924275E+04  0.10002924275E+04  0.51100000000E-03 0. -1.
          2   -1    0    0  501    0 -0.00000000000E+00 -0.00000000000E+00 -0.69658957614E+01  0.69658962282E+01  0.25500000000E-02 0. -1.
         11    1    1    2    0    0 -0.57126064247E+02  0.56332651840E+02  0.40719688652E+03  0.41502537184E+03  0.51100000000E-03 0. -1.
         22    1    1    2    0    0  0.73423552228E+01 -0.72181734911E+01  0.29875049120E+02  0.31599537476E+02  0.00000000000E+00 0. -1.
          2    1    1    2  501    0  0.49783709024E+02 -0.49114478349E+02  0.55625459611E+03  0.56063341442E+03  0.25500000000E-02 0. -1.
<mgrwt>
<rscale>  0 0.27533155E+02</rscale>
<asrwt>0</asrwt>
<pdfrwt beam="1">  1       11 0.10000000E+01 0.73626516E+02</pdfrwt>
<pdfrwt beam="2">  1        2 0.10719897E-02 0.27533155E+02</pdfrwt>
<totfact> 0.11181405E+04</totfact>
</mgrwt>
</event>
<event>
 5    1  0.9955701E-004  0.4063145E+02  0.7818608E-02  0.1600944E+00
         11   -1    0    0    0    0  0.00000000000E+00  0.00000000000E+00  0.10002341717E+04  0.10002341717E+04  0.51100000000E-03 0. -1.
          2   -1    0    0  501    0 -0.00000000000E+00 -0.00000000000E+00 -0.80659602587E+01  0.80659606618E+01  0.25500000000E-02 0. -1.
         11    1    1    2    0    0 -0.10540000883E+02  0.32451105056E+02  0.13910262651E+03  0.14322606795E+03  0.51100000000E-03 0. -1.
         22    1    1    2    0    0 -0.21538592570E+02 -0.31855705207E+01  0.16339487775E+02  0.27222007461E+02  0.00000000000E+00 0. -1.
          2    1    1    2  501    0  0.32078593453E+02 -0.29265534536E+02  0.83672609717E+03  0.83785205697E+03  0.25500000000E-02 0. -1.
<mgrwt>
<rscale>  0 0.29743296E+02</rscale>
<asrwt>0</asrwt>
<pdfrwt beam="1">  1       11 0.10000000E+01 0.40631446E+02</pdfrwt>
<pdfrwt beam="2">  1        2 0.12412075E-02 0.29743296E+02</pdfrwt>
<totfact> 0.93737861E+03</totfact>
</mgrwt>
</event>
<event>
 5    1  0.9955701E-004  0.1032474E+03  0.7818608E-02  0.1450651E+00
         11   -1    0    0    0    0  0.00000000000E+00  0.00000000000E+00  0.10000786225E+04  0.10000786225E+04  0.51100000000E-03 0. -1.
          2   -1    0    0  501    0 -0.00000000000E+00 -0.00000000000E+00 -0.16390520234E+02  0.16390520432E+02  0.25500000000E-02 0. -1.
         11    1    1    2    0    0  0.11946058804E+02  0.10194187805E+03  0.37692469531E+03  0.39064956260E+03  0.51100000000E-03 0. -1.
         22    1    1    2    0    0  0.23053691828E+02 -0.32546349093E+01  0.22955794537E+02  0.32696083223E+02  0.00000000000E+00 0. -1.
          2    1    1    2  501    0 -0.34999750631E+02 -0.98687243144E+02  0.58380761246E+03  0.59312349716E+03  0.25500000000E-02 0. -1.
<mgrwt>
<rscale>  0 0.49028936E+02</rscale>
<asrwt>0</asrwt>
<pdfrwt beam="1">  1       11 0.10000000E+01 0.10324745E+03</pdfrwt>
<pdfrwt beam="2">  1        2 0.25218167E-02 0.49028936E+02</pdfrwt>
<totfact> 0.40218405E+03</totfact>
</mgrwt>
</event>
<event>
 5    1  0.9955701E-004  0.3874729E+02  0.7818608E-02  0.1517638E+00
         11   -1    0    0    0    0  0.00000000000E+00  0.00000000000E+00  0.10002089781E+04  0.10002089781E+04  0.51100000000E-03 0.  1.
          2   -1    0    0  501    0 -0.00000000000E+00 -0.00000000000E+00 -0.64796530648E+01  0.64796535666E+01  0.25500000000E-02 0.  1.
         11    1    1    2    0    0 -0.34087777606E+02  0.20228978062E+02  0.13499251985E+03  0.14069175012E+03  0.51100000000E-03 0.  1.
         22    1    1    2    0    0  0.36322507936E+02  0.18453818622E+02  0.13008820085E+03  0.13631877349E+03  0.00000000000E+00 0.  1.
          2    1    1    2  501    0 -0.22347303295E+01 -0.38682796684E+02  0.72864860436E+03  0.72967810808E+03  0.25500000000E-02 0.  1.
<mgrwt>
<rscale>  0 0.38747294E+02</rscale>
<asrwt>0</asrwt>
<pdfrwt beam="1">  1       11 0.10000000E+01 0.35198875E+02</pdfrwt>
<pdfrwt beam="2">  1        2 0.99707804E-03 0.38747294E+02</pdfrwt>
<totfact> 0.13189044E+04</totfact>
</mgrwt>
</event>
<event>
 5    1  0.9955701E-004  0.1666354E+03  0.7818608E-02  0.1181403E+00
         11   -1    0    0    0    0  0.00000000000E+00  0.00000000000E+00  0.10000618899E+04  0.10000618899E+04  0.51100000000E-03 0. -1.
         -2   -1    0    0    0  501 -0.00000000000E+00 -0.00000000000E+00 -0.85555633754E+02  0.85555633792E+02  0.25500000000E-02 0.  1.
         11    1    1    2    0    0 -0.33324461925E+01  0.16364177083E+03  0.90394943755E+03  0.91864809367E+03  0.51100000000E-03 0. -1.
         22    1    1    2    0    0  0.88777554441E+01 -0.12181080276E+02  0.10398413249E+01  0.15108756679E+02  0.00000000000E+00 0.  1.
         -2    1    1    2    0  501 -0.55453092516E+01 -0.15146069056E+03  0.95169772506E+01  0.15186067332E+03  0.25500000000E-02 0.  1.
<mgrwt>
<rscale>  0 0.16663536E+03</rscale>
<asrwt>0</asrwt>
<pdfrwt beam="1">  1       11 0.10000000E+01 0.16367570E+03</pdfrwt>
<pdfrwt beam="2">  1       -2 0.13163219E-01 0.16663536E+03</pdfrwt>
<totfact> 0.33299365E+02</totfact>
</mgrwt>
</event>
<event>
 5    1  0.9955701E-004  0.2704921E+03  0.7818608E-02  0.1223050E+00
         11   -1    0    0    0    0  0.00000000000E+00  0.00000000000E+00  0.10002489171E+04  0.10002489171E+04  0.51100000000E-03 0.  1.
          2   -1    0    0  501    0 -0.00000000000E+00 -0.00000000000E+00 -0.22771624281E+03  0.22771624283E+03  0.25500000000E-02 0.  1.
         11    1    1    2    0    0  0.23898336920E+03 -0.11556080811E+03  0.32815027723E+03  0.42207813918E+03  0.51100000000E-03 0.  1.
         22    1    1    2    0    0 -0.25204925208E+02 -0.60359087422E+02 -0.14260201719E+03  0.15688799506E+03  0.00000000000E+00 0.  1.
          2    1    1    2  501    0 -0.21377844399E+03  0.17591989553E+03  0.58698441420E+03  0.64899902564E+03  0.25500000000E-02 0.  1.
<mgrwt>
<rscale>  0 0.13301489E+03</rscale>
<asrwt>0</asrwt>
<pdfrwt beam="1">  1       11 0.10000000E+01 0.27049208E+03</pdfrwt>
<pdfrwt beam="2">  1        2 0.35041988E-01 0.13301489E+03</pdfrwt>
<totfact> 0.18148152E+02</totfact>
</mgrwt>
</event>
<event>
 5    1  0.9955701E-004  0.5870824E+03  0.7818608E-02  0.1155487E+00
         11   -1    0    0    0    0  0.00000000000E+00  0.00000000000E+00  0.10007680050E+04  0.10007680050E+04  0.51100000000E-03 0. -1.
          2   -1    0    0  501    0 -0.00000000000E+00 -0.00000000000E+00 -0.17273208892E+04  0.17273208892E+04  0.25500000000E-02 0. -1.
         11    1    1    2    0    0 -0.14622956057E+03  0.56926532401E+03  0.84275445256E+03  0.10274634596E+04  0.51100000000E-03 0. -1.
         22    1    1    2    0    0  0.63447454149E+02  0.52998887322E+01 -0.27219133837E+03  0.27953853570E+03  0.00000000000E+00 0. -1.
          2    1    1    2  501    0  0.82782106417E+02 -0.57456521274E+03 -0.12971159984E+04  0.14210868988E+04  0.25500000000E-02 0. -1.
<mgrwt>
<rscale>  0 0.19333549E+03</rscale>
<asrwt>0</asrwt>
<pdfrwt beam="1">  1       11 0.10000000E+01 0.58708242E+03</pdfrwt>
<pdfrwt beam="2">  1        2 0.26594576E+00 0.19333549E+03</pdfrwt>
<totfact> 0.13319589E+01</totfact>
</mgrwt>
</event>
<event>
 5    1  0.9955701E-004  0.3871525E+02  0.7818608E-02  0.1724948E+00
         11   -1    0    0    0    0  0.00000000000E+00  0.00000000000E+00  0.99994307655E+03  0.99994307655E+03  0.51100000000E-03 0. -1.
          2   -1    0    0  501    0 -0.00000000000E+00 -0.00000000000E+00 -0.38258507563E+01  0.38258516061E+01  0.25500000000E-02 0. -1.
         11    1    1    2    0    0  0.35019485756E+01 -0.44158588333E+02  0.18781657365E+03  0.19296971240E+03  0.51100000000E-03 0. -1.
         22    1    1    2    0    0  0.81080656073E+01  0.81004466672E+01  0.41218179913E+02  0.42781962547E+02  0.00000000000E+00 0. -1.
          2    1    1    2  501    0 -0.11610014183E+02  0.36058141665E+02  0.76708247224E+03  0.76801725321E+03  0.25500000000E-02 0. -1.
<mgrwt>
<rscale>  0 0.21064687E+02</rscale>
<asrwt>0</asrwt>
<pdfrwt beam="1">  1       11 0.10000000E+01 0.38715248E+02</pdfrwt>
<pdfrwt beam="2">  1        2 0.58855897E-03 0.21064687E+02</pdfrwt>
<totfact> 0.23015720E+04</totfact>
</mgrwt>
</event>
<event>
 5    1  0.9955701E-004  0.1811411E+03  0.7818608E-02  0.1430558E+00
         11   -1    0    0    0    0  0.00000000000E+00  0.00000000000E+00  0.10002060516E+04  0.10002060516E+04  0.51100000000E-03 0.  1.
          2   -1    0    0  501    0 -0.00000000000E+00 -0.00000000000E+00 -0.59129086756E+02  0.59129086811E+02  0.25500000000E-02 0. -1.
         11    1    1    2    0    0 -0.81476277915E+02 -0.16756200650E+03  0.64595860283E+03  0.67229303615E+03  0.51100000000E-03 0.  1.
         22    1    1    2    0    0  0.12112757674E+02  0.95400730123E+01 -0.21493501063E+02  0.26451889904E+02  0.00000000000E+00 0. -1.
          2    1    1    2  501    0  0.69363520241E+02  0.15802193349E+03  0.31661186312E+03  0.36059021240E+03  0.25500000000E-02 0. -1.
<mgrwt>
<rscale>  0 0.52848213E+02</rscale>
<asrwt>0</asrwt>
<pdfrwt beam="1">  1       11 0.10000000E+01 0.18114106E+03</pdfrwt>
<pdfrwt beam="2">  1        2 0.90986567E-02 0.52848213E+02</pdfrwt>
<totfact> 0.80117520E+02</totfact>
</mgrwt>
</event>
<event>
 5    1  0.9955701E-004  0.1415881E+03  0.7818608E-02  0.1466211E+00
         11   -1    0    0    0    0  0.00000000000E+00  0.00000000000E+00  0.10001305571E+04  0.10001305571E+04  0.51100000000E-03 0. -1.
          2   -1    0    0  501    0 -0.00000000000E+00 -0.00000000000E+00 -0.24743292698E+02  0.24743292829E+02  0.25500000000E-02 0. -1.
         11    1    1    2    0    0  0.13008461338E+03 -0.62229077266E+02  0.63295186481E+03  0.64917064618E+03  0.51100000000E-03 0. -1.
         22    1    1    2    0    0 -0.12359506833E+02 -0.87776793665E+01  0.19334616649E+02  0.24568932927E+02  0.00000000000E+00 0.  1.
          2    1    1    2  501    0 -0.11772510655E+03  0.71006756633E+02  0.32310078295E+03  0.35113427083E+03  0.25500000000E-02 0. -1.
<mgrwt>
<rscale>  0 0.46329042E+02</rscale>
<asrwt>0</asrwt>
<pdfrwt beam="1">  1       11 0.10000000E+01 0.14158813E+03</pdfrwt>
<pdfrwt beam="2">  1        2 0.38071573E-02 0.46329042E+02</pdfrwt>
<totfact> 0.23403768E+03</totfact>
</mgrwt>
</event>
<event>
 5    1  0.9955701E-004  0.2703516E+03  0.7818608E-02  0.1350736E+00
         11   -1    0    0    0    0  0.00000000000E+00  0.00000000000E+00  0.10003577902E+04  0.10003577902E+04  0.51100000000E-03 0. -1.
          2   -1    0    0  501    0 -0.00000000000E+00 -0.00000000000E+00 -0.79711289158E+02  0.79711289199E+02  0.25500000000E-02 0. -1.
         11    1    1    2    0    0  0.41963967388E+02 -0.27251420752E+03  0.50286365522E+03  0.57349526903E+03  0.51100000000E-03 0. -1.
         22    1    1    2    0    0 -0.17393092734E+02  0.90741846952E+01  0.15144505351E+02  0.24783392525E+02  0.00000000000E+00 0.  1.
          2    1    1    2  501    0 -0.24570874653E+02  0.26344002283E+03  0.40263834051E+03  0.48179041788E+03  0.25500000000E-02 0. -1.
<mgrwt>
<rscale>  0 0.72826651E+02</rscale>
<asrwt>0</asrwt>
<pdfrwt beam="1">  1       11 0.10000000E+01 0.27035164E+03</pdfrwt>
<pdfrwt beam="2">  1        2 0.12267663E-01 0.72826651E+02</pdfrwt>
<totfact> 0.57399547E+02</totfact>
</mgrwt>
</event>
<event>
 5    1  0.9955701E-004  0.9970970E+02  0.7818608E-02  0.1549232E+00
         11   -1    0    0    0    0  0.00000000000E+00  0.00000000000E+00  0.10001398755E+04  0.10001398755E+04  0.51100000000E-03 0. -1.
          2   -1    0    0  501    0 -0.00000000000E+00 -0.00000000000E+00 -0.18588943361E+02  0.18588943536E+02  0.25500000000E-02 0. -1.
         11    1    1    2    0    0  0.10949950862E+03 -0.35992745884E+01  0.20712469533E+03  0.23431546381E+03  0.51100000000E-03 0. -1.
         22    1    1    2    0    0 -0.12064241141E+02  0.20420067187E+01  0.18177268517E+02  0.21911841467E+02  0.00000000000E+00 0. -1.
          2    1    1    2  501    0 -0.97435267481E+02  0.15572678697E+01  0.75624896833E+03  0.76250151379E+03  0.25500000000E-02 0. -1.
<mgrwt>
<rscale>  0 0.34928942E+02</rscale>
<asrwt>0</asrwt>
<pdfrwt beam="1">  1       11 0.10000000E+01 0.99709698E+02</pdfrwt>
<pdfrwt beam="2">  1        2 0.28602374E-02 0.34928942E+02</pdfrwt>
<totfact> 0.32534824E+03</totfact>
</mgrwt>
</event>
<event>
 5    1  0.9955701E-004  0.2917400E+03  0.7818608E-02  0.1320640E+00
         11   -1    0    0    0    0  0.00000000000E+00  0.00000000000E+00  0.10003165536E+04  0.10003165536E+04  0.51100000000E-03 0. -1.
          2   -1    0    0  501    0 -0.00000000000E+00 -0.00000000000E+00 -0.29304640348E+03  0.29304640349E+03  0.25500000000E-02 0.  1.
         11    1    1    2    0    0  0.22777020867E+03 -0.18273287537E+03  0.88542019044E+03  0.93233013753E+03  0.51100000000E-03 0. -1.
         22    1    1    2    0    0  0.12175489589E+02  0.20258763586E+02 -0.19660270077E+02  0.30743881803E+02  0.00000000000E+00 0.  1.
          2    1    1    2  501    0 -0.23994569826E+03  0.16247411179E+03 -0.15848977026E+03  0.33028893775E+03  0.25500000000E-02 0.  1.
<mgrwt>
<rscale>  0 0.83039525E+02</rscale>
<asrwt>0</asrwt>
<pdfrwt beam="1">  1       11 0.10000000E+01 0.29173995E+03</pdfrwt>
<pdfrwt beam="2">  1        2 0.45098332E-01 0.83039525E+02</pdfrwt>
<totfact> 0.13831749E+02</totfact>
</mgrwt>
</event>
<event>
 5    1  0.9955701E-004  0.1794447E+03  0.7818608E-02  0.1168342E+00
         11   -1    0    0    0    0  0.00000000000E+00  0.00000000000E+00  0.10000261973E+04  0.10000261973E+04  0.51100000000E-03 0. -1.
         -2   -1    0    0    0  501 -0.00000000000E+00 -0.00000000000E+00 -0.16296656557E+03  0.16296656559E+03  0.25500000000E-02 0.  1.
         11    1    1    2    0    0 -0.47857190962E+02  0.15419900519E+03  0.94158349853E+03  0.95532566627E+03  0.51100000000E-03 0. -1.
         22    1    1    2    0    0 -0.12046306952E+02 -0.49888613652E+02 -0.61069028190E+02  0.79771006559E+02  0.00000000000E+00 0. -1.
         -2    1    1    2    0  501  0.59903497914E+02 -0.10431039154E+03 -0.43454838619E+02  0.12789609006E+03  0.25500000000E-02 0.  1.
<mgrwt>
<rscale>  0 0.17944466E+03</rscale>
<asrwt>0</asrwt>
<pdfrwt beam="1">  1       11 0.10000000E+01 0.16145477E+03</pdfrwt>
<pdfrwt beam="2">  1       -2 0.25072435E-01 0.17944466E+03</pdfrwt>
<totfact> 0.11286793E+02</totfact>
</mgrwt>
</event>
<event>
 5    1  0.1021020E-003  0.2310528E+03  0.7818608E-02  0.1125901E+00
         11   -1    0    0    0    0  0.00000000000E+00  0.00000000000E+00  0.99986826961E+03  0.99986826961E+03  0.51100000000E-03 0.  1.
          2   -1    0    0  501    0 -0.00000000000E+00 -0.00000000000E+00 -0.42148471354E+03  0.42148471354E+03  0.25500000000E-02 0.  1.
         11    1    1    2    0    0  0.78263417173E+02  0.20977835620E+03  0.95424071675E+03  0.98015685821E+03  0.51100000000E-03 0.  1.
         22    1    1    2    0    0  0.91642503973E+01 -0.25069188051E+02 -0.42423625401E+02  0.50121967909E+02  0.00000000000E+00 0. -1.
          2    1    1    2  501    0 -0.87427667571E+02 -0.18470916815E+03 -0.33343353527E+03  0.39107415704E+03  0.25500000000E-02 0.  1.
<mgrwt>
<rscale>  0 0.23105284E+03</rscale>
<asrwt>0</asrwt>
<pdfrwt beam="1">  1       11 0.10000000E+01 0.22390203E+03</pdfrwt>
<pdfrwt beam="2">  1        2 0.64835258E-01 0.23105284E+03</pdfrwt>
<totfact> 0.93905525E+01</totfact>
</mgrwt>
</event>
<event>
 5    1  0.9955701E-004  0.1464878E+03  0.7818608E-02  0.1440807E+00
         11   -1    0    0    0    0  0.00000000000E+00  0.00000000000E+00  0.10003297344E+04  0.10003297344E+04  0.51100000000E-03 0.  1.
         -2   -1    0    0    0  501 -0.00000000000E+00 -0.00000000000E+00 -0.40378884898E+02  0.40378884978E+02  0.25500000000E-02 0. -1.
         11    1    1    2    0    0  0.43896771925E+02  0.14379700827E+03  0.80347604951E+03  0.81742171999E+03  0.51100000000E-03 0.  1.
         22    1    1    2    0    0 -0.80385488552E+01 -0.15715275125E+02 -0.34870204798E+00  0.17655303256E+02  0.00000000000E+00 0. -1.
         -2    1    1    2    0  501 -0.35858223070E+02 -0.12808173314E+03  0.15682350201E+03  0.20563159611E+03  0.25500000000E-02 0. -1.
<mgrwt>
<rscale>  0 0.50850584E+02</rscale>
<asrwt>0</asrwt>
<pdfrwt beam="1">  1       11 0.10000000E+01 0.14648779E+03</pdfrwt>
<pdfrwt beam="2">  1       -2 0.62141843E-02 0.50850584E+02</pdfrwt>
<totfact> 0.97335087E+02</totfact>
</mgrwt>
</event>
<event>
 5    1  0.9955701E-004  0.4101941E+02  0.7818608E-02  0.1639955E+00
         11   -1    0    0    0    0  0.00000000000E+00  0.00000000000E+00  0.10002741151E+04  0.10002741151E+04  0.51100000000E-03 0. -1.
          2   -1    0    0  501    0 -0.00000000000E+00 -0.00000000000E+00 -0.33231906848E+01  0.33231916632E+01  0.25500000000E-02 0. -1.
         11    1    1    2    0    0 -0.28677019941E+02  0.21506326952E+02  0.19888588794E+03  0.20209030158E+03  0.51100000000E-03 0. -1.
         22    1    1    2    0    0  0.59145003208E+01  0.16106752894E+02  0.68421481252E+02  0.70540115534E+02  0.00000000000E+00 0. -1.
          2    1    1    2  501    0  0.22762519620E+02 -0.37613079846E+02  0.72964355520E+03  0.73096688962E+03  0.25500000000E-02 0. -1.
<mgrwt>
<rscale>  0 0.26529699E+02</rscale>
<asrwt>0</asrwt>
<pdfrwt beam="1">  1       11 0.10000000E+01 0.41019414E+02</pdfrwt>
<pdfrwt beam="2">  1        2 0.51140031E-03 0.26529699E+02</pdfrwt>
<totfact> 0.29372112E+04</totfact>
</mgrwt>
</event>
<event>
 5    1  0.9955701E-004  0.3774876E+03  0.7818608E-02  0.1335686E+00
         11   -1    0    0    0    0  0.00000000000E+00  0.00000000000E+00  0.10003764941E+04  0.10003764941E+04  0.51100000000E-03 0. -1.
          2   -1    0    0  501    0 -0.00000000000E+00 -0.00000000000E+00 -0.17059827505E+03  0.17059827507E+03  0.25500000000E-02 0. -1.
         11    1    1    2    0    0 -0.37352908470E+03 -0.84755767956E+02  0.61288118590E+03  0.72272461239E+03  0.51100000000E-03 0. -1.
         22    1    1    2    0    0  0.15138332623E+02  0.51688428281E+01 -0.78281967488E+01  0.17809175026E+02  0.00000000000E+00 0.  1.
          2    1    1    2  501    0  0.35839075208E+03  0.79586925128E+02  0.22472522992E+03  0.43044098178E+03  0.25500000000E-02 0. -1.
<mgrwt>
<rscale>  0 0.77707511E+02</rscale>
<asrwt>0</asrwt>
<pdfrwt beam="1">  1       11 0.10000000E+01 0.37748761E+03</pdfrwt>
<pdfrwt beam="2">  1        2 0.26255769E-01 0.77707511E+02</pdfrwt>
<totfact> 0.24450595E+02</totfact>
</mgrwt>
</event>
<event>
 5    1  0.9955701E-004  0.2354982E+03  0.7818608E-02  0.1221061E+00
         11   -1    0    0    0    0  0.00000000000E+00  0.00000000000E+00  0.10004485090E+04  0.10004485090E+04  0.51100000000E-03 0. -1.
         -2   -1    0    0    0  501 -0.00000000000E+00 -0.00000000000E+00 -0.12232558187E+03  0.12232558190E+03  0.25500000000E-02 0.  1.
         11    1    1    2    0    0 -0.19269898907E+02 -0.22088321386E+03  0.64157000738E+03  0.67880247314E+03  0.51100000000E-03 0. -1.
         22    1    1    2    0    0 -0.11172798763E+02 -0.75891496760E+02  0.59270139207E+02  0.96939672551E+02  0.00000000000E+00 0. -1.
         -2    1    1    2    0  501  0.30442697670E+02  0.29677471062E+03  0.17728278052E+03  0.34703194519E+03  0.25500000000E-02 0.  1.
<mgrwt>
<rscale>  0 0.13440593E+03</rscale>
<asrwt>0</asrwt>
<pdfrwt beam="1">  1       11 0.10000000E+01 0.23549819E+03</pdfrwt>
<pdfrwt beam="2">  1       -2 0.18827760E-01 0.13440593E+03</pdfrwt>
<totfact> 0.18302596E+02</totfact>
</mgrwt>
</event>
<event>
 5    1  0.9955701E-004  0.4096353E+03  0.7818608E-02  0.1186366E+00
         11   -1    0    0    0    0  0.00000000000E+00  0.00000000000E+00  0.99988374394E+03  0.99988374394E+03  0.51100000000E-03 0.  1.
         -2   -1    0    0    0  501 -0.00000000000E+00 -0.00000000000E+00 -0.79903025373E+03  0.79903025373E+03  0.25500000000E-02 0. -1.
         11    1    1    2    0    0 -0.41067955593E+03  0.33748367865E+02  0.88933300660E+03  0.98015807226E+03  0.51100000000E-03 0.  1.
         22    1    1    2    0    0  0.33835777209E+02 -0.54479129123E+02 -0.77326946410E+02  0.10046040001E+03  0.00000000000E+00 0.  1.
         -2    1    1    2    0  501  0.37684377872E+03  0.20730761258E+02 -0.61115256997E+03  0.71829552540E+03  0.25500000000E-02 0. -1.
<mgrwt>
<rscale>  0 0.16208172E+03</rscale>
<asrwt>0</asrwt>
<pdfrwt beam="1">  1       11 0.10000000E+01 0.40963531E+03</pdfrwt>
<pdfrwt beam="2">  1       -2 0.12291344E+00 0.16208172E+03</pdfrwt>
<totfact> 0.43438248E+00</totfact>
</mgrwt>
</event>
<event>
 5    1  0.9955701E-004  0.5127730E+02  0.7818608E-02  0.1451727E+00
         11   -1    0    0    0    0  0.00000000000E+00  0.00000000000E+00  0.10000632397E+04  0.10000632397E+04  0.51100000000E-03 0. -1.
          2   -1    0    0  501    0 -0.00000000000E+00 -0.00000000000E+00 -0.42630826561E+01  0.42630834187E+01  0.25500000000E-02 0. -1.
         11    1    1    2    0    0  0.35138480490E+02  0.20256355348E+02  0.15654555332E+03  0.16171438714E+03  0.51100000000E-03 0. -1.
         22    1    1    2    0    0  0.36240549699E+01  0.94480432112E+01  0.26112317311E+02  0.28004506964E+02  0.00000000000E+00 0. -1.
          2    1    1    2  501    0 -0.38762535460E+02 -0.29704398559E+02  0.81314228639E+03  0.81460742900E+03  0.25500000000E-02 0. -1.
<mgrwt>
<rscale>  0 0.48835289E+02</rscale>
<asrwt>0</asrwt>
<pdfrwt beam="1">  1       11 0.10000000E+01 0.51277296E+02</pdfrwt>
<pdfrwt beam="2">  1        2 0.65590039E-03 0.48835289E+02</pdfrwt>
<totfact> 0.24212143E+04</totfact>
</mgrwt>
</event>
<event>
 5    1  0.1715614E-003  0.1543669E+03  0.7818608E-02  0.1435346E+00
         11   -1    0    0    0    0  0.00000000000E+00  0.00000000000E+00  0.10000856769E+04  0.10000856769E+04  0.51100000000E-03 0. -1.
         -2   -1    0    0    0  501 -0.00000000000E+00 -0.00000000000E+00 -0.58514503828E+02  0.58514503883E+02  0.25500000000E-02 0. -1.
         11    1    1    2    0    0  0.11074665997E+03 -0.10435512634E+03  0.82167580225E+03  0.83564701824E+03  0.51100000000E-03 0. -1.
         22    1    1    2    0    0  0.13998751044E+02 -0.10418987609E+02  0.18490538795E+02  0.25424798102E+02  0.00000000000E+00 0.  1.
         -2    1    1    2    0  501 -0.12474541101E+03  0.11477411395E+03  0.10140483205E+03  0.19752836447E+03  0.25500000000E-02 0. -1.
<mgrwt>
<rscale>  0 0.51901655E+02</rscale>
<asrwt>0</asrwt>
<pdfrwt beam="1">  1       11 0.10000000E+01 0.15436693E+03</pdfrwt>
<pdfrwt beam="2">  1       -2 0.90030024E-02 0.51901655E+02</pdfrwt>
<totfact> 0.55994554E+02</totfact>
</mgrwt>
</event>
<event>
 5    1  0.9955701E-004  0.1240547E+03  0.7818608E-02  0.1516983E+00
         11   -1    0    0    0    0  0.00000000000E+00  0.00000000000E+00  0.10002211152E+04  0.10002211152E+04  0.51100000000E-03 0.  1.
          2   -1    0    0  501    0 -0.00000000000E+00 -0.00000000000E+00 -0.24642367918E+02  0.24642368049E+02  0.25500000000E-02 0.  1.
         11    1    1    2    0    0 -0.12992954864E+03 -0.23600940290E+02  0.37108733622E+03  0.39388387007E+03  0.51100000000E-03 0.  1.
         22    1    1    2    0    0  0.11768515545E+02  0.30431611614E+01 -0.23662058736E+01  0.12383768337E+02  0.00000000000E+00 0. -1.
          2    1    1    2  501    0  0.11816103310E+03  0.20557779129E+02  0.60685761691E+03  0.61859584482E+03  0.25500000000E-02 0.  1.
<mgrwt>
<rscale>  0 0.38832455E+02</rscale>
<asrwt>0</asrwt>
<pdfrwt beam="1">  1       11 0.10000000E+01 0.12405471E+03</pdfrwt>
<pdfrwt beam="2">  1        2 0.37919717E-02 0.38832455E+02</pdfrwt>
<totfact> 0.23009369E+03</totfact>
</mgrwt>
</event>
<event>
 5    1  0.9955701E-004  0.1445029E+03  0.7818608E-02  0.1277906E+00
         11   -1    0    0    0    0  0.00000000000E+00  0.00000000000E+00  0.10000814131E+04  0.10000814131E+04  0.51100000000E-03 0. -1.
          2   -1    0    0  501    0 -0.00000000000E+00 -0.00000000000E+00 -0.21730959522E+03  0.21730959524E+03  0.25500000000E-02 0. -1.
         11    1    1    2    0    0 -0.13887516626E+03 -0.61633263037E+02  0.90431515626E+03  0.91699011595E+03  0.51100000000E-03 0. -1.
         22    1    1    2    0    0  0.28330640785E+02  0.64881191155E+02 -0.16657216167E+03  0.18099303638E+03  0.00000000000E+00 0. -1.
          2    1    1    2  501    0  0.11054452548E+03 -0.32479281181E+01  0.45028823342E+02  0.11940785606E+03  0.25500000000E-02 0. -1.
<mgrwt>
<rscale>  0 0.10114518E+03</rscale>
<asrwt>0</asrwt>
<pdfrwt beam="1">  1       11 0.10000000E+01 0.14450286E+03</pdfrwt>
<pdfrwt beam="2">  1        2 0.33434966E-01 0.10114518E+03</pdfrwt>
<totfact> 0.18995911E+02</totfact>
</mgrwt>
</event>
<event>
 5    1  0.9955701E-004  0.2847601E+03  0.7818608E-02  0.1093117E+00
         11   -1    0    0    0    0  0.00000000000E+00  0.00000000000E+00  0.10001589916E+04  0.10001589916E+04  0.51100000000E-03 0. -1.
          2   -1    0    0  501    0 -0.00000000000E+00 -0.00000000000E+00 -0.80308426184E+02  0.80308426225E+02  0.25500000000E-02 0. -1.
         11    1    1    2    0    0 -0.27952561068E+03  0.12196912034E+02  0.50418953155E+03  0.57661981878E+03  0.51100000000E-03 0. -1.
         22    1    1    2    0    0  0.11697111434E+02  0.56259334159E+01  0.65459563464E+01  0.14536955912E+02  0.00000000000E+00 0. -1.
          2    1    1    2  501    0  0.26782849924E+03 -0.17822845450E+02  0.40911507755E+03  0.48931064316E+03  0.25500000000E-02 0. -1.
<mgrwt>
<rscale>  0 0.28476009E+03</rscale>
<asrwt>0</asrwt>
<pdfrwt beam="1">  1       11 0.10000000E+01 0.27979159E+03</pdfrwt>
<pdfrwt beam="2">  1        2 0.12357107E-01 0.28476009E+03</pdfrwt>
<totfact> 0.60821984E+02</totfact>
</mgrwt>
</event>
<event>
 5    1  0.9955701E-004  0.2009525E+03  0.7818608E-02  0.1265459E+00
         11   -1    0    0    0    0  0.00000000000E+00  0.00000000000E+00  0.10002205891E+04  0.10002205891E+04  0.51100000000E-03 0. -1.
          2   -1    0    0  501    0 -0.00000000000E+00 -0.00000000000E+00 -0.88208012742E+02  0.88208012778E+02  0.25500000000E-02 0. -1.
         11    1    1    2    0    0  0.44555287727E+02  0.22488237032E+03  0.56886195257E+03  0.61331979850E+03  0.51100000000E-03 0. -1.
         22    1    1    2    0    0 -0.29435466392E+02 -0.49280503936E+02 -0.28273669248E+02  0.63987616948E+02  0.00000000000E+00 0.  1.
          2    1    1    2  501    0 -0.15119821335E+02 -0.17560186638E+03  0.37142429305E+03  0.41112118645E+03  0.25500000000E-02 0. -1.
<mgrwt>
<rscale>  0 0.10740164E+03</rscale>
<asrwt>0</asrwt>
<pdfrwt beam="1">  1       11 0.10000000E+01 0.20095249E+03</pdfrwt>
<pdfrwt beam="2">  1        2 0.13573457E-01 0.10740164E+03</pdfrwt>
<totfact> 0.52041666E+02</totfact>
</mgrwt>
</event>
<event>
 5    1  0.9955701E-004  0.1042435E+03  0.7818608E-02  0.1397543E+00
         11   -1    0    0    0    0  0.00000000000E+00  0.00000000000E+00  0.10004224458E+04  0.10004224458E+04  0.51100000000E-03 0.  1.
         -2   -1    0    0    0  501 -0.00000000000E+00 -0.00000000000E+00 -0.22301191179E+02  0.22301191325E+02  0.25500000000E-02 0.  1.
         11    1    1    2    0    0  0.10585485671E+02 -0.96101916992E+02  0.50408967444E+03  0.51327773265E+03  0.51100000000E-03 0.  1.
         22    1    1    2    0    0 -0.26961075360E+02 -0.21707714436E+02  0.19751461598E+02  0.39852787680E+02  0.00000000000E+00 0. -1.
         -2    1    1    2    0  501  0.16375589689E+02  0.11780963143E+03  0.45428011853E+03  0.46959311675E+03  0.25500000000E-02 0.  1.
<mgrwt>
<rscale>  0 0.60068951E+02</rscale>
<asrwt>0</asrwt>
<pdfrwt beam="1">  1       11 0.10000000E+01 0.10424354E+03</pdfrwt>
<pdfrwt beam="2">  1       -2 0.34324018E-02 0.60068951E+02</pdfrwt>
<totfact> 0.23588728E+03</totfact>
</mgrwt>
</event>
<event>
 5    1  0.9955701E-004  0.8718771E+02  0.7818608E-02  0.1566237E+00
         11   -1    0    0    0    0  0.00000000000E+00  0.00000000000E+00  0.10001357073E+04  0.10001357073E+04  0.51100000000E-03 0.  1.
         -2   -1    0    0    0  501 -0.00000000000E+00 -0.00000000000E+00 -0.14003548816E+02  0.14003549048E+02  0.25500000000E-02 0.  1.
         11    1    1    2    0    0  0.44215144608E+02 -0.81784335527E+02  0.46554588118E+03  0.47473847962E+03  0.51100000000E-03 0.  1.
         22    1    1    2    0    0 -0.11351983548E+02  0.53729798256E+01  0.35759875970E+00  0.12564406852E+02  0.00000000000E+00 0.  1.
         -2    1    1    2    0  501 -0.32863161061E+02  0.76411355702E+02  0.52022867854E+03  0.52683636987E+03  0.25500000000E-02 0.  1.
<mgrwt>
<rscale>  0 0.33091049E+02</rscale>
<asrwt>0</asrwt>
<pdfrwt beam="1">  1       11 0.10000000E+01 0.87187710E+02</pdfrwt>
<pdfrwt beam="2">  1       -2 0.21546844E-02 0.33091049E+02</pdfrwt>
<totfact> 0.41818324E+03</totfact>
</mgrwt>
</event>
<event>
 5    1  0.9955701E-004  0.5545271E+02  0.7818608E-02  0.1534467E+00
         11   -1    0    0    0    0  0.00000000000E+00  0.00000000000E+00  0.10003225261E+04  0.10003225261E+04  0.51100000000E-03 0.  1.
          2   -1    0    0  501    0 -0.00000000000E+00 -0.00000000000E+00 -0.14223162296E+02  0.14223162525E+02  0.25500000000E-02 0.  1.
         11    1    1    2    0    0 -0.46113373424E+02 -0.30975900953E+02  0.11253446130E+03  0.12549882322E+03  0.51100000000E-03 0.  1.
         22    1    1    2    0    0 -0.93089372610E+01  0.22354233793E+02  0.14648389135E+02  0.28300943194E+02  0.00000000000E+00 0.  1.
          2    1    1    2  501    0  0.55422310685E+02  0.86216671596E+01  0.85891651337E+03  0.86074592221E+03  0.25500000000E-02 0.  1.
<mgrwt>
<rscale>  0 0.36644083E+02</rscale>
<asrwt>0</asrwt>
<pdfrwt beam="1">  1       11 0.10000000E+01 0.55452711E+02</pdfrwt>
<pdfrwt beam="2">  1        2 0.21888845E-02 0.36644083E+02</pdfrwt>
<totfact> 0.46332663E+03</totfact>
</mgrwt>
</event>
<event>
 5    1  0.9955701E-004  0.3102938E+02  0.7818608E-02  0.1586981E+00
         11   -1    0    0    0    0  0.00000000000E+00  0.00000000000E+00  0.10001330865E+04  0.10001330865E+04  0.51100000000E-03 0.  1.
          2   -1    0    0  501    0 -0.00000000000E+00 -0.00000000000E+00 -0.31443250914E+01  0.31443261254E+01  0.25500000000E-02 0.  1.
         11    1    1    2    0    0 -0.18119364595E+02 -0.11291463332E+02  0.11160553726E+03  0.11362924124E+03  0.51100000000E-03 0.  1.
         22    1    1    2    0    0  0.92613909221E+01  0.32197420445E+02  0.14125996522E+03  0.14517859698E+03  0.00000000000E+00 0.  1.
          2    1    1    2  501    0  0.88579736726E+01 -0.20905957114E+02  0.74412325889E+03  0.74446957438E+03  0.25500000000E-02 0.  1.
<mgrwt>
<rscale>  0 0.31029381E+02</rscale>
<asrwt>0</asrwt>
<pdfrwt beam="1">  1       11 0.10000000E+01 0.21349683E+02</pdfrwt>
<pdfrwt beam="2">  1        2 0.48380677E-03 0.31029381E+02</pdfrwt>
<totfact> 0.32870427E+04</totfact>
</mgrwt>
</event>
<event>
 5    1  0.9955701E-004  0.1089901E+03  0.7818608E-02  0.1517812E+00
         11   -1    0    0    0    0  0.00000000000E+00  0.00000000000E+00  0.10000889820E+04  0.10000889820E+04  0.51100000000E-03 0. -1.
          2   -1    0    0  501    0 -0.00000000000E+00 -0.00000000000E+00 -0.21065063738E+02  0.21065063892E+02  0.25500000000E-02 0. -1.
         11    1    1    2    0    0 -0.63991947688E+02  0.78167692795E+02  0.30373664903E+03  0.32009546939E+03  0.51100000000E-03 0. -1.
         22    1    1    2    0    0 -0.34293636471E+01  0.13324801820E+02 -0.23487702629E+01  0.13958065780E+02  0.00000000000E+00 0. -1.
          2    1    1    2  501    0  0.67421311335E+02 -0.91492494615E+02  0.67763603950E+03  0.68710051072E+03  0.25500000000E-02 0. -1.
<mgrwt>
<rscale>  0 0.38724625E+02</rscale>
<asrwt>0</asrwt>
<pdfrwt beam="1">  1       11 0.10000000E+01 0.10899006E+03</pdfrwt>
<pdfrwt beam="2">  1        2 0.32410673E-02 0.38724625E+02</pdfrwt>
<totfact> 0.28113427E+03</totfact>
</mgrwt>
</event>
<event>
 5    1  0.9955701E-004  0.1560288E+03  0.7818608E-02  0.1284818E+00
         11   -1    0    0    0    0  0.00000000000E+00  0.00000000000E+00  0.10004081323E+04  0.10004081323E+04  0.51100000000E-03 0.  1.
         -2   -1    0    0    0  501 -0.00000000000E+00 -0.00000000000E+00 -0.14801475496E+03  0.14801475498E+03  0.25500000000E-02 0. -1.
         11    1    1    2    0    0  0.16160760544E+03  0.56913237772E+02  0.86427727446E+03  0.88109667002E+03  0.51100000000E-03 0.  1.
         22    1    1    2    0    0 -0.58487285663E+02 -0.18693875584E+02 -0.10605081728E+03  0.12254386730E+03  0.00000000000E+00 0. -1.
         -2    1    1    2    0  501 -0.10312031978E+03 -0.38219362188E+02  0.94166920128E+02  0.14478234993E+03  0.25500000000E-02 0. -1.
<mgrwt>
<rscale>  0 0.97880035E+02</rscale>
<asrwt>0</asrwt>
<pdfrwt beam="1">  1       11 0.10000000E+01 0.15602877E+03</pdfrwt>
<pdfrwt beam="2">  1       -2 0.22780794E-01 0.97880035E+02</pdfrwt>
<totfact> 0.13107506E+02</totfact>
</mgrwt>
</event>
<event>
 5    1  0.9955701E-004  0.5469563E+02  0.7818608E-02  0.1658979E+00
         11   -1    0    0    0    0  0.00000000000E+00  0.00000000000E+00  0.10002941345E+04  0.10002941345E+04  0.51100000000E-03 0.  1.
          2   -1    0    0  501    0 -0.00000000000E+00 -0.00000000000E+00 -0.13917638979E+02  0.13917639212E+02  0.25500000000E-02 0.  1.
         11    1    1    2    0    0 -0.30392697665E+02 -0.38550364061E+02  0.29429619476E+03  0.29836235836E+03  0.51100000000E-03 0.  1.
         22    1    1    2    0    0  0.74722345142E+00 -0.11532321984E+02 -0.75489986157E+01  0.13803628991E+02  0.00000000000E+00 0.  1.
          2    1    1    2  501    0  0.29645474213E+02  0.50082686045E+02  0.69962929943E+03  0.70204578640E+03  0.25500000000E-02 0.  1.
<mgrwt>
<rscale>  0 0.25141401E+02</rscale>
<asrwt>0</asrwt>
<pdfrwt beam="1">  1       11 0.10000000E+01 0.54695634E+02</pdfrwt>
<pdfrwt beam="2">  1        2 0.21418050E-02 0.25141401E+02</pdfrwt>
<totfact> 0.44735569E+03</totfact>
</mgrwt>
</event>
<event>
 5    1  0.9955701E-004  0.1758170E+03  0.7818608E-02  0.1375044E+00
         11   -1    0    0    0    0  0.00000000000E+00  0.00000000000E+00  0.99999247121E+03  0.99999247121E+03  0.51100000000E-03 0.  1.
          2   -1    0    0  501    0 -0.00000000000E+00 -0.00000000000E+00 -0.17101373965E+03  0.17101373967E+03  0.25500000000E-02 0.  1.
         11    1    1    2    0    0 -0.14625427087E+03 -0.10415834961E+03  0.86645147134E+03  0.88486011648E+03  0.51100000000E-03 0.  1.
         22    1    1    2    0    0  0.23027442123E+02  0.86950211033E+01 -0.11107141242E+03  0.11376609837E+03  0.00000000000E+00 0.  1.
          2    1    1    2  501    0  0.12322682874E+03  0.95463328507E+02  0.73598672629E+02  0.17237999603E+03  0.25500000000E-02 0.  1.
<mgrwt>
<rscale>  0 0.65784667E+02</rscale>
<asrwt>0</asrwt>
<pdfrwt beam="1">  1       11 0.10000000E+01 0.17581701E+03</pdfrwt>
<pdfrwt beam="2">  1        2 0.26309607E-01 0.65784667E+02</pdfrwt>
<totfact> 0.24273863E+02</totfact>
</mgrwt>
</event>
<event>
 5    1  0.9955701E-004  0.7149307E+02  0.7818608E-02  0.1398617E+00
         11   -1    0    0    0    0  0.00000000000E+00  0.00000000000E+00  0.10002988656E+04  0.10002988656E+04  0.51100000000E-03 0.  1.
          2   -1    0    0  501    0 -0.00000000000E+00 -0.00000000000E+00 -0.57370553303E+02  0.57370553359E+02  0.25500000000E-02 0.  1.
         11    1    1    2    0    0 -0.64999926747E+01 -0.11256313062E+03  0.17549378771E+03  0.20859237236E+03  0.51100000000E-03 0.  1.
         22    1    1    2    0    0  0.20140451271E+02  0.45809518492E+02 -0.23449795988E+02  0.55263393795E+02  0.00000000000E+00 0.  1.
          2    1    1    2  501    0 -0.13640458596E+02  0.66753612132E+02  0.79088432057E+03  0.79381365280E+03  0.25500000000E-02 0.  1.
<mgrwt>
<rscale>  0 0.59813188E+02</rscale>
<asrwt>0</asrwt>
<pdfrwt beam="1">  1       11 0.10000000E+01 0.71493074E+02</pdfrwt>
<pdfrwt beam="2">  1        2 0.88288766E-02 0.59813188E+02</pdfrwt>
<totfact> 0.83876753E+02</totfact>
</mgrwt>
</event>
<event>
 5    1  0.9955701E-004  0.1538525E+03  0.7818608E-02  0.1503033E+00
         11   -1    0    0    0    0  0.00000000000E+00  0.00000000000E+00  0.10000957542E+04  0.10000957542E+04  0.51100000000E-03 0. -1.
          2   -1    0    0  501    0 -0.00000000000E+00 -0.00000000000E+00 -0.27736087872E+02  0.27736087989E+02  0.25500000000E-02 0. -1.
         11    1    1    2    0    0 -0.15214604988E+03 -0.37376656125E+02  0.37147903831E+03  0.40316511608E+03  0.51100000000E-03 0. -1.
         22    1    1    2    0    0  0.68984503416E+01 -0.82750614102E+01  0.10778124354E+02  0.15239200211E+02  0.00000000000E+00 0. -1.
          2    1    1    2  501    0  0.14524759954E+03  0.45651717535E+02  0.59010250362E+03  0.60942752586E+03  0.25500000000E-02 0. -1.
<mgrwt>
<rscale>  0 0.40712491E+02</rscale>
<asrwt>0</asrwt>
<pdfrwt beam="1">  1       11 0.10000000E+01 0.15385246E+03</pdfrwt>
<pdfrwt beam="2">  1        2 0.42674989E-02 0.40712491E+02</pdfrwt>
<totfact> 0.19920925E+03</totfact>
</mgrwt>
</event>
<event>
 5    1  0.9955701E-004  0.9154468E+02  0.7818608E-02  0.1324672E+00
         11   -1    0    0    0    0  0.00000000000E+00  0.00000000000E+00  0.10000339573E+04  0.10000339573E+04  0.51100000000E-03 0. -1.
          2   -1    0    0  501    0 -0.00000000000E+00 -0.00000000000E+00 -0.43075396201E+02  0.43075396277E+02  0.25500000000E-02 0. -1.
         11    1    1    2    0    0  0.27861917208E+02  0.33967177691E+02  0.27923305285E+01  0.44021048385E+02  0.51100000000E-03 0. -1.
         22    1    1    2    0    0  0.47471954521E+02 -0.27035516706E+01  0.65843516411E+01  0.48002597265E+02  0.00000000000E+00 0. -1.
          2    1    1    2  501    0 -0.75333871729E+02 -0.31263626021E+02  0.94758187896E+03  0.95108570795E+03  0.25500000000E-02 0. -1.
<mgrwt>
<rscale>  0 0.81563512E+02</rscale>
<asrwt>0</asrwt>
<pdfrwt beam="1">  1       11 0.10000000E+01 0.91544684E+02</pdfrwt>
<pdfrwt beam="2">  1        2 0.66272089E-02 0.81563512E+02</pdfrwt>
<totfact> 0.12248266E+03</totfact>
</mgrwt>
</event>
<event>
 5    1  0.9955701E-004  0.2297627E+03  0.7818608E-02  0.1126807E+00
         11   -1    0    0    0    0  0.00000000000E+00  0.00000000000E+00  0.10002246706E+04  0.10002246706E+04  0.51100000000E-03 0. -1.
          2   -1    0    0  501    0 -0.00000000000E+00 -0.00000000000E+00 -0.17704004816E+03  0.17704004818E+03  0.25500000000E-02 0. -1.
         11    1    1    2    0    0 -0.20437312703E+03  0.87874082422E+02  0.90609151486E+03  0.93300164132E+03  0.51100000000E-03 0. -1.
         22    1    1    2    0    0  0.18703248514E+02 -0.74478159453E+00 -0.24842980664E+02  0.31105303292E+02  0.00000000000E+00 0.  1.
          2    1    1    2  501    0  0.18566987851E+03 -0.87129300828E+02 -0.58063911716E+02  0.21315777420E+03  0.25500000000E-02 0. -1.
<mgrwt>
<rscale>  0 0.22976270E+03</rscale>
<asrwt>0</asrwt>
<pdfrwt beam="1">  1       11 0.10000000E+01 0.22246400E+03</pdfrwt>
<pdfrwt beam="2">  1        2 0.27243049E-01 0.22976270E+03</pdfrwt>
<totfact> 0.24087667E+02</totfact>
</mgrwt>
</event>
<event>
 5    1  0.9955701E-004  0.3006546E+03  0.7818608E-02  0.1242643E+00
         11   -1    0    0    0    0  0.00000000000E+00  0.00000000000E+00  0.10000583583E+04  0.10000583583E+04  0.51100000000E-03 0.  1.
          2   -1    0    0  501    0 -0.00000000000E+00 -0.00000000000E+00 -0.27744160702E+03  0.27744160703E+03  0.25500000000E-02 0.  1.
         11    1    1    2    0    0 -0.93332147248E+02 -0.28016970295E+03  0.72825495466E+03  0.78585064176E+03  0.51100000000E-03 0.  1.
         22    1    1    2    0    0  0.31069718895E+02 -0.36739396091E+02 -0.13531920890E+03  0.14361893661E+03  0.00000000000E+00 0.  1.
          2    1    1    2  501    0  0.62262428353E+02  0.31690909904E+03  0.12968100548E+03  0.34803038693E+03  0.25500000000E-02 0.  1.
<mgrwt>
<rscale>  0 0.12027541E+03</rscale>
<asrwt>0</asrwt>
<pdfrwt beam="1">  1       11 0.10000000E+01 0.30065455E+03</pdfrwt>
<pdfrwt beam="2">  1        2 0.42685814E-01 0.12027541E+03</pdfrwt>
<totfact> 0.14698026E+02</totfact>
</mgrwt>
</event>
<event>
 5    1  0.9955701E-004  0.5017748E+02  0.7818608E-02  0.1673336E+00
         11   -1    0    0    0    0  0.00000000000E+00  0.00000000000E+00  0.99996303953E+03  0.99996303953E+03  0.51100000000E-03 0. -1.
          2   -1    0    0  501    0 -0.00000000000E+00 -0.00000000000E+00 -0.46371530254E+01  0.46371537266E+01  0.25500000000E-02 0. -1.
         11    1    1    2    0    0 -0.43384133755E+02  0.17918399739E+01  0.21514023984E+03  0.21947828264E+03  0.51100000000E-03 0. -1.
         22    1    1    2    0    0 -0.95929549773E+01 -0.65838018884E+01  0.20463957214E+02  0.23540279892E+02  0.00000000000E+00 0. -1.
          2    1    1    2  501    0  0.52977088732E+02  0.47919619146E+01  0.75972168946E+03  0.76158163073E+03  0.25500000000E-02 0. -1.
<mgrwt>
<rscale>  0 0.24162168E+02</rscale>
<asrwt>0</asrwt>
<pdfrwt beam="1">  1       11 0.10000000E+01 0.50177476E+02</pdfrwt>
<pdfrwt beam="2">  1        2 0.71338182E-03 0.24162168E+02</pdfrwt>
<totfact> 0.18520751E+04</totfact>
</mgrwt>
</event>
<event>
 5    1  0.9955701E-004  0.1284270E+03  0.7818608E-02  0.1229809E+00
         11   -1    0    0    0    0  0.00000000000E+00  0.00000000000E+00  0.10004685443E+04  0.10004685443E+04  0.51100000000E-03 0. -1.
          2   -1    0    0  501    0 -0.00000000000E+00 -0.00000000000E+00 -0.44405823088E+03  0.44405823088E+03  0.25500000000E-02 0. -1.
         11    1    1    2    0    0 -0.95588202168E+02  0.31974874214E+02  0.11399783858E+03  0.15216768440E+03  0.51100000000E-03 0. -1.
         22    1    1    2    0    0  0.43524727934E+02  0.12084915368E+03 -0.40749140532E+03  0.42725655676E+03  0.00000000000E+00 0. -1.
          2    1    1    2  501    0  0.52063474234E+02 -0.15282402790E+03  0.84990388013E+03  0.86510253399E+03  0.25500000000E-02 0. -1.
<mgrwt>
<rscale>  0 0.12842697E+03</rscale>
<asrwt>0</asrwt>
<pdfrwt beam="1">  1       11 0.10000000E+01 0.10079433E+03</pdfrwt>
<pdfrwt beam="2">  1        2 0.68348658E-01 0.12842697E+03</pdfrwt>
<totfact> 0.89177104E+01</totfact>
</mgrwt>
</event>
<event>
 5    1  0.9955701E-004  0.9059741E+02  0.7818608E-02  0.1528360E+00
         11   -1    0    0    0    0  0.00000000000E+00  0.00000000000E+00  0.10003229401E+04  0.10003229401E+04  0.51100000000E-03 0.  1.
          2   -1    0    0  501    0 -0.00000000000E+00 -0.00000000000E+00 -0.97611827480E+01  0.97611830811E+01  0.25500000000E-02 0.  1.
         11    1    1    2    0    0 -0.87319012214E+02  0.14147593263E+02  0.44328760407E+03  0.45202728259E+03  0.51100000000E-03 0.  1.
         22    1    1    2    0    0 -0.12665025598E+01  0.15377556068E+02  0.62941790731E+02  0.64805418598E+02  0.00000000000E+00 0. -1.
          2    1    1    2  501    0  0.88585514774E+02 -0.29525149331E+02  0.48433236258E+03  0.49325142201E+03  0.25500000000E-02 0.  1.
<mgrwt>
<rscale>  0 0.37388286E+02</rscale>
<asrwt>0</asrwt>
<pdfrwt beam="1">  1       11 0.10000000E+01 0.90597414E+02</pdfrwt>
<pdfrwt beam="2">  1        2 0.15022054E-02 0.37388286E+02</pdfrwt>
<totfact> 0.76133526E+03</totfact>
</mgrwt>
</event>
<event>
 5    1  0.9955701E-004  0.4179748E+02  0.7818608E-02  0.1495386E+00
         11   -1    0    0    0    0  0.00000000000E+00  0.00000000000E+00  0.10003520538E+04  0.10003520538E+04  0.51100000000E-03 0. -1.
          2   -1    0    0  501    0 -0.00000000000E+00 -0.00000000000E+00 -0.49750754464E+01  0.49750760999E+01  0.25500000000E-02 0. -1.
         11    1    1    2    0    0 -0.14800154107E+02  0.19303044148E+02  0.59040441743E+02  0.63854724464E+02  0.51100000000E-03 0. -1.
         22    1    1    2    0    0 -0.11262608672E+00 -0.46650164325E+02  0.24304999056E+03  0.24748646110E+03  0.00000000000E+00 0. -1.
          2    1    1    2  501    0  0.14912780193E+02  0.27347120178E+02  0.69328654603E+03  0.69398594432E+03  0.25500000000E-02 0. -1.
<mgrwt>
<rscale>  0 0.41797478E+02</rscale>
<asrwt>0</asrwt>
<pdfrwt beam="1">  1       11 0.10000000E+01 0.24323911E+02</pdfrwt>
<pdfrwt beam="2">  1        2 0.76566571E-03 0.41797478E+02</pdfrwt>
<totfact> 0.19050567E+04</totfact>
</mgrwt>
</event>
<event>
 5    1  0.9955701E-004  0.1780390E+03  0.7818608E-02  0.1319341E+00
         11   -1    0    0    0    0  0.00000000000E+00  0.00000000000E+00  0.10003312700E+04  0.10003312700E+04  0.51100000000E-03 0.  1.
          2   -1    0    0  501    0 -0.00000000000E+00 -0.00000000000E+00 -0.77838801916E+02  0.77838801958E+02  0.25500000000E-02 0.  1.
         11    1    1    2    0    0 -0.35737886992E+02 -0.15922505011E+03  0.49784918723E+03  0.52391184981E+03  0.51100000000E-03 0.  1.
         22    1    1    2    0    0 -0.10865868051E+02 -0.37646259784E+02 -0.34697584836E+02  0.52337657167E+02  0.00000000000E+00 0. -1.
          2    1    1    2  501    0  0.46603755043E+02  0.19687130990E+03  0.45934086565E+03  0.50192056494E+03  0.25500000000E-02 0.  1.
<mgrwt>
<rscale>  0 0.83523079E+02</rscale>
<asrwt>0</asrwt>
<pdfrwt beam="1">  1       11 0.10000000E+01 0.17803904E+03</pdfrwt>
<pdfrwt beam="2">  1        2 0.11979167E-01 0.83523079E+02</pdfrwt>
<totfact> 0.59507850E+02</totfact>
</mgrwt>
</event>
<event>
 5    1  0.9955701E-004  0.9975747E+02  0.7818608E-02  0.1559719E+00
         11   -1    0    0    0    0  0.00000000000E+00  0.00000000000E+00  0.10000403737E+04  0.10000403737E+04  0.51100000000E-03 0. -1.
          2   -1    0    0  501    0 -0.00000000000E+00 -0.00000000000E+00 -0.13412011450E+02  0.13412011692E+02  0.25500000000E-02 0. -1.
         11    1    1    2    0    0 -0.10644510453E+03  0.41564126022E+01  0.45153298368E+03  0.46392873525E+03  0.51100000000E-03 0. -1.
         22    1    1    2    0    0  0.11384737979E+02 -0.11019957528E+01  0.81024028405E+01  0.14016974898E+02  0.00000000000E+00 0.  1.
          2    1    1    2  501    0  0.95060366550E+02 -0.30544168494E+01  0.52699297574E+03  0.53550667525E+03  0.25500000000E-02 0. -1.
<mgrwt>
<rscale>  0 0.33778990E+02</rscale>
<asrwt>0</asrwt>
<pdfrwt beam="1">  1       11 0.10000000E+01 0.99757467E+02</pdfrwt>
<pdfrwt beam="2">  1        2 0.20634696E-02 0.33778990E+02</pdfrwt>
<totfact> 0.49374119E+03</totfact>
</mgrwt>
</event>
<event>
 5    1  0.9955701E-004  0.1399869E+03  0.7818608E-02  0.1436335E+00
         11   -1    0    0    0    0  0.00000000000E+00  0.00000000000E+00  0.10001974517E+04  0.10001974517E+04  0.51100000000E-03 0.  1.
          2   -1    0    0  501    0 -0.00000000000E+00 -0.00000000000E+00 -0.29096514779E+02  0.29096514891E+02  0.25500000000E-02 0.  1.
         11    1    1    2    0    0 -0.96468121969E+02 -0.97088516289E+02  0.22679138420E+03  0.26488980822E+03  0.51100000000E-03 0.  1.
         22    1    1    2    0    0  0.11002842245E+02 -0.15613205925E+02  0.25777184857E+02  0.32082674388E+02  0.00000000000E+00 0.  1.
          2    1    1    2  501    0  0.85465279724E+02  0.11270172221E+03  0.71853236789E+03  0.73232148400E+03  0.25500000000E-02 0.  1.
<mgrwt>
<rscale>  0 0.51709179E+02</rscale>
<asrwt>0</asrwt>
<pdfrwt beam="1">  1       11 0.10000000E+01 0.13998690E+03</pdfrwt>
<pdfrwt beam="2">  1        2 0.44772706E-02 0.51709179E+02</pdfrwt>
<totfact> 0.19269923E+03</totfact>
</mgrwt>
</event>
<event>
 5    1  0.9955701E-004  0.2308404E+03  0.7818608E-02  0.1173880E+00
         11   -1    0    0    0    0  0.00000000000E+00  0.00000000000E+00  0.10003168659E+04  0.10003168659E+04  0.51100000000E-03 0.  1.
          2   -1    0    0  501    0 -0.00000000000E+00 -0.00000000000E+00 -0.68508786090E+03  0.68508786091E+03  0.25500000000E-02 0.  1.
         11    1    1    2    0    0  0.85086480775E+01 -0.22980750477E+03  0.91381853161E+03  0.94231003128E+03  0.51100000000E-03 0.  1.
         22    1    1    2    0    0 -0.12536270257E+03 -0.37830754930E+02 -0.98036951966E+02  0.16357939102E+03  0.00000000000E+00 0. -1.
          2    1    1    2  501    0  0.11685405450E+03  0.26763825970E+03 -0.50055257468E+03  0.57951530448E+03  0.25500000000E-02 0.  1.
<mgrwt>
<rscale>  0 0.17386122E+03</rscale>
<asrwt>0</asrwt>
<pdfrwt beam="1">  1       11 0.10000000E+01 0.23084035E+03</pdfrwt>
<pdfrwt beam="2">  1        2 0.10543153E+00 0.17386122E+03</pdfrwt>
<totfact> 0.54422800E+01</totfact>
</mgrwt>
</event>
<event>
 5    1  0.9955701E-004  0.3198989E+03  0.7818608E-02  0.1263761E+00
         11   -1    0    0    0    0  0.00000000000E+00  0.00000000000E+00  0.10000157569E+04  0.10000157569E+04  0.51100000000E-03 0. -1.
          2   -1    0    0  501    0 -0.00000000000E+00 -0.00000000000E+00 -0.13675922353E+03  0.13675922355E+03  0.25500000000E-02 0. -1.
         11    1    1    2    0    0 -0.21386611877E+03  0.24554825745E+03  0.66261489998E+03  0.73830289798E+03  0.51100000000E-03 0. -1.
         22    1    1    2    0    0  0.36234073005E+02  0.55755727720E+01  0.22457330854E+02  0.42992171001E+02  0.00000000000E+00 0. -1.
          2    1    1    2  501    0  0.17763204576E+03 -0.25112383022E+03  0.17818430256E+03  0.35547991149E+03  0.25500000000E-02 0. -1.
<mgrwt>
<rscale>  0 0.10829435E+03</rscale>
<asrwt>0</asrwt>
<pdfrwt beam="1">  1       11 0.10000000E+01 0.31989890E+03</pdfrwt>
<pdfrwt beam="2">  1        2 0.21040211E-01 0.10829435E+03</pdfrwt>
<totfact> 0.31501431E+02</totfact>
</mgrwt>
</event>
<event>
 5    1  0.9955701E-004  0.2667744E+02  0.7818608E-02  0.1790883E+00
         11   -1    0    0    0    0  0.00000000000E+00  0.00000000000E+00  0.10000143914E+04  0.10000143914E+04  0.51100000000E-03 0. -1.
          2   -1    0    0  501    0 -0.00000000000E+00 -0.00000000000E+00 -0.79806785164E+01  0.79806789238E+01  0.25500000000E-02 0. -1.
         11    1    1    2    0    0  0.21753674732E+02  0.18868469856E+02  0.15565088811E+03  0.15829226288E+03  0.51100000000E-03 0. -1.
         22    1    1    2    0    0  0.38644171316E+01 -0.11356677484E+02 -0.86701292230E+00  0.12027450047E+02  0.00000000000E+00 0. -1.
          2    1    1    2  501    0 -0.25618091864E+02 -0.75117923721E+01  0.83724983772E+03  0.83767535742E+03  0.25500000000E-02 0. -1.
<mgrwt>
<rscale>  0 0.17889289E+02</rscale>
<asrwt>0</asrwt>
<pdfrwt beam="1">  1       11 0.10000000E+01 0.26677440E+02</pdfrwt>
<pdfrwt beam="2">  1        2 0.12278144E-02 0.17889289E+02</pdfrwt>
<totfact> 0.85289908E+03</totfact>
</mgrwt>
</event>
<event>
 5    1  0.9955701E-004  0.3523398E+03  0.7818608E-02  0.1242650E+00
         11   -1    0    0    0    0  0.00000000000E+00  0.00000000000E+00  0.10005077267E+04  0.10005077267E+04  0.51100000000E-03 0. -1.
          2   -1    0    0  501    0 -0.00000000000E+00 -0.00000000000E+00 -0.19665902319E+03  0.19665902321E+03  0.25500000000E-02 0. -1.
         11    1    1    2    0    0  0.38625578328E+00  0.35094839251E+03  0.69756056339E+03  0.78086853119E+03  0.51100000000E-03 0. -1.
         22    1    1    2    0    0  0.40668563385E+02  0.56163299525E+01  0.25721272137E+02  0.48446455498E+02  0.00000000000E+00 0. -1.
          2    1    1    2  501    0 -0.41054819168E+02 -0.35656472246E+03  0.80566867966E+02  0.36785176322E+03  0.25500000000E-02 0. -1.
<mgrwt>
<rscale>  0 0.12027114E+03</rscale>
<asrwt>0</asrwt>
<pdfrwt beam="1">  1       11 0.10000000E+01 0.35233979E+03</pdfrwt>
<pdfrwt beam="2">  1        2 0.30270595E-01 0.12027114E+03</pdfrwt>
<totfact> 0.21200140E+02</totfact>
</mgrwt>
</event>
<event>
 5    1  0.9955701E-004  0.3936302E+03  0.7818608E-02  0.1060691E+00
         11   -1    0    0    0    0  0.00000000000E+00  0.00000000000E+00  0.10003708286E+04  0.10003708286E+04  0.51100000000E-03 0. -1.
          2   -1    0    0  501    0 -0.00000000000E+00 -0.00000000000E+00 -0.14090083726E+03  0.14090083728E+03  0.25500000000E-02 0. -1.
         11    1    1    2    0    0  0.16984664119E+03  0.18760490647E+03  0.40320861891E+03  0.47604692292E+03  0.51100000000E-03 0. -1.
         22    1    1    2    0    0  0.12730026933E+03  0.61377734543E+01  0.95321827782E+02  0.15915175678E+03  0.00000000000E+00 0. -1.
          2    1    1    2  501    0 -0.29714691051E+03 -0.19374267993E+03  0.36093954466E+03  0.50607298620E+03  0.25500000000E-02 0. -1.
<mgrwt>
<rscale>  0 0.35472879E+03</rscale>
<asrwt>0</asrwt>
<pdfrwt beam="1">  1       11 0.10000000E+01 0.39363023E+03</pdfrwt>
<pdfrwt beam="2">  1        2 0.21685090E-01 0.35472879E+03</pdfrwt>
<totfact> 0.31442982E+02</totfact>
</mgrwt>
</event>
<event>
 5    1  0.9955701E-004  0.5677672E+02  0.7818608E-02  0.1426610E+00
         11   -1    0    0    0    0  0.00000000000E+00  0.00000000000E+00  0.10003178469E+04  0.10003178469E+04  0.51100000000E-03 0. -1.
          2   -1    0    0  501    0 -0.00000000000E+00 -0.00000000000E+00 -0.35590919527E+01  0.35590928662E+01  0.25500000000E-02 0. -1.
         11    1    1    2    0    0  0.26475597515E+01  0.28061695503E+02  0.15511273056E+03  0.15765287029E+03  0.51100000000E-03 0. -1.
         22    1    1    2    0    0 -0.15455078919E+02  0.24033685072E+02  0.16510042822E+03  0.16755485335E+03  0.00000000000E+00 0. -1.
          2    1    1    2  501    0  0.12807519168E+02 -0.52095380576E+02  0.67654559617E+03  0.67866921613E+03  0.25500000000E-02 0. -1.
<mgrwt>
<rscale>  0 0.53646633E+02</rscale>
<asrwt>0</asrwt>
<pdfrwt beam="1">  1       11 0.10000000E+01 0.56776725E+02</pdfrwt>
<pdfrwt beam="2">  1        2 0.54772670E-03 0.53646633E+02</pdfrwt>
<totfact> 0.31493539E+04</totfact>
</mgrwt>
</event>
<event>
 5    1  0.9955701E-004  0.3647762E+03  0.7818608E-02  0.1320839E+00
         11   -1    0    0    0    0  0.00000000000E+00  0.00000000000E+00  0.10005260527E+04  0.10005260527E+04  0.51100000000E-03 0. -1.
          2   -1    0    0  501    0 -0.00000000000E+00 -0.00000000000E+00 -0.37349337663E+03  0.37349337664E+03  0.25500000000E-02 0. -1.
         11    1    1    2    0    0 -0.86671127393E+02 -0.35420522654E+03  0.84974829331E+03  0.92468664358E+03  0.51100000000E-03 0. -1.
         22    1    1    2    0    0  0.18051826527E+02 -0.54963160648E+01 -0.30231375772E+02  0.35637255960E+02  0.00000000000E+00 0. -1.
          2    1    1    2  501    0  0.68619300865E+02  0.35970154260E+03 -0.19248424143E+03  0.41369552984E+03  0.25500000000E-02 0. -1.
<mgrwt>
<rscale>  0 0.82965874E+02</rscale>
<asrwt>0</asrwt>
<pdfrwt beam="1">  1       11 0.10000000E+01 0.36477616E+03</pdfrwt>
<pdfrwt beam="2">  1        2 0.57490745E-01 0.82965874E+02</pdfrwt>
<totfact> 0.10738463E+02</totfact>
</mgrwt>
</event>
<event>
 5    1  0.9955701E-004  0.5412564E+02  0.7818608E-02  0.1634340E+00
         11   -1    0    0    0    0  0.00000000000E+00  0.00000000000E+00  0.10002730222E+04  0.10002730222E+04  0.51100000000E-03 0.  1.
          2   -1    0    0  501    0 -0.00000000000E+00 -0.00000000000E+00 -0.12871776329E+02  0.12871776582E+02  0.25500000000E-02 0.  1.
         11    1    1    2    0    0 -0.45272834897E+02 -0.12070459350E+02  0.12487854465E+03  0.13337907063E+03  0.51100000000E-03 0.  1.
         22    1    1    2    0    0 -0.10436849671E+02  0.84510458204E+01 -0.18815753181E+01  0.13560543212E+02  0.00000000000E+00 0.  1.
          2    1    1    2  501    0  0.55709684568E+02  0.36194135293E+01  0.86440427656E+03  0.86620518496E+03  0.25500000000E-02 0.  1.
<mgrwt>
<rscale>  0 0.26960581E+02</rscale>
<asrwt>0</asrwt>
<pdfrwt beam="1">  1       11 0.10000000E+01 0.54125640E+02</pdfrwt>
<pdfrwt beam="2">  1        2 0.19808139E-02 0.26960581E+02</pdfrwt>
<totfact> 0.50082540E+03</totfact>
</mgrwt>
</event>
<event>
 5    1  0.9955701E-004  0.5443325E+02  0.7818608E-02  0.1422798E+00
         11   -1    0    0    0    0  0.00000000000E+00  0.00000000000E+00  0.99999524741E+03  0.99999524741E+03  0.51100000000E-03 0. -1.
          2   -1    0    0  501    0 -0.00000000000E+00 -0.00000000000E+00 -0.55183397460E+01  0.55183403351E+01  0.25500000000E-02 0. -1.
         11    1    1    2    0    0  0.17484459282E+02  0.20902470217E+02  0.12350125556E+03  0.12647205107E+03  0.51100000000E-03 0. -1.
         22    1    1    2    0    0  0.37282912636E+02 -0.40203661240E+02  0.28736836829E+03  0.29255243811E+03  0.00000000000E+00 0.  1.
          2    1    1    2  501    0 -0.54767371918E+02  0.19301191023E+02  0.58360728382E+03  0.58648909856E+03  0.25500000000E-02 0. -1.
<mgrwt>
<rscale>  0 0.54433255E+02</rscale>
<asrwt>0</asrwt>
<pdfrwt beam="1">  1       11 0.10000000E+01 0.27251061E+02</pdfrwt>
<pdfrwt beam="2">  1        2 0.84897133E-03 0.54433255E+02</pdfrwt>
<totfact> 0.17461614E+04</totfact>
</mgrwt>
</event>
<event>
 5    1  0.9955701E-004  0.2070670E+03  0.7818608E-02  0.1440042E+00
         11   -1    0    0    0    0  0.00000000000E+00  0.00000000000E+00  0.99981014074E+03  0.99981014074E+03  0.51100000000E-03 0. -1.
          2   -1    0    0  501    0 -0.00000000000E+00 -0.00000000000E+00 -0.11175225119E+03  0.11175225122E+03  0.25500000000E-02 0. -1.
         11    1    1    2    0    0  0.13729662164E+03 -0.15307466878E+03  0.85390369030E+03  0.87831300163E+03  0.51100000000E-03 0. -1.
         22    1    1    2    0    0  0.73538077816E+01 -0.10181128775E+02  0.69611464750E+00  0.12578491469E+02  0.00000000000E+00 0. -1.
          2    1    1    2  501    0 -0.14465042942E+03  0.16325579756E+03  0.33458084605E+02  0.22067089885E+03  0.25500000000E-02 0. -1.
<mgrwt>
<rscale>  0 0.50996070E+02</rscale>
<asrwt>0</asrwt>
<pdfrwt beam="1">  1       11 0.10000000E+01 0.20706702E+03</pdfrwt>
<pdfrwt beam="2">  1        2 0.17189389E-01 0.50996070E+02</pdfrwt>
<totfact> 0.38240035E+02</totfact>
</mgrwt>
</event>
<event>
 5    1  0.9955701E-004  0.1666191E+03  0.7818608E-02  0.1479687E+00
         11   -1    0    0    0    0  0.00000000000E+00  0.00000000000E+00  0.99997362666E+03  0.99997362666E+03  0.51100000000E-03 0. -1.
          2   -1    0    0  501    0 -0.00000000000E+00 -0.00000000000E+00 -0.34852073961E+02  0.34852074054E+02  0.25500000000E-02 0. -1.
         11    1    1    2    0    0 -0.16943838263E+03  0.33845117444E+02  0.35853477274E+03  0.39799753862E+03  0.51100000000E-03 0. -1.
         22    1    1    2    0    0  0.10756366486E+02  0.46066166157E+01  0.37738926589E+01  0.12294820146E+02  0.00000000000E+00 0. -1.
          2    1    1    2  501    0  0.15868201615E+03 -0.38451734060E+02  0.60281288730E+03  0.62453334195E+03  0.25500000000E-02 0. -1.
<mgrwt>
<rscale>  0 0.44154934E+02</rscale>
<asrwt>0</asrwt>
<pdfrwt beam="1">  1       11 0.10000000E+01 0.16661908E+03</pdfrwt>
<pdfrwt beam="2">  1        2 0.53617160E-02 0.44154934E+02</pdfrwt>
<totfact> 0.15083893E+03</totfact>
</mgrwt>
</event>
<event>
 5    1  0.9955701E-004  0.9146685E+02  0.7818608E-02  0.1308497E+00
         11   -1    0    0    0    0  0.00000000000E+00  0.00000000000E+00  0.10001743066E+04  0.10001743066E+04  0.51100000000E-03 0. -1.
          2   -1    0    0  501    0 -0.00000000000E+00 -0.00000000000E+00 -0.17660767449E+02  0.17660767633E+02  0.25500000000E-02 0. -1.
         11    1    1    2    0    0 -0.25620465926E+02 -0.68753855550E+01  0.42478711722E+02  0.50081135676E+02  0.51100000000E-03 0. -1.
         22    1    1    2    0    0 -0.42330022080E+02 -0.48582609541E+02  0.77577561936E+02  0.10084829614E+03  0.00000000000E+00 0. -1.
          2    1    1    2  501    0  0.67950488007E+02  0.55457995096E+02  0.86245726554E+03  0.86690564246E+03  0.25500000000E-02 0. -1.
<mgrwt>
<rscale>  0 0.87708939E+02</rscale>
<asrwt>0</asrwt>
<pdfrwt beam="1">  1       11 0.10000000E+01 0.91466849E+02</pdfrwt>
<pdfrwt beam="2">  1        2 0.27175147E-02 0.87708939E+02</pdfrwt>
<totfact> 0.39261573E+03</totfact>
</mgrwt>
</event>
<event>
 5    1  0.9955701E-004  0.2482137E+03  0.7818608E-02  0.1406785E+00
         11   -1    0    0    0    0  0.00000000000E+00  0.00000000000E+00  0.10002034888E+04  0.10002034888E+04  0.51100000000E-03 0.  1.
          2   -1    0    0  501    0 -0.00000000000E+00 -0.00000000000E+00 -0.16778137237E+03  0.16778137239E+03  0.25500000000E-02 0.  1.
         11    1    1    2    0    0 -0.22457503768E+03 -0.12728581407E+03  0.54755957660E+02  0.26388224820E+03  0.51100000000E-03 0.  1.
         22    1    1    2    0    0  0.68780832908E+01  0.11633098280E+02 -0.44118185940E+02  0.46141644270E+02  0.00000000000E+00 0.  1.
          2    1    1    2  501    0  0.21769695439E+03  0.11565271579E+03  0.82178434469E+03  0.85796096869E+03  0.25500000000E-02 0.  1.
<mgrwt>
<rscale>  0 0.57917517E+02</rscale>
<asrwt>0</asrwt>
<pdfrwt beam="1">  1       11 0.10000000E+01 0.24821367E+03</pdfrwt>
<pdfrwt beam="2">  1        2 0.25817771E-01 0.57917517E+02</pdfrwt>
<totfact> 0.24667030E+02</totfact>
</mgrwt>
</event>
<event>
 5    1  0.9955701E-004  0.1616810E+03  0.7818608E-02  0.1186812E+00
         11   -1    0    0    0    0  0.00000000000E+00  0.00000000000E+00  0.10001489223E+04  0.10001489223E+04  0.51100000000E-03 0.  1.
          2   -1    0    0  501    0 -0.00000000000E+00 -0.00000000000E+00 -0.46107684020E+02  0.46107684091E+02  0.25500000000E-02 0.  1.
         11    1    1    2    0    0 -0.84067560387E+01  0.15391466026E+03  0.82532445789E+03  0.83959565088E+03  0.51100000000E-03 0.  1.
         22    1    1    2    0    0 -0.10161190238E+02 -0.23835266754E+02  0.41591810042E+02  0.49002534535E+02  0.00000000000E+00 0.  1.
          2    1    1    2  501    0  0.18567946276E+02 -0.13007939350E+03  0.87124970373E+02  0.15765842100E+03  0.25500000000E-02 0.  1.
<mgrwt>
<rscale>  0 0.16168099E+03</rscale>
<asrwt>0</asrwt>
<pdfrwt beam="1">  1       11 0.10000000E+01 0.15414408E+03</pdfrwt>
<pdfrwt beam="2">  1        2 0.70945460E-02 0.16168099E+03</pdfrwt>
<totfact> 0.11816327E+03</totfact>
</mgrwt>
</event>
<event>
 5    1  0.9955701E-004  0.1851380E+03  0.7818608E-02  0.1486719E+00
         11   -1    0    0    0    0  0.00000000000E+00  0.00000000000E+00  0.10004012403E+04  0.10004012403E+04  0.51100000000E-03 0. -1.
         -2   -1    0    0    0  501 -0.00000000000E+00 -0.00000000000E+00 -0.74536834535E+02  0.74536834579E+02  0.25500000000E-02 0. -1.
         11    1    1    2    0    0  0.71350207822E+02 -0.17256827602E+03  0.83791027047E+03  0.85846623894E+03  0.51100000000E-03 0. -1.
         22    1    1    2    0    0 -0.59723553581E+01  0.80490202617E+01 -0.99894717441E+01  0.14150805681E+02  0.00000000000E+00 0. -1.
         -2    1    1    2    0  501 -0.65377852464E+02  0.16451925576E+03  0.97943606995E+02  0.20232103021E+03  0.25500000000E-02 0. -1.
<mgrwt>
<rscale>  0 0.43076606E+02</rscale>
<asrwt>0</asrwt>
<pdfrwt beam="1">  1       11 0.10000000E+01 0.18513799E+03</pdfrwt>
<pdfrwt beam="2">  1       -2 0.11471806E-01 0.43076606E+02</pdfrwt>
<totfact> 0.38069361E+02</totfact>
</mgrwt>
</event>
<event>
 5    1  0.9955701E-004  0.5080036E+02  0.7818608E-02  0.1447842E+00
         11   -1    0    0    0    0  0.00000000000E+00  0.00000000000E+00  0.10002846241E+04  0.10002846241E+04  0.51100000000E-03 0.  1.
         -2   -1    0    0    0  501 -0.00000000000E+00 -0.00000000000E+00 -0.36356501168E+01  0.36356510111E+01  0.25500000000E-02 0.  1.
         11    1    1    2    0    0  0.64344899480E+01  0.26400359162E+02  0.14760183158E+03  0.15008225182E+03  0.51100000000E-03 0.  1.
         22    1    1    2    0    0  0.43133566495E+01  0.21958971015E+02  0.76548886820E+02  0.79752953092E+02  0.00000000000E+00 0.  1.
         -2    1    1    2    0  501 -0.10747846597E+02 -0.48359330177E+02  0.77249825554E+03  0.77408507016E+03  0.25500000000E-02 0.  1.
<mgrwt>
<rscale>  0 0.49539288E+02</rscale>
<asrwt>0</asrwt>
<pdfrwt beam="1">  1       11 0.10000000E+01 0.50800363E+02</pdfrwt>
<pdfrwt beam="2">  1       -2 0.55949004E-03 0.49539288E+02</pdfrwt>
<totfact> 0.29222772E+04</totfact>
</mgrwt>
</event>
<event>
 5    1  0.9955701E-004  0.4683398E+02  0.7818608E-02  0.1556172E+00
         11   -1    0    0    0    0  0.00000000000E+00  0.00000000000E+00  0.10003087498E+04  0.10003087498E+04  0.51100000000E-03 0. -1.
          2   -1    0    0  501    0 -0.00000000000E+00 -0.00000000000E+00 -0.12596549954E+02  0.12596550212E+02  0.25500000000E-02 0. -1.
         11    1    1    2    0    0  0.54819842031E+02 -0.12612847923E+01  0.26283762263E+03  0.26849659549E+03  0.51100000000E-03 0. -1.
         22    1    1    2    0    0 -0.13357855547E+02  0.21035759600E+02  0.81557339193E+01  0.26219295996E+02  0.00000000000E+00 0. -1.
          2    1    1    2  501    0 -0.41461986484E+02 -0.19774474807E+02  0.71671884328E+03  0.71818940851E+03  0.25500000000E-02 0. -1.
<mgrwt>
<rscale>  0 0.34161903E+02</rscale>
<asrwt>0</asrwt>
<pdfrwt beam="1">  1       11 0.10000000E+01 0.46833983E+02</pdfrwt>
<pdfrwt beam="2">  1        2 0.19385291E-02 0.34161903E+02</pdfrwt>
<totfact> 0.53658727E+03</totfact>
</mgrwt>
</event>
<event>
 5    1  0.9955701E-004  0.6933778E+02  0.7818608E-02  0.1559170E+00
         11   -1    0    0    0    0  0.00000000000E+00  0.00000000000E+00  0.10000042146E+04  0.10000042146E+04  0.51100000000E-03 0. -1.
          2   -1    0    0  501    0 -0.00000000000E+00 -0.00000000000E+00 -0.68672153772E+01  0.68672158507E+01  0.25500000000E-02 0. -1.
         11    1    1    2    0    0  0.70646763428E+02 -0.18992048215E+02  0.36224605612E+03  0.36955901863E+03  0.51100000000E-03 0. -1.
         22    1    1    2    0    0 -0.10600503071E+02 -0.12661774678E+02  0.54735622720E+02  0.57172367433E+02  0.00000000000E+00 0. -1.
          2    1    1    2  501    0 -0.60046260356E+02  0.31653822892E+02  0.57615532035E+03  0.58014004435E+03  0.25500000000E-02 0. -1.
<mgrwt>
<rscale>  0 0.33837842E+02</rscale>
<asrwt>0</asrwt>
<pdfrwt beam="1">  1       11 0.10000000E+01 0.69337784E+02</pdfrwt>
<pdfrwt beam="2">  1        2 0.10564991E-02 0.33837842E+02</pdfrwt>
<totfact> 0.11890972E+04</totfact>
</mgrwt>
</event>
<event>
 5    1  0.9955701E-004  0.1930351E+03  0.7818608E-02  0.1384338E+00
         11   -1    0    0    0    0  0.00000000000E+00  0.00000000000E+00  0.10000994485E+04  0.10000994485E+04  0.51100000000E-03 0. -1.
          2   -1    0    0  501    0 -0.00000000000E+00 -0.00000000000E+00 -0.19094047525E+03  0.19094047527E+03  0.25500000000E-02 0. -1.
         11    1    1    2    0    0  0.12153144778E+03  0.15263173563E+03  0.90178151169E+03  0.92264632138E+03  0.51100000000E-03 0. -1.
         22    1    1    2    0    0 -0.71349264885E+01 -0.19518434974E+02 -0.90510174390E+02  0.92865322634E+02  0.00000000000E+00 0. -1.
          2    1    1    2  501    0 -0.11439652129E+03 -0.13311330065E+03 -0.21123640844E+01  0.17552827973E+03  0.25500000000E-02 0. -1.
<mgrwt>
<rscale>  0 0.63337082E+02</rscale>
<asrwt>0</asrwt>
<pdfrwt beam="1">  1       11 0.10000000E+01 0.19303512E+03</pdfrwt>
<pdfrwt beam="2">  1        2 0.29378378E-01 0.63337082E+02</pdfrwt>
<totfact> 0.21561179E+02</totfact>
</mgrwt>
</event>
<event>
 5    1  0.9955701E-004  0.6179977E+02  0.7818608E-02  0.1390430E+00
         11   -1    0    0    0    0  0.00000000000E+00  0.00000000000E+00  0.10002325904E+04  0.10002325904E+04  0.51100000000E-03 0.  1.
          2   -1    0    0  501    0 -0.00000000000E+00 -0.00000000000E+00 -0.92585319499E+01  0.92585323011E+01  0.25500000000E-02 0.  1.
         11    1    1    2    0    0  0.94186610099E+01  0.95458811686E+01  0.76373074056E+01  0.15432546361E+02  0.51100000000E-03 0.  1.
         22    1    1    2    0    0 -0.53720118191E+02 -0.36479919831E+02  0.23145695508E+03  0.24039333956E+03  0.00000000000E+00 0.  1.
          2    1    1    2  501    0  0.44301457182E+02  0.26934038663E+02  0.75187979596E+03  0.75366523678E+03  0.25500000000E-02 0.  1.
<mgrwt>
<rscale>  0 0.61799768E+02</rscale>
<asrwt>0</asrwt>
<pdfrwt beam="1">  1       11 0.10000000E+01 0.13410265E+02</pdfrwt>
<pdfrwt beam="2">  1        2 0.14247208E-02 0.61799768E+02</pdfrwt>
<totfact> 0.88859277E+03</totfact>
</mgrwt>
</event>
<event>
 5    1  0.9955701E-004  0.1130245E+03  0.7818608E-02  0.1492948E+00
         11   -1    0    0    0    0  0.00000000000E+00  0.00000000000E+00  0.10000386016E+04  0.10000386016E+04  0.51100000000E-03 0. -1.
          2   -1    0    0  501    0 -0.00000000000E+00 -0.00000000000E+00 -0.19913316942E+02  0.19913317105E+02  0.25500000000E-02 0. -1.
         11    1    1    2    0    0 -0.98290630970E+02  0.48633182785E+02  0.65260654527E+03  0.66175640347E+03  0.51100000000E-03 0. -1.
         22    1    1    2    0    0 -0.55658712726E+01  0.14701999320E+02  0.11226178407E+02  0.19317214827E+02  0.00000000000E+00 0.  1.
          2    1    1    2  501    0  0.10385650224E+03 -0.63335182105E+02  0.31629256099E+03  0.33887830042E+03  0.25500000000E-02 0. -1.
<mgrwt>
<rscale>  0 0.42151845E+02</rscale>
<asrwt>0</asrwt>
<pdfrwt beam="1">  1       11 0.10000000E+01 0.11302447E+03</pdfrwt>
<pdfrwt beam="2">  1        2 0.30637054E-02 0.42151845E+02</pdfrwt>
<totfact> 0.30579085E+03</totfact>
</mgrwt>
</event>
<event>
 5    1  0.9955701E-004  0.5851718E+03  0.7818608E-02  0.1285344E+00
         11   -1    0    0    0    0  0.00000000000E+00  0.00000000000E+00  0.10002798664E+04  0.10002798664E+04  0.51100000000E-03 0. -1.
          2   -1    0    0  501    0 -0.00000000000E+00 -0.00000000000E+00 -0.37705594744E+03  0.37705594745E+03  0.25500000000E-02 0. -1.
         11    1    1    2    0    0  0.16502150758E+03  0.56642761417E+03  0.47625161303E+03  0.75821364995E+03  0.51100000000E-03 0. -1.
         22    1    1    2    0    0  0.67479290776E+01 -0.14827857823E+02 -0.11635898261E+02  0.20019841228E+02  0.00000000000E+00 0. -1.
          2    1    1    2  501    0 -0.17176943666E+03 -0.55159975635E+03  0.15860820418E+03  0.59910232265E+03  0.25500000000E-02 0. -1.
<mgrwt>
<rscale>  0 0.97637556E+02</rscale>
<asrwt>0</asrwt>
<pdfrwt beam="1">  1       11 0.10000000E+01 0.58517183E+03</pdfrwt>
<pdfrwt beam="2">  1        2 0.58024840E-01 0.97637556E+02</pdfrwt>
<totfact> 0.10632127E+02</totfact>
</mgrwt>
</event>
<event>
 5    1  0.9955701E-004  0.1260490E+03  0.7818608E-02  0.1233439E+00
         11   -1    0    0    0    0  0.00000000000E+00  0.00000000000E+00  0.10002215326E+04  0.10002215326E+04  0.51100000000E-03 0. -1.
          2   -1    0    0  501    0 -0.00000000000E+00 -0.00000000000E+00 -0.24644965600E+02  0.24644965732E+02  0.25500000000E-02 0. -1.
         11    1    1    2    0    0 -0.10901698038E+03  0.64516302038E+02  0.19426450851E+03  0.23191755972E+03  0.51100000000E-03 0. -1.
         22    1    1    2    0    0  0.74910726461E+01  0.69306833987E+01  0.38275198363E+02  0.39612388863E+02  0.00000000000E+00 0.  1.
          2    1    1    2  501    0  0.10152590774E+03 -0.71446985436E+02  0.74303686013E+03  0.75333654975E+03  0.25500000000E-02 0. -1.
<mgrwt>
<rscale>  0 0.12604900E+03</rscale>
<asrwt>0</asrwt>
<pdfrwt beam="1">  1       11 0.10000000E+01 0.10205417E+02</pdfrwt>
<pdfrwt beam="2">  1        2 0.37923730E-02 0.12604900E+03</pdfrwt>
<totfact> 0.26193855E+03</totfact>
</mgrwt>
</event>
<event>
 5    1  0.9955701E-004  0.3565781E+02  0.7818608E-02  0.1542835E+00
         11   -1    0    0    0    0  0.00000000000E+00  0.00000000000E+00  0.10002732505E+04  0.10002732505E+04  0.51100000000E-03 0.  1.
          2   -1    0    0  501    0 -0.00000000000E+00 -0.00000000000E+00 -0.11481875084E+02  0.11481875367E+02  0.25500000000E-02 0.  1.
         11    1    1    2    0    0  0.12457743291E+02  0.14869954509E+02  0.16315998355E+01  0.19467229728E+02  0.51100000000E-03 0.  1.
         22    1    1    2    0    0  0.30016101716E+02  0.13585582459E+02  0.15034305895E+03  0.15391091510E+03  0.00000000000E+00 0. -1.
          2    1    1    2  501    0 -0.42473845007E+02 -0.28455536968E+02  0.83681671663E+03  0.83837698103E+03  0.25500000000E-02 0.  1.
<mgrwt>
<rscale>  0 0.35657811E+02</rscale>
<asrwt>0</asrwt>
<pdfrwt beam="1">  1       11 0.10000000E+01 0.19398745E+02</pdfrwt>
<pdfrwt beam="2">  1        2 0.17669250E-02 0.35657811E+02</pdfrwt>
<totfact> 0.61011702E+03</totfact>
</mgrwt>
</event>
<event>
 5    1  0.9955701E-004  0.1680009E+03  0.7818608E-02  0.1271395E+00
         11   -1    0    0    0    0  0.00000000000E+00  0.00000000000E+00  0.10002416497E+04  0.10002416497E+04  0.51100000000E-03 0. -1.
          2   -1    0    0  501    0 -0.00000000000E+00 -0.00000000000E+00 -0.20148968685E+03  0.20148968687E+03  0.25500000000E-02 0. -1.
         11    1    1    2    0    0 -0.12910728778E+03 -0.12959508962E+03  0.84121485205E+03  0.86087513980E+03  0.51100000000E-03 0. -1.
         22    1    1    2    0    0  0.21804689673E+02  0.61043556591E+02 -0.15683391505E+03  0.16970161225E+03  0.00000000000E+00 0. -1.
          2    1    1    2  501    0  0.10730259811E+03  0.68551533031E+02  0.11437102582E+03  0.17115458450E+03  0.25500000000E-02 0. -1.
<mgrwt>
<rscale>  0 0.10435509E+03</rscale>
<asrwt>0</asrwt>
<pdfrwt beam="1">  1       11 0.10000000E+01 0.16800090E+03</pdfrwt>
<pdfrwt beam="2">  1        2 0.31005903E-01 0.10435509E+03</pdfrwt>
<totfact> 0.20601248E+02</totfact>
</mgrwt>
</event>
<event>
 5    1  0.9955701E-004  0.2143822E+03  0.7818608E-02  0.1358085E+00
         11   -1    0    0    0    0  0.00000000000E+00  0.00000000000E+00  0.99988163105E+03  0.99988163105E+03  0.51100000000E-03 0. -1.
          2   -1    0    0  501    0 -0.00000000000E+00 -0.00000000000E+00 -0.70818523378E+02  0.70818523424E+02  0.25500000000E-02 0. -1.
         11    1    1    2    0    0 -0.21343573089E+03  0.10631126547E+02  0.72205934023E+03  0.75301893926E+03  0.51100000000E-03 0. -1.
         22    1    1    2    0    0 -0.13983559224E+01  0.23203856352E+02  0.15875674264E+02  0.28149802526E+02  0.00000000000E+00 0.  1.
          2    1    1    2  501    0  0.21483408681E+03 -0.33834982900E+02  0.19112809317E+03  0.28953141268E+03  0.25500000000E-02 0. -1.
<mgrwt>
<rscale>  0 0.70594035E+02</rscale>
<asrwt>0</asrwt>
<pdfrwt beam="1">  1       11 0.10000000E+01 0.21438217E+03</pdfrwt>
<pdfrwt beam="2">  1        2 0.10893867E-01 0.70594035E+02</pdfrwt>
<totfact> 0.65932645E+02</totfact>
</mgrwt>
</event>
<event>
 5    1  0.1007011E-003  0.2753499E+03  0.7818608E-02  0.1368152E+00
         11   -1    0    0    0    0  0.00000000000E+00  0.00000000000E+00  0.10001280857E+04  0.10001280857E+04  0.51100000000E-03 0. -1.
          2   -1    0    0  501    0 -0.00000000000E+00 -0.00000000000E+00 -0.67961662272E+03  0.67961662272E+03  0.25500000000E-02 0.  1.
         11    1    1    2    0    0  0.27512465999E+03 -0.10625396055E+02  0.94669205605E+03  0.98591699781E+03  0.51100000000E-03 0. -1.
         22    1    1    2    0    0 -0.43316879110E-01 -0.16637155615E+02 -0.79621237260E+02  0.81340876846E+02  0.00000000000E+00 0.  1.
          2    1    1    2  501    0 -0.27508134311E+03  0.27262551669E+02 -0.54655935583E+03  0.61248683374E+03  0.25500000000E-02 0.  1.
<mgrwt>
<rscale>  0 0.67683489E+02</rscale>
<asrwt>0</asrwt>
<pdfrwt beam="1">  1       11 0.10000000E+01 0.27534990E+03</pdfrwt>
<pdfrwt beam="2">  1        2 0.10456979E+00 0.67683489E+02</pdfrwt>
<totfact> 0.56459368E+01</totfact>
</mgrwt>
</event>
<event>
 5    1  0.9955701E-004  0.5095741E+03  0.7818608E-02  0.1349715E+00
         11   -1    0    0    0    0  0.00000000000E+00  0.00000000000E+00  0.10002483621E+04  0.10002483621E+04  0.51100000000E-03 0. -1.
          2   -1    0    0  501    0 -0.00000000000E+00 -0.00000000000E+00 -0.30470164179E+03  0.30470164180E+03  0.25500000000E-02 0. -1.
         11    1    1    2    0    0  0.51052882361E+03  0.21162418645E+01  0.29135399936E+03  0.58781911432E+03  0.51100000000E-03 0. -1.
         22    1    1    2    0    0 -0.17237231098E+01 -0.10356758047E+02 -0.40189165477E+02  0.41537966733E+02  0.00000000000E+00 0.  1.
          2    1    1    2  501    0 -0.50880510050E+03  0.82405161825E+01  0.44438188640E+03  0.67559292282E+03  0.25500000000E-02 0. -1.
<mgrwt>
<rscale>  0 0.73144574E+02</rscale>
<asrwt>0</asrwt>
<pdfrwt beam="1">  1       11 0.10000000E+01 0.50957409E+03</pdfrwt>
<pdfrwt beam="2">  1        2 0.46888817E-01 0.73144574E+02</pdfrwt>
<totfact> 0.13269792E+02</totfact>
</mgrwt>
</event>
<event>
 5    1  0.9955701E-004  0.1326311E+03  0.7818608E-02  0.1223603E+00
         11   -1    0    0    0    0  0.00000000000E+00  0.00000000000E+00  0.99987988806E+03  0.99987988806E+03  0.51100000000E-03 0. -1.
          2   -1    0    0  501    0 -0.00000000000E+00 -0.00000000000E+00 -0.26399349417E+02  0.26399349540E+02  0.25500000000E-02 0. -1.
         11    1    1    2    0    0  0.45489550827E+02 -0.12011345711E+03  0.69471359497E+03  0.70648674499E+03  0.51100000000E-03 0. -1.
         22    1    1    2    0    0 -0.14973462515E+02 -0.10699123642E+02  0.62974608450E+02  0.65608514202E+02  0.00000000000E+00 0.  1.
          2    1    1    2  501    0 -0.30516088311E+02  0.13081258076E+03  0.21579233523E+03  0.25418397841E+03  0.25500000000E-02 0. -1.
<mgrwt>
<rscale>  0 0.13263109E+03</rscale>
<asrwt>0</asrwt>
<pdfrwt beam="1">  1       11 0.10000000E+01 0.18403147E+02</pdfrwt>
<pdfrwt beam="2">  1        2 0.40609504E-02 0.13263109E+03</pdfrwt>
<totfact> 0.24039664E+03</totfact>
</mgrwt>
</event>
<event>
 5    1  0.9955701E-004  0.2067210E+03  0.7818608E-02  0.1302266E+00
         11   -1    0    0    0    0  0.00000000000E+00  0.00000000000E+00  0.10003159099E+04  0.10003159099E+04  0.51100000000E-03 0. -1.
          2   -1    0    0  501    0 -0.00000000000E+00 -0.00000000000E+00 -0.41273779665E+03  0.41273779666E+03  0.25500000000E-02 0. -1.
         11    1    1    2    0    0  0.20830980226E+03 -0.14155404129E+02  0.95186826264E+03  0.97449809575E+03  0.51100000000E-03 0. -1.
         22    1    1    2    0    0 -0.39360005815E+02  0.16463222041E+01 -0.19542851073E+03  0.19935953260E+03  0.00000000000E+00 0.  1.
          2    1    1    2  501    0 -0.16894979644E+03  0.12509081925E+02 -0.16886163862E+03  0.23919607826E+03  0.25500000000E-02 0. -1.
<mgrwt>
<rscale>  0 0.90242196E+02</rscale>
<asrwt>0</asrwt>
<pdfrwt beam="1">  1       11 0.10000000E+01 0.20672099E+03</pdfrwt>
<pdfrwt beam="2">  1        2 0.63518180E-01 0.90242196E+02</pdfrwt>
<totfact> 0.96690573E+01</totfact>
</mgrwt>
</event>
<event>
 5    1  0.9955701E-004  0.1279069E+03  0.7818608E-02  0.1328932E+00
         11   -1    0    0    0    0  0.00000000000E+00  0.00000000000E+00  0.10001212649E+04  0.10001212649E+04  0.51100000000E-03 0.  1.
          2   -1    0    0  501    0 -0.00000000000E+00 -0.00000000000E+00 -0.40352391690E+02  0.40352391771E+02  0.25500000000E-02 0.  1.
         11    1    1    2    0    0 -0.13111096444E+03  0.90346895235E+01  0.78825165059E+03  0.79913226394E+03  0.51100000000E-03 0.  1.
         22    1    1    2    0    0  0.23845053783E+02  0.44049112774E+02  0.49133911799E+02  0.70164465471E+02  0.00000000000E+00 0. -1.
          2    1    1    2  501    0  0.10726591065E+03 -0.53083802297E+02  0.12238331084E+03  0.17117692728E+03  0.25500000000E-02 0.  1.
<mgrwt>
<rscale>  0 0.80042062E+02</rscale>
<asrwt>0</asrwt>
<pdfrwt beam="1">  1       11 0.10000000E+01 0.12790688E+03</pdfrwt>
<pdfrwt beam="2">  1        2 0.62088129E-02 0.80042062E+02</pdfrwt>
<totfact> 0.13276563E+03</totfact>
</mgrwt>
</event>
<event>
 5    1  0.9955701E-004  0.1917577E+03  0.7818608E-02  0.1476008E+00
         11   -1    0    0    0    0  0.00000000000E+00  0.00000000000E+00  0.10001703832E+04  0.10001703832E+04  0.51100000000E-03 0. -1.
          2   -1    0    0  501    0 -0.00000000000E+00 -0.00000000000E+00 -0.64496068961E+02  0.64496069011E+02  0.25500000000E-02 0. -1.
         11    1    1    2    0    0 -0.93363861512E+01  0.19029364587E+03  0.14786594941E+03  0.24117043509E+03  0.51100000000E-03 0. -1.
         22    1    1    2    0    0  0.10275644817E+02  0.18213781708E+01 -0.20274274386E+01  0.10630933960E+02  0.00000000000E+00 0.  1.
          2    1    1    2  501    0 -0.93925866537E+00 -0.19211502404E+03  0.78983579227E+03  0.81286508317E+03  0.25500000000E-02 0. -1.
<mgrwt>
<rscale>  0 0.44734185E+02</rscale>
<asrwt>0</asrwt>
<pdfrwt beam="1">  1       11 0.10000000E+01 0.19175769E+03</pdfrwt>
<pdfrwt beam="2">  1        2 0.99241625E-02 0.44734185E+02</pdfrwt>
<totfact> 0.71299952E+02</totfact>
</mgrwt>
</event>
<event>
 5    1  0.9955701E-004  0.1982101E+03  0.7818608E-02  0.1390349E+00
         11   -1    0    0    0    0  0.00000000000E+00  0.00000000000E+00  0.99997934515E+03  0.99997934515E+03  0.51100000000E-03 0. -1.
          2   -1    0    0  501    0 -0.00000000000E+00 -0.00000000000E+00 -0.66926729701E+02  0.66926729750E+02  0.25500000000E-02 0. -1.
         11    1    1    2    0    0  0.15020465632E+02  0.20241746918E+03  0.36075604794E+03  0.41393643515E+03  0.51100000000E-03 0. -1.
         22    1    1    2    0    0  0.16867047969E+02 -0.93415233895E+01 -0.20836175869E+02  0.28388511607E+02  0.00000000000E+00 0. -1.
          2    1    1    2  501    0 -0.31887513601E+02 -0.19307594579E+03  0.59313274338E+03  0.62458112815E+03  0.25500000000E-02 0. -1.
<mgrwt>
<rscale>  0 0.61819978E+02</rscale>
<asrwt>0</asrwt>
<pdfrwt beam="1">  1       11 0.10000000E+01 0.19821010E+03</pdfrwt>
<pdfrwt beam="2">  1        2 0.10296207E-01 0.61819978E+02</pdfrwt>
<totfact> 0.69897968E+02</totfact>
</mgrwt>
</event>
<event>
 5    1  0.9955701E-004  0.4162331E+02  0.7818608E-02  0.1705442E+00
         11   -1    0    0    0    0  0.00000000000E+00  0.00000000000E+00  0.10003558253E+04  0.10003558253E+04  0.51100000000E-03 0. -1.
          2   -1    0    0  501    0 -0.00000000000E+00 -0.00000000000E+00 -0.94994564819E+01  0.94994568241E+01  0.25500000000E-02 0. -1.
         11    1    1    2    0    0 -0.26809109660E+02 -0.19066002829E+02  0.59933921697E+02  0.68368968069E+02  0.51100000000E-03 0. -1.
         22    1    1    2    0    0 -0.31161318382E+01 -0.11382579545E+02  0.24753993251E+01  0.12058233559E+02  0.00000000000E+00 0. -1.
          2    1    1    2  501    0  0.29925241498E+02  0.30448582374E+02  0.92844704777E+03  0.92942808047E+03  0.25500000000E-02 0. -1.
<mgrwt>
<rscale>  0 0.22163341E+02</rscale>
<asrwt>0</asrwt>
<pdfrwt beam="1">  1       11 0.10000000E+01 0.41623308E+02</pdfrwt>
<pdfrwt beam="2">  1        2 0.14619749E-02 0.22163341E+02</pdfrwt>
<totfact> 0.71380544E+03</totfact>
</mgrwt>
</event>
<event>
 5    1  0.9955701E-004  0.8792292E+02  0.7818608E-02  0.1549916E+00
         11   -1    0    0    0    0  0.00000000000E+00  0.00000000000E+00  0.10002338139E+04  0.10002338139E+04  0.51100000000E-03 0. -1.
         -2   -1    0    0    0  501 -0.00000000000E+00 -0.00000000000E+00 -0.10728999632E+02  0.10728999935E+02  0.25500000000E-02 0. -1.
         11    1    1    2    0    0  0.81804589575E+02 -0.33205392739E+01  0.40720543046E+03  0.41535440224E+03  0.51100000000E-03 0. -1.
         22    1    1    2    0    0  0.11887653694E+02  0.70389657189E+01  0.14158628372E+02  0.19782065264E+02  0.00000000000E+00 0. -1.
         -2    1    1    2    0  501 -0.93692243269E+02 -0.37184264449E+01  0.56814075540E+03  0.57582634631E+03  0.25500000000E-02 0. -1.
<mgrwt>
<rscale>  0 0.34852310E+02</rscale>
<asrwt>0</asrwt>
<pdfrwt beam="1">  1       11 0.10000000E+01 0.87922918E+02</pdfrwt>
<pdfrwt beam="2">  1       -2 0.16510012E-02 0.34852310E+02</pdfrwt>
<totfact> 0.61112357E+03</totfact>
</mgrwt>
</event>
<event>
 5    1  0.9955701E-004  0.1559342E+03  0.7818608E-02  0.1359573E+00
         11   -1    0    0    0    0  0.00000000000E+00  0.00000000000E+00  0.10002244248E+04  0.10002244248E+04  0.51100000000E-03 0. -1.
          2   -1    0    0  501    0 -0.00000000000E+00 -0.00000000000E+00 -0.16468323259E+03  0.16468323261E+03  0.25500000000E-02 0. -1.
         11    1    1    2    0    0 -0.11932986378E+03 -0.10450979501E+03  0.88304139457E+03  0.89717557823E+03  0.51100000000E-03 0. -1.
         22    1    1    2    0    0  0.10217822876E+03  0.36485752454E+02 -0.12344241008E+03  0.16434606527E+03  0.00000000000E+00 0. -1.
          2    1    1    2  501    0  0.17151635024E+02  0.68024042555E+02  0.75942207707E+02  0.10338601389E+03  0.25500000000E-02 0. -1.
<mgrwt>
<rscale>  0 0.70153040E+02</rscale>
<asrwt>0</asrwt>
<pdfrwt beam="1">  1       11 0.10000000E+01 0.15593421E+03</pdfrwt>
<pdfrwt beam="2">  1        2 0.25341567E-01 0.70153040E+02</pdfrwt>
<totfact> 0.25323188E+02</totfact>
</mgrwt>
</event>
<event>
 5    1  0.9955701E-004  0.1631427E+03  0.7818608E-02  0.1282109E+00
         11   -1    0    0    0    0  0.00000000000E+00  0.00000000000E+00  0.10002466330E+04  0.10002466330E+04  0.51100000000E-03 0.  1.
          2   -1    0    0  501    0 -0.00000000000E+00 -0.00000000000E+00 -0.71501562787E+02  0.71501562833E+02  0.25500000000E-02 0. -1.
         11    1    1    2    0    0  0.16467923040E+03  0.38704359357E+02  0.83548071557E+03  0.85243492564E+03  0.51100000000E-03 0.  1.
         22    1    1    2    0    0 -0.30041732407E+02 -0.52225334983E+02  0.46636121572E+02  0.76190019920E+02  0.00000000000E+00 0. -1.
          2    1    1    2  501    0 -0.13463749799E+03  0.13520975625E+02  0.46628233090E+02  0.14312325029E+03  0.25500000000E-02 0. -1.
<mgrwt>
<rscale>  0 0.99142568E+02</rscale>
<asrwt>0</asrwt>
<pdfrwt beam="1">  1       11 0.10000000E+01 0.16314266E+03</pdfrwt>
<pdfrwt beam="2">  1        2 0.11002953E-01 0.99142568E+02</pdfrwt>
<totfact> 0.66519562E+02</totfact>
</mgrwt>
</event>
<event>
 5    1  0.9955701E-004  0.1335484E+03  0.7818608E-02  0.1420615E+00
         11   -1    0    0    0    0  0.00000000000E+00  0.00000000000E+00  0.99980930818E+03  0.99980930818E+03  0.51100000000E-03 0.  1.
          2   -1    0    0  501    0 -0.00000000000E+00 -0.00000000000E+00 -0.14623872935E+03  0.14623872937E+03  0.25500000000E-02 0.  1.
         11    1    1    2    0    0 -0.35839218649E+02  0.13601404351E+03  0.74354837520E+03  0.75673539358E+03  0.51100000000E-03 0.  1.
         22    1    1    2    0    0  0.24617231335E+01 -0.22426561664E+02 -0.12453963274E+03  0.12656670523E+03  0.00000000000E+00 0.  1.
          2    1    1    2  501    0  0.33377495516E+02 -0.11358748185E+03  0.23456183637E+03  0.26274593875E+03  0.25500000000E-02 0.  1.
<mgrwt>
<rscale>  0 0.54890982E+02</rscale>
<asrwt>0</asrwt>
<pdfrwt beam="1">  1       11 0.10000000E+01 0.13354835E+03</pdfrwt>
<pdfrwt beam="2">  1        2 0.22493975E-01 0.54890982E+02</pdfrwt>
<totfact> 0.28552816E+02</totfact>
</mgrwt>
</event>
<event>
 5    1  0.9955701E-004  0.2426254E+02  0.7818608E-02  0.1825252E+00
         11   -1    0    0    0    0  0.00000000000E+00  0.00000000000E+00  0.99999102595E+03  0.99999102595E+03  0.51100000000E-03 0. -1.
          2   -1    0    0  501    0 -0.00000000000E+00 -0.00000000000E+00 -0.26457588730E+01  0.26457601018E+01  0.25500000000E-02 0. -1.
         11    1    1    2    0    0 -0.13638557137E+02  0.20373812155E+02  0.13024305635E+03  0.13253058586E+03  0.51100000000E-03 0. -1.
         22    1    1    2    0    0 -0.76953524839E+01 -0.81820590773E+01  0.22511637311E+02  0.25158266137E+02  0.00000000000E+00 0. -1.
          2    1    1    2  501    0  0.21333909621E+02 -0.12191753078E+02  0.84459057342E+03  0.84494793405E+03  0.25500000000E-02 0. -1.
<mgrwt>
<rscale>  0 0.16508299E+02</rscale>
<asrwt>0</asrwt>
<pdfrwt beam="1">  1       11 0.10000000E+01 0.24262538E+02</pdfrwt>
<pdfrwt beam="2">  1        2 0.40703626E-03 0.16508299E+02</pdfrwt>
<totfact> 0.34722074E+04</totfact>
</mgrwt>
</event>
<event>
 5    1  0.9955701E-004  0.1057156E+03  0.7818608E-02  0.1273441E+00
         11   -1    0    0    0    0  0.00000000000E+00  0.00000000000E+00  0.99996605412E+03  0.99996605412E+03  0.51100000000E-03 0. -1.
          2   -1    0    0  501    0 -0.00000000000E+00 -0.00000000000E+00 -0.68951065991E+02  0.68951066038E+02  0.25500000000E-02 0. -1.
         11    1    1    2    0    0  0.72718844662E+02  0.78670627884E+02  0.59590814253E+03  0.60546148712E+03  0.51100000000E-03 0. -1.
         22    1    1    2    0    0 -0.85283199384E+02  0.54114179997E+02 -0.18939067383E+01  0.10102056947E+03  0.00000000000E+00 0. -1.
          2    1    1    2  501    0  0.12564354722E+02 -0.13278480788E+03  0.33700075235E+03  0.36243506357E+03  0.25500000000E-02 0. -1.
<mgrwt>
<rscale>  0 0.10333236E+03</rscale>
<asrwt>0</asrwt>
<pdfrwt beam="1">  1       11 0.10000000E+01 0.10571564E+03</pdfrwt>
<pdfrwt beam="2">  1        2 0.10607496E-01 0.10333236E+03</pdfrwt>
<totfact> 0.69689915E+02</totfact>
</mgrwt>
</event>
<event>
 5    1  0.9955701E-004  0.8914151E+02  0.7818608E-02  0.1540332E+00
         11   -1    0    0    0    0  0.00000000000E+00  0.00000000000E+00  0.10001329362E+04  0.10001329362E+04  0.51100000000E-03 0. -1.
          2   -1    0    0  501    0 -0.00000000000E+00 -0.00000000000E+00 -0.10610271535E+02  0.10610271841E+02  0.25500000000E-02 0. -1.
         11    1    1    2    0    0 -0.89104410008E+02  0.14614873806E+02  0.41847139849E+03  0.42810220949E+03  0.51100000000E-03 0. -1.
         22    1    1    2    0    0  0.49343952097E+01  0.13631894500E+02  0.21292902614E+02  0.25759745835E+02  0.00000000000E+00 0. -1.
          2    1    1    2  501    0  0.84170014798E+02 -0.28246768305E+02  0.54975836358E+03  0.55688125273E+03  0.25500000000E-02 0. -1.
<mgrwt>
<rscale>  0 0.35948940E+02</rscale>
<asrwt>0</asrwt>
<pdfrwt beam="1">  1       11 0.10000000E+01 0.89141514E+02</pdfrwt>
<pdfrwt beam="2">  1        2 0.16325664E-02 0.35948940E+02</pdfrwt>
<totfact> 0.67772876E+03</totfact>
</mgrwt>
</event>
<event>
 5    1  0.9955701E-004  0.1188177E+03  0.7818608E-02  0.1426911E+00
         11   -1    0    0    0    0  0.00000000000E+00  0.00000000000E+00  0.10005351887E+04  0.10005351887E+04  0.51100000000E-03 0.  1.
          2   -1    0    0  501    0 -0.00000000000E+00 -0.00000000000E+00 -0.18763854707E+02  0.18763854880E+02  0.25500000000E-02 0.  1.
         11    1    1    2    0    0  0.97637580476E+02 -0.70342367384E+02  0.51651300220E+03  0.53034595050E+03  0.51100000000E-03 0.  1.
         22    1    1    2    0    0  0.10339916725E+02  0.21842258865E+02  0.33789254499E+02  0.41541688336E+02  0.00000000000E+00 0.  1.
          2    1    1    2  501    0 -0.10797749720E+03  0.48500108519E+02  0.43146907732E+03  0.44741140477E+03  0.25500000000E-02 0.  1.
<mgrwt>
<rscale>  0 0.53585025E+02</rscale>
<asrwt>0</asrwt>
<pdfrwt beam="1">  1       11 0.10000000E+01 0.11881770E+03</pdfrwt>
<pdfrwt beam="2">  1        2 0.28882918E-02 0.53585025E+02</pdfrwt>
<totfact> 0.34084822E+03</totfact>
</mgrwt>
</event>
<event>
 5    1  0.9955701E-004  0.3069705E+03  0.7818608E-02  0.1331057E+00
         11   -1    0    0    0    0  0.00000000000E+00  0.00000000000E+00  0.10002575620E+04  0.10002575620E+04  0.51100000000E-03 0. -1.
          2   -1    0    0  501    0 -0.00000000000E+00 -0.00000000000E+00 -0.10629281549E+03  0.10629281552E+03  0.25500000000E-02 0. -1.
         11    1    1    2    0    0 -0.26886721685E+02 -0.30322286749E+03  0.54546983654E+03  0.62466338596E+03  0.51100000000E-03 0. -1.
         22    1    1    2    0    0  0.18874440801E+02 -0.79600763727E+01  0.13194113222E+02  0.24365794777E+02  0.00000000000E+00 0. -1.
          2    1    1    2  501    0  0.80122808838E+01  0.31118294387E+03  0.33530079674E+03  0.45752119678E+03  0.25500000000E-02 0. -1.
<mgrwt>
<rscale>  0 0.79297421E+02</rscale>
<asrwt>0</asrwt>
<pdfrwt beam="1">  1       11 0.10000000E+01 0.30697047E+03</pdfrwt>
<pdfrwt beam="2">  1        2 0.16356952E-01 0.79297421E+02</pdfrwt>
<totfact> 0.41326816E+02</totfact>
</mgrwt>
</event>
<event>
 5    1  0.9955701E-004  0.3347455E+02  0.7818608E-02  0.1702173E+00
         11   -1    0    0    0    0  0.00000000000E+00  0.00000000000E+00  0.99994184901E+03  0.99994184901E+03  0.51100000000E-03 0. -1.
          2   -1    0    0  501    0 -0.00000000000E+00 -0.00000000000E+00 -0.98921541663E+02  0.98921541696E+02  0.25500000000E-02 0. -1.
         11    1    1    2    0    0  0.13736320705E+02  0.14168370473E+02 -0.85261430570E+02  0.87515374486E+02  0.51100000000E-03 0. -1.
         22    1    1    2    0    0  0.14345516949E+02  0.41366153234E+01 -0.77017370205E+01  0.16799470111E+02  0.00000000000E+00 0. -1.
          2    1    1    2  501    0 -0.28081837654E+02 -0.18304985796E+02  0.99398347493E+03  0.99454854611E+03  0.25500000000E-02 0. -1.
<mgrwt>
<rscale>  0 0.22355657E+02</rscale>
<asrwt>0</asrwt>
<pdfrwt beam="1">  1       11 0.10000000E+01 0.33474549E+02</pdfrwt>
<pdfrwt beam="2">  1        2 0.15217813E-01 0.22355657E+02</pdfrwt>
<totfact> 0.41542134E+02</totfact>
</mgrwt>
</event>
<event>
 5    1  0.9955701E-004  0.1663974E+03  0.7818608E-02  0.1470435E+00
         11   -1    0    0    0    0  0.00000000000E+00  0.00000000000E+00  0.10000606478E+04  0.10000606478E+04  0.51100000000E-03 0.  1.
         -2   -1    0    0    0  501 -0.00000000000E+00 -0.00000000000E+00 -0.33580467783E+02  0.33580467879E+02  0.25500000000E-02 0. -1.
         11    1    1    2    0    0 -0.12651799087E+03  0.96105150457E+02  0.34282628410E+03  0.37785296482E+03  0.51100000000E-03 0.  1.
         22    1    1    2    0    0 -0.98828621582E+01  0.76763355923E+01  0.44185177767E+01  0.13271035826E+02  0.00000000000E+00 0.  1.
         -2    1    1    2    0  501  0.13640085303E+03 -0.10378148605E+03  0.61923537811E+03  0.64251711500E+03  0.25500000000E-02 0. -1.
<mgrwt>
<rscale>  0 0.45631955E+02</rscale>
<asrwt>0</asrwt>
<pdfrwt beam="1">  1       11 0.10000000E+01 0.16639739E+03</pdfrwt>
<pdfrwt beam="2">  1       -2 0.51665390E-02 0.45631955E+02</pdfrwt>
<totfact> 0.12611734E+03</totfact>
</mgrwt>
</event>
<event>
 5    1  0.9955701E-004  0.3059792E+03  0.7818608E-02  0.1177526E+00
         11   -1    0    0    0    0  0.00000000000E+00  0.00000000000E+00  0.99985276625E+03  0.99985276625E+03  0.51100000000E-03 0. -1.
         -2   -1    0    0    0  501 -0.00000000000E+00 -0.00000000000E+00 -0.63808267704E+03  0.63808267704E+03  0.25500000000E-02 0.  1.
         11    1    1    2    0    0  0.31188669973E+03  0.64221754531E+02  0.89754067011E+03  0.95235340169E+03  0.51100000000E-03 0. -1.
         22    1    1    2    0    0 -0.94208305751E+02 -0.10525211510E+02 -0.42511996049E+03  0.43556051906E+03  0.00000000000E+00 0.  1.
         -2    1    1    2    0  501 -0.21767839398E+03 -0.53696543021E+02 -0.11065062040E+03  0.25002152255E+03  0.25500000000E-02 0.  1.
<mgrwt>
<rscale>  0 0.17030892E+03</rscale>
<asrwt>0</asrwt>
<pdfrwt beam="1">  1       11 0.10000000E+01 0.30597922E+03</pdfrwt>
<pdfrwt beam="2">  1       -2 0.98152109E-01 0.17030892E+03</pdfrwt>
<totfact> 0.73786130E+00</totfact>
</mgrwt>
</event>
<event>
 5    1  0.9955701E-004  0.2005600E+03  0.7818608E-02  0.1267359E+00
         11   -1    0    0    0    0  0.00000000000E+00  0.00000000000E+00  0.10002734245E+04  0.10002734245E+04  0.51100000000E-03 0. -1.
          2   -1    0    0  501    0 -0.00000000000E+00 -0.00000000000E+00 -0.54103883275E+02  0.54103883335E+02  0.25500000000E-02 0. -1.
         11    1    1    2    0    0  0.94006755960E+01 -0.20694832037E+03  0.48538802297E+03  0.52774758441E+03  0.51100000000E-03 0. -1.
         22    1    1    2    0    0  0.52839432018E+02  0.19897143651E+02  0.81059027828E+02  0.98784957832E+02  0.00000000000E+00 0. -1.
          2    1    1    2  501    0 -0.62240107614E+02  0.18705117671E+03  0.37972249042E+03  0.42784476559E+03  0.25500000000E-02 0. -1.
<mgrwt>
<rscale>  0 0.10641392E+03</rscale>
<asrwt>0</asrwt>
<pdfrwt beam="1">  1       11 0.10000000E+01 0.20056005E+03</pdfrwt>
<pdfrwt beam="2">  1        2 0.83259500E-02 0.10641392E+03</pdfrwt>
<totfact> 0.93942005E+02</totfact>
</mgrwt>
</event>
<event>
 5    1  0.9955701E-004  0.1536040E+03  0.7818608E-02  0.1196113E+00
         11   -1    0    0    0    0  0.00000000000E+00  0.00000000000E+00  0.10002083434E+04  0.10002083434E+04  0.51100000000E-03 0.  1.
         -2   -1    0    0    0  501 -0.00000000000E+00 -0.00000000000E+00 -0.27633750940E+02  0.27633751058E+02  0.25500000000E-02 0. -1.
         11    1    1    2    0    0 -0.46839216603E+02  0.14346735315E+03  0.68903074027E+03  0.70536526330E+03  0.51100000000E-03 0.  1.
         22    1    1    2    0    0  0.25375861266E+01 -0.10593043891E+02  0.40729103241E+02  0.42160547590E+02  0.00000000000E+00 0. -1.
         -2    1    1    2    0  501  0.44301630477E+02 -0.13287430926E+03  0.24281474899E+03  0.28031628361E+03  0.25500000000E-02 0. -1.
<mgrwt>
<rscale>  0 0.15360401E+03</rscale>
<asrwt>0</asrwt>
<pdfrwt beam="1">  1       11 0.10000000E+01 0.15091983E+03</pdfrwt>
<pdfrwt beam="2">  1       -2 0.42522319E-02 0.15360401E+03</pdfrwt>
<totfact> 0.19038025E+03</totfact>
</mgrwt>
</event>
<event>
 5    1  0.9955701E-004  0.1834282E+03  0.7818608E-02  0.1428119E+00
         11   -1    0    0    0    0  0.00000000000E+00  0.00000000000E+00  0.10004197649E+04  0.10004197649E+04  0.51100000000E-03 0.  1.
          2   -1    0    0  501    0 -0.00000000000E+00 -0.00000000000E+00 -0.81008733323E+02  0.81008733363E+02  0.25500000000E-02 0.  1.
         11    1    1    2    0    0  0.16088005962E+03  0.79428337825E+02  0.63837892329E+03  0.66311304024E+03  0.51100000000E-03 0.  1.
         22    1    1    2    0    0  0.15282592104E+02 -0.26503017601E+01 -0.40704029292E+02  0.43559151983E+02  0.00000000000E+00 0.  1.
          2    1    1    2  501    0 -0.17616265173E+03 -0.76778036065E+02  0.32173613756E+03  0.37475630602E+03  0.25500000000E-02 0.  1.
<mgrwt>
<rscale>  0 0.53339471E+02</rscale>
<asrwt>0</asrwt>
<pdfrwt beam="1">  1       11 0.10000000E+01 0.18342820E+03</pdfrwt>
<pdfrwt beam="2">  1        2 0.12468113E-01 0.53339471E+02</pdfrwt>
<totfact> 0.55251324E+02</totfact>
</mgrwt>
</event>
<event>
 5    1  0.9955701E-004  0.5609676E+02  0.7818608E-02  0.1651785E+00
         11   -1    0    0    0    0  0.00000000000E+00  0.00000000000E+00  0.10002214568E+04  0.10002214568E+04  0.51100000000E-03 0. -1.
          2   -1    0    0  501    0 -0.00000000000E+00 -0.00000000000E+00 -0.74855032123E+01  0.74855036467E+01  0.25500000000E-02 0. -1.
         11    1    1    2    0    0 -0.13678171674E+02  0.52281874746E+02  0.11730946143E+03  0.12915880360E+03  0.51100000000E-03 0. -1.
         22    1    1    2    0    0  0.10933558633E+02  0.42535352617E+01  0.58595861640E+02  0.59758767289E+02  0.00000000000E+00 0.  1.
          2    1    1    2  501    0  0.27446130410E+01 -0.56535410008E+02  0.81683063048E+03  0.81878938951E+03  0.25500000000E-02 0. -1.
<mgrwt>
<rscale>  0 0.25653771E+02</rscale>
<asrwt>0</asrwt>
<pdfrwt beam="1">  1       11 0.10000000E+01 0.56096759E+02</pdfrwt>
<pdfrwt beam="2">  1        2 0.11518709E-02 0.25653771E+02</pdfrwt>
<totfact> 0.10027574E+04</totfact>
</mgrwt>
</event>
<event>
 5    1  0.9955701E-004  0.7988571E+02  0.7818608E-02  0.1409340E+00
         11   -1    0    0    0    0  0.00000000000E+00  0.00000000000E+00  0.99991664256E+03  0.99991664256E+03  0.51100000000E-03 0.  1.
          2   -1    0    0  501    0 -0.00000000000E+00 -0.00000000000E+00 -0.13150239838E+02  0.13150240085E+02  0.25500000000E-02 0.  1.
         11    1    1    2    0    0  0.66882819120E+02 -0.76606751763E+02  0.53979615653E+03  0.54929208670E+03  0.51100000000E-03 0.  1.
         22    1    1    2    0    0 -0.54622372726E+02  0.20591492025E+02  0.14322042677E+03  0.15465996182E+03  0.00000000000E+00 0.  1.
          2    1    1    2  501    0 -0.12260446394E+02  0.56015259738E+02  0.30374981942E+03  0.30911483412E+03  0.25500000000E-02 0.  1.
<mgrwt>
<rscale>  0 0.57341328E+02</rscale>
<asrwt>0</asrwt>
<pdfrwt beam="1">  1       11 0.10000000E+01 0.79885708E+02</pdfrwt>
<pdfrwt beam="2">  1        2 0.20229451E-02 0.57341328E+02</pdfrwt>
<totfact> 0.54999388E+03</totfact>
</mgrwt>
</event>
<event>
 5    1  0.9955701E-004  0.1188606E+03  0.7818608E-02  0.1454451E+00
         11   -1    0    0    0    0  0.00000000000E+00  0.00000000000E+00  0.99997712816E+03  0.99997712816E+03  0.51100000000E-03 0. -1.
         -2   -1    0    0    0  501 -0.00000000000E+00 -0.00000000000E+00 -0.65822582301E+02  0.65822582350E+02  0.25500000000E-02 0.  1.
         11    1    1    2    0    0  0.82465436053E+02  0.91853933676E+02  0.55254008230E+03  0.56616096282E+03  0.51100000000E-03 0. -1.
         22    1    1    2    0    0 -0.19321548529E+02  0.36732998147E+01 -0.49664313143E+02  0.53416845368E+02  0.00000000000E+00 0.  1.
         -2    1    1    2    0  501 -0.63143887523E+02 -0.95527233490E+02  0.43127877671E+03  0.44622190232E+03  0.25500000000E-02 0.  1.
<mgrwt>
<rscale>  0 0.48349819E+02</rscale>
<asrwt>0</asrwt>
<pdfrwt beam="1">  1       11 0.10000000E+01 0.11886058E+03</pdfrwt>
<pdfrwt beam="2">  1       -2 0.10126319E-01 0.48349819E+02</pdfrwt>
<totfact> 0.46531251E+02</totfact>
</mgrwt>
</event>
<event>
 5    1  0.9955701E-004  0.2617821E+03  0.7818608E-02  0.1370608E+00
         11   -1    0    0    0    0  0.00000000000E+00  0.00000000000E+00  0.10000767371E+04  0.10000767371E+04  0.51100000000E-03 0. -1.
          2   -1    0    0  501    0 -0.00000000000E+00 -0.00000000000E+00 -0.17290656481E+03  0.17290656483E+03  0.25500000000E-02 0. -1.
         11    1    1    2    0    0 -0.21139009110E+03 -0.15709721529E+03  0.85391941539E+03  0.89361270897E+03  0.51100000000E-03 0. -1.
         22    1    1    2    0    0  0.22261508966E+01  0.17001945889E+02 -0.21590704175E+02  0.27571369545E+02  0.00000000000E+00 0. -1.
          2    1    1    2  501    0  0.20916394020E+03  0.14009526940E+03 -0.51585389103E+01  0.25179922343E+03  0.25500000000E-02 0. -1.
<mgrwt>
<rscale>  0 0.66998471E+02</rscale>
<asrwt>0</asrwt>
<pdfrwt beam="1">  1       11 0.10000000E+01 0.26178209E+03</pdfrwt>
<pdfrwt beam="2">  1        2 0.26603050E-01 0.66998471E+02</pdfrwt>
<totfact> 0.24000459E+02</totfact>
</mgrwt>
</event>
<event>
 5    1  0.9955701E-004  0.4251224E+03  0.7818608E-02  0.1035412E+00
         11   -1    0    0    0    0  0.00000000000E+00  0.00000000000E+00  0.10013083423E+04  0.10013083423E+04  0.51100000000E-03 0.  1.
          2   -1    0    0  501    0 -0.00000000000E+00 -0.00000000000E+00 -0.14759545045E+04  0.14759545045E+04  0.25500000000E-02 0.  1.
         11    1    1    2    0    0 -0.76401316207E+01  0.96448706756E+02  0.17065675459E+03  0.19617454609E+03  0.51100000000E-03 0.  1.
         22    1    1    2    0    0  0.19260926606E+03  0.37534111233E+03 -0.13492756957E+04  0.14136916859E+04  0.00000000000E+00 0.  1.
          2    1    1    2  501    0 -0.18496913444E+03 -0.47178981908E+03  0.70397277881E+03  0.86739661482E+03  0.25500000000E-02 0.  1.
<mgrwt>
<rscale>  0 0.42512239E+03</rscale>
<asrwt>0</asrwt>
<pdfrwt beam="1">  1       11 0.10000000E+01 0.96750838E+02</pdfrwt>
<pdfrwt beam="2">  1        2 0.22736700E+00 0.42512239E+03</pdfrwt>
<totfact> 0.17024524E+01</totfact>
</mgrwt>
</event>
<event>
 5    1  0.9955701E-004  0.1497948E+03  0.7818608E-02  0.1367748E+00
         11   -1    0    0    0    0  0.00000000000E+00  0.00000000000E+00  0.10001561706E+04  0.10001561706E+04  0.51100000000E-03 0. -1.
         -2   -1    0    0    0  501 -0.00000000000E+00 -0.00000000000E+00 -0.64324634248E+02  0.64324634299E+02  0.25500000000E-02 0. -1.
         11    1    1    2    0    0  0.14086978518E+03  0.37883543586E+02  0.80158312662E+03  0.81474840787E+03  0.51100000000E-03 0. -1.
         22    1    1    2    0    0  0.28964664824E+02  0.10130555531E+02  0.52670324972E+01  0.31133929964E+02  0.00000000000E+00 0.  1.
         -2    1    1    2    0  501 -0.16983445000E+03 -0.48014099117E+02  0.12898137723E+03  0.21859846706E+03  0.25500000000E-02 0. -1.
<mgrwt>
<rscale>  0 0.67797350E+02</rscale>
<asrwt>0</asrwt>
<pdfrwt beam="1">  1       11 0.10000000E+01 0.14979483E+03</pdfrwt>
<pdfrwt beam="2">  1       -2 0.98976428E-02 0.67797350E+02</pdfrwt>
<totfact> 0.49489603E+02</totfact>
</mgrwt>
</event>
<event>
 5    1  0.9955701E-004  0.1631620E+03  0.7818608E-02  0.1434166E+00
         11   -1    0    0    0    0  0.00000000000E+00  0.00000000000E+00  0.10000139831E+04  0.10000139831E+04  0.51100000000E-03 0.  1.
          2   -1    0    0  501    0 -0.00000000000E+00 -0.00000000000E+00 -0.33048098475E+02  0.33048098574E+02  0.25500000000E-02 0.  1.
         11    1    1    2    0    0  0.32665338888E+02 -0.15764606303E+03  0.56084567444E+03  0.58349565216E+03  0.51100000000E-03 0.  1.
         22    1    1    2    0    0 -0.14505462707E+02 -0.81887383329E+01  0.92375769973E+01  0.19047223226E+02  0.00000000000E+00 0.  1.
          2    1    1    2  501    0 -0.18159876181E+02  0.16583480137E+03  0.39688263317E+03  0.43051920627E+03  0.25500000000E-02 0.  1.
<mgrwt>
<rscale>  0 0.52132811E+02</rscale>
<asrwt>0</asrwt>
<pdfrwt beam="1">  1       11 0.10000000E+01 0.16316201E+03</pdfrwt>
<pdfrwt beam="2">  1        2 0.50843938E-02 0.52132811E+02</pdfrwt>
<totfact> 0.16412283E+03</totfact>
</mgrwt>
</event>
<event>
 5    1  0.9955701E-004  0.1767528E+03  0.7818608E-02  0.1189601E+00
         11   -1    0    0    0    0  0.00000000000E+00  0.00000000000E+00  0.99980777895E+03  0.99980777895E+03  0.51100000000E-03 0.  1.
          2   -1    0    0  501    0 -0.00000000000E+00 -0.00000000000E+00 -0.55257765914E+03  0.55257765915E+03  0.25500000000E-02 0.  1.
         11    1    1    2    0    0  0.13508819436E+03  0.11196943340E+03 -0.12538979032E+03  0.21565846560E+03  0.51100000000E-03 0.  1.
         22    1    1    2    0    0 -0.19997591931E+02 -0.22196645463E+03 -0.34208107163E+03  0.40827499340E+03  0.00000000000E+00 0.  1.
          2    1    1    2  501    0 -0.11509060243E+03  0.10999702123E+03  0.91470098176E+03  0.92845197910E+03  0.25500000000E-02 0.  1.
<mgrwt>
<rscale>  0 0.15920173E+03</rscale>
<asrwt>0</asrwt>
<pdfrwt beam="1">  1       11 0.10000000E+01 0.17675283E+03</pdfrwt>
<pdfrwt beam="2">  1        2 0.84995604E-01 0.15920173E+03</pdfrwt>
<totfact> 0.69954965E+01</totfact>
</mgrwt>
</event>
<event>
 5    1  0.9955701E-004  0.9770749E+02  0.7818608E-02  0.1401115E+00
         11   -1    0    0    0    0  0.00000000000E+00  0.00000000000E+00  0.10000743453E+04  0.10000743453E+04  0.51100000000E-03 0.  1.
          2   -1    0    0  501    0 -0.00000000000E+00 -0.00000000000E+00 -0.15936066144E+02  0.15936066348E+02  0.25500000000E-02 0.  1.
         11    1    1    2    0    0 -0.77491916147E+02  0.60293012662E+02  0.25463884701E+03  0.27291241608E+03  0.51100000000E-03 0.  1.
         22    1    1    2    0    0  0.25954960467E+02  0.24799880328E+02  0.11132618493E+03  0.11697099422E+03  0.00000000000E+00 0.  1.
          2    1    1    2  501    0  0.51536955680E+02 -0.85092892991E+02  0.61817324718E+03  0.62612700131E+03  0.25500000000E-02 0.  1.
<mgrwt>
<rscale>  0 0.59224481E+02</rscale>
<asrwt>0</asrwt>
<pdfrwt beam="1">  1       11 0.10000000E+01 0.97707487E+02</pdfrwt>
<pdfrwt beam="2">  1        2 0.24518847E-02 0.59224481E+02</pdfrwt>
<totfact> 0.42829973E+03</totfact>
</mgrwt>
</event>
<event>
 5    1  0.9955701E-004  0.1926323E+03  0.7818608E-02  0.1334400E+00
         11   -1    0    0    0    0  0.00000000000E+00  0.00000000000E+00  0.10003535197E+04  0.10003535197E+04  0.51100000000E-03 0. -1.
          2   -1    0    0  501    0 -0.00000000000E+00 -0.00000000000E+00 -0.11430026648E+03  0.11430026651E+03  0.25500000000E-02 0. -1.
         11    1    1    2    0    0 -0.12754672464E+03 -0.13944135631E+03  0.82592528585E+03  0.84726892816E+03  0.51100000000E-03 0. -1.
         22    1    1    2    0    0 -0.14212239700E+02 -0.28336415447E+02 -0.15230479700E+02  0.35169698742E+02  0.00000000000E+00 0. -1.
          2    1    1    2  501    0  0.14175896434E+03  0.16777777176E+03  0.75358447073E+02  0.23221515932E+03  0.25500000000E-02 0. -1.
<mgrwt>
<rscale>  0 0.78144724E+02</rscale>
<asrwt>0</asrwt>
<pdfrwt beam="1">  1       11 0.10000000E+01 0.19263234E+03</pdfrwt>
<pdfrwt beam="2">  1        2 0.17590872E-01 0.78144724E+02</pdfrwt>
<totfact> 0.38029868E+02</totfact>
</mgrwt>
</event>
<event>
 5    1  0.9955701E-004  0.1057676E+03  0.7818608E-02  0.1319526E+00
         11   -1    0    0    0    0  0.00000000000E+00  0.00000000000E+00  0.99997837026E+03  0.99997837026E+03  0.51100000000E-03 0. -1.
          2   -1    0    0  501    0 -0.00000000000E+00 -0.00000000000E+00 -0.38479206126E+02  0.38479206211E+02  0.25500000000E-02 0. -1.
         11    1    1    2    0    0  0.96021990962E+02  0.21369846002E+02  0.59381588335E+03  0.60190879407E+03  0.51100000000E-03 0. -1.
         22    1    1    2    0    0  0.16424034778E+02  0.63766644078E+02  0.33623354533E+02  0.73935538041E+02  0.00000000000E+00 0.  1.
          2    1    1    2  501    0 -0.11244602574E+03 -0.85136490080E+02  0.33405992625E+03  0.36261324436E+03  0.25500000000E-02 0. -1.
<mgrwt>
<rscale>  0 0.83453954E+02</rscale>
<asrwt>0</asrwt>
<pdfrwt beam="1">  1       11 0.10000000E+01 0.10576757E+03</pdfrwt>
<pdfrwt beam="2">  1        2 0.59197497E-02 0.83453954E+02</pdfrwt>
<totfact> 0.14153195E+03</totfact>
</mgrwt>
</event>
<event>
 5    1  0.9955701E-004  0.2449227E+03  0.7818608E-02  0.1116556E+00
         11   -1    0    0    0    0  0.00000000000E+00  0.00000000000E+00  0.10001380926E+04  0.10001380926E+04  0.51100000000E-03 0. -1.
          2   -1    0    0  501    0 -0.00000000000E+00 -0.00000000000E+00 -0.26027251546E+03  0.26027251547E+03  0.25500000000E-02 0. -1.
         11    1    1    2    0    0  0.22328419736E+03 -0.88742017044E+02  0.92352992857E+03  0.95427381152E+03  0.51100000000E-03 0. -1.
         22    1    1    2    0    0 -0.11592097473E+02  0.10126056617E+01 -0.24529413588E+02  0.27149479277E+02  0.00000000000E+00 0. -1.
          2    1    1    2  501    0 -0.21169209989E+03  0.87729411382E+02 -0.15913493781E+03  0.27898731730E+03  0.25500000000E-02 0. -1.
<mgrwt>
<rscale>  0 0.24492273E+03</rscale>
<asrwt>0</asrwt>
<pdfrwt beam="1">  1       11 0.10000000E+01 0.24027272E+03</pdfrwt>
<pdfrwt beam="2">  1        2 0.40047454E-01 0.24492273E+03</pdfrwt>
<totfact> 0.15816083E+02</totfact>
</mgrwt>
</event>
<event>
 5    1  0.9955701E-004  0.1575760E+03  0.7818608E-02  0.1345505E+00
         11   -1    0    0    0    0  0.00000000000E+00  0.00000000000E+00  0.99999445252E+03  0.99999445252E+03  0.51100000000E-03 0.  1.
         -2   -1    0    0    0  501 -0.00000000000E+00 -0.00000000000E+00 -0.38221622747E+02  0.38221622832E+02  0.25500000000E-02 0. -1.
         11    1    1    2    0    0  0.10020722007E+03  0.11780435479E+03  0.55262854409E+03  0.57386205721E+03  0.51100000000E-03 0.  1.
         22    1    1    2    0    0 -0.22565036181E+02  0.27014631251E+02  0.16826670235E+02  0.39014202422E+02  0.00000000000E+00 0.  1.
         -2    1    1    2    0  501 -0.77642183894E+02 -0.14481898604E+03  0.39231761545E+03  0.42533981572E+03  0.25500000000E-02 0. -1.
<mgrwt>
<rscale>  0 0.74474978E+02</rscale>
<asrwt>0</asrwt>
<pdfrwt beam="1">  1       11 0.10000000E+01 0.15757604E+03</pdfrwt>
<pdfrwt beam="2">  1       -2 0.58802169E-02 0.74474978E+02</pdfrwt>
<totfact> 0.10973620E+03</totfact>
</mgrwt>
</event>
<event>
 5    1  0.9955701E-004  0.7019619E+02  0.7818608E-02  0.1613426E+00
         11   -1    0    0    0    0  0.00000000000E+00  0.00000000000E+00  0.10002557583E+04  0.10002557583E+04  0.51100000000E-03 0. -1.
          2   -1    0    0  501    0 -0.00000000000E+00 -0.00000000000E+00 -0.84615327562E+01  0.84615331404E+01  0.25500000000E-02 0. -1.
         11    1    1    2    0    0 -0.47488713754E+02  0.48221676953E+02  0.26760408716E+03  0.27602980913E+03  0.51100000000E-03 0. -1.
         22    1    1    2    0    0 -0.10132506730E+02 -0.58479618782E+01  0.11457451984E+02  0.16374967381E+02  0.00000000000E+00 0.  1.
          2    1    1    2  501    0  0.57621220483E+02 -0.42373715075E+02  0.71273268644E+03  0.71631251497E+03  0.25500000000E-02 0. -1.
<mgrwt>
<rscale>  0 0.28657007E+02</rscale>
<asrwt>0</asrwt>
<pdfrwt beam="1">  1       11 0.10000000E+01 0.70196187E+02</pdfrwt>
<pdfrwt beam="2">  1        2 0.13021072E-02 0.28657007E+02</pdfrwt>
<totfact> 0.87389261E+03</totfact>
</mgrwt>
</event>
<event>
 5    1  0.9955701E-004  0.9179443E+02  0.7818608E-02  0.1298563E+00
         11   -1    0    0    0    0  0.00000000000E+00  0.00000000000E+00  0.10001169682E+04  0.10001169682E+04  0.51100000000E-03 0. -1.
          2   -1    0    0  501    0 -0.00000000000E+00 -0.00000000000E+00 -0.11777183329E+02  0.11777183605E+02  0.25500000000E-02 0. -1.
         11    1    1    2    0    0  0.64857818434E+02 -0.76873733532E+02  0.37649900562E+03  0.38970194861E+03  0.51100000000E-03 0. -1.
         22    1    1    2    0    0 -0.29950681443E+02  0.15769163518E+01  0.15563894203E+03  0.15850239828E+03  0.00000000000E+00 0. -1.
          2    1    1    2  501    0 -0.34907136991E+02  0.75296817180E+02  0.45620183719E+03  0.46368980488E+03  0.25500000000E-02 0. -1.
<mgrwt>
<rscale>  0 0.91794433E+02</rscale>
<asrwt>0</asrwt>
<pdfrwt beam="1">  1       11 0.10000000E+01 0.29992165E+02</pdfrwt>
<pdfrwt beam="2">  1        2 0.18120863E-02 0.91794433E+02</pdfrwt>
<totfact> 0.68048841E+03</totfact>
</mgrwt>
</event>
<event>
 5    1  0.9955701E-004  0.4872684E+03  0.7818608E-02  0.1266654E+00
         11   -1    0    0    0    0  0.00000000000E+00  0.00000000000E+00  0.10004233128E+04  0.10004233128E+04  0.51100000000E-03 0. -1.
          2   -1    0    0  501    0 -0.00000000000E+00 -0.00000000000E+00 -0.10111853745E+04  0.10111853745E+04  0.25500000000E-02 0. -1.
         11    1    1    2    0    0  0.48404301005E+03  0.43279617726E+02  0.86151549427E+03  0.98913078395E+03  0.51100000000E-03 0. -1.
         22    1    1    2    0    0  0.17620404996E+02  0.15396348963E+02 -0.76007023409E+02  0.79527315063E+02  0.00000000000E+00 0.  1.
          2    1    1    2  501    0 -0.50166341505E+03 -0.58675966689E+02 -0.79627053249E+03  0.94295058831E+03  0.25500000000E-02 0. -1.
<mgrwt>
<rscale>  0 0.10677888E+03</rscale>
<asrwt>0</asrwt>
<pdfrwt beam="1">  1       11 0.10000000E+01 0.48726840E+03</pdfrwt>
<pdfrwt beam="2">  1        2 0.15563283E+00 0.10677888E+03</pdfrwt>
<totfact> 0.33844139E+01</totfact>
</mgrwt>
</event>
<event>
 5    1  0.9955701E-004  0.7805751E+02  0.7818608E-02  0.1491134E+00
         11   -1    0    0    0    0  0.00000000000E+00  0.00000000000E+00  0.10000494550E+04  0.10000494550E+04  0.51100000000E-03 0. -1.
          2   -1    0    0  501    0 -0.00000000000E+00 -0.00000000000E+00 -0.12276000588E+02  0.12276000853E+02  0.25500000000E-02 0. -1.
         11    1    1    2    0    0  0.48040728105E+02  0.55044258673E+02  0.33549253463E+03  0.34335553405E+03  0.51100000000E-03 0. -1.
         22    1    1    2    0    0  0.20946539834E+02 -0.96226605326E+01  0.17769802217E+02  0.29105308752E+02  0.00000000000E+00 0. -1.
          2    1    1    2  501    0 -0.68987267939E+02 -0.45421598140E+02  0.63451111753E+03  0.63986461302E+03  0.25500000000E-02 0. -1.
<mgrwt>
<rscale>  0 0.42418278E+02</rscale>
<asrwt>0</asrwt>
<pdfrwt beam="1">  1       11 0.10000000E+01 0.78057506E+02</pdfrwt>
<pdfrwt beam="2">  1        2 0.18887088E-02 0.42418278E+02</pdfrwt>
<totfact> 0.57527646E+03</totfact>
</mgrwt>
</event>
<event>
 5    1  0.9955701E-004  0.7656104E+02  0.7818608E-02  0.1552654E+00
         11   -1    0    0    0    0  0.00000000000E+00  0.00000000000E+00  0.10005463660E+04  0.10005463660E+04  0.51100000000E-03 0.  1.
          2   -1    0    0  501    0 -0.00000000000E+00 -0.00000000000E+00 -0.88846328500E+01  0.88846332159E+01  0.25500000000E-02 0.  1.
         11    1    1    2    0    0 -0.81619483085E+02 -0.26739042665E+02  0.46116611104E+03  0.46909583072E+03  0.51100000000E-03 0.  1.
         22    1    1    2    0    0  0.15539285534E+02  0.12502790714E+01  0.22188995159E+02  0.27117966348E+02  0.00000000000E+00 0. -1.
          2    1    1    2  501    0  0.66080197551E+02  0.25488763593E+02  0.50830662694E+03  0.51321720215E+03  0.25500000000E-02 0.  1.
<mgrwt>
<rscale>  0 0.34547764E+02</rscale>
<asrwt>0</asrwt>
<pdfrwt beam="1">  1       11 0.10000000E+01 0.76561043E+02</pdfrwt>
<pdfrwt beam="2">  1        2 0.13676134E-02 0.34547764E+02</pdfrwt>
<totfact> 0.84928913E+03</totfact>
</mgrwt>
</event>
<event>
 5    1  0.9955701E-004  0.4659612E+02  0.7818608E-02  0.1580984E+00
         11   -1    0    0    0    0  0.00000000000E+00  0.00000000000E+00  0.10001849241E+04  0.10001849241E+04  0.51100000000E-03 0.  1.
          2   -1    0    0  501    0 -0.00000000000E+00 -0.00000000000E+00 -0.10715710458E+02  0.10715710761E+02  0.25500000000E-02 0.  1.
         11    1    1    2    0    0  0.39474635243E+02  0.35335903492E+02  0.95528142138E+02  0.10923597779E+03  0.51100000000E-03 0.  1.
         22    1    1    2    0    0 -0.46508840850E+02 -0.45223635578E+01  0.15130529413E+03  0.15835661047E+03  0.00000000000E+00 0.  1.
          2    1    1    2  501    0  0.70342056069E+01 -0.30813539934E+02  0.74263577733E+03  0.74330804656E+03  0.25500000000E-02 0.  1.
<mgrwt>
<rscale>  0 0.31606238E+02</rscale>
<asrwt>0</asrwt>
<pdfrwt beam="1">  1       11 0.10000000E+01 0.46596116E+02</pdfrwt>
<pdfrwt beam="2">  1        2 0.16488757E-02 0.31606238E+02</pdfrwt>
<totfact> 0.65382145E+03</totfact>
</mgrwt>
</event>
<event>
 5    1  0.9955701E-004  0.1657777E+03  0.7818608E-02  0.1263999E+00
         11   -1    0    0    0    0  0.00000000000E+00  0.00000000000E+00  0.10002237406E+04  0.10002237406E+04  0.51100000000E-03 0. -1.
         -2   -1    0    0    0  501 -0.00000000000E+00 -0.00000000000E+00 -0.16945787674E+03  0.16945787676E+03  0.25500000000E-02 0.  1.
         11    1    1    2    0    0  0.12621720178E+03  0.12312123828E+03  0.87263125717E+03  0.89026677593E+03  0.51100000000E-03 0. -1.
         22    1    1    2    0    0 -0.10501331803E+02 -0.69794070868E+02 -0.11319378201E+03  0.13339536193E+03  0.00000000000E+00 0.  1.
         -2    1    1    2    0  501 -0.11571586997E+03 -0.53327167407E+02  0.71328388667E+02  0.14601947947E+03  0.25500000000E-02 0.  1.
<mgrwt>
<rscale>  0 0.10816900E+03</rscale>
<asrwt>0</asrwt>
<pdfrwt beam="1">  1       11 0.10000000E+01 0.16577766E+03</pdfrwt>
<pdfrwt beam="2">  1       -2 0.26076275E-01 0.10816900E+03</pdfrwt>
<totfact> 0.10408359E+02</totfact>
</mgrwt>
</event>
<event>
 5    1  0.9955701E-004  0.3750254E+02  0.7818608E-02  0.1570243E+00
         11   -1    0    0    0    0  0.00000000000E+00  0.00000000000E+00  0.10004849548E+04  0.10004849548E+04  0.51100000000E-03 0. -1.
          2   -1    0    0  501    0 -0.00000000000E+00 -0.00000000000E+00 -0.63245477785E+01  0.63245482925E+01  0.25500000000E-02 0. -1.
         11    1    1    2    0    0  0.31664019286E+02 -0.49022239437E+02  0.21448874241E+03  0.22228632594E+03  0.51100000000E-03 0. -1.
         22    1    1    2    0    0 -0.24623892624E+02  0.14298264897E+02  0.10126909603E+03  0.10519603736E+03  0.00000000000E+00 0. -1.
          2    1    1    2  501    0 -0.70401266623E+01  0.34723974540E+02  0.67840256855E+03  0.67932713976E+03  0.25500000000E-02 0. -1.
<mgrwt>
<rscale>  0 0.32678005E+02</rscale>
<asrwt>0</asrwt>
<pdfrwt beam="1">  1       11 0.10000000E+01 0.37502544E+02</pdfrwt>
<pdfrwt beam="2">  1        2 0.97347923E-03 0.32678005E+02</pdfrwt>
<totfact> 0.13156143E+04</totfact>
</mgrwt>
</event>
<event>
 5    1  0.9955701E-004  0.9980806E+02  0.7818608E-02  0.1415619E+00
         11   -1    0    0    0    0  0.00000000000E+00  0.00000000000E+00  0.10000973731E+04  0.10000973731E+04  0.51100000000E-03 0.  1.
          2   -1    0    0  501    0 -0.00000000000E+00 -0.00000000000E+00 -0.17508821046E+02  0.17508821231E+02  0.25500000000E-02 0.  1.
         11    1    1    2    0    0  0.35440394116E+01  0.11400954366E+03  0.66241456845E+03  0.67216351935E+03  0.51100000000E-03 0.  1.
         22    1    1    2    0    0 -0.41484543384E+01 -0.31098554268E+02  0.29106572947E+02  0.42796288854E+02  0.00000000000E+00 0.  1.
          2    1    1    2  501    0  0.60441492685E+00 -0.82910989388E+02  0.29106741068E+03  0.30264638615E+03  0.25500000000E-02 0.  1.
<mgrwt>
<rscale>  0 0.55958745E+02</rscale>
<asrwt>0</asrwt>
<pdfrwt beam="1">  1       11 0.10000000E+01 0.99808062E+02</pdfrwt>
<pdfrwt beam="2">  1        2 0.26939270E-02 0.55958745E+02</pdfrwt>
<totfact> 0.37552478E+03</totfact>
</mgrwt>
</event>
<event>
 5    1  0.9955701E-004  0.1415297E+03  0.7818608E-02  0.1454350E+00
         11   -1    0    0    0    0  0.00000000000E+00  0.00000000000E+00  0.99997322976E+03  0.99997322976E+03  0.51100000000E-03 0. -1.
          2   -1    0    0  501    0 -0.00000000000E+00 -0.00000000000E+00 -0.31680002488E+02  0.31680002591E+02  0.25500000000E-02 0.  1.
         11    1    1    2    0    0  0.10140992967E+03 -0.10781320942E+03  0.64921893649E+03  0.66587753338E+03  0.51100000000E-03 0. -1.
         22    1    1    2    0    0 -0.11997490734E+02  0.11370568751E+02 -0.39592451002E+01  0.16997212695E+02  0.00000000000E+00 0.  1.
          2    1    1    2  501    0 -0.89412438940E+02  0.96442640674E+02  0.32303353588E+03  0.34877848627E+03  0.25500000000E-02 0.  1.
<mgrwt>
<rscale>  0 0.48367741E+02</rscale>
<asrwt>0</asrwt>
<pdfrwt beam="1">  1       11 0.10000000E+01 0.14152974E+03</pdfrwt>
<pdfrwt beam="2">  1        2 0.48737159E-02 0.48367741E+02</pdfrwt>
<totfact> 0.17174864E+03</totfact>
</mgrwt>
</event>
<event>
 5    1  0.9955701E-004  0.4062970E+02  0.7818608E-02  0.1598766E+00
         11   -1    0    0    0    0  0.00000000000E+00  0.00000000000E+00  0.10001400041E+04  0.10001400041E+04  0.51100000000E-03 0. -1.
          2   -1    0    0  501    0 -0.00000000000E+00 -0.00000000000E+00 -0.94067220296E+01  0.94067223753E+01  0.25500000000E-02 0. -1.
         11    1    1    2    0    0 -0.38320552776E+02 -0.31869716766E+02  0.75599985199E+02  0.90551098139E+02  0.51100000000E-03 0. -1.
         22    1    1    2    0    0  0.21533418562E+02 -0.47959899930E+01  0.82878111871E+02  0.85764042945E+02  0.00000000000E+00 0. -1.
          2    1    1    2  501    0  0.16787134214E+02  0.36665706759E+02  0.83225518502E+03  0.83323158541E+03  0.25500000000E-02 0. -1.
<mgrwt>
<rscale>  0 0.29938823E+02</rscale>
<asrwt>0</asrwt>
<pdfrwt beam="1">  1       11 0.10000000E+01 0.40629701E+02</pdfrwt>
<pdfrwt beam="2">  1        2 0.14473906E-02 0.29938823E+02</pdfrwt>
<totfact> 0.76749744E+03</totfact>
</mgrwt>
</event>
<event>
 5    1  0.9955701E-004  0.1217883E+03  0.7818608E-02  0.1243041E+00
         11   -1    0    0    0    0  0.00000000000E+00  0.00000000000E+00  0.99991593539E+03  0.99991593539E+03  0.51100000000E-03 0. -1.
          2   -1    0    0  501    0 -0.00000000000E+00 -0.00000000000E+00 -0.15054732685E+02  0.15054732901E+02  0.25500000000E-02 0. -1.
         11    1    1    2    0    0  0.18357500143E+01  0.14563816067E+02  0.36494506404E+02  0.39336035825E+02  0.51100000000E-03 0. -1.
         22    1    1    2    0    0 -0.29735431759E+02  0.10218262640E+03  0.37324103715E+03  0.38811642177E+03  0.00000000000E+00 0. -1.
          2    1    1    2  501    0  0.27899681745E+02 -0.11674644247E+03  0.57512565915E+03  0.58751821069E+03  0.25500000000E-02 0. -1.
<mgrwt>
<rscale>  0 0.12003385E+03</rscale>
<asrwt>0</asrwt>
<pdfrwt beam="1">  1       11 0.10000000E+01 0.12178829E+03</pdfrwt>
<pdfrwt beam="2">  1        2 0.23159180E-02 0.12003385E+03</pdfrwt>
<totfact> 0.50474049E+03</totfact>
</mgrwt>
</event>
<event>
 5    1  0.9955701E-004  0.4062455E+03  0.7818608E-02  0.1347993E+00
         11   -1    0    0    0    0  0.00000000000E+00  0.00000000000E+00  0.10000279418E+04  0.10000279418E+04  0.51100000000E-03 0. -1.
          2   -1    0    0  501    0 -0.00000000000E+00 -0.00000000000E+00 -0.17828058374E+03  0.17828058376E+03  0.25500000000E-02 0. -1.
         11    1    1    2    0    0  0.18065303208E+03 -0.36893361559E+03  0.52278113134E+03  0.66486663474E+03  0.51100000000E-03 0. -1.
         22    1    1    2    0    0 -0.11685942518E+02  0.64854712823E+01 -0.12070326610E+01  0.13419371004E+02  0.00000000000E+00 0. -1.
          2    1    1    2  501    0 -0.16896708957E+03  0.36244814430E+03  0.30017325938E+03  0.50002251981E+03  0.25500000000E-02 0. -1.
<mgrwt>
<rscale>  0 0.73684879E+02</rscale>
<asrwt>0</asrwt>
<pdfrwt beam="1">  1       11 0.10000000E+01 0.40624549E+03</pdfrwt>
<pdfrwt beam="2">  1        2 0.27428548E-01 0.73684879E+02</pdfrwt>
<totfact> 0.23293305E+02</totfact>
</mgrwt>
</event>
<event>
 5    1  0.9955701E-004  0.8620159E+02  0.7818608E-02  0.1312320E+00
         11   -1    0    0    0    0  0.00000000000E+00  0.00000000000E+00  0.10001020114E+04  0.10001020114E+04  0.51100000000E-03 0.  1.
          2   -1    0    0  501    0 -0.00000000000E+00 -0.00000000000E+00 -0.16880672664E+02  0.16880672857E+02  0.25500000000E-02 0.  1.
         11    1    1    2    0    0 -0.25512289847E+02 -0.10010894476E+02  0.23254431423E+02  0.35942503008E+02  0.51100000000E-03 0.  1.
         22    1    1    2    0    0  0.70958391698E+02 -0.54503267244E+02  0.22953007939E+03  0.24635291116E+03  0.00000000000E+00 0.  1.
          2    1    1    2  501    0 -0.45446101851E+02  0.64514161720E+02  0.73043682796E+03  0.73468727013E+03  0.25500000000E-02 0.  1.
<mgrwt>
<rscale>  0 0.86201590E+02</rscale>
<asrwt>0</asrwt>
<pdfrwt beam="1">  1       11 0.10000000E+01 0.27406125E+02</pdfrwt>
<pdfrwt beam="2">  1        2 0.25972914E-02 0.86201590E+02</pdfrwt>
<totfact> 0.41616094E+03</totfact>
</mgrwt>
</event>
<event>
 5    1  0.9955701E-004  0.2296788E+03  0.7818608E-02  0.1274151E+00
         11   -1    0    0    0    0  0.00000000000E+00  0.00000000000E+00  0.10004281778E+04  0.10004281778E+04  0.51100000000E-03 0. -1.
          2   -1    0    0  501    0 -0.00000000000E+00 -0.00000000000E+00 -0.12736195770E+03  0.12736195772E+03  0.25500000000E-02 0. -1.
         11    1    1    2    0    0 -0.31203750531E+02  0.23752675264E+03  0.81592251913E+03  0.85036591505E+03  0.51100000000E-03 0. -1.
         22    1    1    2    0    0  0.16753984601E+02 -0.43025828011E+02 -0.38574267713E+02  0.60165538356E+02  0.00000000000E+00 0. -1.
          2    1    1    2  501    0  0.14449765930E+02 -0.19450092462E+03  0.95717968683E+02  0.21725868211E+03  0.25500000000E-02 0. -1.
<mgrwt>
<rscale>  0 0.10298005E+03</rscale>
<asrwt>0</asrwt>
<pdfrwt beam="1">  1       11 0.10000000E+01 0.22967884E+03</pdfrwt>
<pdfrwt beam="2">  1        2 0.19602537E-01 0.10298005E+03</pdfrwt>
<totfact> 0.34039014E+02</totfact>
</mgrwt>
</event>
<event>
 5    1  0.9955701E-004  0.1748835E+03  0.7818608E-02  0.1407125E+00
         11   -1    0    0    0    0  0.00000000000E+00  0.00000000000E+00  0.10004303135E+04  0.10004303135E+04  0.51100000000E-03 0. -1.
         -2   -1    0    0    0  501 -0.00000000000E+00 -0.00000000000E+00 -0.10388945762E+03  0.10388945765E+03  0.25500000000E-02 0.  1.
         11    1    1    2    0    0  0.15755795902E+03  0.78873611486E+02  0.88977415012E+03  0.90705214583E+03  0.51100000000E-03 0. -1.
         22    1    1    2    0    0 -0.39251289803E+01 -0.18722918408E+02 -0.22681732935E+02  0.29671793342E+02  0.00000000000E+00 0. -1.
         -2    1    1    2    0  501 -0.15363283004E+03 -0.60150693078E+02  0.29448438682E+02  0.16759583196E+03  0.25500000000E-02 0.  1.
<mgrwt>
<rscale>  0 0.57840387E+02</rscale>
<asrwt>0</asrwt>
<pdfrwt beam="1">  1       11 0.10000000E+01 0.17488355E+03</pdfrwt>
<pdfrwt beam="2">  1       -2 0.15989871E-01 0.57840387E+02</pdfrwt>
<totfact> 0.23026806E+02</totfact>
</mgrwt>
</event>
<event>
 5    1  0.9955701E-004  0.5254184E+02  0.7818608E-02  0.1651922E+00
         11   -1    0    0    0    0  0.00000000000E+00  0.00000000000E+00  0.10004127270E+04  0.10004127270E+04  0.51100000000E-03 0. -1.
          2   -1    0    0  501    0 -0.00000000000E+00 -0.00000000000E+00 -0.25577518310E+02  0.25577518437E+02  0.25500000000E-02 0. -1.
         11    1    1    2    0    0  0.38427729051E+02 -0.40779472482E+02  0.19882215070E+03  0.20656694640E+03  0.51100000000E-03 0. -1.
         22    1    1    2    0    0 -0.30795880313E+02  0.16297560788E+02 -0.73759995361E+01  0.35614633243E+02  0.00000000000E+00 0. -1.
          2    1    1    2  501    0 -0.76318487376E+01  0.24481911694E+02  0.78338905749E+03  0.78380866576E+03  0.25500000000E-02 0. -1.
<mgrwt>
<rscale>  0 0.25643891E+02</rscale>
<asrwt>0</asrwt>
<pdfrwt beam="1">  1       11 0.10000000E+01 0.52541838E+02</pdfrwt>
<pdfrwt beam="2">  1        2 0.39366268E-02 0.25643891E+02</pdfrwt>
<totfact> 0.20751624E+03</totfact>
</mgrwt>
</event>
<event>
 5    1  0.9955701E-004  0.2506346E+03  0.7818608E-02  0.1431227E+00
         11   -1    0    0    0    0  0.00000000000E+00  0.00000000000E+00  0.10000795459E+04  0.10000795459E+04  0.51100000000E-03 0. -1.
          2   -1    0    0  501    0 -0.00000000000E+00 -0.00000000000E+00 -0.11757547327E+03  0.11757547330E+03  0.25500000000E-02 0. -1.
         11    1    1    2    0    0  0.21971453430E+03  0.11941486824E+03  0.62845720338E+03  0.67638217290E+03  0.51100000000E-03 0. -1.
         22    1    1    2    0    0  0.66142659782E+01 -0.88981270001E+01 -0.47268883421E+02  0.48551750931E+02  0.00000000000E+00 0. -1.
          2    1    1    2  501    0 -0.22632880028E+03 -0.11051674124E+03  0.30131575262E+03  0.39272109533E+03  0.25500000000E-02 0. -1.
<mgrwt>
<rscale>  0 0.52714575E+02</rscale>
<asrwt>0</asrwt>
<pdfrwt beam="1">  1       11 0.10000000E+01 0.25063458E+03</pdfrwt>
<pdfrwt beam="2">  1        2 0.18089973E-01 0.52714575E+02</pdfrwt>
<totfact> 0.36188484E+02</totfact>
</mgrwt>
</event>
<event>
 5    1  0.9955701E-004  0.1811399E+03  0.7818608E-02  0.1186939E+00
         11   -1    0    0    0    0  0.00000000000E+00  0.00000000000E+00  0.10001193049E+04  0.10001193049E+04  0.51100000000E-03 0.  1.
          2   -1    0    0  501    0 -0.00000000000E+00 -0.00000000000E+00 -0.15927166865E+03  0.15927166867E+03  0.25500000000E-02 0.  1.
         11    1    1    2    0    0  0.16153167101E+03  0.98533002124E+02  0.81433628555E+03  0.83602919759E+03  0.51100000000E-03 0.  1.
         22    1    1    2    0    0 -0.12412231965E+03  0.73218652063E+02 -0.75796611499E+01  0.14430790868E+03  0.00000000000E+00 0. -1.
          2    1    1    2  501    0 -0.37409351362E+02 -0.17175165419E+03  0.34091011803E+02  0.17905386725E+03  0.25500000000E-02 0.  1.
<mgrwt>
<rscale>  0 0.16156684E+03</rscale>
<asrwt>0</asrwt>
<pdfrwt beam="1">  1       11 0.10000000E+01 0.18113994E+03</pdfrwt>
<pdfrwt beam="2">  1        2 0.24506256E-01 0.16156684E+03</pdfrwt>
<totfact> 0.26890179E+02</totfact>
</mgrwt>
</event>
<event>
 5    1  0.9955701E-004  0.8449350E+02  0.7818608E-02  0.1584990E+00
         11   -1    0    0    0    0  0.00000000000E+00  0.00000000000E+00  0.10001186100E+04  0.10001186100E+04  0.51100000000E-03 0.  1.
          2   -1    0    0  501    0 -0.00000000000E+00 -0.00000000000E+00 -0.10336088827E+02  0.10336089142E+02  0.25500000000E-02 0.  1.
         11    1    1    2    0    0  0.80901776326E+02 -0.44641489291E+02  0.32280682737E+03  0.33577106453E+03  0.51100000000E-03 0.  1.
         22    1    1    2    0    0 -0.81579433514E+01  0.81551229468E+01  0.24562309324E+02  0.27136048152E+02  0.00000000000E+00 0. -1.
          2    1    1    2  501    0 -0.72743832975E+02  0.36486366344E+02  0.64241338446E+03  0.64754758644E+03  0.25500000000E-02 0.  1.
<mgrwt>
<rscale>  0 0.31219205E+02</rscale>
<asrwt>0</asrwt>
<pdfrwt beam="1">  1       11 0.10000000E+01 0.84493499E+02</pdfrwt>
<pdfrwt beam="2">  1        2 0.15903561E-02 0.31219205E+02</pdfrwt>
<totfact> 0.68389254E+03</totfact>
</mgrwt>
</event>
<event>
 5    1  0.9955701E-004  0.3331317E+03  0.7818608E-02  0.1200666E+00
         11   -1    0    0    0    0  0.00000000000E+00  0.00000000000E+00  0.10005874743E+04  0.10005874743E+04  0.51100000000E-03 0. -1.
         -2   -1    0    0    0  501 -0.00000000000E+00 -0.00000000000E+00 -0.40695110587E+03  0.40695110588E+03  0.25500000000E-02 0.  1.
         11    1    1    2    0    0  0.21967682722E+03 -0.25629133541E+03  0.83266265128E+03  0.89848219117E+03  0.51100000000E-03 0. -1.
         22    1    1    2    0    0 -0.65538987249E+02 -0.15727450862E+02 -0.17822691709E+03  0.19054538970E+03  0.00000000000E+00 0. -1.
         -2    1    1    2    0  501 -0.15413783997E+03  0.27201878627E+03 -0.60799365762E+02  0.31851099930E+03  0.25500000000E-02 0.  1.
<mgrwt>
<rscale>  0 0.14984311E+03</rscale>
<asrwt>0</asrwt>
<pdfrwt beam="1">  1       11 0.10000000E+01 0.33313173E+03</pdfrwt>
<pdfrwt beam="2">  1       -2 0.62644641E-01 0.14984311E+03</pdfrwt>
<totfact> 0.19731827E+01</totfact>
</mgrwt>
</event>
<event>
 5    1  0.9955701E-004  0.8456437E+02  0.7818608E-02  0.1508607E+00
         11   -1    0    0    0    0  0.00000000000E+00  0.00000000000E+00  0.10001530120E+04  0.10001530120E+04  0.51100000000E-03 0.  1.
          2   -1    0    0  501    0 -0.00000000000E+00 -0.00000000000E+00 -0.16265655983E+02  0.16265656183E+02  0.25500000000E-02 0.  1.
         11    1    1    2    0    0  0.30122968736E+02  0.77814777436E+02  0.13301514761E+03  0.15702089774E+03  0.51100000000E-03 0.  1.
         22    1    1    2    0    0  0.17426394753E+02 -0.72380903432E+01  0.41793739039E+02  0.45856142542E+02  0.00000000000E+00 0. -1.
          2    1    1    2  501    0 -0.47549363489E+02 -0.70576687093E+02  0.80907846937E+03  0.81354162790E+03  0.25500000000E-02 0.  1.
<mgrwt>
<rscale>  0 0.39946359E+02</rscale>
<asrwt>0</asrwt>
<pdfrwt beam="1">  1       11 0.10000000E+01 0.84564370E+02</pdfrwt>
<pdfrwt beam="2">  1        2 0.25027915E-02 0.39946359E+02</pdfrwt>
<totfact> 0.39436001E+03</totfact>
</mgrwt>
</event>
<event>
 5    1  0.9955701E-004  0.8116982E+02  0.7818608E-02  0.1325764E+00
         11   -1    0    0    0    0  0.00000000000E+00  0.00000000000E+00  0.10001797772E+04  0.10001797772E+04  0.51100000000E-03 0.  1.
         -2   -1    0    0    0  501 -0.00000000000E+00 -0.00000000000E+00 -0.21394917388E+02  0.21394917540E+02  0.25500000000E-02 0.  1.
         11    1    1    2    0    0 -0.81670327262E+00  0.32381488234E+02  0.18055443583E+03  0.18343699758E+03  0.51100000000E-03 0.  1.
         22    1    1    2    0    0  0.51987322134E+02  0.58659475841E+02  0.78720712701E+02  0.11108810187E+03  0.00000000000E+00 0.  1.
         -2    1    1    2    0  501 -0.51170618861E+02 -0.91040964075E+02  0.71950971126E+03  0.72704959527E+03  0.25500000000E-02 0.  1.
<mgrwt>
<rscale>  0 0.81169819E+02</rscale>
<asrwt>0</asrwt>
<pdfrwt beam="1">  1       11 0.10000000E+01 0.32391786E+02</pdfrwt>
<pdfrwt beam="2">  1       -2 0.32921174E-02 0.81169819E+02</pdfrwt>
<totfact> 0.25990156E+03</totfact>
</mgrwt>
</event>
<event>
 5    1  0.9955701E-004  0.1431312E+03  0.7818608E-02  0.1266936E+00
         11   -1    0    0    0    0  0.00000000000E+00  0.00000000000E+00  0.10000118063E+04  0.10000118063E+04  0.51100000000E-03 0. -1.
          2   -1    0    0  501    0 -0.00000000000E+00 -0.00000000000E+00 -0.16828440859E+03  0.16828440861E+03  0.25500000000E-02 0. -1.
         11    1    1    2    0    0 -0.12875336400E+03 -0.77313163803E+02  0.88769479004E+03  0.90030927702E+03  0.51100000000E-03 0. -1.
         22    1    1    2    0    0  0.74743175683E+02 -0.26913852820E+02 -0.11247802031E+03  0.13770331455E+03  0.00000000000E+00 0. -1.
          2    1    1    2  501    0  0.54010188316E+02  0.10422701662E+03  0.56510628015E+02  0.13028362338E+03  0.25500000000E-02 0. -1.
<mgrwt>
<rscale>  0 0.10663258E+03</rscale>
<asrwt>0</asrwt>
<pdfrwt beam="1">  1       11 0.10000000E+01 0.14313117E+03</pdfrwt>
<pdfrwt beam="2">  1        2 0.25890214E-01 0.10663258E+03</pdfrwt>
<totfact> 0.25045240E+02</totfact>
</mgrwt>
</event>
<event>
 5    1  0.9955701E-004  0.4128582E+02  0.7818608E-02  0.1498957E+00
         11   -1    0    0    0    0  0.00000000000E+00  0.00000000000E+00  0.99991036152E+03  0.99991036152E+03  0.51100000000E-03 0.  1.
          2   -1    0    0  501    0 -0.00000000000E+00 -0.00000000000E+00 -0.89729182576E+01  0.89729186200E+01  0.25500000000E-02 0.  1.
         11    1    1    2    0    0  0.37475066329E+02  0.15827086226E+02  0.47070913042E+02  0.62213729270E+02  0.51100000000E-03 0.  1.
         22    1    1    2    0    0  0.13381611777E+02 -0.58597103318E+01  0.85420534205E+02  0.86660668142E+02  0.00000000000E+00 0.  1.
          2    1    1    2  501    0 -0.50856678106E+02 -0.99673758946E+01  0.85844599602E+03  0.86000888273E+03  0.25500000000E-02 0.  1.
<mgrwt>
<rscale>  0 0.41285815E+02</rscale>
<asrwt>0</asrwt>
<pdfrwt beam="1">  1       11 0.10000000E+01 0.14608345E+02</pdfrwt>
<pdfrwt beam="2">  1        2 0.13803252E-02 0.41285815E+02</pdfrwt>
<totfact> 0.86649334E+03</totfact>
</mgrwt>
</event>
<event>
 5    1  0.9955701E-004  0.2098352E+03  0.7818608E-02  0.1399399E+00
         11   -1    0    0    0    0  0.00000000000E+00  0.00000000000E+00  0.10001157613E+04  0.10001157613E+04  0.51100000000E-03 0. -1.
          2   -1    0    0  501    0 -0.00000000000E+00 -0.00000000000E+00 -0.23198561474E+03  0.23198561475E+03  0.25500000000E-02 0. -1.
         11    1    1    2    0    0 -0.30197379336E+02  0.20898475653E+03  0.91437738111E+03  0.93844153002E+03  0.51100000000E-03 0. -1.
         22    1    1    2    0    0  0.85206695213E+01 -0.14646048638E+02 -0.88012500366E+02  0.89628727373E+02  0.00000000000E+00 0. -1.
          2    1    1    2  501    0  0.21676709814E+02 -0.19433870789E+03 -0.58234734140E+02  0.20403111870E+03  0.25500000000E-02 0. -1.
<mgrwt>
<rscale>  0 0.59628062E+02</rscale>
<asrwt>0</asrwt>
<pdfrwt beam="1">  1       11 0.10000000E+01 0.20983519E+03</pdfrwt>
<pdfrwt beam="2">  1        2 0.35694225E-01 0.59628062E+02</pdfrwt>
<totfact> 0.17554142E+02</totfact>
</mgrwt>
</event>
<event>
 5    1  0.9955701E-004  0.4103134E+03  0.7818608E-02  0.1040266E+00
         11   -1    0    0    0    0  0.00000000000E+00  0.00000000000E+00  0.10007817110E+04  0.10007817110E+04  0.51100000000E-03 0.  1.
          2   -1    0    0  501    0 -0.00000000000E+00 -0.00000000000E+00 -0.58464207657E+03  0.58464207658E+03  0.25500000000E-02 0.  1.
         11    1    1    2    0    0 -0.39262610359E+03  0.65742304546E+02  0.88016581643E+03  0.96600681790E+03  0.51100000000E-03 0.  1.
         22    1    1    2    0    0  0.20876799961E+02  0.16055159861E+02 -0.53172708856E+02  0.59337558948E+02  0.00000000000E+00 0.  1.
          2    1    1    2  501    0  0.37174930363E+03 -0.81797464407E+02 -0.41085347314E+03  0.56007941073E+03  0.25500000000E-02 0.  1.
<mgrwt>
<rscale>  0 0.41031340E+03</rscale>
<asrwt>0</asrwt>
<pdfrwt beam="1">  1       11 0.10000000E+01 0.39809208E+03</pdfrwt>
<pdfrwt beam="2">  1        2 0.90015243E-01 0.41031340E+03</pdfrwt>
<totfact> 0.64196724E+01</totfact>
</mgrwt>
</event>
<event>
 5    1  0.9955701E-004  0.7597780E+02  0.7818608E-02  0.1545117E+00
         11   -1    0    0    0    0  0.00000000000E+00  0.00000000000E+00  0.10003775583E+04  0.10003775583E+04  0.51100000000E-03 0. -1.
          2   -1    0    0  501    0 -0.00000000000E+00 -0.00000000000E+00 -0.88907726249E+01  0.88907729906E+01  0.25500000000E-02 0. -1.
         11    1    1    2    0    0 -0.84432927057E+02  0.18107371162E+02  0.45672148721E+03  0.46481320220E+03  0.51100000000E-03 0. -1.
         22    1    1    2    0    0  0.16177664728E+02 -0.31917983671E+01  0.25154683757E+02  0.30077608412E+02  0.00000000000E+00 0. -1.
          2    1    1    2  501    0  0.68255262329E+02 -0.14915572795E+02  0.50961061469E+03  0.51437752066E+03  0.25500000000E-02 0. -1.
<mgrwt>
<rscale>  0 0.35395439E+02</rscale>
<asrwt>0</asrwt>
<pdfrwt beam="1">  1       11 0.10000000E+01 0.75977797E+02</pdfrwt>
<pdfrwt beam="2">  1        2 0.13683276E-02 0.35395439E+02</pdfrwt>
<totfact> 0.85254635E+03</totfact>
</mgrwt>
</event>
<event>
 5    1  0.9955701E-004  0.2595969E+03  0.7818608E-02  0.1267904E+00
         11   -1    0    0    0    0  0.00000000000E+00  0.00000000000E+00  0.10001718989E+04  0.10001718989E+04  0.51100000000E-03 0.  1.
         -2   -1    0    0    0  501 -0.00000000000E+00 -0.00000000000E+00 -0.35245665804E+03  0.35245665805E+03  0.25500000000E-02 0. -1.
         11    1    1    2    0    0 -0.25426301829E+03  0.41248865545E+02  0.85483682853E+03  0.89280297647E+03  0.51100000000E-03 0.  1.
         22    1    1    2    0    0 -0.11771835612E+02  0.41763591464E+02 -0.17382400099E+03  0.17915791081E+03  0.00000000000E+00 0. -1.
         -2    1    1    2    0  501  0.26603485390E+03 -0.83012457009E+02 -0.33297586682E+02  0.28066766967E+03  0.25500000000E-02 0. -1.
<mgrwt>
<rscale>  0 0.10613272E+03</rscale>
<asrwt>0</asrwt>
<pdfrwt beam="1">  1       11 0.10000000E+01 0.25959689E+03</pdfrwt>
<pdfrwt beam="2">  1       -2 0.54233421E-01 0.10613272E+03</pdfrwt>
<totfact> 0.26535107E+01</totfact>
</mgrwt>
</event>
<event>
 5    1  0.9955701E-004  0.5174629E+02  0.7818608E-02  0.1436144E+00
         11   -1    0    0    0    0  0.00000000000E+00  0.00000000000E+00  0.99988093446E+03  0.99988093446E+03  0.51100000000E-03 0. -1.
          2   -1    0    0  501    0 -0.00000000000E+00 -0.00000000000E+00 -0.73628228467E+01  0.73628232883E+01  0.25500000000E-02 0. -1.
         11    1    1    2    0    0 -0.44058226009E+02 -0.26700664091E+02  0.29309269115E+03  0.29758591759E+03  0.51100000000E-03 0. -1.
         22    1    1    2    0    0  0.47146729862E+02 -0.31536832655E+02  0.24359193929E+03  0.25010881399E+03  0.00000000000E+00 0. -1.
          2    1    1    2  501    0 -0.30885038531E+01  0.58237496747E+02  0.45583348118E+03  0.45954902617E+03  0.25500000000E-02 0. -1.
<mgrwt>
<rscale>  0 0.51746287E+02</rscale>
<asrwt>0</asrwt>
<pdfrwt beam="1">  1       11 0.10000000E+01 0.51517525E+02</pdfrwt>
<pdfrwt beam="2">  1        2 0.11326071E-02 0.51746287E+02</pdfrwt>
<totfact> 0.11739214E+04</totfact>
</mgrwt>
</event>
<event>
 5    1  0.9955701E-004  0.2248370E+02  0.7818608E-02  0.1801963E+00
         11   -1    0    0    0    0  0.00000000000E+00  0.00000000000E+00  0.10000554019E+04  0.10000554019E+04  0.51100000000E-03 0. -1.
          2   -1    0    0  501    0 -0.00000000000E+00 -0.00000000000E+00 -0.28210761052E+01  0.28210772576E+01  0.25500000000E-02 0. -1.
         11    1    1    2    0    0  0.21169617240E+02 -0.29393997064E+01  0.90375753118E+02  0.92868560431E+02  0.51100000000E-03 0. -1.
         22    1    1    2    0    0 -0.67760539131E+00  0.13488810259E+02  0.30619968943E+02  0.33466246419E+02  0.00000000000E+00 0. -1.
          2    1    1    2  501    0 -0.20492011848E+02 -0.10549410552E+02  0.87623860370E+03  0.87654167228E+03  0.25500000000E-02 0. -1.
<mgrwt>
<rscale>  0 0.17425861E+02</rscale>
<asrwt>0</asrwt>
<pdfrwt beam="1">  1       11 0.10000000E+01 0.22483701E+02</pdfrwt>
<pdfrwt beam="2">  1        2 0.43403583E-03 0.17425861E+02</pdfrwt>
<totfact> 0.32466524E+04</totfact>
</mgrwt>
</event>
<event>
 5    1  0.9955701E-004  0.7311566E+02  0.7818608E-02  0.1371657E+00
         11   -1    0    0    0    0  0.00000000000E+00  0.00000000000E+00  0.10003083358E+04  0.10003083358E+04  0.51100000000E-03 0.  1.
          2   -1    0    0  501    0 -0.00000000000E+00 -0.00000000000E+00 -0.69197243473E+01  0.69197248172E+01  0.25500000000E-02 0.  1.
         11    1    1    2    0    0 -0.45487163404E+02 -0.24345031666E+02  0.14675362071E+03  0.15555830994E+03  0.51100000000E-03 0.  1.
         22    1    1    2    0    0 -0.18768115467E+02  0.64197332363E+01  0.93204916083E+02  0.95292242680E+02  0.00000000000E+00 0. -1.
          2    1    1    2  501    0  0.64255278871E+02  0.17925298430E+02  0.75343007466E+03  0.75637750799E+03  0.25500000000E-02 0.  1.
<mgrwt>
<rscale>  0 0.66708749E+02</rscale>
<asrwt>0</asrwt>
<pdfrwt beam="1">  1       11 0.10000000E+01 0.73115664E+02</pdfrwt>
<pdfrwt beam="2">  1        2 0.10649012E-02 0.66708749E+02</pdfrwt>
<totfact> 0.13324986E+04</totfact>
</mgrwt>
</event>
<event>
 5    1  0.9955701E-004  0.2249067E+03  0.7818608E-02  0.1312682E+00
         11   -1    0    0    0    0  0.00000000000E+00  0.00000000000E+00  0.99996952278E+03  0.99996952278E+03  0.51100000000E-03 0.  1.
         -2   -1    0    0    0  501 -0.00000000000E+00 -0.00000000000E+00 -0.11119030815E+03  0.11119030818E+03  0.25500000000E-02 0. -1.
         11    1    1    2    0    0  0.20314727282E+03 -0.11031874005E+03  0.82461418711E+03  0.85640387461E+03  0.51100000000E-03 0.  1.
         22    1    1    2    0    0 -0.31518332895E+02  0.95426033554E+01 -0.20147687557E+02  0.38605645975E+02  0.00000000000E+00 0.  1.
         -2    1    1    2    0  501 -0.17162893993E+03  0.10077613669E+03  0.84312715072E+02  0.21615031038E+03  0.25500000000E-02 0. -1.
<mgrwt>
<rscale>  0 0.86060767E+02</rscale>
<asrwt>0</asrwt>
<pdfrwt beam="1">  1       11 0.10000000E+01 0.22490667E+03</pdfrwt>
<pdfrwt beam="2">  1       -2 0.17105679E-01 0.86060767E+02</pdfrwt>
<totfact> 0.21065834E+02</totfact>
</mgrwt>
</event>
<event>
 5    1  0.2178281E-003  0.1977492E+03  0.7818608E-02  0.1455906E+00
         11   -1    0    0    0    0  0.00000000000E+00  0.00000000000E+00  0.10000278221E+04  0.10000278221E+04  0.51100000000E-03 0.  1.
          2   -1    0    0  501    0 -0.00000000000E+00 -0.00000000000E+00 -0.67119149041E+03  0.67119149041E+03  0.25500000000E-02 0.  1.
         11    1    1    2    0    0  0.43057089698E+02  0.19307433006E+03  0.97404126622E+03  0.99392554962E+03  0.51100000000E-03 0.  1.
         22    1    1    2    0    0 -0.11559750037E+02 -0.17831395916E+01 -0.48261149831E+02  0.49658292266E+02  0.00000000000E+00 0.  1.
          2    1    1    2  501    0 -0.31497339661E+02 -0.19129119047E+03 -0.59694378467E+03  0.62763547065E+03  0.25500000000E-02 0.  1.
<mgrwt>
<rscale>  0 0.48093319E+02</rscale>
<asrwt>0</asrwt>
<pdfrwt beam="1">  1       11 0.10000000E+01 0.19774918E+03</pdfrwt>
<pdfrwt beam="2">  1        2 0.10326310E+00 0.48093319E+02</pdfrwt>
<totfact> 0.57815771E+01</totfact>
</mgrwt>
</event>
<event>
 5    1  0.9955701E-004  0.4357419E+03  0.7818608E-02  0.1374144E+00
         11   -1    0    0    0    0  0.00000000000E+00  0.00000000000E+00  0.10001829263E+04  0.10001829263E+04  0.51100000000E-03 0. -1.
          2   -1    0    0  501    0 -0.00000000000E+00 -0.00000000000E+00 -0.61749205192E+03  0.61749205193E+03  0.25500000000E-02 0. -1.
         11    1    1    2    0    0  0.33316728614E+03  0.28204884755E+03  0.86129376430E+03  0.96559771198E+03  0.51100000000E-03 0. -1.
         22    1    1    2    0    0 -0.98138264138E+01 -0.19483310742E+01 -0.32470490993E+02  0.33977050611E+02  0.00000000000E+00 0. -1.
          2    1    1    2  501    0 -0.32335345972E+03 -0.28010051648E+03 -0.44613239890E+03  0.61810021566E+03  0.25500000000E-02 0. -1.
<mgrwt>
<rscale>  0 0.66028429E+02</rscale>
<asrwt>0</asrwt>
<pdfrwt beam="1">  1       11 0.10000000E+01 0.43574188E+03</pdfrwt>
<pdfrwt beam="2">  1        2 0.95016152E-01 0.66028429E+02</pdfrwt>
<totfact> 0.62926075E+01</totfact>
</mgrwt>
</event>
<event>
 5    1  0.9955701E-004  0.2863041E+03  0.7818608E-02  0.1404765E+00
         11   -1    0    0    0    0  0.00000000000E+00  0.00000000000E+00  0.99968968439E+03  0.99968968439E+03  0.51100000000E-03 0. -1.
          2   -1    0    0  501    0 -0.00000000000E+00 -0.00000000000E+00 -0.60452801996E+03  0.60452801997E+03  0.25500000000E-02 0. -1.
         11    1    1    2    0    0  0.14220464598E+03  0.24803996882E+03  0.93743008591E+03  0.98006181103E+03  0.51100000000E-03 0. -1.
         22    1    1    2    0    0  0.10051167513E+02  0.63773949053E+01 -0.29915738659E+02  0.32197027094E+02  0.00000000000E+00 0. -1.
          2    1    1    2  501    0 -0.15225581349E+03 -0.25441736373E+03 -0.51235268282E+03  0.59195886623E+03  0.25500000000E-02 0. -1.
<mgrwt>
<rscale>  0 0.58378650E+02</rscale>
<asrwt>0</asrwt>
<pdfrwt beam="1">  1       11 0.10000000E+01 0.28630409E+03</pdfrwt>
<pdfrwt beam="2">  1        2 0.92975447E-01 0.58378650E+02</pdfrwt>
<totfact> 0.64632759E+01</totfact>
</mgrwt>
</event>
<event>
 5    1  0.9955701E-004  0.4188664E+02  0.7818608E-02  0.1736655E+00
         11   -1    0    0    0    0  0.00000000000E+00  0.00000000000E+00  0.10004260630E+04  0.10004260630E+04  0.51100000000E-03 0.  1.
          2   -1    0    0  501    0 -0.00000000000E+00 -0.00000000000E+00 -0.52877238856E+01  0.52877245005E+01  0.25500000000E-02 0.  1.
         11    1    1    2    0    0  0.44737885526E+02 -0.32369447498E+01  0.22118663336E+03  0.22568890755E+03  0.51100000000E-03 0.  1.
         22    1    1    2    0    0 -0.34843081437E+02  0.21125983388E+02  0.14168864883E+03  0.14743141017E+03  0.00000000000E+00 0.  1.
          2    1    1    2  501    0 -0.98948040888E+01 -0.17889038638E+02  0.63226305695E+03  0.63259346981E+03  0.25500000000E-02 0.  1.
<mgrwt>
<rscale>  0 0.20443211E+02</rscale>
<asrwt>0</asrwt>
<pdfrwt beam="1">  1       11 0.10000000E+01 0.41886643E+02</pdfrwt>
<pdfrwt beam="2">  1        2 0.81384261E-03 0.20443211E+02</pdfrwt>
<totfact> 0.14973235E+04</totfact>
</mgrwt>
</event>
<event>
 5    1  0.9955701E-004  0.1306003E+03  0.7818608E-02  0.1226568E+00
         11   -1    0    0    0    0  0.00000000000E+00  0.00000000000E+00  0.99996923242E+03  0.99996923242E+03  0.51100000000E-03 0.  1.
          2   -1    0    0  501    0 -0.00000000000E+00 -0.00000000000E+00 -0.29843505613E+02  0.29843505722E+02  0.25500000000E-02 0.  1.
         11    1    1    2    0    0 -0.12777030202E+03 -0.12298902812E+02  0.77525045566E+03  0.78580518075E+03  0.51100000000E-03 0.  1.
         22    1    1    2    0    0 -0.34406659620E+01  0.11186380235E+02  0.36537219247E+02  0.38365892083E+02  0.00000000000E+00 0.  1.
          2    1    1    2  501    0  0.13121096798E+03  0.11125225774E+01  0.15833805190E+03  0.20564166531E+03  0.25500000000E-02 0.  1.
<mgrwt>
<rscale>  0 0.13060031E+03</rscale>
<asrwt>0</asrwt>
<pdfrwt beam="1">  1       11 0.10000000E+01 0.11703559E+02</pdfrwt>
<pdfrwt beam="2">  1        2 0.45911672E-02 0.13060031E+03</pdfrwt>
<totfact> 0.20423992E+03</totfact>
</mgrwt>
</event>
<event>
 5    1  0.9955701E-004  0.2403009E+02  0.7818608E-02  0.1683120E+00
         11   -1    0    0    0    0  0.00000000000E+00  0.00000000000E+00  0.10001741748E+04  0.10001741748E+04  0.51100000000E-03 0. -1.
          2   -1    0    0  501    0 -0.00000000000E+00 -0.00000000000E+00 -0.77178314360E+01  0.77178318573E+01  0.25500000000E-02 0. -1.
         11    1    1    2    0    0  0.42139917225E+02  0.14239496603E+02  0.10420997374E+03  0.11330602153E+03  0.51100000000E-03 0. -1.
         22    1    1    2    0    0 -0.23018552090E+02 -0.81039122577E+00  0.41072293532E+02  0.47089741667E+02  0.00000000000E+00 0. -1.
          2    1    1    2  501    0 -0.19121365136E+02 -0.13429105377E+02  0.84717407612E+03  0.84749624349E+03  0.25500000000E-02 0. -1.
<mgrwt>
<rscale>  0 0.23526163E+02</rscale>
<asrwt>0</asrwt>
<pdfrwt beam="1">  1       11 0.10000000E+01 0.24030093E+02</pdfrwt>
<pdfrwt beam="2">  1        2 0.11875655E-02 0.23526163E+02</pdfrwt>
<totfact> 0.94612136E+03</totfact>
</mgrwt>
</event>
<event>
 5    1  0.9955701E-004  0.5647475E+03  0.7818608E-02  0.1302100E+00
         11   -1    0    0    0    0  0.00000000000E+00  0.00000000000E+00  0.10001357561E+04  0.10001357561E+04  0.51100000000E-03 0. -1.
          2   -1    0    0  501    0 -0.00000000000E+00 -0.00000000000E+00 -0.82662213485E+03  0.82662213485E+03  0.25500000000E-02 0. -1.
         11    1    1    2    0    0  0.27235901972E+03  0.49320023579E+03  0.79066217184E+03  0.97086177090E+03  0.51100000000E-03 0. -1.
         22    1    1    2    0    0  0.13002554763E+02  0.62852339016E+01 -0.33141722657E+02  0.36151685662E+02  0.00000000000E+00 0.  1.
          2    1    1    2  501    0 -0.28536157448E+03 -0.49948546969E+03 -0.58400682794E+03  0.81974443439E+03  0.25500000000E-02 0. -1.
<mgrwt>
<rscale>  0 0.90310951E+02</rscale>
<asrwt>0</asrwt>
<pdfrwt beam="1">  1       11 0.10000000E+01 0.56474747E+03</pdfrwt>
<pdfrwt beam="2">  1        2 0.12718990E+00 0.90310951E+02</pdfrwt>
<totfact> 0.44322103E+01</totfact>
</mgrwt>
</event>
<event>
 5    1  0.9955701E-004  0.3385483E+02  0.7818608E-02  0.1748861E+00
         11   -1    0    0    0    0  0.00000000000E+00  0.00000000000E+00  0.10003900641E+04  0.10003900641E+04  0.51100000000E-03 0. -1.
         -2   -1    0    0    0  501 -0.00000000000E+00 -0.00000000000E+00 -0.48117244032E+01  0.48117250789E+01  0.25500000000E-02 0. -1.
         11    1    1    2    0    0 -0.24009712354E+02  0.29720118362E+02  0.16866702540E+03  0.17294021273E+03  0.51100000000E-03 0. -1.
         22    1    1    2    0    0  0.11540175355E+02  0.12487323551E+01  0.12102761991E+02  0.16769371710E+02  0.00000000000E+00 0. -1.
         -2    1    1    2    0  501  0.12469536999E+02 -0.30968850718E+02  0.81480855230E+03  0.81549220473E+03  0.25500000000E-02 0. -1.
<mgrwt>
<rscale>  0 0.19823499E+02</rscale>
<asrwt>0</asrwt>
<pdfrwt beam="1">  1       11 0.10000000E+01 0.33854833E+02</pdfrwt>
<pdfrwt beam="2">  1       -2 0.74055407E-03 0.19823499E+02</pdfrwt>
<totfact> 0.16101622E+04</totfact>
</mgrwt>
</event>
<event>
 5    1  0.9955701E-004  0.4735374E+02  0.7818608E-02  0.1539116E+00
         11   -1    0    0    0    0  0.00000000000E+00  0.00000000000E+00  0.10001325365E+04  0.10001325365E+04  0.51100000000E-03 0.  1.
          2   -1    0    0  501    0 -0.00000000000E+00 -0.00000000000E+00 -0.60028851629E+01  0.60028857046E+01  0.25500000000E-02 0.  1.
         11    1    1    2    0    0  0.11304441178E+02  0.31314145091E+02  0.93540756733E+02  0.99288666239E+02  0.51100000000E-03 0.  1.
         22    1    1    2    0    0 -0.18242340716E+02  0.20588660074E+02  0.80159987857E+02  0.84748448786E+02  0.00000000000E+00 0.  1.
          2    1    1    2  501    0  0.69378995375E+01 -0.51902805165E+02  0.82042890672E+03  0.82209830715E+03  0.25500000000E-02 0.  1.
<mgrwt>
<rscale>  0 0.36091467E+02</rscale>
<asrwt>0</asrwt>
<pdfrwt beam="1">  1       11 0.10000000E+01 0.47353744E+02</pdfrwt>
<pdfrwt beam="2">  1        2 0.92364321E-03 0.36091467E+02</pdfrwt>
<totfact> 0.14395777E+04</totfact>
</mgrwt>
</event>
<event>
 5    1  0.9955701E-004  0.1271994E+03  0.7818608E-02  0.1231672E+00
         11   -1    0    0    0    0  0.00000000000E+00  0.00000000000E+00  0.10004115833E+04  0.10004115833E+04  0.51100000000E-03 0. -1.
          2   -1    0    0  501    0 -0.00000000000E+00 -0.00000000000E+00 -0.21475214270E+02  0.21475214421E+02  0.25500000000E-02 0. -1.
         11    1    1    2    0    0 -0.32840696038E+02 -0.12085910932E+03  0.74639834893E+03  0.75683282891E+03  0.51100000000E-03 0. -1.
         22    1    1    2    0    0  0.24264949694E+01  0.13169050285E+02  0.13112208989E+02  0.18741445724E+02  0.00000000000E+00 0. -1.
          2    1    1    2  501    0  0.30414201069E+02  0.10769005904E+03  0.21942581108E+03  0.24631252306E+03  0.25500000000E-02 0. -1.
<mgrwt>
<rscale>  0 0.12719935E+03</rscale>
<asrwt>0</asrwt>
<pdfrwt beam="1">  1       11 0.10000000E+01 0.12524151E+03</pdfrwt>
<pdfrwt beam="2">  1        2 0.33052389E-02 0.12719935E+03</pdfrwt>
<totfact> 0.31479454E+03</totfact>
</mgrwt>
</event>
<event>
 5    1  0.9955701E-004  0.8226346E+02  0.7818608E-02  0.1322748E+00
         11   -1    0    0    0    0  0.00000000000E+00  0.00000000000E+00  0.10005298167E+04  0.10005298167E+04  0.51100000000E-03 0. -1.
          2   -1    0    0  501    0 -0.00000000000E+00 -0.00000000000E+00 -0.65220412882E+01  0.65220417867E+01  0.25500000000E-02 0. -1.
         11    1    1    2    0    0 -0.17525143383E+02  0.76074451797E+02  0.42218272778E+03  0.42933985198E+03  0.51100000000E-03 0. -1.
         22    1    1    2    0    0  0.88571143366E+00 -0.13533784284E+02  0.47185496875E+02  0.49096017324E+02  0.00000000000E+00 0.  1.
          2    1    1    2  501    0  0.16639431949E+02 -0.62540667513E+02  0.52463955073E+03  0.52861598915E+03  0.25500000000E-02 0. -1.
<mgrwt>
<rscale>  0 0.82263463E+02</rscale>
<asrwt>0</asrwt>
<pdfrwt beam="1">  1       11 0.10000000E+01 0.78067016E+02</pdfrwt>
<pdfrwt beam="2">  1        2 0.10039226E-02 0.82263463E+02</pdfrwt>
<totfact> 0.14945072E+04</totfact>
</mgrwt>
</event>
<event>
 5    1  0.9955701E-004  0.3088404E+03  0.7818608E-02  0.1346743E+00
         11   -1    0    0    0    0  0.00000000000E+00  0.00000000000E+00  0.10003790778E+04  0.10003790778E+04  0.51100000000E-03 0.  1.
          2   -1    0    0  501    0 -0.00000000000E+00 -0.00000000000E+00 -0.41998000577E+03  0.41998000578E+03  0.25500000000E-02 0.  1.
         11    1    1    2    0    0 -0.30567976248E+03 -0.52036474231E+02  0.91020350224E+03  0.96157076044E+03  0.51100000000E-03 0.  1.
         22    1    1    2    0    0  0.17765683611E+02  0.35702498103E+00 -0.53632926945E+02  0.56499892333E+02  0.00000000000E+00 0.  1.
          2    1    1    2  501    0  0.28791407887E+03  0.51679449250E+02 -0.27617150331E+03  0.40228843077E+03  0.25500000000E-02 0.  1.
<mgrwt>
<rscale>  0 0.74080155E+02</rscale>
<asrwt>0</asrwt>
<pdfrwt beam="1">  1       11 0.10000000E+01 0.30884044E+03</pdfrwt>
<pdfrwt beam="2">  1        2 0.64636800E-01 0.74080155E+02</pdfrwt>
<totfact> 0.95033100E+01</totfact>
</mgrwt>
</event>
<event>
 5    1  0.9955701E-004  0.1886797E+03  0.7818608E-02  0.1407149E+00
         11   -1    0    0    0    0  0.00000000000E+00  0.00000000000E+00  0.10003152000E+04  0.10003152000E+04  0.51100000000E-03 0. -1.
          2   -1    0    0  501    0 -0.00000000000E+00 -0.00000000000E+00 -0.72109897043E+02  0.72109897088E+02  0.25500000000E-02 0. -1.
         11    1    1    2    0    0  0.13998767876E+03 -0.12773760286E+03  0.81123867166E+03  0.83307960471E+03  0.51100000000E-03 0. -1.
         22    1    1    2    0    0  0.79698215563E+01  0.15835358190E+02 -0.36130142609E+01  0.18092277267E+02  0.00000000000E+00 0. -1.
          2    1    1    2  501    0 -0.14795750031E+03  0.11190224467E+03  0.12057964553E+03  0.22125321508E+03  0.25500000000E-02 0. -1.
<mgrwt>
<rscale>  0 0.57834976E+02</rscale>
<asrwt>0</asrwt>
<pdfrwt beam="1">  1       11 0.10000000E+01 0.18867966E+03</pdfrwt>
<pdfrwt beam="2">  1        2 0.11097327E-01 0.57834976E+02</pdfrwt>
<totfact> 0.63658489E+02</totfact>
</mgrwt>
</event>
<event>
 5    1  0.9955701E-004  0.8336940E+02  0.7818608E-02  0.1606465E+00
         11   -1    0    0    0    0  0.00000000000E+00  0.00000000000E+00  0.99980821047E+03  0.99980821047E+03  0.51100000000E-03 0. -1.
          2   -1    0    0  501    0 -0.00000000000E+00 -0.00000000000E+00 -0.83481937317E+01  0.83481941211E+01  0.25500000000E-02 0.  1.
         11    1    1    2    0    0 -0.84968678802E+01 -0.78659653148E+02  0.44947548922E+03  0.45638553133E+03  0.51100000000E-03 0. -1.
         22    1    1    2    0    0  0.44795050282E+01 -0.92374943839E+01  0.20627455555E+02  0.23041032756E+02  0.00000000000E+00 0. -1.
          2    1    1    2  501    0  0.40173628521E+01  0.87897147532E+02  0.52135707196E+03  0.52872984050E+03  0.25500000000E-02 0.  1.
<mgrwt>
<rscale>  0 0.29255712E+02</rscale>
<asrwt>0</asrwt>
<pdfrwt beam="1">  1       11 0.10000000E+01 0.83369397E+02</pdfrwt>
<pdfrwt beam="2">  1        2 0.12840912E-02 0.29255712E+02</pdfrwt>
<totfact> 0.89364148E+03</totfact>
</mgrwt>
</event>
<event>
 5    1  0.9955701E-004  0.4036433E+02  0.7818608E-02  0.1598727E+00
         11   -1    0    0    0    0  0.00000000000E+00  0.00000000000E+00  0.10004959151E+04  0.10004959151E+04  0.51100000000E-03 0.  1.
          2   -1    0    0  501    0 -0.00000000000E+00 -0.00000000000E+00 -0.78730887645E+01  0.78730891774E+01  0.25500000000E-02 0.  1.
         11    1    1    2    0    0  0.58994080405E+02 -0.70677625117E+01  0.14107045028E+03  0.15307229251E+03  0.51100000000E-03 0.  1.
         22    1    1    2    0    0 -0.21807068170E+02 -0.42183495165E+01  0.88130553313E+02  0.90886396793E+02  0.00000000000E+00 0. -1.
          2    1    1    2  501    0 -0.37187012235E+02  0.11286112028E+02  0.76342182273E+03  0.76441031497E+03  0.25500000000E-02 0.  1.
<mgrwt>
<rscale>  0 0.29942353E+02</rscale>
<asrwt>0</asrwt>
<pdfrwt beam="1">  1       11 0.10000000E+01 0.40364328E+02</pdfrwt>
<pdfrwt beam="2">  1        2 0.12118451E-02 0.29942353E+02</pdfrwt>
<totfact> 0.96856327E+03</totfact>
</mgrwt>
</event>
<event>
 5    1  0.9955701E-004  0.8499822E+02  0.7818608E-02  0.1333853E+00
         11   -1    0    0    0    0  0.00000000000E+00  0.00000000000E+00  0.10000161332E+04  0.10000161332E+04  0.51100000000E-03 0.  1.
          2   -1    0    0  501    0 -0.00000000000E+00 -0.00000000000E+00 -0.78024343648E+01  0.78024347815E+01  0.25500000000E-02 0.  1.
         11    1    1    2    0    0 -0.54503001344E+02  0.59298909980E+01  0.21752347506E+03  0.22432610852E+03  0.51100000000E-03 0.  1.
         22    1    1    2    0    0 -0.17828775461E+02  0.24136987208E+02  0.10397490201E+03  0.10821848102E+03  0.00000000000E+00 0. -1.
          2    1    1    2  501    0  0.72331776805E+02 -0.30066878206E+02  0.67071532172E+03  0.67527397839E+03  0.25500000000E-02 0.  1.
<mgrwt>
<rscale>  0 0.78332006E+02</rscale>
<asrwt>0</asrwt>
<pdfrwt beam="1">  1       11 0.10000000E+01 0.84998221E+02</pdfrwt>
<pdfrwt beam="2">  1        2 0.12003939E-02 0.78332006E+02</pdfrwt>
<totfact> 0.11625452E+04</totfact>
</mgrwt>
</event>
<event>
 5    1  0.9955701E-004  0.2425984E+03  0.7818608E-02  0.1118074E+00
         11   -1    0    0    0    0  0.00000000000E+00  0.00000000000E+00  0.10002125799E+04  0.10002125799E+04  0.51100000000E-03 0. -1.
          2   -1    0    0  501    0 -0.00000000000E+00 -0.00000000000E+00 -0.47117452109E+03  0.47117452110E+03  0.25500000000E-02 0. -1.
         11    1    1    2    0    0 -0.22494877916E+03  0.66010275985E+02  0.95382158348E+03  0.98220920526E+03  0.51100000000E-03 0. -1.
         22    1    1    2    0    0  0.35683433295E+02  0.91807953678E+01 -0.90924925737E+02  0.98106760907E+02  0.00000000000E+00 0.  1.
          2    1    1    2  501    0  0.18926534586E+03 -0.75191071353E+02 -0.33385859897E+03  0.39107113479E+03  0.25500000000E-02 0. -1.
<mgrwt>
<rscale>  0 0.24259837E+03</rscale>
<asrwt>0</asrwt>
<pdfrwt beam="1">  1       11 0.10000000E+01 0.23443402E+03</pdfrwt>
<pdfrwt beam="2">  1        2 0.72503795E-01 0.24259837E+03</pdfrwt>
<totfact> 0.82975078E+01</totfact>
</mgrwt>
</event>
<event>
 5    1  0.9955701E-004  0.2840899E+03  0.7818608E-02  0.1371589E+00
         11   -1    0    0    0    0  0.00000000000E+00  0.00000000000E+00  0.10002223574E+04  0.10002223574E+04  0.51100000000E-03 0. -1.
          2   -1    0    0  501    0 -0.00000000000E+00 -0.00000000000E+00 -0.10241306333E+03  0.10241306337E+03  0.25500000000E-02 0. -1.
         11    1    1    2    0    0 -0.59583981181E+02  0.28072246506E+03  0.67039424608E+03  0.72923507758E+03  0.51100000000E-03 0. -1.
         22    1    1    2    0    0  0.14184192748E+02 -0.66673908515E+01  0.22866848269E+01  0.15839013612E+02  0.00000000000E+00 0. -1.
          2    1    1    2  501    0  0.45399788432E+02 -0.27405507421E+03  0.22512836313E+03  0.35756132954E+03  0.25500000000E-02 0. -1.
<mgrwt>
<rscale>  0 0.66727530E+02</rscale>
<asrwt>0</asrwt>
<pdfrwt beam="1">  1       11 0.10000000E+01 0.28408988E+03</pdfrwt>
<pdfrwt beam="2">  1        2 0.15759359E-01 0.66727530E+02</pdfrwt>
<totfact> 0.42754692E+02</totfact>
</mgrwt>
</event>
<event>
 5    1  0.9955701E-004  0.1710348E+03  0.7818608E-02  0.1176773E+00
         11   -1    0    0    0    0  0.00000000000E+00  0.00000000000E+00  0.10001919056E+04  0.10001919056E+04  0.51100000000E-03 0. -1.
         -2   -1    0    0    0  501 -0.00000000000E+00 -0.00000000000E+00 -0.28983642413E+02  0.28983642525E+02  0.25500000000E-02 0.  1.
         11    1    1    2    0    0 -0.16257706906E+03 -0.31487982736E+02  0.55550104962E+03  0.57965870352E+03  0.51100000000E-03 0. -1.
         22    1    1    2    0    0  0.86342036391E+02  0.22436518579E+02  0.27661834838E+03  0.29064764798E+03  0.00000000000E+00 0. -1.
         -2    1    1    2    0  501  0.76235032672E+02  0.90514641572E+01  0.13908886517E+03  0.15886919661E+03  0.25500000000E-02 0.  1.
<mgrwt>
<rscale>  0 0.17103481E+03</rscale>
<asrwt>0</asrwt>
<pdfrwt beam="1">  1       11 0.10000000E+01 0.16559830E+03</pdfrwt>
<pdfrwt beam="2">  1       -2 0.44598775E-02 0.17103481E+03</pdfrwt>
<totfact> 0.17894757E+03</totfact>
</mgrwt>
</event>
<event>
 5    1  0.9955701E-004  0.7787313E+02  0.7818608E-02  0.1351923E+00
         11   -1    0    0    0    0  0.00000000000E+00  0.00000000000E+00  0.99972459600E+03  0.99972459600E+03  0.51100000000E-03 0.  1.
          2   -1    0    0  501    0 -0.00000000000E+00 -0.00000000000E+00 -0.61518284490E+01  0.61518289775E+01  0.25500000000E-02 0.  1.
         11    1    1    2    0    0 -0.43713015174E+02  0.34043839290E+02  0.26863441438E+03  0.27428864227E+03  0.51100000000E-03 0.  1.
         22    1    1    2    0    0 -0.22111927221E+02 -0.37539396771E+01  0.10124793440E+03  0.10370233175E+03  0.00000000000E+00 0.  1.
          2    1    1    2  501    0  0.65824942395E+02 -0.30289899613E+02  0.62369041877E+03  0.62788545096E+03  0.25500000000E-02 0.  1.
<mgrwt>
<rscale>  0 0.72459651E+02</rscale>
<asrwt>0</asrwt>
<pdfrwt beam="1">  1       11 0.10000000E+01 0.77873131E+02</pdfrwt>
<pdfrwt beam="2">  1        2 0.94617451E-03 0.72459651E+02</pdfrwt>
<totfact> 0.15864615E+04</totfact>
</mgrwt>
</event>
<event>
 5    1  0.9955701E-004  0.1963713E+03  0.7818608E-02  0.1203667E+00
         11   -1    0    0    0    0  0.00000000000E+00  0.00000000000E+00  0.10002709823E+04  0.10002709823E+04  0.51100000000E-03 0.  1.
          2   -1    0    0  501    0 -0.00000000000E+00 -0.00000000000E+00 -0.13152519951E+03  0.13152519954E+03  0.25500000000E-02 0.  1.
         11    1    1    2    0    0  0.20998401328E+03 -0.17398072141E+03  0.45498221097E+03  0.53044452071E+03  0.51100000000E-03 0.  1.
         22    1    1    2    0    0 -0.99330934274E+02  0.48835236099E+02 -0.40096503929E+02  0.11772529217E+03  0.00000000000E+00 0.  1.
          2    1    1    2  501    0 -0.11065307900E+03  0.12514548531E+03  0.45386007579E+03  0.48362636900E+03  0.25500000000E-02 0.  1.
<mgrwt>
<rscale>  0 0.14743016E+03</rscale>
<asrwt>0</asrwt>
<pdfrwt beam="1">  1       11 0.10000000E+01 0.19637129E+03</pdfrwt>
<pdfrwt beam="2">  1        2 0.20240129E-01 0.14743016E+03</pdfrwt>
<totfact> 0.33234939E+02</totfact>
</mgrwt>
</event>
<event>
 5    1  0.9955701E-004  0.1068416E+03  0.7818608E-02  0.1266533E+00
         11   -1    0    0    0    0  0.00000000000E+00  0.00000000000E+00  0.99994038274E+03  0.99994038274E+03  0.51100000000E-03 0. -1.
          2   -1    0    0  501    0 -0.00000000000E+00 -0.00000000000E+00 -0.11710513560E+02  0.11710513837E+02  0.25500000000E-02 0. -1.
         11    1    1    2    0    0  0.74292824035E+02  0.70346559252E+02  0.61408613156E+03  0.62255107346E+03  0.51100000000E-03 0. -1.
         22    1    1    2    0    0 -0.73794878409E+01 -0.10685824088E+02  0.20475806104E+02  0.24246696947E+02  0.00000000000E+00 0. -1.
          2    1    1    2  501    0 -0.66913336195E+02 -0.59660735164E+02  0.35366793152E+03  0.36485312617E+03  0.25500000000E-02 0. -1.
<mgrwt>
<rscale>  0 0.10684164E+03</rscale>
<asrwt>0</asrwt>
<pdfrwt beam="1">  1       11 0.10000000E+01 0.10231355E+03</pdfrwt>
<pdfrwt beam="2">  1        2 0.18015100E-02 0.10684164E+03</pdfrwt>
<totfact> 0.69966657E+03</totfact>
</mgrwt>
</event>
<event>
 5    1  0.9955701E-004  0.4504968E+03  0.7818608E-02  0.1027574E+00
         11   -1    0    0    0    0  0.00000000000E+00  0.00000000000E+00  0.10004497612E+04  0.10004497612E+04  0.51100000000E-03 0.  1.
          2   -1    0    0  501    0 -0.00000000000E+00 -0.00000000000E+00 -0.12540567865E+04  0.12540567865E+04  0.25500000000E-02 0.  1.
         11    1    1    2    0    0  0.39712618864E+03 -0.18991846225E+03  0.90773914189E+03  0.10088451723E+04  0.51100000000E-03 0.  1.
         22    1    1    2    0    0 -0.57722600118E+02  0.24636927557E+02 -0.27859668682E+03  0.28557834419E+03  0.00000000000E+00 0.  1.
          2    1    1    2  501    0 -0.33940358852E+03  0.16528153469E+03 -0.88274948036E+03  0.96008303115E+03  0.25500000000E-02 0.  1.
<mgrwt>
<rscale>  0 0.45049677E+03</rscale>
<asrwt>0</asrwt>
<pdfrwt beam="1">  1       11 0.10000000E+01 0.44020249E+03</pdfrwt>
<pdfrwt beam="2">  1        2 0.19301858E+00 0.45049677E+03</pdfrwt>
<totfact> 0.22603055E+01</totfact>
</mgrwt>
</event>
<event>
 5    1  0.9955701E-004  0.1908516E+03  0.7818608E-02  0.1321111E+00
         11   -1    0    0    0    0  0.00000000000E+00  0.00000000000E+00  0.10001409986E+04  0.10001409986E+04  0.51100000000E-03 0. -1.
          2   -1    0    0  501    0 -0.00000000000E+00 -0.00000000000E+00 -0.13128920936E+03  0.13128920938E+03  0.25500000000E-02 0. -1.
         11    1    1    2    0    0  0.17854551488E+03  0.49064375409E+02  0.67436982826E+03  0.69932859164E+03  0.51100000000E-03 0. -1.
         22    1    1    2    0    0  0.12597397634E+02  0.33701609662E+02 -0.79892721169E+02  0.87620430362E+02  0.00000000000E+00 0. -1.
          2    1    1    2  501    0 -0.19114291251E+03 -0.82765985071E+02  0.27437468219E+03  0.34448118602E+03  0.25500000000E-02 0. -1.
<mgrwt>
<rscale>  0 0.82865320E+02</rscale>
<asrwt>0</asrwt>
<pdfrwt beam="1">  1       11 0.10000000E+01 0.19085159E+03</pdfrwt>
<pdfrwt beam="2">  1        2 0.20201187E-01 0.82865320E+02</pdfrwt>
<totfact> 0.32647020E+02</totfact>
</mgrwt>
</event>
<event>
 5    1  0.9955701E-004  0.2312381E+03  0.7818608E-02  0.1230490E+00
         11   -1    0    0    0    0  0.00000000000E+00  0.00000000000E+00  0.10003854853E+04  0.10003854853E+04  0.51100000000E-03 0. -1.
          2   -1    0    0  501    0 -0.00000000000E+00 -0.00000000000E+00 -0.82099487326E+03  0.82099487327E+03  0.25500000000E-02 0. -1.
         11    1    1    2    0    0 -0.19233313407E+03 -0.12787107893E+03  0.95178877545E+03  0.97941049635E+03  0.51100000000E-03 0. -1.
         22    1    1    2    0    0 -0.47452662707E+02  0.52580794214E+02 -0.28400282743E+03  0.29270138556E+03  0.00000000000E+00 0. -1.
          2    1    1    2  501    0  0.23978579678E+03  0.75290284712E+02 -0.48839533595E+03  0.54926847669E+03  0.25500000000E-02 0. -1.
<mgrwt>
<rscale>  0 0.12797636E+03</rscale>
<asrwt>0</asrwt>
<pdfrwt beam="1">  1       11 0.10000000E+01 0.23123806E+03</pdfrwt>
<pdfrwt beam="2">  1        2 0.12635559E+00 0.12797636E+03</pdfrwt>
<totfact> 0.44085188E+01</totfact>
</mgrwt>
</event>
<event>
 5    1  0.9955701E-004  0.2685634E+03  0.7818608E-02  0.1197831E+00
         11   -1    0    0    0    0  0.00000000000E+00  0.00000000000E+00  0.10001305985E+04  0.10001305985E+04  0.51100000000E-03 0. -1.
          2   -1    0    0  501    0 -0.00000000000E+00 -0.00000000000E+00 -0.65448661824E+03  0.65448661824E+03  0.25500000000E-02 0. -1.
         11    1    1    2    0    0  0.12569356954E+03  0.24273410459E+03  0.92906373875E+03  0.96844109249E+03  0.51100000000E-03 0. -1.
         22    1    1    2    0    0  0.22268212037E+02 -0.20719415769E+03 -0.35709800316E+03  0.41345407981E+03  0.00000000000E+00 0. -1.
          2    1    1    2  501    0 -0.14796178157E+03 -0.35539946895E+02 -0.22632175528E+03  0.27272204449E+03  0.25500000000E-02 0. -1.
<mgrwt>
<rscale>  0 0.15217022E+03</rscale>
<asrwt>0</asrwt>
<pdfrwt beam="1">  1       11 0.10000000E+01 0.26856340E+03</pdfrwt>
<pdfrwt beam="2">  1        2 0.10070340E+00 0.15217022E+03</pdfrwt>
<totfact> 0.57665233E+01</totfact>
</mgrwt>
</event>
<event>
 5    1  0.9955701E-004  0.9107434E+02  0.7818608E-02  0.1511304E+00
         11   -1    0    0    0    0  0.00000000000E+00  0.00000000000E+00  0.10000887810E+04  0.10000887810E+04  0.51100000000E-03 0. -1.
          2   -1    0    0  501    0 -0.00000000000E+00 -0.00000000000E+00 -0.15810793801E+02  0.15810794007E+02  0.25500000000E-02 0. -1.
         11    1    1    2    0    0  0.99690823645E+02  0.23978943480E+02  0.24386867337E+03  0.26454712227E+03  0.51100000000E-03 0. -1.
         22    1    1    2    0    0 -0.16436201099E+02  0.50807871916E+01  0.23957817387E+02  0.29494747312E+02  0.00000000000E+00 0. -1.
          2    1    1    2  501    0 -0.83254622546E+02 -0.29059730671E+02  0.71645149642E+03  0.72185770540E+03  0.25500000000E-02 0. -1.
<mgrwt>
<rscale>  0 0.39582872E+02</rscale>
<asrwt>0</asrwt>
<pdfrwt beam="1">  1       11 0.10000000E+01 0.91074338E+02</pdfrwt>
<pdfrwt beam="2">  1        2 0.24326457E-02 0.39582872E+02</pdfrwt>
<totfact> 0.40865367E+03</totfact>
</mgrwt>
</event>
<event>
 5    1  0.9955701E-004  0.2229298E+02  0.7818608E-02  0.1861069E+00
         11   -1    0    0    0    0  0.00000000000E+00  0.00000000000E+00  0.10000801350E+04  0.10000801350E+04  0.51100000000E-03 0.  1.
          2   -1    0    0  501    0 -0.00000000000E+00 -0.00000000000E+00 -0.46160279284E+01  0.46160286328E+01  0.25500000000E-02 0.  1.
         11    1    1    2    0    0  0.14971787575E+02 -0.15900363809E+02  0.59262775209E+02  0.63158946462E+02  0.51100000000E-03 0.  1.
         22    1    1    2    0    0 -0.87124861992E+01 -0.56929324567E+01  0.81638314665E+01  0.13227435123E+02  0.00000000000E+00 0. -1.
          2    1    1    2  501    0 -0.62593013762E+01  0.21593296266E+02  0.92803750036E+03  0.92830978201E+03  0.25500000000E-02 0.  1.
<mgrwt>
<rscale>  0 0.15232037E+02</rscale>
<asrwt>0</asrwt>
<pdfrwt beam="1">  1       11 0.10000000E+01 0.22292978E+02</pdfrwt>
<pdfrwt beam="2">  1        2 0.71021509E-03 0.15232037E+02</pdfrwt>
<totfact> 0.16543737E+04</totfact>
</mgrwt>
</event>
<event>
 5    1  0.9955701E-004  0.6164708E+02  0.7818608E-02  0.1517017E+00
         11   -1    0    0    0    0  0.00000000000E+00  0.00000000000E+00  0.10002601296E+04  0.10002601296E+04  0.51100000000E-03 0. -1.
          2   -1    0    0  501    0 -0.00000000000E+00 -0.00000000000E+00 -0.67254288486E+01  0.67254293320E+01  0.25500000000E-02 0. -1.
         11    1    1    2    0    0 -0.56599776653E+02 -0.51366534223E+02  0.42104353751E+03  0.42792489532E+03  0.51100000000E-03 0. -1.
         22    1    1    2    0    0  0.23390813498E+02  0.71378331439E+01  0.85188895047E+02  0.88629716559E+02  0.00000000000E+00 0. -1.
          2    1    1    2  501    0  0.33208963155E+02  0.44228701079E+02  0.48730226816E+03  0.49043094702E+03  0.25500000000E-02 0. -1.
<mgrwt>
<rscale>  0 0.38828067E+02</rscale>
<asrwt>0</asrwt>
<pdfrwt beam="1">  1       11 0.10000000E+01 0.61647084E+02</pdfrwt>
<pdfrwt beam="2">  1        2 0.10349505E-02 0.38828067E+02</pdfrwt>
<totfact> 0.12556124E+04</totfact>
</mgrwt>
</event>
<event>
 5    1  0.9955701E-004  0.2084022E+03  0.7818608E-02  0.1459402E+00
         11   -1    0    0    0    0  0.00000000000E+00  0.00000000000E+00  0.10004334185E+04  0.10004334185E+04  0.51100000000E-03 0. -1.
          2   -1    0    0  501    0 -0.00000000000E+00 -0.00000000000E+00 -0.20104690773E+03  0.20104690775E+03  0.25500000000E-02 0. -1.
         11    1    1    2    0    0 -0.69917151736E+02  0.19583372440E+03  0.89850635194E+03  0.92225426006E+03  0.51100000000E-03 0. -1.
         22    1    1    2    0    0 -0.10646938662E+02  0.19238953036E+01 -0.61444195060E+02  0.62389484551E+02  0.00000000000E+00 0. -1.
          2    1    1    2  501    0  0.80564090398E+02 -0.19775761971E+03 -0.37675646119E+02  0.21683658163E+03  0.25500000000E-02 0. -1.
<mgrwt>
<rscale>  0 0.47484520E+02</rscale>
<asrwt>0</asrwt>
<pdfrwt beam="1">  1       11 0.10000000E+01 0.20840220E+03</pdfrwt>
<pdfrwt beam="2">  1        2 0.30943698E-01 0.47484520E+02</pdfrwt>
<totfact> 0.20252515E+02</totfact>
</mgrwt>
</event>
<event>
 5    1  0.9955701E-004  0.7942971E+02  0.7818608E-02  0.1438338E+00
         11   -1    0    0    0    0  0.00000000000E+00  0.00000000000E+00  0.99986827563E+03  0.99986827563E+03  0.51100000000E-03 0.  1.
          2   -1    0    0  501    0 -0.00000000000E+00 -0.00000000000E+00 -0.29987943367E+02  0.29987943475E+02  0.25500000000E-02 0.  1.
         11    1    1    2    0    0 -0.76056324759E+02  0.12747546213E+02  0.40542727932E+03  0.41269642995E+03  0.51100000000E-03 0.  1.
         22    1    1    2    0    0  0.50180272331E+01  0.32778980708E+02 -0.11470335669E+02  0.35088613166E+02  0.00000000000E+00 0.  1.
          2    1    1    2  501    0  0.71038297526E+02 -0.45526526921E+02  0.57592338861E+03  0.58207117599E+03  0.25500000000E-02 0.  1.
<mgrwt>
<rscale>  0 0.51322078E+02</rscale>
<asrwt>0</asrwt>
<pdfrwt beam="1">  1       11 0.10000000E+01 0.79429711E+02</pdfrwt>
<pdfrwt beam="2">  1        2 0.46129219E-02 0.51322078E+02</pdfrwt>
<totfact> 0.18535909E+03</totfact>
</mgrwt>
</event>
<event>
 5    1  0.9955701E-004  0.3061335E+02  0.7818608E-02  0.1591406E+00
         11   -1    0    0    0    0  0.00000000000E+00  0.00000000000E+00  0.99979066675E+03  0.99979066675E+03  0.51100000000E-03 0. -1.
          2   -1    0    0  501    0 -0.00000000000E+00 -0.00000000000E+00 -0.60139341005E+01  0.60139346411E+01  0.25500000000E-02 0.  1.
         11    1    1    2    0    0 -0.22688421554E+02  0.17604503218E+02  0.11792669148E+03  0.12137292766E+03  0.51100000000E-03 0. -1.
         22    1    1    2    0    0  0.28169320461E+02  0.13967302052E+02  0.58167677007E+02  0.66121666572E+02  0.00000000000E+00 0.  1.
          2    1    1    2  501    0 -0.54808989072E+01 -0.31571805269E+02  0.81768236417E+03  0.81831000716E+03  0.25500000000E-02 0.  1.
<mgrwt>
<rscale>  0 0.30613354E+02</rscale>
<asrwt>0</asrwt>
<pdfrwt beam="1">  1       11 0.10000000E+01 0.28717309E+02</pdfrwt>
<pdfrwt beam="2">  1        2 0.92502697E-03 0.30613354E+02</pdfrwt>
<totfact> 0.13883141E+04</totfact>
</mgrwt>
</event>
<event>
 5    1  0.9955701E-004  0.2690060E+03  0.7818608E-02  0.1366819E+00
         11   -1    0    0    0    0  0.00000000000E+00  0.00000000000E+00  0.10006301059E+04  0.10006301060E+04  0.51100000000E-03 0. -1.
          2   -1    0    0  501    0 -0.00000000000E+00 -0.00000000000E+00 -0.91447184448E+03  0.91447184449E+03  0.25500000000E-02 0. -1.
         11    1    1    2    0    0  0.25684351652E+03  0.80052690583E+02  0.95931348117E+03  0.99632292977E+03  0.51100000000E-03 0. -1.
         22    1    1    2    0    0 -0.61914078124E+01  0.16067667610E+02 -0.44001668700E+02  0.47250929319E+02  0.00000000000E+00 0.  1.
          2    1    1    2  501    0 -0.25065210871E+03 -0.96120358192E+02 -0.82915355100E+03  0.87152809134E+03  0.25500000000E-02 0. -1.
<mgrwt>
<rscale>  0 0.68059445E+02</rscale>
<asrwt>0</asrwt>
<pdfrwt beam="1">  1       11 0.10000000E+01 0.26900597E+03</pdfrwt>
<pdfrwt beam="2">  1        2 0.14077662E+00 0.68059445E+02</pdfrwt>
<totfact> 0.39495588E+01</totfact>
</mgrwt>
</event>
<event>
 5    1  0.9955701E-004  0.1483077E+03  0.7818608E-02  0.1493494E+00
         11   -1    0    0    0    0  0.00000000000E+00  0.00000000000E+00  0.10003528183E+04  0.10003528183E+04  0.51100000000E-03 0. -1.
          2   -1    0    0  501    0 -0.00000000000E+00 -0.00000000000E+00 -0.27092123974E+02  0.27092124094E+02  0.25500000000E-02 0. -1.
         11    1    1    2    0    0  0.14616901909E+03  0.45048018079E+02  0.32423077614E+03  0.35849728349E+03  0.51100000000E-03 0. -1.
         22    1    1    2    0    0 -0.39928652740E+01 -0.11247354700E+02  0.21149876034E+02  0.24285041014E+02  0.00000000000E+00 0. -1.
          2    1    1    2  501    0 -0.14217615382E+03 -0.33800663379E+02  0.62788004214E+03  0.64466261788E+03  0.25500000000E-02 0. -1.
<mgrwt>
<rscale>  0 0.42072114E+02</rscale>
<asrwt>0</asrwt>
<pdfrwt beam="1">  1       11 0.10000000E+01 0.14830774E+03</pdfrwt>
<pdfrwt beam="2">  1        2 0.41694895E-02 0.42072114E+02</pdfrwt>
<totfact> 0.20599080E+03</totfact>
</mgrwt>
</event>
<event>
 5    1  0.9955701E-004  0.1541246E+03  0.7818608E-02  0.1195494E+00
         11   -1    0    0    0    0  0.00000000000E+00  0.00000000000E+00  0.10002449461E+04  0.10002449461E+04  0.51100000000E-03 0. -1.
          2   -1    0    0  501    0 -0.00000000000E+00 -0.00000000000E+00 -0.24017766571E+02  0.24017766706E+02  0.25500000000E-02 0. -1.
         11    1    1    2    0    0  0.13303207558E+03  0.41142284723E+02  0.63118352548E+03  0.64636124850E+03  0.51100000000E-03 0. -1.
         22    1    1    2    0    0 -0.58205647420E+02 -0.49845093316E+02  0.20549395356E+03  0.21931756808E+03  0.00000000000E+00 0. -1.
          2    1    1    2  501    0 -0.74826428157E+02  0.87028085932E+01  0.13954970047E+03  0.15858389621E+03  0.25500000000E-02 0. -1.
<mgrwt>
<rscale>  0 0.15412460E+03</rscale>
<asrwt>0</asrwt>
<pdfrwt beam="1">  1       11 0.10000000E+01 0.13924877E+03</pdfrwt>
<pdfrwt beam="2">  1        2 0.36959460E-02 0.15412460E+03</pdfrwt>
<totfact> 0.27617149E+03</totfact>
</mgrwt>
</event>
<event>
 5    1  0.9955701E-004  0.4718199E+02  0.7818608E-02  0.1461162E+00
         11   -1    0    0    0    0  0.00000000000E+00  0.00000000000E+00  0.10001616518E+04  0.10001616518E+04  0.51100000000E-03 0.  1.
          2   -1    0    0  501    0 -0.00000000000E+00 -0.00000000000E+00 -0.95592945918E+01  0.95592949319E+01  0.25500000000E-02 0.  1.
         11    1    1    2    0    0 -0.93087795174E+01  0.37672529277E+02  0.16903576478E+03  0.17343287639E+03  0.51100000000E-03 0.  1.
         22    1    1    2    0    0  0.42762419554E+02  0.17874622207E+02  0.84512761073E+02  0.96387413231E+02  0.00000000000E+00 0.  1.
          2    1    1    2  501    0 -0.33453640037E+02 -0.55547151485E+02  0.73705383134E+03  0.73990065710E+03  0.25500000000E-02 0.  1.
<mgrwt>
<rscale>  0 0.47181985E+02</rscale>
<asrwt>0</asrwt>
<pdfrwt beam="1">  1       11 0.10000000E+01 0.38805597E+02</pdfrwt>
<pdfrwt beam="2">  1        2 0.14708984E-02 0.47181985E+02</pdfrwt>
<totfact> 0.81487098E+03</totfact>
</mgrwt>
</event>
<event>
 5    1  0.9955701E-004  0.1240078E+03  0.7818608E-02  0.1236628E+00
         11   -1    0    0    0    0  0.00000000000E+00  0.00000000000E+00  0.10004955074E+04  0.10004955074E+04  0.51100000000E-03 0.  1.
          2   -1    0    0  501    0 -0.00000000000E+00 -0.00000000000E+00 -0.17322818002E+02  0.17322818190E+02  0.25500000000E-02 0.  1.
         11    1    1    2    0    0 -0.28288823922E+02  0.11518929894E+03  0.67995181403E+03  0.69021974874E+03  0.51100000000E-03 0.  1.
         22    1    1    2    0    0  0.99174482432E+01 -0.11465804492E+02  0.17918511419E+02  0.23471120633E+02  0.00000000000E+00 0.  1.
          2    1    1    2  501    0  0.18371375679E+02 -0.10372349445E+03  0.28530236398E+03  0.30412745625E+03  0.25500000000E-02 0.  1.
<mgrwt>
<rscale>  0 0.12400778E+03</rscale>
<asrwt>0</asrwt>
<pdfrwt beam="1">  1       11 0.10000000E+01 0.11861211E+03</pdfrwt>
<pdfrwt beam="2">  1        2 0.26663694E-02 0.12400778E+03</pdfrwt>
<totfact> 0.41880959E+03</totfact>
</mgrwt>
</event>
<event>
 5    1  0.9955701E-004  0.1443307E+03  0.7818608E-02  0.1331183E+00
         11   -1    0    0    0    0  0.00000000000E+00  0.00000000000E+00  0.10002807566E+04  0.10002807566E+04  0.51100000000E-03 0. -1.
         -2   -1    0    0    0  501 -0.00000000000E+00 -0.00000000000E+00 -0.10745488979E+03  0.10745488982E+03  0.25500000000E-02 0.  1.
         11    1    1    2    0    0  0.12179655134E+03  0.96032333878E+02  0.75989162095E+03  0.77555907877E+03  0.51100000000E-03 0. -1.
         22    1    1    2    0    0 -0.43513521852E+02 -0.69517178787E+00 -0.77135253230E+02  0.88564988221E+02  0.00000000000E+00 0.  1.
         -2    1    1    2    0  501 -0.78283029486E+02 -0.95337162090E+02  0.21006949904E+03  0.24361157939E+03  0.25500000000E-02 0.  1.
<mgrwt>
<rscale>  0 0.79253637E+02</rscale>
<asrwt>0</asrwt>
<pdfrwt beam="1">  1       11 0.10000000E+01 0.14433071E+03</pdfrwt>
<pdfrwt beam="2">  1       -2 0.16536162E-01 0.79253637E+02</pdfrwt>
<totfact> 0.22176747E+02</totfact>
</mgrwt>
</event>
<event>
 5    1  0.9955701E-004  0.2711959E+03  0.7818608E-02  0.1300097E+00
         11   -1    0    0    0    0  0.00000000000E+00  0.00000000000E+00  0.10002373237E+04  0.10002373237E+04  0.51100000000E-03 0.  1.
         -2   -1    0    0    0  501 -0.00000000000E+00 -0.00000000000E+00 -0.20326430840E+03  0.20326430841E+03  0.25500000000E-02 0. -1.
         11    1    1    2    0    0 -0.14310846139E+03 -0.23646264984E+03  0.80637994446E+03  0.85243371081E+03  0.51100000000E-03 0.  1.
         22    1    1    2    0    0  0.26999073632E+02  0.14474195171E+02 -0.84217790567E+02  0.89616340870E+02  0.00000000000E+00 0. -1.
         -2    1    1    2    0  501  0.11610938776E+03  0.22198845467E+03  0.74810861447E+02  0.26145158047E+03  0.25500000000E-02 0. -1.
<mgrwt>
<rscale>  0 0.91147462E+02</rscale>
<asrwt>0</asrwt>
<pdfrwt beam="1">  1       11 0.10000000E+01 0.27119586E+03</pdfrwt>
<pdfrwt beam="2">  1       -2 0.31278853E-01 0.91147462E+02</pdfrwt>
<totfact> 0.75107411E+01</totfact>
</mgrwt>
</event>
<event>
 5    1  0.9955701E-004  0.2766620E+03  0.7818608E-02  0.1097526E+00
         11   -1    0    0    0    0  0.00000000000E+00  0.00000000000E+00  0.10003442666E+04  0.10003442666E+04  0.51100000000E-03 0. -1.
          2   -1    0    0  501    0 -0.00000000000E+00 -0.00000000000E+00 -0.10100549703E+03  0.10100549707E+03  0.25500000000E-02 0. -1.
         11    1    1    2    0    0  0.21865449036E+02  0.27453803492E+03  0.72196485051E+03  0.77271112057E+03  0.51100000000E-03 0. -1.
         22    1    1    2    0    0 -0.39065468273E+01 -0.14990315536E+02  0.40134745685E+01  0.16002457502E+02  0.00000000000E+00 0.  1.
          2    1    1    2  501    0 -0.17958902209E+02 -0.25954771939E+03  0.17336044444E+03  0.31263618554E+03  0.25500000000E-02 0. -1.
<mgrwt>
<rscale>  0 0.27666198E+03</rscale>
<asrwt>0</asrwt>
<pdfrwt beam="1">  1       11 0.10000000E+01 0.27540739E+03</pdfrwt>
<pdfrwt beam="2">  1        2 0.15544656E-01 0.27666198E+03</pdfrwt>
<totfact> 0.46077780E+02</totfact>
</mgrwt>
</event>
<event>
 5    1  0.9955701E-004  0.2501503E+03  0.7818608E-02  0.1165043E+00
         11   -1    0    0    0    0  0.00000000000E+00  0.00000000000E+00  0.10001843370E+04  0.10001843370E+04  0.51100000000E-03 0. -1.
          2   -1    0    0  501    0 -0.00000000000E+00 -0.00000000000E+00 -0.22113311318E+03  0.22113311319E+03  0.25500000000E-02 0. -1.
         11    1    1    2    0    0  0.14941375730E+03  0.16117931545E+03  0.52012626211E+03  0.56465438202E+03  0.51100000000E-03 0. -1.
         22    1    1    2    0    0  0.11343635114E+03  0.70771117472E+02 -0.90695644658E+02  0.16156130969E+03  0.00000000000E+00 0. -1.
          2    1    1    2  501    0 -0.26285010844E+03 -0.23195043292E+03  0.34962060634E+03  0.49510175845E+03  0.25500000000E-02 0. -1.
<mgrwt>
<rscale>  0 0.18288171E+03</rscale>
<asrwt>0</asrwt>
<pdfrwt beam="1">  1       11 0.10000000E+01 0.25015032E+03</pdfrwt>
<pdfrwt beam="2">  1        2 0.34026749E-01 0.18288171E+03</pdfrwt>
<totfact> 0.18813057E+02</totfact>
</mgrwt>
</event>
<event>
 5    1  0.9955701E-004  0.1650207E+03  0.7818608E-02  0.1257723E+00
         11   -1    0    0    0    0  0.00000000000E+00  0.00000000000E+00  0.10001899237E+04  0.10001899237E+04  0.51100000000E-03 0. -1.
          2   -1    0    0  501    0 -0.00000000000E+00 -0.00000000000E+00 -0.23935609648E+03  0.23935609649E+03  0.25500000000E-02 0. -1.
         11    1    1    2    0    0  0.62011684745E+02  0.16038752867E+03  0.94544823845E+03  0.96095888569E+03  0.51100000000E-03 0. -1.
         22    1    1    2    0    0 -0.49506210583E+02 -0.56880343179E+02 -0.15144204076E+03  0.16917721489E+03  0.00000000000E+00 0.  1.
          2    1    1    2  501    0 -0.12505474162E+02 -0.10350718549E+03 -0.33172370491E+02  0.10940991958E+03  0.25500000000E-02 0. -1.
<mgrwt>
<rscale>  0 0.11155152E+03</rscale>
<asrwt>0</asrwt>
<pdfrwt beam="1">  1       11 0.10000000E+01 0.16502072E+03</pdfrwt>
<pdfrwt beam="2">  1        2 0.36831008E-01 0.11155152E+03</pdfrwt>
<totfact> 0.17167449E+02</totfact>
</mgrwt>
</event>
<event>
 5    1  0.9955701E-004  0.1099568E+03  0.7818608E-02  0.1418981E+00
         11   -1    0    0    0    0  0.00000000000E+00  0.00000000000E+00  0.10001019040E+04  0.10001019040E+04  0.51100000000E-03 0. -1.
          2   -1    0    0  501    0 -0.00000000000E+00 -0.00000000000E+00 -0.22647235075E+02  0.22647235219E+02  0.25500000000E-02 0. -1.
         11    1    1    2    0    0 -0.44933809312E+02 -0.11545163472E+03  0.56759886073E+03  0.58096178349E+03  0.51100000000E-03 0. -1.
         22    1    1    2    0    0  0.15695495993E+01  0.27704070506E+02  0.90249929028E+01  0.29179264991E+02  0.00000000000E+00 0. -1.
          2    1    1    2  501    0  0.43364259712E+02  0.87747564214E+02  0.40083081533E+03  0.41260809077E+03  0.25500000000E-02 0. -1.
<mgrwt>
<rscale>  0 0.55237067E+02</rscale>
<asrwt>0</asrwt>
<pdfrwt beam="1">  1       11 0.10000000E+01 0.10995678E+03</pdfrwt>
<pdfrwt beam="2">  1        2 0.34845450E-02 0.55237067E+02</pdfrwt>
<totfact> 0.26799121E+03</totfact>
</mgrwt>
</event>
<event>
 5    1  0.9955701E-004  0.2710837E+03  0.7818608E-02  0.1267873E+00
         11   -1    0    0    0    0  0.00000000000E+00  0.00000000000E+00  0.10002685214E+04  0.10002685214E+04  0.51100000000E-03 0. -1.
          2   -1    0    0  501    0 -0.00000000000E+00 -0.00000000000E+00 -0.24267909541E+03  0.24267909542E+03  0.25500000000E-02 0. -1.
         11    1    1    2    0    0 -0.15732674949E+03 -0.21362059922E+03  0.69019825487E+03  0.73943160437E+03  0.51100000000E-03 0. -1.
         22    1    1    2    0    0 -0.41498511302E+02  0.23430588392E+01 -0.14055300066E+03  0.14656999133E+03  0.00000000000E+00 0. -1.
          2    1    1    2  501    0  0.19882526080E+03  0.21127754038E+03  0.20794417176E+03  0.35694602109E+03  0.25500000000E-02 0. -1.
<mgrwt>
<rscale>  0 0.10614842E+03</rscale>
<asrwt>0</asrwt>
<pdfrwt beam="1">  1       11 0.10000000E+01 0.27108372E+03</pdfrwt>
<pdfrwt beam="2">  1        2 0.37345270E-01 0.10614842E+03</pdfrwt>
<totfact> 0.16905197E+02</totfact>
</mgrwt>
</event>
<event>
 5    1  0.9955701E-004  0.1653687E+03  0.7818608E-02  0.1182765E+00
         11   -1    0    0    0    0  0.00000000000E+00  0.00000000000E+00  0.10001868493E+04  0.10001868493E+04  0.51100000000E-03 0.  1.
          2   -1    0    0  501    0 -0.00000000000E+00 -0.00000000000E+00 -0.31265695768E+02  0.31265695872E+02  0.25500000000E-02 0.  1.
         11    1    1    2    0    0 -0.66471804641E+02 -0.14320335384E+03  0.68431247684E+03  0.70228859262E+03  0.51100000000E-03 0.  1.
         22    1    1    2    0    0  0.16844314731E+02  0.63159305289E+01  0.18376758910E+02  0.25716282492E+02  0.00000000000E+00 0.  1.
          2    1    1    2  501    0  0.49627489911E+02  0.13688742331E+03  0.26623191781E+03  0.30344767009E+03  0.25500000000E-02 0.  1.
<mgrwt>
<rscale>  0 0.16536871E+03</rscale>
<asrwt>0</asrwt>
<pdfrwt beam="1">  1       11 0.10000000E+01 0.15787876E+03</pdfrwt>
<pdfrwt beam="2">  1        2 0.48110057E-02 0.16536871E+03</pdfrwt>
<totfact> 0.19586046E+03</totfact>
</mgrwt>
</event>
<event>
 5    1  0.9955701E-004  0.1229039E+03  0.7818608E-02  0.1238382E+00
         11   -1    0    0    0    0  0.00000000000E+00  0.00000000000E+00  0.10003373323E+04  0.10003373323E+04  0.51100000000E-03 0. -1.
          2   -1    0    0  501    0 -0.00000000000E+00 -0.00000000000E+00 -0.14666158179E+02  0.14666158401E+02  0.25500000000E-02 0. -1.
         11    1    1    2    0    0 -0.30568134690E+02 -0.10959249378E+03  0.58280850097E+03  0.59381030166E+03  0.51100000000E-03 0. -1.
         22    1    1    2    0    0  0.12133395724E+02  0.25109125447E+02  0.44264918336E+02  0.52317018912E+02  0.00000000000E+00 0. -1.
          2    1    1    2  501    0  0.18434738966E+02  0.84483368336E+02  0.35859775483E+03  0.36887617014E+03  0.25500000000E-02 0. -1.
<mgrwt>
<rscale>  0 0.12290390E+03</rscale>
<asrwt>0</asrwt>
<pdfrwt beam="1">  1       11 0.10000000E+01 0.11377577E+03</pdfrwt>
<pdfrwt beam="2">  1        2 0.22570931E-02 0.12290390E+03</pdfrwt>
<totfact> 0.52406673E+03</totfact>
</mgrwt>
</event>
<event>
 5    1  0.9955701E-004  0.3236656E+03  0.7818608E-02  0.1076229E+00
         11   -1    0    0    0    0  0.00000000000E+00  0.00000000000E+00  0.10001156501E+04  0.10001156501E+04  0.51100000000E-03 0.  1.
          2   -1    0    0  501    0 -0.00000000000E+00 -0.00000000000E+00 -0.24451681127E+03  0.24451681129E+03  0.25500000000E-02 0.  1.
         11    1    1    2    0    0 -0.14725301115E+03 -0.26608241428E+03 -0.76856883812E+02  0.31367225103E+03  0.51100000000E-03 0.  1.
         22    1    1    2    0    0 -0.12358384703E+02 -0.98179606320E+01 -0.17283849355E+02  0.23406269929E+02  0.00000000000E+00 0.  1.
          2    1    1    2  501    0  0.15961139585E+03  0.27590037491E+03  0.84973957199E+03  0.90755394042E+03  0.25500000000E-02 0.  1.
<mgrwt>
<rscale>  0 0.31874255E+03</rscale>
<asrwt>0</asrwt>
<pdfrwt beam="1">  1       11 0.10000000E+01 0.32366565E+03</pdfrwt>
<pdfrwt beam="2">  1        2 0.37622320E-01 0.31874255E+03</pdfrwt>
<totfact> 0.16957962E+02</totfact>
</mgrwt>
</event>
<event>
 5    1  0.9955701E-004  0.1977634E+03  0.7818608E-02  0.1263336E+00
         11   -1    0    0    0    0  0.00000000000E+00  0.00000000000E+00  0.10000017156E+04  0.10000017156E+04  0.51100000000E-03 0.  1.
          2   -1    0    0  501    0 -0.00000000000E+00 -0.00000000000E+00 -0.12028468378E+03  0.12028468381E+03  0.25500000000E-02 0.  1.
         11    1    1    2    0    0  0.47383104160E+02 -0.18213501637E+03  0.70249071361E+03  0.72726303732E+03  0.51100000000E-03 0.  1.
         22    1    1    2    0    0  0.42750255142E+02 -0.41453902460E+02 -0.37345076258E+02  0.70289864593E+02  0.00000000000E+00 0. -1.
          2    1    1    2  501    0 -0.90133359302E+02  0.22358891883E+03  0.21457139451E+03  0.32273349754E+03  0.25500000000E-02 0.  1.
<mgrwt>
<rscale>  0 0.10851956E+03</rscale>
<asrwt>0</asrwt>
<pdfrwt beam="1">  1       11 0.10000000E+01 0.19776344E+03</pdfrwt>
<pdfrwt beam="2">  1        2 0.18505367E-01 0.10851956E+03</pdfrwt>
<totfact> 0.36397379E+02</totfact>
</mgrwt>
</event>
<event>
 5    1  0.9955701E-004  0.6136456E+03  0.7818608E-02  0.1039781E+00
         11   -1    0    0    0    0  0.00000000000E+00  0.00000000000E+00  0.10007152200E+04  0.10007152200E+04  0.51100000000E-03 0. -1.
          2   -1    0    0  501    0 -0.00000000000E+00 -0.00000000000E+00 -0.10566159786E+04  0.10566159786E+04  0.25500000000E-02 0. -1.
         11    1    1    2    0    0 -0.52947666242E+03  0.32526836401E+03  0.63872600274E+03  0.89113183719E+03  0.51100000000E-03 0. -1.
         22    1    1    2    0    0  0.18623008613E+03  0.20410223494E+03 -0.35446693550E+03  0.44942872143E+03  0.00000000000E+00 0. -1.
          2    1    1    2  501    0  0.34324657629E+03 -0.52937059895E+03 -0.34015982586E+03  0.71677063996E+03  0.25500000000E-02 0. -1.
<mgrwt>
<rscale>  0 0.41176171E+03</rscale>
<asrwt>0</asrwt>
<pdfrwt beam="1">  1       11 0.10000000E+01 0.61364563E+03</pdfrwt>
<pdfrwt beam="2">  1        2 0.16267256E+00 0.41176171E+03</pdfrwt>
<totfact> 0.29682340E+01</totfact>
</mgrwt>
</event>
<event>
 5    1  0.9955701E-004  0.1443659E+03  0.7818608E-02  0.1376629E+00
         11   -1    0    0    0    0  0.00000000000E+00  0.00000000000E+00  0.10005078827E+04  0.10005078827E+04  0.51100000000E-03 0. -1.
         -2   -1    0    0    0  501 -0.00000000000E+00 -0.00000000000E+00 -0.34533150956E+02  0.34533151050E+02  0.25500000000E-02 0.  1.
         11    1    1    2    0    0 -0.24241603544E+02 -0.13636939512E+03  0.57948024328E+03  0.59580333972E+03  0.51100000000E-03 0. -1.
         22    1    1    2    0    0 -0.27124409856E+02 -0.11823435561E+02  0.97578855987E+01  0.31156758013E+02  0.00000000000E+00 0.  1.
         -2    1    1    2    0  501  0.51366013400E+02  0.14819283068E+03  0.37673660285E+03  0.40808093600E+03  0.25500000000E-02 0.  1.
<mgrwt>
<rscale>  0 0.65358157E+02</rscale>
<asrwt>0</asrwt>
<pdfrwt beam="1">  1       11 0.10000000E+01 0.14436595E+03</pdfrwt>
<pdfrwt beam="2">  1       -2 0.53154906E-02 0.65358157E+02</pdfrwt>
<totfact> 0.12581665E+03</totfact>
</mgrwt>
</event>
<event>
 5    1  0.9955701E-004  0.8218419E+02  0.7818608E-02  0.1477243E+00
         11   -1    0    0    0    0  0.00000000000E+00  0.00000000000E+00  0.10001590124E+04  0.10001590124E+04  0.51100000000E-03 0. -1.
         -2   -1    0    0    0  501 -0.00000000000E+00 -0.00000000000E+00 -0.12206073380E+02  0.12206073646E+02  0.25500000000E-02 0.  1.
         11    1    1    2    0    0  0.87986076297E+02 -0.45377995483E+01  0.37071885478E+03  0.38104410576E+03  0.51100000000E-03 0. -1.
         22    1    1    2    0    0 -0.97750129971E+01  0.22069223931E+02  0.29360059377E+02  0.38008086122E+02  0.00000000000E+00 0. -1.
         -2    1    1    2    0  501 -0.78211063300E+02 -0.17531424383E+02  0.58787402486E+03  0.59331289416E+03  0.25500000000E-02 0.  1.
<mgrwt>
<rscale>  0 0.44538638E+02</rscale>
<asrwt>0</asrwt>
<pdfrwt beam="1">  1       11 0.10000000E+01 0.82184188E+02</pdfrwt>
<pdfrwt beam="2">  1       -2 0.18781560E-02 0.44538638E+02</pdfrwt>
<totfact> 0.53263707E+03</totfact>
</mgrwt>
</event>
<event>
 5    1  0.9955701E-004  0.9488383E+02  0.7818608E-02  0.1517069E+00
         11   -1    0    0    0    0  0.00000000000E+00  0.00000000000E+00  0.10003294518E+04  0.10003294518E+04  0.51100000000E-03 0.  1.
          2   -1    0    0  501    0 -0.00000000000E+00 -0.00000000000E+00 -0.11579831451E+02  0.11579831732E+02  0.25500000000E-02 0.  1.
         11    1    1    2    0    0  0.56042160564E+02  0.72573220390E+02  0.49967921106E+03  0.50802254875E+03  0.51100000000E-03 0.  1.
         22    1    1    2    0    0  0.15510320270E+02 -0.34229810777E+01  0.27911258753E+02  0.32114252280E+02  0.00000000000E+00 0.  1.
          2    1    1    2  501    0 -0.71552480834E+02 -0.69150239312E+02  0.46115915053E+03  0.47177248249E+03  0.25500000000E-02 0.  1.
<mgrwt>
<rscale>  0 0.38821272E+02</rscale>
<asrwt>0</asrwt>
<pdfrwt beam="1">  1       11 0.10000000E+01 0.94883832E+02</pdfrwt>
<pdfrwt beam="2">  1        2 0.17820994E-02 0.38821272E+02</pdfrwt>
<totfact> 0.61198851E+03</totfact>
</mgrwt>
</event>
<event>
 5    1  0.1373495E-003  0.2463975E+03  0.7818608E-02  0.1115603E+00
         11   -1    0    0    0    0  0.00000000000E+00  0.00000000000E+00  0.99989563843E+03  0.99989563843E+03  0.51100000000E-03 0. -1.
          2   -1    0    0  501    0 -0.00000000000E+00 -0.00000000000E+00 -0.80616085500E+03  0.80616085501E+03  0.25500000000E-02 0. -1.
         11    1    1    2    0    0 -0.21934515640E+03  0.93152760526E+02  0.96624746045E+03  0.99520042667E+03  0.51100000000E-03 0. -1.
         22    1    1    2    0    0  0.89209316864E+01 -0.22243144476E+02 -0.89625461004E+02  0.92774262371E+02  0.00000000000E+00 0. -1.
          2    1    1    2  501    0  0.21042422472E+03 -0.70909616050E+02 -0.68288721601E+03  0.71808180439E+03  0.25500000000E-02 0. -1.
<mgrwt>
<rscale>  0 0.24639749E+03</rscale>
<asrwt>0</asrwt>
<pdfrwt beam="1">  1       11 0.10000000E+01 0.23830597E+03</pdfrwt>
<pdfrwt beam="2">  1        2 0.12401180E+00 0.24639749E+03</pdfrwt>
<totfact> 0.44047215E+01</totfact>
</mgrwt>
</event>
<event>
 5    1  0.9955701E-004  0.2388077E+02  0.7818608E-02  0.1795902E+00
         11   -1    0    0    0    0  0.00000000000E+00  0.00000000000E+00  0.10002090300E+04  0.10002090300E+04  0.51100000000E-03 0. -1.
          2   -1    0    0  501    0 -0.00000000000E+00 -0.00000000000E+00 -0.11768303263E+02  0.11768303539E+02  0.25500000000E-02 0. -1.
         11    1    1    2    0    0 -0.11496602187E+02  0.21158429471E+02  0.87879533014E+01  0.25633554631E+02  0.51100000000E-03 0. -1.
         22    1    1    2    0    0 -0.92647244444E+01 -0.92402970784E+01  0.10188115283E+02  0.16583603413E+02  0.00000000000E+00 0. -1.
          2    1    1    2  501    0  0.20761326632E+02 -0.11918132393E+02  0.96946465818E+03  0.96976017553E+03  0.25500000000E-02 0. -1.
<mgrwt>
<rscale>  0 0.17677120E+02</rscale>
<asrwt>0</asrwt>
<pdfrwt beam="1">  1       11 0.10000000E+01 0.23880766E+02</pdfrwt>
<pdfrwt beam="2">  1        2 0.18108866E-02 0.17677120E+02</pdfrwt>
<totfact> 0.51807452E+03</totfact>
</mgrwt>
</event>
<event>
 5    1  0.9955701E-004  0.1199931E+03  0.7818608E-02  0.1243108E+00
         11   -1    0    0    0    0  0.00000000000E+00  0.00000000000E+00  0.10002604791E+04  0.10002604791E+04  0.51100000000E-03 0. -1.
          2   -1    0    0  501    0 -0.00000000000E+00 -0.00000000000E+00 -0.28011548278E+02  0.28011548394E+02  0.25500000000E-02 0. -1.
         11    1    1    2    0    0 -0.36049290918E+01 -0.96332044715E+01 -0.25661448081E+01  0.10600907583E+02  0.51100000000E-03 0. -1.
         22    1    1    2    0    0  0.67705504056E+02  0.10166471728E+03  0.19687777836E+03  0.23169076294E+03  0.00000000000E+00 0. -1.
          2    1    1    2  501    0 -0.64100574964E+02 -0.92031512805E+02  0.77793729730E+03  0.78598035701E+03  0.25500000000E-02 0. -1.
<mgrwt>
<rscale>  0 0.11999310E+03</rscale>
<asrwt>0</asrwt>
<pdfrwt beam="1">  1       11 0.10000000E+01 0.10285633E+02</pdfrwt>
<pdfrwt beam="2">  1        2 0.43105914E-02 0.11999310E+03</pdfrwt>
<totfact> 0.22019956E+03</totfact>
</mgrwt>
</event>
<event>
 5    1  0.9955701E-004  0.1914541E+03  0.7818608E-02  0.1157156E+00
         11   -1    0    0    0    0  0.00000000000E+00  0.00000000000E+00  0.10001802344E+04  0.10001802344E+04  0.51100000000E-03 0. -1.
         -2   -1    0    0    0  501 -0.00000000000E+00 -0.00000000000E+00 -0.97195326527E+02  0.97195326561E+02  0.25500000000E-02 0. -1.
         11    1    1    2    0    0 -0.16054195817E+03 -0.96043147881E+02  0.88558862480E+03  0.90513270793E+03  0.51100000000E-03 0. -1.
         22    1    1    2    0    0  0.15230776792E+02  0.20174553677E+02  0.12607951482E+02  0.28248002023E+02  0.00000000000E+00 0. -1.
         -2    1    1    2    0  501  0.14531118137E+03  0.75868594204E+02  0.47883315506E+01  0.16399485097E+03  0.25500000000E-02 0. -1.
<mgrwt>
<rscale>  0 0.19145413E+03</rscale>
<asrwt>0</asrwt>
<pdfrwt beam="1">  1       11 0.10000000E+01 0.18707754E+03</pdfrwt>
<pdfrwt beam="2">  1       -2 0.14955822E-01 0.19145413E+03</pdfrwt>
<totfact> 0.27199021E+02</totfact>
</mgrwt>
</event>
<event>
 5    1  0.9955701E-004  0.1741102E+03  0.7818608E-02  0.1173628E+00
         11   -1    0    0    0    0  0.00000000000E+00  0.00000000000E+00  0.10002211172E+04  0.10002211172E+04  0.51100000000E-03 0.  1.
          2   -1    0    0  501    0 -0.00000000000E+00 -0.00000000000E+00 -0.14984327402E+03  0.14984327404E+03  0.25500000000E-02 0.  1.
         11    1    1    2    0    0  0.12601235014E+03 -0.11630806108E+03  0.93911638541E+03  0.95464457407E+03  0.51100000000E-03 0.  1.
         22    1    1    2    0    0 -0.13416331421E+02  0.42432082683E+01 -0.14168926173E+01  0.14142501543E+02  0.00000000000E+00 0.  1.
          2    1    1    2  501    0 -0.11259601872E+03  0.11206485281E+03 -0.87321649606E+02  0.18127731564E+03  0.25500000000E-02 0.  1.
<mgrwt>
<rscale>  0 0.17411024E+03</rscale>
<asrwt>0</asrwt>
<pdfrwt beam="1">  1       11 0.10000000E+01 0.17148375E+03</pdfrwt>
<pdfrwt beam="2">  1        2 0.23057908E-01 0.17411024E+03</pdfrwt>
<totfact> 0.28834912E+02</totfact>
</mgrwt>
</event>
<event>
 5    1  0.9955701E-004  0.1776038E+03  0.7818608E-02  0.1266443E+00
         11   -1    0    0    0    0  0.00000000000E+00  0.00000000000E+00  0.10002789419E+04  0.10002789419E+04  0.51100000000E-03 0. -1.
          2   -1    0    0  501    0 -0.00000000000E+00 -0.00000000000E+00 -0.93752678480E+02  0.93752678514E+02  0.25500000000E-02 0. -1.
         11    1    1    2    0    0 -0.87398205114E+02 -0.19071095862E+03  0.61314555566E+03  0.64804057622E+03  0.51100000000E-03 0. -1.
         22    1    1    2    0    0  0.42130373256E+02  0.48613997773E+02 -0.43445653085E+02  0.77626116109E+02  0.00000000000E+00 0. -1.
          2    1    1    2  501    0  0.45267831858E+02  0.14209696085E+03  0.33682636088E+03  0.36836492813E+03  0.25500000000E-02 0. -1.
<mgrwt>
<rscale>  0 0.10688856E+03</rscale>
<asrwt>0</asrwt>
<pdfrwt beam="1">  1       11 0.10000000E+01 0.17760381E+03</pdfrwt>
<pdfrwt beam="2">  1        2 0.14427512E-01 0.10688856E+03</pdfrwt>
<totfact> 0.48438476E+02</totfact>
</mgrwt>
</event>
<event>
 5    1  0.9955701E-004  0.1565980E+03  0.7818608E-02  0.1294752E+00
         11   -1    0    0    0    0  0.00000000000E+00  0.00000000000E+00  0.10005194824E+04  0.10005194824E+04  0.51100000000E-03 0.  1.
          2   -1    0    0  501    0 -0.00000000000E+00 -0.00000000000E+00 -0.41849945928E+02  0.41849946005E+02  0.25500000000E-02 0.  1.
         11    1    1    2    0    0 -0.48489245060E+02  0.14862162428E+03  0.58010006798E+03  0.60079587462E+03  0.51100000000E-03 0.  1.
         22    1    1    2    0    0  0.53771604516E+02  0.14691744976E+02  0.51185528023E+02  0.75678207574E+02  0.00000000000E+00 0.  1.
          2    1    1    2  501    0 -0.52823594559E+01 -0.16331336925E+03  0.32738394050E+03  0.36589534624E+03  0.25500000000E-02 0.  1.
<mgrwt>
<rscale>  0 0.93430058E+02</rscale>
<asrwt>0</asrwt>
<pdfrwt beam="1">  1       11 0.10000000E+01 0.15659805E+03</pdfrwt>
<pdfrwt beam="2">  1        2 0.64417977E-02 0.93430058E+02</pdfrwt>
<totfact> 0.12835351E+03</totfact>
</mgrwt>
</event>
<event>
 5    1  0.9955701E-004  0.2935611E+03  0.7818608E-02  0.1412260E+00
         11   -1    0    0    0    0  0.00000000000E+00  0.00000000000E+00  0.10005016414E+04  0.10005016414E+04  0.51100000000E-03 0. -1.
          2   -1    0    0  501    0 -0.00000000000E+00 -0.00000000000E+00 -0.34985896006E+03  0.34985896007E+03  0.25500000000E-02 0. -1.
         11    1    1    2    0    0 -0.19612323293E+03  0.21825163714E+03  0.90154743976E+03  0.94809592645E+03  0.51100000000E-03 0. -1.
         22    1    1    2    0    0 -0.92518385267E+01 -0.58542232727E+01 -0.34061561085E+02  0.35777903653E+02  0.00000000000E+00 0.  1.
          2    1    1    2  501    0  0.20537507145E+03 -0.21239741387E+03 -0.21684319729E+03  0.36648677140E+03  0.25500000000E-02 0. -1.
<mgrwt>
<rscale>  0 0.56692478E+02</rscale>
<asrwt>0</asrwt>
<pdfrwt beam="1">  1       11 0.10000000E+01 0.29356106E+03</pdfrwt>
<pdfrwt beam="2">  1        2 0.53851454E-01 0.56692478E+02</pdfrwt>
<totfact> 0.11485663E+02</totfact>
</mgrwt>
</event>
<event>
 5    1  0.9955701E-004  0.1662611E+03  0.7818608E-02  0.1281521E+00
         11   -1    0    0    0    0  0.00000000000E+00  0.00000000000E+00  0.10000225424E+04  0.10000225424E+04  0.51100000000E-03 0.  1.
         -2   -1    0    0    0  501 -0.00000000000E+00 -0.00000000000E+00 -0.82460245474E+02  0.82460245514E+02  0.25500000000E-02 0.  1.
         11    1    1    2    0    0  0.41425507219E+01 -0.15909978445E+03  0.73060325863E+03  0.74773726914E+03  0.51100000000E-03 0.  1.
         22    1    1    2    0    0  0.17288950548E+02 -0.56881007225E+02  0.53333550313E+02  0.79867542738E+02  0.00000000000E+00 0.  1.
         -2    1    1    2    0  501 -0.21431501270E+02  0.21598079168E+03  0.13362548797E+03  0.25487797602E+03  0.25500000000E-02 0.  1.
<mgrwt>
<rscale>  0 0.99419821E+02</rscale>
<asrwt>0</asrwt>
<pdfrwt beam="1">  1       11 0.10000000E+01 0.16626114E+03</pdfrwt>
<pdfrwt beam="2">  1       -2 0.12686477E-01 0.99419821E+02</pdfrwt>
<totfact> 0.34399237E+02</totfact>
</mgrwt>
</event>
<event>
 5    1  0.9955701E-004  0.5307605E+02  0.7818608E-02  0.1429423E+00
         11   -1    0    0    0    0  0.00000000000E+00  0.00000000000E+00  0.10006285270E+04  0.10006285270E+04  0.51100000000E-03 0.  1.
          2   -1    0    0  501    0 -0.00000000000E+00 -0.00000000000E+00 -0.91623454927E+01  0.91623458476E+01  0.25500000000E-02 0.  1.
         11    1    1    2    0    0  0.46922501025E+02 -0.22788012763E+02  0.82130354914E+02  0.97295476907E+02  0.51100000000E-03 0.  1.
         22    1    1    2    0    0  0.69311056434E+01 -0.76466803589E+01  0.57679806293E+02  0.58595836029E+02  0.00000000000E+00 0.  1.
          2    1    1    2  501    0 -0.53853606668E+02  0.30434693121E+02  0.85165602032E+03  0.85389955993E+03  0.25500000000E-02 0.  1.
<mgrwt>
<rscale>  0 0.53076052E+02</rscale>
<asrwt>0</asrwt>
<pdfrwt beam="1">  1       11 0.10000000E+01 0.10320462E+02</pdfrwt>
<pdfrwt beam="2">  1        2 0.14104776E-02 0.53076052E+02</pdfrwt>
<totfact> 0.87879678E+03</totfact>
</mgrwt>
</event>
<event>
 5    1  0.9955701E-004  0.7115207E+02  0.7818608E-02  0.1554166E+00
         11   -1    0    0    0    0  0.00000000000E+00  0.00000000000E+00  0.10002131983E+04  0.10002131983E+04  0.51100000000E-03 0. -1.
          2   -1    0    0  501    0 -0.00000000000E+00 -0.00000000000E+00 -0.97140081761E+01  0.97140085108E+01  0.25500000000E-02 0. -1.
         11    1    1    2    0    0 -0.50414095785E+02 -0.42026826031E+02  0.28785433858E+03  0.29524219786E+03  0.51100000000E-03 0. -1.
         22    1    1    2    0    0  0.37038585198E+01 -0.16195057768E+02  0.13220336025E+02  0.21231480134E+02  0.00000000000E+00 0. -1.
          2    1    1    2  501    0  0.46710237265E+02  0.58221883799E+02  0.68942451551E+03  0.69345352881E+03  0.25500000000E-02 0. -1.
<mgrwt>
<rscale>  0 0.34381144E+02</rscale>
<asrwt>0</asrwt>
<pdfrwt beam="1">  1       11 0.10000000E+01 0.71152071E+02</pdfrwt>
<pdfrwt beam="2">  1        2 0.14947814E-02 0.34381144E+02</pdfrwt>
<totfact> 0.75489496E+03</totfact>
</mgrwt>
</event>
<event>
 5    1  0.9955701E-004  0.8889862E+02  0.7818608E-02  0.1598426E+00
         11   -1    0    0    0    0  0.00000000000E+00  0.00000000000E+00  0.99977528012E+03  0.99977528012E+03  0.51100000000E-03 0. -1.
         -2   -1    0    0    0  501 -0.00000000000E+00 -0.00000000000E+00 -0.17876539667E+02  0.17876539849E+02  0.25500000000E-02 0. -1.
         11    1    1    2    0    0  0.87805911185E+02 -0.18134949119E+02  0.17729221274E+03  0.19867381084E+03  0.51100000000E-03 0. -1.
         22    1    1    2    0    0 -0.33890375523E+01 -0.95179494613E+01  0.64501894129E+00  0.10123882008E+02  0.00000000000E+00 0. -1.
         -2    1    1    2    0  501 -0.84416873632E+02  0.27652898581E+02  0.80396150877E+03  0.80885412711E+03  0.25500000000E-02 0. -1.
<mgrwt>
<rscale>  0 0.29969487E+02</rscale>
<asrwt>0</asrwt>
<pdfrwt beam="1">  1       11 0.10000000E+01 0.88898621E+02</pdfrwt>
<pdfrwt beam="2">  1       -2 0.27496188E-02 0.29969487E+02</pdfrwt>
<totfact> 0.29263898E+03</totfact>
</mgrwt>
</event>
<event>
 5    1  0.9955701E-004  0.1295402E+03  0.7818608E-02  0.1228140E+00
         11   -1    0    0    0    0  0.00000000000E+00  0.00000000000E+00  0.10000216521E+04  0.10000216521E+04  0.51100000000E-03 0. -1.
          2   -1    0    0  501    0 -0.00000000000E+00 -0.00000000000E+00 -0.28403515327E+02  0.28403515442E+02  0.25500000000E-02 0. -1.
         11    1    1    2    0    0 -0.19084016443E+02  0.12260502394E+03  0.67860421087E+03  0.68985496055E+03  0.51100000000E-03 0. -1.
         22    1    1    2    0    0 -0.30553310748E+02 -0.26288310073E+00  0.10118275794E+03  0.10569543231E+03  0.00000000000E+00 0.  1.
          2    1    1    2  501    0  0.49637327191E+02 -0.12234214084E+03  0.19183116790E+03  0.23287477464E+03  0.25500000000E-02 0. -1.
<mgrwt>
<rscale>  0 0.12954023E+03</rscale>
<asrwt>0</asrwt>
<pdfrwt beam="1">  1       11 0.10000000E+01 0.30554442E+02</pdfrwt>
<pdfrwt beam="2">  1        2 0.43698661E-02 0.12954023E+03</pdfrwt>
<totfact> 0.21777567E+03</totfact>
</mgrwt>
</event>
<event>
 5    1  0.9955701E-004  0.2868127E+03  0.7818608E-02  0.1209954E+00
         11   -1    0    0    0    0  0.00000000000E+00  0.00000000000E+00  0.10001299069E+04  0.10001299069E+04  0.51100000000E-03 0.  1.
          2   -1    0    0  501    0 -0.00000000000E+00 -0.00000000000E+00 -0.41987539865E+03  0.41987539866E+03  0.25500000000E-02 0.  1.
         11    1    1    2    0    0 -0.26666708773E+03 -0.11333151991E+03  0.91203955879E+03  0.95695952155E+03  0.51100000000E-03 0.  1.
         22    1    1    2    0    0  0.21790064820E+02  0.67402943761E+02 -0.48844389226E+02  0.86044977259E+02  0.00000000000E+00 0.  1.
          2    1    1    2  501    0  0.24487702291E+03  0.45928576148E+02 -0.28294066131E+03  0.37700080675E+03  0.25500000000E-02 0.  1.
<mgrwt>
<rscale>  0 0.14253812E+03</rscale>
<asrwt>0</asrwt>
<pdfrwt beam="1">  1       11 0.10000000E+01 0.28681266E+03</pdfrwt>
<pdfrwt beam="2">  1        2 0.64604605E-01 0.14253812E+03</pdfrwt>
<totfact> 0.94664954E+01</totfact>
</mgrwt>
</event>
<event>
 5    1  0.9955701E-004  0.5083217E+02  0.7818608E-02  0.1671149E+00
         11   -1    0    0    0    0  0.00000000000E+00  0.00000000000E+00  0.10002213792E+04  0.10002213792E+04  0.51100000000E-03 0.  1.
          2   -1    0    0  501    0 -0.00000000000E+00 -0.00000000000E+00 -0.28157594745E+02  0.28157594861E+02  0.25500000000E-02 0.  1.
         11    1    1    2    0    0 -0.55519615512E+02  0.29739748440E+02  0.41195629480E+02  0.75259286686E+02  0.51100000000E-03 0.  1.
         22    1    1    2    0    0  0.31235701209E+02 -0.30814905856E+02  0.32948416274E+02  0.54870990403E+02  0.00000000000E+00 0.  1.
          2    1    1    2  501    0  0.24283914303E+02  0.10751574152E+01  0.89791973869E+03  0.89824869697E+03  0.25500000000E-02 0.  1.
<mgrwt>
<rscale>  0 0.24307704E+02</rscale>
<asrwt>0</asrwt>
<pdfrwt beam="1">  1       11 0.10000000E+01 0.50832172E+02</pdfrwt>
<pdfrwt beam="2">  1        2 0.43328965E-02 0.24307704E+02</pdfrwt>
<totfact> 0.18281371E+03</totfact>
</mgrwt>
</event>
<event>
 5    1  0.9955701E-004  0.1736490E+03  0.7818608E-02  0.1420576E+00
         11   -1    0    0    0    0  0.00000000000E+00  0.00000000000E+00  0.10006999423E+04  0.10006999423E+04  0.51100000000E-03 0. -1.
          2   -1    0    0  501    0 -0.00000000000E+00 -0.00000000000E+00 -0.30138612366E+03  0.30138612367E+03  0.25500000000E-02 0.  1.
         11    1    1    2    0    0  0.14754350659E+03 -0.90692582671E+02  0.95504929611E+03  0.97062525667E+03  0.51100000000E-03 0. -1.
         22    1    1    2    0    0  0.16278463469E+02 -0.60212531541E+01 -0.80080761386E+01  0.19114736354E+02  0.00000000000E+00 0. -1.
          2    1    1    2  501    0 -0.16382197005E+03  0.96713835825E+02 -0.24772740132E+03  0.31234607295E+03  0.25500000000E-02 0.  1.
<mgrwt>
<rscale>  0 0.54899161E+02</rscale>
<asrwt>0</asrwt>
<pdfrwt beam="1">  1       11 0.10000000E+01 0.17364901E+03</pdfrwt>
<pdfrwt beam="2">  1        2 0.46399549E-01 0.54899161E+02</pdfrwt>
<totfact> 0.13378385E+02</totfact>
</mgrwt>
</event>
<event>
 5    1  0.9955701E-004  0.5555384E+02  0.7818608E-02  0.1481539E+00
         11   -1    0    0    0    0  0.00000000000E+00  0.00000000000E+00  0.10000993608E+04  0.10000993608E+04  0.51100000000E-03 0.  1.
          2   -1    0    0  501    0 -0.00000000000E+00 -0.00000000000E+00 -0.14763913203E+02  0.14763913423E+02  0.25500000000E-02 0.  1.
         11    1    1    2    0    0 -0.38903496632E+02  0.22387222744E+02  0.13311619439E+03  0.14047985977E+03  0.51100000000E-03 0.  1.
         22    1    1    2    0    0 -0.21621461927E+02 -0.27062739053E+02  0.20091511847E+02  0.40044329302E+02  0.00000000000E+00 0.  1.
          2    1    1    2  501    0  0.60524958559E+02  0.46755163091E+01  0.83212774135E+03  0.83433908514E+03  0.25500000000E-02 0.  1.
<mgrwt>
<rscale>  0 0.43867344E+02</rscale>
<asrwt>0</asrwt>
<pdfrwt beam="1">  1       11 0.10000000E+01 0.55553840E+02</pdfrwt>
<pdfrwt beam="2">  1        2 0.22715969E-02 0.43867344E+02</pdfrwt>
<totfact> 0.45382263E+03</totfact>
</mgrwt>
</event>
<event>
 5    1  0.9955701E-004  0.1535711E+03  0.7818608E-02  0.1434032E+00
         11   -1    0    0    0    0  0.00000000000E+00  0.00000000000E+00  0.10004604034E+04  0.10004604034E+04  0.51100000000E-03 0.  1.
         -2   -1    0    0    0  501 -0.00000000000E+00 -0.00000000000E+00 -0.60976141941E+02  0.60976141994E+02  0.25500000000E-02 0. -1.
         11    1    1    2    0    0  0.12080362490E+03 -0.93576431227E+02  0.81309919025E+03  0.82733328076E+03  0.51100000000E-03 0.  1.
         22    1    1    2    0    0 -0.70129757614E+01 -0.16268225406E+02 -0.14037077816E+02  0.22602578182E+02  0.00000000000E+00 0.  1.
         -2    1    1    2    0  501 -0.11379064914E+03  0.10984465663E+03  0.14042214899E+03  0.21150068642E+03  0.25500000000E-02 0. -1.
<mgrwt>
<rscale>  0 0.52159185E+02</rscale>
<asrwt>0</asrwt>
<pdfrwt beam="1">  1       11 0.10000000E+01 0.15357111E+03</pdfrwt>
<pdfrwt beam="2">  1       -2 0.93852637E-02 0.52159185E+02</pdfrwt>
<totfact> 0.52586135E+02</totfact>
</mgrwt>
</event>
<event>
 5    1  0.9955701E-004  0.7696881E+02  0.7818608E-02  0.1581280E+00
         11   -1    0    0    0    0  0.00000000000E+00  0.00000000000E+00  0.10002485880E+04  0.10002485880E+04  0.51100000000E-03 0. -1.
         -2   -1    0    0    0  501 -0.00000000000E+00 -0.00000000000E+00 -0.94207375679E+01  0.94207379130E+01  0.25500000000E-02 0. -1.
         11    1    1    2    0    0 -0.62471635532E+02 -0.29475488735E+02  0.27745370687E+03  0.28592318748E+03  0.51100000000E-03 0. -1.
         22    1    1    2    0    0 -0.12893278941E+02 -0.12629796120E+01  0.11979766167E+02  0.17645015069E+02  0.00000000000E+00 0. -1.
         -2    1    1    2    0  501  0.75364914473E+02  0.30738468347E+02  0.70139437743E+03  0.70610112340E+03  0.25500000000E-02 0. -1.
<mgrwt>
<rscale>  0 0.31577359E+02</rscale>
<asrwt>0</asrwt>
<pdfrwt beam="1">  1       11 0.10000000E+01 0.76968809E+02</pdfrwt>
<pdfrwt beam="2">  1       -2 0.14497045E-02 0.31577359E+02</pdfrwt>
<totfact> 0.71804027E+03</totfact>
</mgrwt>
</event>
<event>
 5    1  0.9955701E-004  0.1323144E+03  0.7818608E-02  0.1224061E+00
         11   -1    0    0    0    0  0.00000000000E+00  0.00000000000E+00  0.10002483595E+04  0.10002483595E+04  0.51100000000E-03 0. -1.
          2   -1    0    0  501    0 -0.00000000000E+00 -0.00000000000E+00 -0.28197634428E+02  0.28197634544E+02  0.25500000000E-02 0. -1.
         11    1    1    2    0    0  0.48814071465E+02 -0.15450280935E+02  0.25154980262E+03  0.25670767023E+03  0.51100000000E-03 0. -1.
         22    1    1    2    0    0  0.23152177793E+02 -0.11949546022E+03  0.27548714219E+03  0.30117827588E+03  0.00000000000E+00 0. -1.
          2    1    1    2  501    0 -0.71966249258E+02  0.13494574115E+03  0.44501378027E+03  0.47056004795E+03  0.25500000000E-02 0. -1.
<mgrwt>
<rscale>  0 0.13231437E+03</rscale>
<asrwt>0</asrwt>
<pdfrwt beam="1">  1       11 0.10000000E+01 0.51200828E+02</pdfrwt>
<pdfrwt beam="2">  1        2 0.43391749E-02 0.13231437E+03</pdfrwt>
<totfact> 0.22022199E+03</totfact>
</mgrwt>
</event>
<event>
 5    1  0.9955701E-004  0.2121592E+03  0.7818608E-02  0.1340824E+00
         11   -1    0    0    0    0  0.00000000000E+00  0.00000000000E+00  0.10001631564E+04  0.10001631564E+04  0.51100000000E-03 0. -1.
         -2   -1    0    0    0  501 -0.00000000000E+00 -0.00000000000E+00 -0.27889617926E+03  0.27889617927E+03  0.25500000000E-02 0. -1.
         11    1    1    2    0    0 -0.15815223445E+03 -0.14319257579E+03  0.93199440418E+03  0.95610136097E+03  0.51100000000E-03 0. -1.
         22    1    1    2    0    0  0.27134753659E+02 -0.21480517204E+01 -0.87681060387E+02  0.91808917502E+02  0.00000000000E+00 0. -1.
         -2    1    1    2    0  501  0.13101748079E+03  0.14534062751E+03 -0.12304636667E+03  0.23114905718E+03  0.25500000000E-02 0. -1.
<mgrwt>
<rscale>  0 0.75992745E+02</rscale>
<asrwt>0</asrwt>
<pdfrwt beam="1">  1       11 0.10000000E+01 0.21215918E+03</pdfrwt>
<pdfrwt beam="2">  1       -2 0.42914104E-01 0.75992745E+02</pdfrwt>
<totfact> 0.41814071E+01</totfact>
</mgrwt>
</event>
<event>
 5    1  0.9955701E-004  0.7142674E+02  0.7818608E-02  0.1623986E+00
         11   -1    0    0    0    0  0.00000000000E+00  0.00000000000E+00  0.10003114839E+04  0.10003114839E+04  0.51100000000E-03 0. -1.
          2   -1    0    0  501    0 -0.00000000000E+00 -0.00000000000E+00 -0.80376815207E+01  0.80376819252E+01  0.25500000000E-02 0. -1.
         11    1    1    2    0    0 -0.35724964408E+02 -0.69092626281E+02  0.41744156201E+03  0.42462633194E+03  0.51100000000E-03 0. -1.
         22    1    1    2    0    0  0.10127788783E+01  0.10758390490E+02  0.96770760698E+01  0.14505670900E+02  0.00000000000E+00 0.  1.
          2    1    1    2  501    0  0.34712185530E+02  0.58334235791E+02  0.56515516429E+03  0.56921716297E+03  0.25500000000E-02 0. -1.
<mgrwt>
<rscale>  0 0.27781897E+02</rscale>
<asrwt>0</asrwt>
<pdfrwt beam="1">  1       11 0.10000000E+01 0.71426735E+02</pdfrwt>
<pdfrwt beam="2">  1        2 0.12369516E-02 0.27781897E+02</pdfrwt>
<totfact> 0.92877391E+03</totfact>
</mgrwt>
</event>
<event>
 5    1  0.9955701E-004  0.1155501E+03  0.7818608E-02  0.1476468E+00
         11   -1    0    0    0    0  0.00000000000E+00  0.00000000000E+00  0.99979503296E+03  0.99979503296E+03  0.51100000000E-03 0. -1.
          2   -1    0    0  501    0 -0.00000000000E+00 -0.00000000000E+00 -0.17967902399E+02  0.17967902580E+02  0.25500000000E-02 0. -1.
         11    1    1    2    0    0  0.57569440347E+01 -0.12013247310E+03  0.60876561087E+03  0.62053245078E+03  0.51100000000E-03 0. -1.
         22    1    1    2    0    0  0.12232733189E+02  0.12179232662E+02  0.15173622615E+02  0.22982869550E+02  0.00000000000E+00 0.  1.
          2    1    1    2  501    0 -0.17989677224E+02  0.10795324044E+03  0.35788789708E+03  0.37424761521E+03  0.25500000000E-02 0. -1.
<mgrwt>
<rscale>  0 0.44661114E+02</rscale>
<asrwt>0</asrwt>
<pdfrwt beam="1">  1       11 0.10000000E+01 0.11555010E+03</pdfrwt>
<pdfrwt beam="2">  1        2 0.27637260E-02 0.44661114E+02</pdfrwt>
<totfact> 0.35225838E+03</totfact>
</mgrwt>
</event>
<event>
 5    1  0.9955701E-004  0.2537312E+03  0.7818608E-02  0.1272074E+00
         11   -1    0    0    0    0  0.00000000000E+00  0.00000000000E+00  0.10002944529E+04  0.10002944529E+04  0.51100000000E-03 0. -1.
          2   -1    0    0  501    0 -0.00000000000E+00 -0.00000000000E+00 -0.15074116181E+03  0.15074116183E+03  0.25500000000E-02 0.  1.
         11    1    1    2    0    0 -0.93366138367E+02 -0.24176204545E+03  0.78297398955E+03  0.82475110835E+03  0.51100000000E-03 0. -1.
         22    1    1    2    0    0  0.41148571304E+02  0.11176743607E+02 -0.47454079991E+02  0.63796663124E+02  0.00000000000E+00 0.  1.
          2    1    1    2  501    0  0.52217567063E+02  0.23058530184E+03  0.11403338151E+03  0.26248784323E+03  0.25500000000E-02 0.  1.
<mgrwt>
<rscale>  0 0.10401425E+03</rscale>
<asrwt>0</asrwt>
<pdfrwt beam="1">  1       11 0.10000000E+01 0.25373122E+03</pdfrwt>
<pdfrwt beam="2">  1        2 0.23197776E-01 0.10401425E+03</pdfrwt>
<totfact> 0.28230637E+02</totfact>
</mgrwt>
</event>
<event>
 5    1  0.9955701E-004  0.6829880E+02  0.7818608E-02  0.1570385E+00
         11   -1    0    0    0    0  0.00000000000E+00  0.00000000000E+00  0.10002022999E+04  0.10002022999E+04  0.51100000000E-03 0. -1.
          2   -1    0    0  501    0 -0.00000000000E+00 -0.00000000000E+00 -0.72934490133E+01  0.72934494591E+01  0.25500000000E-02 0. -1.
         11    1    1    2    0    0 -0.19147429584E+02  0.66812226414E+02  0.25307441207E+03  0.26244457644E+03  0.51100000000E-03 0. -1.
         22    1    1    2    0    0  0.15555966564E+02  0.14253849975E+01  0.69033059374E+02  0.70778408464E+02  0.00000000000E+00 0.  1.
          2    1    1    2  501    0  0.35914630192E+01 -0.68237611411E+02  0.67080137949E+03  0.67427276450E+03  0.25500000000E-02 0. -1.
<mgrwt>
<rscale>  0 0.32663498E+02</rscale>
<asrwt>0</asrwt>
<pdfrwt beam="1">  1       11 0.10000000E+01 0.68298799E+02</pdfrwt>
<pdfrwt beam="2">  1        2 0.11222961E-02 0.32663498E+02</pdfrwt>
<totfact> 0.10901853E+04</totfact>
</mgrwt>
</event>
<event>
 5    1  0.9955701E-004  0.1114287E+03  0.7818608E-02  0.1509211E+00
         11   -1    0    0    0    0  0.00000000000E+00  0.00000000000E+00  0.10000553759E+04  0.10000553759E+04  0.51100000000E-03 0.  1.
          2   -1    0    0  501    0 -0.00000000000E+00 -0.00000000000E+00 -0.20197858342E+02  0.20197858503E+02  0.25500000000E-02 0.  1.
         11    1    1    2    0    0 -0.65001568961E+02  0.95517457904E+02  0.36684096469E+03  0.38460509891E+03  0.51100000000E-03 0.  1.
         22    1    1    2    0    0 -0.65270978716E+01 -0.12680552638E+02  0.14157486501E+01  0.14331914250E+02  0.00000000000E+00 0.  1.
          2    1    1    2  501    0  0.71528666833E+02 -0.82836905267E+02  0.61160080418E+03  0.62131622121E+03  0.25500000000E-02 0.  1.
<mgrwt>
<rscale>  0 0.39864464E+02</rscale>
<asrwt>0</asrwt>
<pdfrwt beam="1">  1       11 0.10000000E+01 0.11142874E+03</pdfrwt>
<pdfrwt beam="2">  1        2 0.31075348E-02 0.39864464E+02</pdfrwt>
<totfact> 0.29794350E+03</totfact>
</mgrwt>
</event>
<event>
 5    1  0.9955701E-004  0.1734131E+03  0.7818608E-02  0.1295849E+00
         11   -1    0    0    0    0  0.00000000000E+00  0.00000000000E+00  0.10001579378E+04  0.10001579378E+04  0.51100000000E-03 0. -1.
          2   -1    0    0  501    0 -0.00000000000E+00 -0.00000000000E+00 -0.26042105786E+03  0.26042105787E+03  0.25500000000E-02 0. -1.
         11    1    1    2    0    0 -0.13017543173E+03  0.12031608035E+03  0.92869353598E+03  0.94545929896E+03  0.51100000000E-03 0. -1.
         22    1    1    2    0    0  0.11351077540E+02 -0.48516708260E+02 -0.16735742614E+03  0.17461737034E+03  0.00000000000E+00 0. -1.
          2    1    1    2  501    0  0.11882435419E+03 -0.71799372093E+02 -0.21599229881E+02  0.14050232639E+03  0.25500000000E-02 0. -1.
<mgrwt>
<rscale>  0 0.92955012E+02</rscale>
<asrwt>0</asrwt>
<pdfrwt beam="1">  1       11 0.10000000E+01 0.17341311E+03</pdfrwt>
<pdfrwt beam="2">  1        2 0.40071105E-01 0.92955012E+02</pdfrwt>
<totfact> 0.15668253E+02</totfact>
</mgrwt>
</event>
<event>
 5    1  0.9955701E-004  0.1473261E+03  0.7818608E-02  0.1203798E+00
         11   -1    0    0    0    0  0.00000000000E+00  0.00000000000E+00  0.10004350840E+04  0.10004350840E+04  0.51100000000E-03 0.  1.
         -2   -1    0    0    0  501 -0.00000000000E+00 -0.00000000000E+00 -0.34029523851E+02  0.34029523946E+02  0.25500000000E-02 0. -1.
         11    1    1    2    0    0  0.13800341894E+03 -0.35563858493E+02  0.79837072358E+03  0.81099047093E+03  0.51100000000E-03 0.  1.
         22    1    1    2    0    0 -0.37420200889E+02 -0.29476784487E+01  0.28093254363E+02  0.46884871584E+02  0.00000000000E+00 0.  1.
         -2    1    1    2    0  501 -0.10058321806E+03  0.38511536942E+02  0.13994158226E+03  0.17658926548E+03  0.25500000000E-02 0. -1.
<mgrwt>
<rscale>  0 0.14732611E+03</rscale>
<asrwt>0</asrwt>
<pdfrwt beam="1">  1       11 0.10000000E+01 0.14251222E+03</pdfrwt>
<pdfrwt beam="2">  1       -2 0.52375890E-02 0.14732611E+03</pdfrwt>
<totfact> 0.13872309E+03</totfact>
</mgrwt>
</event>
<event>
 5    1  0.9955701E-004  0.1111072E+03  0.7818608E-02  0.1487499E+00
         11   -1    0    0    0    0  0.00000000000E+00  0.00000000000E+00  0.10001968769E+04  0.10001968769E+04  0.51100000000E-03 0.  1.
          2   -1    0    0  501    0 -0.00000000000E+00 -0.00000000000E+00 -0.21298093589E+02  0.21298093742E+02  0.25500000000E-02 0.  1.
         11    1    1    2    0    0 -0.70672028583E+02 -0.93843351677E+02  0.39328406937E+03  0.41045519792E+03  0.51100000000E-03 0.  1.
         22    1    1    2    0    0  0.16597583251E+02  0.64419047629E+00  0.10671826897E+01  0.16644327263E+02  0.00000000000E+00 0. -1.
          2    1    1    2  501    0  0.54074445332E+02  0.93199161200E+02  0.58454753122E+03  0.59439544543E+03  0.25500000000E-02 0.  1.
<mgrwt>
<rscale>  0 0.42959262E+02</rscale>
<asrwt>0</asrwt>
<pdfrwt beam="1">  1       11 0.10000000E+01 0.11110718E+03</pdfrwt>
<pdfrwt beam="2">  1        2 0.32772748E-02 0.42959262E+02</pdfrwt>
<totfact> 0.28105509E+03</totfact>
</mgrwt>
</event>
<event>
 5    1  0.9955701E-004  0.3200602E+03  0.7818608E-02  0.1373076E+00
         11   -1    0    0    0    0  0.00000000000E+00  0.00000000000E+00  0.10002635146E+04  0.10002635146E+04  0.51100000000E-03 0. -1.
          2   -1    0    0  501    0 -0.00000000000E+00 -0.00000000000E+00 -0.31231751402E+03  0.31231751403E+03  0.25500000000E-02 0. -1.
         11    1    1    2    0    0  0.29838684970E+03  0.11946409877E+03  0.87458581959E+03  0.93177612053E+03  0.51100000000E-03 0. -1.
         22    1    1    2    0    0 -0.13704439996E+02 -0.10159896439E+01 -0.34163438648E+02  0.36823694150E+02  0.00000000000E+00 0.  1.
          2    1    1    2  501    0 -0.28468240971E+03 -0.11844810913E+03 -0.15247638038E+03  0.34398121392E+03  0.25500000000E-02 0. -1.
<mgrwt>
<rscale>  0 0.66319549E+02</rscale>
<asrwt>0</asrwt>
<pdfrwt beam="1">  1       11 0.10000000E+01 0.32006017E+03</pdfrwt>
<pdfrwt beam="2">  1        2 0.48061509E-01 0.66319549E+02</pdfrwt>
<totfact> 0.12925069E+02</totfact>
</mgrwt>
</event>
<event>
 5    1  0.9955701E-004  0.1636140E+03  0.7818608E-02  0.1357222E+00
         11   -1    0    0    0    0  0.00000000000E+00  0.00000000000E+00  0.10002349987E+04  0.10002349987E+04  0.51100000000E-03 0. -1.
          2   -1    0    0  501    0 -0.00000000000E+00 -0.00000000000E+00 -0.57144101373E+02  0.57144101429E+02  0.25500000000E-02 0. -1.
         11    1    1    2    0    0  0.28321148848E+02  0.15410599985E+03  0.65620064903E+03  0.67464808489E+03  0.51100000000E-03 0. -1.
         22    1    1    2    0    0 -0.10852421054E+02  0.28697944412E+02 -0.11162059336E+02  0.32648715516E+02  0.00000000000E+00 0.  1.
          2    1    1    2  501    0 -0.17468727794E+02 -0.18280394427E+03  0.29805230768E+03  0.35008229977E+03  0.25500000000E-02 0. -1.
<mgrwt>
<rscale>  0 0.70851268E+02</rscale>
<asrwt>0</asrwt>
<pdfrwt beam="1">  1       11 0.10000000E+01 0.16361397E+03</pdfrwt>
<pdfrwt beam="2">  1        2 0.87934659E-02 0.70851268E+02</pdfrwt>
<totfact> 0.85361721E+02</totfact>
</mgrwt>
</event>
<event>
 5    1  0.9955701E-004  0.1442297E+03  0.7818608E-02  0.1441941E+00
         11   -1    0    0    0    0  0.00000000000E+00  0.00000000000E+00  0.10003470239E+04  0.10003470239E+04  0.51100000000E-03 0. -1.
         -2   -1    0    0    0  501 -0.00000000000E+00 -0.00000000000E+00 -0.31917066915E+02  0.31917067017E+02  0.25500000000E-02 0.  1.
         11    1    1    2    0    0 -0.14744195172E+03 -0.13429159296E+02  0.68608650733E+03  0.70187902589E+03  0.51100000000E-03 0. -1.
         22    1    1    2    0    0  0.10423958919E+02  0.14400323224E+02  0.14289242828E+01  0.17834518583E+02  0.00000000000E+00 0. -1.
         -2    1    1    2    0  501  0.13701799280E+03 -0.97116392806E+00  0.28091452537E+03  0.31255054644E+03  0.25500000000E-02 0.  1.
<mgrwt>
<rscale>  0 0.50635934E+02</rscale>
<asrwt>0</asrwt>
<pdfrwt beam="1">  1       11 0.10000000E+01 0.14422971E+03</pdfrwt>
<pdfrwt beam="2">  1       -2 0.49120219E-02 0.50635934E+02</pdfrwt>
<totfact> 0.13740131E+03</totfact>
</mgrwt>
</event>
<event>
 5    1  0.9955701E-004  0.1345835E+03  0.7818608E-02  0.1271984E+00
         11   -1    0    0    0    0  0.00000000000E+00  0.00000000000E+00  0.10002998209E+04  0.10002998209E+04  0.51100000000E-03 0.  1.
          2   -1    0    0  501    0 -0.00000000000E+00 -0.00000000000E+00 -0.14952757667E+03  0.14952757669E+03  0.25500000000E-02 0.  1.
         11    1    1    2    0    0 -0.14992501618E+03  0.22332121093E+02  0.90178204750E+03  0.91443266308E+03  0.51100000000E-03 0.  1.
         22    1    1    2    0    0  0.69837520190E+02 -0.39953855390E+02 -0.10862294760E+03  0.13517593917E+03  0.00000000000E+00 0.  1.
          2    1    1    2  501    0  0.80087495987E+02  0.17621734297E+02  0.57613144335E+02  0.10021879534E+03  0.25500000000E-02 0.  1.
<mgrwt>
<rscale>  0 0.10405962E+03</rscale>
<asrwt>0</asrwt>
<pdfrwt beam="1">  1       11 0.10000000E+01 0.13458351E+03</pdfrwt>
<pdfrwt beam="2">  1        2 0.23011139E-01 0.10405962E+03</pdfrwt>
<totfact> 0.28483755E+02</totfact>
</mgrwt>
</event>
<event>
 5    1  0.9955701E-004  0.1741485E+03  0.7818608E-02  0.1423700E+00
         11   -1    0    0    0    0  0.00000000000E+00  0.00000000000E+00  0.10002791410E+04  0.10002791410E+04  0.51100000000E-03 0.  1.
         -2   -1    0    0    0  501 -0.00000000000E+00 -0.00000000000E+00 -0.71974149548E+02  0.71974149593E+02  0.25500000000E-02 0.  1.
         11    1    1    2    0    0 -0.16797054520E+03 -0.48640153620E+02  0.85168251579E+03  0.86944986992E+03  0.51100000000E-03 0.  1.
         22    1    1    2    0    0  0.98222880420E+01 -0.13748883191E+02  0.12843607976E+02  0.21224217235E+02  0.00000000000E+00 0.  1.
         -2    1    1    2    0  501  0.15814825716E+03  0.62389036811E+02  0.63778867704E+02  0.18157920346E+03  0.25500000000E-02 0.  1.
<mgrwt>
<rscale>  0 0.54245647E+02</rscale>
<asrwt>0</asrwt>
<pdfrwt beam="1">  1       11 0.10000000E+01 0.17414852E+03</pdfrwt>
<pdfrwt beam="2">  1       -2 0.11076037E-01 0.54245647E+02</pdfrwt>
<totfact> 0.40909438E+02</totfact>
</mgrwt>
</event>
<event>
 5    1  0.9955701E-004  0.5543907E+02  0.7818608E-02  0.1428243E+00
         11   -1    0    0    0    0  0.00000000000E+00  0.00000000000E+00  0.10003374601E+04  0.10003374601E+04  0.51100000000E-03 0. -1.
          2   -1    0    0  501    0 -0.00000000000E+00 -0.00000000000E+00 -0.58776240329E+01  0.58776245861E+01  0.25500000000E-02 0. -1.
         11    1    1    2    0    0 -0.17137048708E+02 -0.41149419518E+02  0.12021134545E+03  0.12820967491E+03  0.51100000000E-03 0. -1.
         22    1    1    2    0    0  0.32864110493E+01 -0.10334243806E+02  0.27218525074E+02  0.29299235482E+02  0.00000000000E+00 0. -1.
          2    1    1    2  501    0  0.13850637658E+02  0.51483663324E+02  0.84702996556E+03  0.84870617432E+03  0.25500000000E-02 0. -1.
<mgrwt>
<rscale>  0 0.53314236E+02</rscale>
<asrwt>0</asrwt>
<pdfrwt beam="1">  1       11 0.10000000E+01 0.55439067E+02</pdfrwt>
<pdfrwt beam="2">  1        2 0.90455502E-03 0.53314236E+02</pdfrwt>
<totfact> 0.15968640E+04</totfact>
</mgrwt>
</event>
<event>
 5    1  0.9955701E-004  0.3520159E+03  0.7818608E-02  0.1420994E+00
         11   -1    0    0    0    0  0.00000000000E+00  0.00000000000E+00  0.99982048015E+03  0.99982048015E+03  0.51100000000E-03 0.  1.
          2   -1    0    0  501    0 -0.00000000000E+00 -0.00000000000E+00 -0.95963547177E+03  0.95963547177E+03  0.25500000000E-02 0.  1.
         11    1    1    2    0    0 -0.21002206157E+03  0.24471486778E+03 -0.48463494343E+03  0.58212168939E+03  0.51100000000E-03 0.  1.
         22    1    1    2    0    0  0.23368341214E+03 -0.29415581047E+03 -0.34244758005E+03  0.50833642701E+03  0.00000000000E+00 0.  1.
          2    1    1    2  501    0 -0.23661350572E+02  0.49440942685E+02  0.86726753186E+03  0.86899783553E+03  0.25500000000E-02 0.  1.
<mgrwt>
<rscale>  0 0.54811188E+02</rscale>
<asrwt>0</asrwt>
<pdfrwt beam="1">  1       11 0.10000000E+01 0.35201585E+03</pdfrwt>
<pdfrwt beam="2">  1        2 0.14760972E+00 0.54811188E+02</pdfrwt>
<totfact> 0.37556427E+01</totfact>
</mgrwt>
</event>
<event>
 5    1  0.9955701E-004  0.1061966E+03  0.7818608E-02  0.1453785E+00
         11   -1    0    0    0    0  0.00000000000E+00  0.00000000000E+00  0.10000815372E+04  0.10000815372E+04  0.51100000000E-03 0. -1.
          2   -1    0    0  501    0 -0.00000000000E+00 -0.00000000000E+00 -0.16191087015E+02  0.16191087216E+02  0.25500000000E-02 0. -1.
         11    1    1    2    0    0 -0.49173180505E+02 -0.10550569935E+03  0.57892116156E+03  0.59050754913E+03  0.51100000000E-03 0. -1.
         22    1    1    2    0    0  0.19118258533E+01  0.22037779061E+02  0.22899001467E+02  0.31838389598E+02  0.00000000000E+00 0.  1.
          2    1    1    2  501    0  0.47261354652E+02  0.83467920290E+02  0.38207028712E+03  0.39392668565E+03  0.25500000000E-02 0. -1.
<mgrwt>
<rscale>  0 0.48467803E+02</rscale>
<asrwt>0</asrwt>
<pdfrwt beam="1">  1       11 0.10000000E+01 0.10619663E+03</pdfrwt>
<pdfrwt beam="2">  1        2 0.24911395E-02 0.48467803E+02</pdfrwt>
<totfact> 0.40802008E+03</totfact>
</mgrwt>
</event>
<event>
 5    1  0.9955701E-004  0.1756649E+03  0.7818608E-02  0.1399688E+00
         11   -1    0    0    0    0  0.00000000000E+00  0.00000000000E+00  0.10002186371E+04  0.10002186371E+04  0.51100000000E-03 0. -1.
          2   -1    0    0  501    0 -0.00000000000E+00 -0.00000000000E+00 -0.18906808281E+03  0.18906808283E+03  0.25500000000E-02 0. -1.
         11    1    1    2    0    0  0.14760486800E+03 -0.96788369153E+02  0.94293777899E+03  0.95931581896E+03  0.51100000000E-03 0. -1.
         22    1    1    2    0    0 -0.56099887086E+01  0.19399101238E+02 -0.37987887208E+02  0.43021816287E+02  0.00000000000E+00 0.  1.
          2    1    1    2  501    0 -0.14199487929E+03  0.77389267915E+02 -0.93799337506E+02  0.18694908466E+03  0.25500000000E-02 0. -1.
<mgrwt>
<rscale>  0 0.59559835E+02</rscale>
<asrwt>0</asrwt>
<pdfrwt beam="1">  1       11 0.10000000E+01 0.17566486E+03</pdfrwt>
<pdfrwt beam="2">  1        2 0.29093756E-01 0.59559835E+02</pdfrwt>
<totfact> 0.21746228E+02</totfact>
</mgrwt>
</event>
<event>
 5    1  0.9955701E-004  0.9142747E+02  0.7818608E-02  0.1523826E+00
         11   -1    0    0    0    0  0.00000000000E+00  0.00000000000E+00  0.10001205886E+04  0.10001205886E+04  0.51100000000E-03 0. -1.
          2   -1    0    0  501    0 -0.00000000000E+00 -0.00000000000E+00 -0.13766577218E+02  0.13766577454E+02  0.25500000000E-02 0. -1.
         11    1    1    2    0    0  0.42324513896E+02 -0.92874141835E+02  0.29479056459E+03  0.31195904806E+03  0.51100000000E-03 0. -1.
         22    1    1    2    0    0 -0.11822036132E+02  0.10416400025E+02  0.24723981225E+02  0.29317864441E+02  0.00000000000E+00 0.  1.
          2    1    1    2  501    0 -0.30502477764E+02  0.82457741810E+02  0.66683946553E+03  0.67261025351E+03  0.25500000000E-02 0. -1.
<mgrwt>
<rscale>  0 0.37954718E+02</rscale>
<asrwt>0</asrwt>
<pdfrwt beam="1">  1       11 0.10000000E+01 0.91427468E+02</pdfrwt>
<pdfrwt beam="2">  1        2 0.21181903E-02 0.37954718E+02</pdfrwt>
<totfact> 0.48628095E+03</totfact>
</mgrwt>
</event>
<event>
 5    1  0.9955701E-004  0.7658628E+02  0.7818608E-02  0.1479461E+00
         11   -1    0    0    0    0  0.00000000000E+00  0.00000000000E+00  0.99984328080E+03  0.99984328080E+03  0.51100000000E-03 0. -1.
          2   -1    0    0  501    0 -0.00000000000E+00 -0.00000000000E+00 -0.11731198262E+02  0.11731198539E+02  0.25500000000E-02 0. -1.
         11    1    1    2    0    0  0.58417467649E+02 -0.72535960814E+02  0.37007207048E+03  0.38161158720E+03  0.51100000000E-03 0. -1.
         22    1    1    2    0    0 -0.63976581967E+01  0.24682039770E+02  0.38812313356E+02  0.46438440819E+02  0.00000000000E+00 0.  1.
          2    1    1    2  501    0 -0.52019809453E+02  0.47853921043E+02  0.57922769870E+03  0.58352445132E+03  0.25500000000E-02 0. -1.
<mgrwt>
<rscale>  0 0.44190199E+02</rscale>
<asrwt>0</asrwt>
<pdfrwt beam="1">  1       11 0.10000000E+01 0.76586281E+02</pdfrwt>
<pdfrwt beam="2">  1        2 0.18045169E-02 0.44190199E+02</pdfrwt>
<totfact> 0.61490788E+03</totfact>
</mgrwt>
</event>
<event>
 5    1  0.9955701E-004  0.3294917E+03  0.7818608E-02  0.1071362E+00
         11   -1    0    0    0    0  0.00000000000E+00  0.00000000000E+00  0.10002175872E+04  0.10002175872E+04  0.51100000000E-03 0. -1.
          2   -1    0    0  501    0 -0.00000000000E+00 -0.00000000000E+00 -0.15597299875E+03  0.15597299877E+03  0.25500000000E-02 0. -1.
         11    1    1    2    0    0  0.24131706291E+03  0.22123069687E+03  0.74230277677E+03  0.81128931861E+03  0.51100000000E-03 0. -1.
         22    1    1    2    0    0 -0.11454930634E+02 -0.10233845277E+02 -0.31088193159E+01  0.15672006334E+02  0.00000000000E+00 0.  1.
          2    1    1    2  501    0 -0.22986213228E+03 -0.21099685159E+03  0.10505063099E+03  0.32922926103E+03  0.25500000000E-02 0. -1.
<mgrwt>
<rscale>  0 0.32949166E+03</rscale>
<asrwt>0</asrwt>
<pdfrwt beam="1">  1       11 0.10000000E+01 0.32737890E+03</pdfrwt>
<pdfrwt beam="2">  1        2 0.24001066E-01 0.32949166E+03</pdfrwt>
<totfact> 0.27959703E+02</totfact>
</mgrwt>
</event>
<event>
 5    1  0.9955701E-004  0.1384107E+03  0.7818608E-02  0.1409484E+00
         11   -1    0    0    0    0  0.00000000000E+00  0.00000000000E+00  0.10000250107E+04  0.10000250107E+04  0.51100000000E-03 0.  1.
          2   -1    0    0  501    0 -0.00000000000E+00 -0.00000000000E+00 -0.34236130909E+02  0.34236131004E+02  0.25500000000E-02 0.  1.
         11    1    1    2    0    0  0.83633451880E+02  0.12520939793E+03  0.32773354681E+03  0.36066774920E+03  0.51100000000E-03 0.  1.
         22    1    1    2    0    0  0.30054987854E+01 -0.23537839072E+02  0.21686615640E+01  0.23827840525E+02  0.00000000000E+00 0. -1.
          2    1    1    2  501    0 -0.86638950665E+02 -0.10167155886E+03  0.63588667139E+03  0.64976555196E+03  0.25500000000E-02 0.  1.
<mgrwt>
<rscale>  0 0.57309152E+02</rscale>
<asrwt>0</asrwt>
<pdfrwt beam="1">  1       11 0.10000000E+01 0.13841072E+03</pdfrwt>
<pdfrwt beam="2">  1        2 0.52672287E-02 0.57309152E+02</pdfrwt>
<totfact> 0.15847421E+03</totfact>
</mgrwt>
</event>
<event>
 5    1  0.9955701E-004  0.4332884E+02  0.7818608E-02  0.1508152E+00
         11   -1    0    0    0    0  0.00000000000E+00  0.00000000000E+00  0.10003970205E+04  0.10003970205E+04  0.51100000000E-03 0. -1.
          2   -1    0    0  501    0 -0.00000000000E+00 -0.00000000000E+00 -0.18210380144E+02  0.18210380323E+02  0.25500000000E-02 0. -1.
         11    1    1    2    0    0  0.31709296881E+01  0.11511134355E+02 -0.42911076952E+01  0.12687577181E+02  0.51100000000E-03 0. -1.
         22    1    1    2    0    0 -0.37113294386E+01  0.28493235487E+02  0.12860040372E+02  0.31480455415E+02  0.00000000000E+00 0. -1.
          2    1    1    2  501    0  0.54039975046E+00 -0.40004369842E+02  0.97361770766E+03  0.97443936821E+03  0.25500000000E-02 0. -1.
<mgrwt>
<rscale>  0 0.40008020E+02</rscale>
<asrwt>0</asrwt>
<pdfrwt beam="1">  1       11 0.10000000E+01 0.43328841E+02</pdfrwt>
<pdfrwt beam="2">  1        2 0.28027092E-02 0.40008020E+02</pdfrwt>
<totfact> 0.34059399E+03</totfact>
</mgrwt>
</event>
<event>
 5    1  0.9955701E-004  0.1898982E+03  0.7818608E-02  0.1336750E+00
         11   -1    0    0    0    0  0.00000000000E+00  0.00000000000E+00  0.10000714386E+04  0.10000714386E+04  0.51100000000E-03 0. -1.
          2   -1    0    0  501    0 -0.00000000000E+00 -0.00000000000E+00 -0.31810167711E+03  0.31810167712E+03  0.25500000000E-02 0.  1.
         11    1    1    2    0    0  0.15624146599E+03  0.10760567693E+03  0.92236048106E+03  0.94166832506E+03  0.51100000000E-03 0. -1.
         22    1    1    2    0    0  0.20096466242E+02 -0.24263076061E+02 -0.16406264025E+03  0.16706021292E+03  0.00000000000E+00 0.  1.
          2    1    1    2  501    0 -0.17633793223E+03 -0.83342600874E+02 -0.76328079289E+02  0.20944457777E+03  0.25500000000E-02 0.  1.
<mgrwt>
<rscale>  0 0.77348184E+02</rscale>
<asrwt>0</asrwt>
<pdfrwt beam="1">  1       11 0.10000000E+01 0.18989818E+03</pdfrwt>
<pdfrwt beam="2">  1        2 0.48942214E-01 0.77348184E+02</pdfrwt>
<totfact> 0.12697634E+02</totfact>
</mgrwt>
</event>
<event>
 5    1  0.9955701E-004  0.5920515E+02  0.7818608E-02  0.1662800E+00
         11   -1    0    0    0    0  0.00000000000E+00  0.00000000000E+00  0.10002872147E+04  0.10002872147E+04  0.51100000000E-03 0.  1.
         -2   -1    0    0    0  501 -0.00000000000E+00 -0.00000000000E+00 -0.43854220462E+02  0.43854220536E+02  0.25500000000E-02 0.  1.
         11    1    1    2    0    0 -0.52149316986E+02 -0.21394521532E+02  0.32119987591E+03  0.32610832111E+03  0.51100000000E-03 0.  1.
         22    1    1    2    0    0 -0.73068012941E+01  0.74728707710E+01 -0.39338536880E+02  0.40703238526E+02  0.00000000000E+00 0.  1.
         -2    1    1    2    0  501  0.59456118280E+02  0.13921650761E+02  0.67457165521E+03  0.67732987560E+03  0.25500000000E-02 0.  1.
<mgrwt>
<rscale>  0 0.24875296E+02</rscale>
<asrwt>0</asrwt>
<pdfrwt beam="1">  1       11 0.10000000E+01 0.59205152E+02</pdfrwt>
<pdfrwt beam="2">  1       -2 0.67487407E-02 0.24875296E+02</pdfrwt>
<totfact> 0.79536494E+02</totfact>
</mgrwt>
</event>
<event>
 5    1  0.9955701E-004  0.6648253E+02  0.7818608E-02  0.1548223E+00
         11   -1    0    0    0    0  0.00000000000E+00  0.00000000000E+00  0.10008497727E+04  0.10008497727E+04  0.51100000000E-03 0. -1.
          2   -1    0    0  501    0 -0.00000000000E+00 -0.00000000000E+00 -0.18235081297E+02  0.18235081475E+02  0.25500000000E-02 0. -1.
         11    1    1    2    0    0 -0.37670001063E+02  0.70229176179E+02  0.38376456284E+03  0.39195204536E+03  0.51100000000E-03 0. -1.
         22    1    1    2    0    0  0.63032998994E+01 -0.17361901920E+02 -0.58046168057E+01  0.19361322377E+02  0.00000000000E+00 0. -1.
          2    1    1    2  501    0  0.31366701164E+02 -0.52867274258E+02  0.60465474533E+03  0.60777148641E+03  0.25500000000E-02 0. -1.
<mgrwt>
<rscale>  0 0.35042534E+02</rscale>
<asrwt>0</asrwt>
<pdfrwt beam="1">  1       11 0.10000000E+01 0.66482535E+02</pdfrwt>
<pdfrwt beam="2">  1        2 0.28077810E-02 0.35042534E+02</pdfrwt>
<totfact> 0.33334942E+03</totfact>
</mgrwt>
</event>
<event>
 5    1  0.1089163E-003  0.2804553E+03  0.7818608E-02  0.1376676E+00
         11   -1    0    0    0    0  0.00000000000E+00  0.00000000000E+00  0.99997283359E+03  0.99997283359E+03  0.51100000000E-03 0. -1.
         -2   -1    0    0    0  501 -0.00000000000E+00 -0.00000000000E+00 -0.34787379933E+03  0.34787379933E+03  0.25500000000E-02 0.  1.
         11    1    1    2    0    0  0.26705168509E+03 -0.82622379839E+02  0.90570096744E+03  0.94785932637E+03  0.51100000000E-03 0. -1.
         22    1    1    2    0    0  0.12044693470E+02 -0.93133873073E+01 -0.16100591767E+02  0.22159487340E+02  0.00000000000E+00 0.  1.
         -2    1    1    2    0  501 -0.27909637856E+03  0.91935767146E+02 -0.23750134140E+03  0.37782781922E+03  0.25500000000E-02 0.  1.
<mgrwt>
<rscale>  0 0.65345649E+02</rscale>
<asrwt>0</asrwt>
<pdfrwt beam="1">  1       11 0.10000000E+01 0.28045532E+03</pdfrwt>
<pdfrwt beam="2">  1       -2 0.53517591E-01 0.65345649E+02</pdfrwt>
<totfact> 0.27251550E+01</totfact>
</mgrwt>
</event>
<event>
 5    1  0.9955701E-004  0.1588519E+03  0.7818608E-02  0.1292134E+00
         11   -1    0    0    0    0  0.00000000000E+00  0.00000000000E+00  0.10003420101E+04  0.10003420101E+04  0.51100000000E-03 0. -1.
          2   -1    0    0  501    0 -0.00000000000E+00 -0.00000000000E+00 -0.60623460433E+02  0.60623460486E+02  0.25500000000E-02 0. -1.
         11    1    1    2    0    0 -0.15732559963E+03  0.16851668774E+02  0.67792076552E+03  0.69614070946E+03  0.51100000000E-03 0. -1.
         22    1    1    2    0    0 -0.56368276732E+01 -0.56025141123E+02  0.28646802427E+01  0.56380818165E+02  0.00000000000E+00 0. -1.
          2    1    1    2  501    0  0.16296242730E+03  0.39173472349E+02  0.25893310391E+03  0.30844394297E+03  0.25500000000E-02 0. -1.
<mgrwt>
<rscale>  0 0.94576069E+02</rscale>
<asrwt>0</asrwt>
<pdfrwt beam="1">  1       11 0.10000000E+01 0.15885192E+03</pdfrwt>
<pdfrwt beam="2">  1        2 0.93298758E-02 0.94576069E+02</pdfrwt>
<totfact> 0.81012928E+02</totfact>
</mgrwt>
</event>
<event>
 5    1  0.9955701E-004  0.7026067E+02  0.7818608E-02  0.1570866E+00
         11   -1    0    0    0    0  0.00000000000E+00  0.00000000000E+00  0.10001810690E+04  0.10001810690E+04  0.51100000000E-03 0.  1.
          2   -1    0    0  501    0 -0.00000000000E+00 -0.00000000000E+00 -0.11864414333E+02  0.11864414607E+02  0.25500000000E-02 0.  1.
         11    1    1    2    0    0 -0.74665003205E+02 -0.14290196328E+02  0.27803589550E+03  0.28824127324E+03  0.51100000000E-03 0.  1.
         22    1    1    2    0    0  0.10696284272E+02 -0.10714061583E+02  0.61648100231E+01  0.16346452076E+02  0.00000000000E+00 0. -1.
          2    1    1    2  501    0  0.63968718933E+02  0.25004257911E+02  0.70411594918E+03  0.70745775833E+03  0.25500000000E-02 0.  1.
<mgrwt>
<rscale>  0 0.32614480E+02</rscale>
<asrwt>0</asrwt>
<pdfrwt beam="1">  1       11 0.10000000E+01 0.70260672E+02</pdfrwt>
<pdfrwt beam="2">  1        2 0.18256250E-02 0.32614480E+02</pdfrwt>
<totfact> 0.57566211E+03</totfact>
</mgrwt>
</event>
<event>
 5    1  0.9955701E-004  0.9185021E+02  0.7818608E-02  0.1355511E+00
         11   -1    0    0    0    0  0.00000000000E+00  0.00000000000E+00  0.99983729325E+03  0.99983729325E+03  0.51100000000E-03 0.  1.
          2   -1    0    0  501    0 -0.00000000000E+00 -0.00000000000E+00 -0.23100787044E+02  0.23100787185E+02  0.25500000000E-02 0.  1.
         11    1    1    2    0    0  0.89976833936E+02  0.10021880297E+03  0.38141258882E+03  0.40449376018E+03  0.51100000000E-03 0.  1.
         22    1    1    2    0    0 -0.30178486186E+02 -0.46517347730E+02  0.82766777222E+02  0.99624013571E+02  0.00000000000E+00 0.  1.
          2    1    1    2  501    0 -0.59798347750E+02 -0.53701455238E+02  0.51255714017E+03  0.51882030669E+03  0.25500000000E-02 0.  1.
<mgrwt>
<rscale>  0 0.71365331E+02</rscale>
<asrwt>0</asrwt>
<pdfrwt beam="1">  1       11 0.10000000E+01 0.91850208E+02</pdfrwt>
<pdfrwt beam="2">  1        2 0.35533889E-02 0.71365331E+02</pdfrwt>
<totfact> 0.26914608E+03</totfact>
</mgrwt>
</event>
<event>
 5    1  0.9955701E-004  0.1860516E+03  0.7818608E-02  0.1162072E+00
         11   -1    0    0    0    0  0.00000000000E+00  0.00000000000E+00  0.10000330627E+04  0.10000330627E+04  0.51100000000E-03 0.  1.
         -2   -1    0    0    0  501 -0.00000000000E+00 -0.00000000000E+00 -0.42431489604E+02  0.42431489680E+02  0.25500000000E-02 0. -1.
         11    1    1    2    0    0 -0.17590015673E+03 -0.25139937103E+02  0.71492405082E+03  0.73667447357E+03  0.51100000000E-03 0.  1.
         22    1    1    2    0    0  0.29008064736E+02 -0.58250658287E+01  0.15254656095E+02  0.33288192264E+02  0.00000000000E+00 0. -1.
         -2    1    1    2    0  501  0.14689209199E+03  0.30965002932E+02  0.22742286614E+03  0.27250188650E+03  0.25500000000E-02 0. -1.
<mgrwt>
<rscale>  0 0.18605159E+03</rscale>
<asrwt>0</asrwt>
<pdfrwt beam="1">  1       11 0.10000000E+01 0.17768760E+03</pdfrwt>
<pdfrwt beam="2">  1       -2 0.65281371E-02 0.18605159E+03</pdfrwt>
<totfact> 0.10102964E+03</totfact>
</mgrwt>
</event>
<event>
 5    1  0.9955701E-004  0.1584198E+03  0.7818608E-02  0.1383409E+00
         11   -1    0    0    0    0  0.00000000000E+00  0.00000000000E+00  0.10001536283E+04  0.10001536283E+04  0.51100000000E-03 0.  1.
          2   -1    0    0  501    0 -0.00000000000E+00 -0.00000000000E+00 -0.35665633299E+02  0.35665633390E+02  0.25500000000E-02 0.  1.
         11    1    1    2    0    0 -0.12740383978E+03 -0.11307733159E+03  0.56494239234E+03  0.59006620643E+03  0.51100000000E-03 0.  1.
         22    1    1    2    0    0  0.23096502876E+02  0.10840421290E+02  0.63292390582E+01  0.26287305794E+02  0.00000000000E+00 0.  1.
          2    1    1    2  501    0  0.10430733691E+03  0.10223691030E+03  0.39321636359E+03  0.41946574945E+03  0.25500000000E-02 0.  1.
<mgrwt>
<rscale>  0 0.63576103E+02</rscale>
<asrwt>0</asrwt>
<pdfrwt beam="1">  1       11 0.10000000E+01 0.15841985E+03</pdfrwt>
<pdfrwt beam="2">  1        2 0.54878633E-02 0.63576103E+02</pdfrwt>
<totfact> 0.15200399E+03</totfact>
</mgrwt>
</event>
<event>
 5    1  0.9955701E-004  0.1229164E+03  0.7818608E-02  0.1238362E+00
         11   -1    0    0    0    0  0.00000000000E+00  0.00000000000E+00  0.10002398438E+04  0.10002398438E+04  0.51100000000E-03 0. -1.
          2   -1    0    0  501    0 -0.00000000000E+00 -0.00000000000E+00 -0.17545476306E+02  0.17545476491E+02  0.25500000000E-02 0. -1.
         11    1    1    2    0    0 -0.77029720848E+02 -0.87705393100E+02  0.69794643691E+03  0.70764047557E+03  0.51100000000E-03 0. -1.
         22    1    1    2    0    0  0.23073981303E+02  0.48639334376E+01  0.44775538804E+02  0.50605487221E+02  0.00000000000E+00 0. -1.
          2    1    1    2  501    0  0.53955739544E+02  0.82841459662E+02  0.23997239182E+03  0.25953935753E+03  0.25500000000E-02 0. -1.
<mgrwt>
<rscale>  0 0.12291640E+03</rscale>
<asrwt>0</asrwt>
<pdfrwt beam="1">  1       11 0.10000000E+01 0.11672966E+03</pdfrwt>
<pdfrwt beam="2">  1        2 0.26999514E-02 0.12291640E+03</pdfrwt>
<totfact> 0.41141300E+03</totfact>
</mgrwt>
</event>
<event>
 5    1  0.9955701E-004  0.3673572E+03  0.7818608E-02  0.1266621E+00
         11   -1    0    0    0    0  0.00000000000E+00  0.00000000000E+00  0.99978281108E+03  0.99978281108E+03  0.51100000000E-03 0.  1.
          2   -1    0    0  501    0 -0.00000000000E+00 -0.00000000000E+00 -0.40616176700E+03  0.40616176701E+03  0.25500000000E-02 0.  1.
         11    1    1    2    0    0  0.16684506172E+03 -0.32996345099E+03  0.82625255282E+03  0.90521071284E+03  0.51100000000E-03 0.  1.
         22    1    1    2    0    0  0.15658891204E+02  0.26808973413E+02 -0.12803822057E+03  0.13174865410E+03  0.00000000000E+00 0.  1.
          2    1    1    2  501    0 -0.18250395293E+03  0.30315447757E+03 -0.10459328816E+03  0.36898521114E+03  0.25500000000E-02 0.  1.
<mgrwt>
<rscale>  0 0.10679594E+03</rscale>
<asrwt>0</asrwt>
<pdfrwt beam="1">  1       11 0.10000000E+01 0.36735722E+03</pdfrwt>
<pdfrwt beam="2">  1        2 0.62472853E-01 0.10679594E+03</pdfrwt>
<totfact> 0.98310773E+01</totfact>
</mgrwt>
</event>
<event>
 5    1  0.9955701E-004  0.1556501E+03  0.7818608E-02  0.1422940E+00
         11   -1    0    0    0    0  0.00000000000E+00  0.00000000000E+00  0.10000202809E+04  0.10000202809E+04  0.51100000000E-03 0.  1.
          2   -1    0    0  501    0 -0.00000000000E+00 -0.00000000000E+00 -0.11407504897E+03  0.11407504900E+03  0.25500000000E-02 0.  1.
         11    1    1    2    0    0  0.75970486904E+02 -0.13647208917E+03  0.92515121665E+03  0.93824352898E+03  0.51100000000E-03 0.  1.
         22    1    1    2    0    0 -0.18950854637E+02 -0.15666585928E+01 -0.15704930225E+02  0.24662403452E+02  0.00000000000E+00 0.  1.
          2    1    1    2  501    0 -0.57019632267E+02  0.13803874776E+03 -0.23501054473E+02  0.15118939750E+03  0.25500000000E-02 0.  1.
<mgrwt>
<rscale>  0 0.54403725E+02</rscale>
<asrwt>0</asrwt>
<pdfrwt beam="1">  1       11 0.10000000E+01 0.15565013E+03</pdfrwt>
<pdfrwt beam="2">  1        2 0.17550363E-01 0.54403725E+02</pdfrwt>
<totfact> 0.37485829E+02</totfact>
</mgrwt>
</event>
<event>
 5    1  0.9955701E-004  0.1023723E+03  0.7818608E-02  0.1520918E+00
         11   -1    0    0    0    0  0.00000000000E+00  0.00000000000E+00  0.10001002980E+04  0.10001002980E+04  0.51100000000E-03 0.  1.
          2   -1    0    0  501    0 -0.00000000000E+00 -0.00000000000E+00 -0.15993653657E+02  0.15993653861E+02  0.25500000000E-02 0.  1.
         11    1    1    2    0    0 -0.99245887958E+02 -0.56351560817E+01  0.44155803255E+03  0.45260909996E+03  0.51100000000E-03 0.  1.
         22    1    1    2    0    0 -0.44995592278E+01 -0.13623332442E+02  0.42809362981E+01  0.14972228814E+02  0.00000000000E+00 0.  1.
          2    1    1    2  501    0  0.10374544719E+03  0.19258488523E+02  0.53826767545E+03  0.54851262304E+03  0.25500000000E-02 0.  1.
<mgrwt>
<rscale>  0 0.38324294E+02</rscale>
<asrwt>0</asrwt>
<pdfrwt beam="1">  1       11 0.10000000E+01 0.10237228E+03</pdfrwt>
<pdfrwt beam="2">  1        2 0.24608088E-02 0.38324294E+02</pdfrwt>
<totfact> 0.40063333E+03</totfact>
</mgrwt>
</event>
<event>
 5    1  0.9955701E-004  0.1426349E+03  0.7818608E-02  0.1250398E+00
         11   -1    0    0    0    0  0.00000000000E+00  0.00000000000E+00  0.10000773164E+04  0.10000773164E+04  0.51100000000E-03 0. -1.
          2   -1    0    0  501    0 -0.00000000000E+00 -0.00000000000E+00 -0.28716983621E+03  0.28716983622E+03  0.25500000000E-02 0. -1.
         11    1    1    2    0    0  0.41643473990E+02  0.12892706796E+03  0.70466678079E+03  0.71757343856E+03  0.51100000000E-03 0. -1.
         22    1    1    2    0    0 -0.67673043339E+02  0.64980489301E+02 -0.23761838306E+03  0.25546937342E+03  0.00000000000E+00 0. -1.
          2    1    1    2  501    0  0.26029569349E+02 -0.19390755727E+03  0.24585908252E+03  0.31420434069E+03  0.25500000000E-02 0. -1.
<mgrwt>
<rscale>  0 0.11568035E+03</rscale>
<asrwt>0</asrwt>
<pdfrwt beam="1">  1       11 0.10000000E+01 0.14263493E+03</pdfrwt>
<pdfrwt beam="2">  1        2 0.44183389E-01 0.11568035E+03</pdfrwt>
<totfact> 0.14168825E+02</totfact>
</mgrwt>
</event>
<event>
 5    1  0.9955701E-004  0.4159525E+03  0.7818608E-02  0.1278302E+00
         11   -1    0    0    0    0  0.00000000000E+00  0.00000000000E+00  0.10004267398E+04  0.10004267398E+04  0.51100000000E-03 0.  1.
          2   -1    0    0  501    0 -0.00000000000E+00 -0.00000000000E+00 -0.56473000222E+03  0.56473000223E+03  0.25500000000E-02 0.  1.
         11    1    1    2    0    0 -0.21060355788E+03 -0.36011805611E+03  0.85891787182E+03  0.95487108211E+03  0.51100000000E-03 0.  1.
         22    1    1    2    0    0  0.24498051835E+02  0.45710590261E+00 -0.65585611245E+02  0.70013112285E+02  0.00000000000E+00 0. -1.
          2    1    1    2  501    0  0.18610550604E+03  0.35966095021E+03 -0.35763552295E+03  0.54027254767E+03  0.25500000000E-02 0.  1.
<mgrwt>
<rscale>  0 0.10095444E+03</rscale>
<asrwt>0</asrwt>
<pdfrwt beam="1">  1       11 0.10000000E+01 0.41595246E+03</pdfrwt>
<pdfrwt beam="2">  1        2 0.86918612E-01 0.10095444E+03</pdfrwt>
<totfact> 0.68835441E+01</totfact>
</mgrwt>
</event>
<event>
 5    1  0.9955701E-004  0.3523940E+03  0.7818608E-02  0.1287214E+00
         11   -1    0    0    0    0  0.00000000000E+00  0.00000000000E+00  0.99998271822E+03  0.99998271822E+03  0.51100000000E-03 0. -1.
          2   -1    0    0  501    0 -0.00000000000E+00 -0.00000000000E+00 -0.94284084860E+03  0.94284084861E+03  0.25500000000E-02 0. -1.
         11    1    1    2    0    0  0.28862424346E+03  0.20176079953E+03  0.92669454315E+03  0.99134966104E+03  0.51100000000E-03 0. -1.
         22    1    1    2    0    0 -0.94330991667E+01  0.24849842987E+02 -0.64780699022E+02  0.70021689655E+02  0.00000000000E+00 0.  1.
          2    1    1    2  501    0 -0.27919114429E+03 -0.22661064252E+03 -0.80477197452E+03  0.88145221613E+03  0.25500000000E-02 0. -1.
<mgrwt>
<rscale>  0 0.96781424E+02</rscale>
<asrwt>0</asrwt>
<pdfrwt beam="1">  1       11 0.10000000E+01 0.35239402E+03</pdfrwt>
<pdfrwt beam="2">  1        2 0.14504993E+00 0.96781424E+02</pdfrwt>
<totfact> 0.37377116E+01</totfact>
</mgrwt>
</event>
<event>
 5    1  0.9955701E-004  0.4012325E+03  0.7818608E-02  0.1104889E+00
         11   -1    0    0    0    0  0.00000000000E+00  0.00000000000E+00  0.99998817043E+03  0.99998817043E+03  0.51100000000E-03 0.  1.
          2   -1    0    0  501    0 -0.00000000000E+00 -0.00000000000E+00 -0.45045860416E+03  0.45045860416E+03  0.25500000000E-02 0.  1.
         11    1    1    2    0    0  0.23546473840E+03 -0.36519348786E+03  0.77837535985E+03  0.89144720956E+03  0.51100000000E-03 0.  1.
         22    1    1    2    0    0 -0.15975102780E+03  0.67494641024E+02 -0.17641191264E+03  0.24738043652E+03  0.00000000000E+00 0.  1.
          2    1    1    2  501    0 -0.75713710600E+02  0.29769884684E+03 -0.52433880942E+02  0.31161912852E+03  0.25500000000E-02 0.  1.
<mgrwt>
<rscale>  0 0.26378663E+03</rscale>
<asrwt>0</asrwt>
<pdfrwt beam="1">  1       11 0.10000000E+01 0.40123251E+03</pdfrwt>
<pdfrwt beam="2">  1        2 0.69300502E-01 0.26378663E+03</pdfrwt>
<totfact> 0.87144533E+01</totfact>
</mgrwt>
</event>
<event>
 5    1  0.1455883E-003  0.2324053E+03  0.7818608E-02  0.1124958E+00
         11   -1    0    0    0    0  0.00000000000E+00  0.00000000000E+00  0.10004288015E+04  0.10004288015E+04  0.51100000000E-03 0.  1.
          2   -1    0    0  501    0 -0.00000000000E+00 -0.00000000000E+00 -0.65874834250E+03  0.65874834250E+03  0.25500000000E-02 0.  1.
         11    1    1    2    0    0  0.22403923032E+03  0.21200818033E+02  0.96659503005E+03  0.99244597008E+03  0.51100000000E-03 0.  1.
         22    1    1    2    0    0 -0.17541563474E+02 -0.18682075076E+02 -0.79547051360E+02  0.83573080344E+02  0.00000000000E+00 0.  1.
          2    1    1    2  501    0 -0.20649766685E+03 -0.25187429570E+01 -0.54536751973E+03  0.58315809354E+03  0.25500000000E-02 0.  1.
<mgrwt>
<rscale>  0 0.23240533E+03</rscale>
<asrwt>0</asrwt>
<pdfrwt beam="1">  1       11 0.10000000E+01 0.22504011E+03</pdfrwt>
<pdfrwt beam="2">  1        2 0.10138935E+00 0.23240533E+03</pdfrwt>
<totfact> 0.56553678E+01</totfact>
</mgrwt>
</event>
<event>
 5    1  0.9955701E-004  0.1267677E+03  0.7818608E-02  0.1232332E+00
         11   -1    0    0    0    0  0.00000000000E+00  0.00000000000E+00  0.10002742615E+04  0.10002742615E+04  0.51100000000E-03 0.  1.
          2   -1    0    0  501    0 -0.00000000000E+00 -0.00000000000E+00 -0.44179033751E+02  0.44179033825E+02  0.25500000000E-02 0.  1.
         11    1    1    2    0    0 -0.19127738331E+02  0.11911322563E+02  0.11403901592E+03  0.11624391223E+03  0.51100000000E-03 0.  1.
         22    1    1    2    0    0  0.12742557844E+03  0.18896922082E+02  0.67348524885E+02  0.14536229053E+03  0.00000000000E+00 0.  1.
          2    1    1    2  501    0 -0.10829784011E+03 -0.30808244645E+02  0.77470768697E+03  0.78284709258E+03  0.25500000000E-02 0.  1.
<mgrwt>
<rscale>  0 0.12676774E+03</rscale>
<asrwt>0</asrwt>
<pdfrwt beam="1">  1       11 0.10000000E+01 0.22533308E+02</pdfrwt>
<pdfrwt beam="2">  1        2 0.67986383E-02 0.12676774E+03</pdfrwt>
<totfact> 0.12267408E+03</totfact>
</mgrwt>
</event>
<event>
 5    1  0.9955701E-004  0.2064757E+03  0.7818608E-02  0.1144388E+00
         11   -1    0    0    0    0  0.00000000000E+00  0.00000000000E+00  0.10003173220E+04  0.10003173220E+04  0.51100000000E-03 0. -1.
          2   -1    0    0  501    0 -0.00000000000E+00 -0.00000000000E+00 -0.55306573106E+02  0.55306573165E+02  0.25500000000E-02 0.  1.
         11    1    1    2    0    0  0.48327154357E+02  0.19799836611E+03  0.72837597521E+03  0.75635337514E+03  0.51100000000E-03 0. -1.
         22    1    1    2    0    0 -0.73952970484E+01 -0.88750006082E+01  0.52381427727E+01  0.12684407512E+02  0.00000000000E+00 0.  1.
          2    1    1    2  501    0 -0.40931857309E+02 -0.18912336550E+03  0.21139663096E+03  0.28658611256E+03  0.25500000000E-02 0.  1.
<mgrwt>
<rscale>  0 0.20647571E+03</rscale>
<asrwt>0</asrwt>
<pdfrwt beam="1">  1       11 0.10000000E+01 0.20381086E+03</pdfrwt>
<pdfrwt beam="2">  1        2 0.85114033E-02 0.20647571E+03</pdfrwt>
<totfact> 0.95186956E+02</totfact>
</mgrwt>
</event>
<event>
 5    1  0.9955701E-004  0.2648146E+03  0.7818608E-02  0.1248614E+00
         11   -1    0    0    0    0  0.00000000000E+00  0.00000000000E+00  0.10003212019E+04  0.10003212019E+04  0.51100000000E-03 0. -1.
          2   -1    0    0  501    0 -0.00000000000E+00 -0.00000000000E+00 -0.10357060301E+03  0.10357060304E+03  0.25500000000E-02 0. -1.
         11    1    1    2    0    0  0.28057698016E+03  0.33810280634E+02  0.61266727273E+03  0.67470568690E+03  0.51100000000E-03 0. -1.
         22    1    1    2    0    0 -0.46327039294E+02  0.22364407699E+02 -0.63723520347E+01  0.51835973724E+02  0.00000000000E+00 0. -1.
          2    1    1    2  501    0 -0.23424994086E+03 -0.56174688332E+02  0.29045567818E+03  0.37735014429E+03  0.25500000000E-02 0. -1.
<mgrwt>
<rscale>  0 0.11671676E+03</rscale>
<asrwt>0</asrwt>
<pdfrwt beam="1">  1       11 0.10000000E+01 0.26481457E+03</pdfrwt>
<pdfrwt beam="2">  1        2 0.15939056E-01 0.11671676E+03</pdfrwt>
<totfact> 0.43310343E+02</totfact>
</mgrwt>
</event>
<event>
 5    1  0.9955701E-004  0.1585196E+03  0.7818608E-02  0.1430807E+00
         11   -1    0    0    0    0  0.00000000000E+00  0.00000000000E+00  0.10000754297E+04  0.10000754297E+04  0.51100000000E-03 0. -1.
         -2   -1    0    0    0  501 -0.00000000000E+00 -0.00000000000E+00 -0.11743570444E+03  0.11743570446E+03  0.25500000000E-02 0.  1.
         11    1    1    2    0    0 -0.15594903169E+03 -0.54511667186E+02  0.64837706300E+03  0.66909224937E+03  0.51100000000E-03 0. -1.
         22    1    1    2    0    0  0.14789439945E+02  0.95146188451E+01 -0.90111142517E+02  0.91811075102E+02  0.00000000000E+00 0.  1.
         -2    1    1    2    0  501  0.14115959175E+03  0.44997048340E+02  0.32437380483E+03  0.35660780974E+03  0.25500000000E-02 0.  1.
<mgrwt>
<rscale>  0 0.52798417E+02</rscale>
<asrwt>0</asrwt>
<pdfrwt beam="1">  1       11 0.10000000E+01 0.15851964E+03</pdfrwt>
<pdfrwt beam="2">  1       -2 0.18068394E-01 0.52798417E+02</pdfrwt>
<totfact> 0.18797904E+02</totfact>
</mgrwt>
</event>
<event>
 5    1  0.9955701E-004  0.7107076E+02  0.7818608E-02  0.1526154E+00
         11   -1    0    0    0    0  0.00000000000E+00  0.00000000000E+00  0.10000654936E+04  0.10000654936E+04  0.51100000000E-03 0. -1.
          2   -1    0    0  501    0 -0.00000000000E+00 -0.00000000000E+00 -0.67489079998E+01  0.67489084815E+01  0.25500000000E-02 0. -1.
         11    1    1    2    0    0  0.25600536353E+02 -0.63452306896E+02  0.36516460116E+03  0.37151954007E+03  0.51100000000E-03 0. -1.
         22    1    1    2    0    0  0.19499144173E+02  0.42565310635E+01  0.10548404885E+03  0.10735557388E+03  0.00000000000E+00 0. -1.
          2    1    1    2  501    0 -0.45099680526E+02  0.59195775832E+02  0.52266793559E+03  0.52793928814E+03  0.25500000000E-02 0. -1.
<mgrwt>
<rscale>  0 0.37662350E+02</rscale>
<asrwt>0</asrwt>
<pdfrwt beam="1">  1       11 0.10000000E+01 0.71070765E+02</pdfrwt>
<pdfrwt beam="2">  1        2 0.10383615E-02 0.37662350E+02</pdfrwt>
<totfact> 0.12427431E+04</totfact>
</mgrwt>
</event>
<event>
 5    1  0.9955701E-004  0.4572023E+02  0.7818608E-02  0.1651627E+00
         11   -1    0    0    0    0  0.00000000000E+00  0.00000000000E+00  0.99998010266E+03  0.99998010266E+03  0.51100000000E-03 0.  1.
         -2   -1    0    0    0  501 -0.00000000000E+00 -0.00000000000E+00 -0.63681667584E+01  0.63681672689E+01  0.25500000000E-02 0.  1.
         11    1    1    2    0    0 -0.28078204712E+02  0.23510702366E+02  0.15906726287E+03  0.16322846818E+03  0.51100000000E-03 0.  1.
         22    1    1    2    0    0 -0.36073688373E+01  0.13948381720E+02  0.11029553474E+02  0.18144462306E+02  0.00000000000E+00 0.  1.
         -2    1    1    2    0  501  0.31685573550E+02 -0.37459084086E+02  0.82351511956E+03  0.82497533945E+03  0.25500000000E-02 0.  1.
<mgrwt>
<rscale>  0 0.25665248E+02</rscale>
<asrwt>0</asrwt>
<pdfrwt beam="1">  1       11 0.10000000E+01 0.45720225E+02</pdfrwt>
<pdfrwt beam="2">  1       -2 0.97969848E-03 0.25665248E+02</pdfrwt>
<totfact> 0.11751718E+04</totfact>
</mgrwt>
</event>
<event>
 5    1  0.9955701E-004  0.1202460E+03  0.7818608E-02  0.1510371E+00
         11   -1    0    0    0    0  0.00000000000E+00  0.00000000000E+00  0.10003767176E+04  0.10003767176E+04  0.51100000000E-03 0.  1.
          2   -1    0    0  501    0 -0.00000000000E+00 -0.00000000000E+00 -0.19744895814E+02  0.19744895979E+02  0.25500000000E-02 0.  1.
         11    1    1    2    0    0 -0.16848287427E+02  0.11591582960E+03  0.64751298059E+03  0.65802234337E+03  0.51100000000E-03 0.  1.
         22    1    1    2    0    0  0.62980717981E+01  0.11501016313E+02  0.20361777318E+02  0.24218609790E+02  0.00000000000E+00 0. -1.
          2    1    1    2  501    0  0.10550215629E+02 -0.12741684591E+03  0.31275706386E+03  0.33788066040E+03  0.25500000000E-02 0.  1.
<mgrwt>
<rscale>  0 0.39708081E+02</rscale>
<asrwt>0</asrwt>
<pdfrwt beam="1">  1       11 0.10000000E+01 0.12024596E+03</pdfrwt>
<pdfrwt beam="2">  1        2 0.30388206E-02 0.39708081E+02</pdfrwt>
<totfact> 0.30648519E+03</totfact>
</mgrwt>
</event>
<event>
 5    1  0.9955701E-004  0.2200944E+03  0.7818608E-02  0.1361033E+00
         11   -1    0    0    0    0  0.00000000000E+00  0.00000000000E+00  0.99989164786E+03  0.99989164786E+03  0.51100000000E-03 0. -1.
          2   -1    0    0  501    0 -0.00000000000E+00 -0.00000000000E+00 -0.10911925051E+03  0.10911925054E+03  0.25500000000E-02 0. -1.
         11    1    1    2    0    0  0.17554051460E+03 -0.13982113705E+03  0.73573737885E+03  0.76920342776E+03  0.51100000000E-03 0. -1.
         22    1    1    2    0    0 -0.22002125709E+02 -0.19477158392E+01 -0.45246973916E+02  0.50350529106E+02  0.00000000000E+00 0. -1.
          2    1    1    2  501    0 -0.15353838889E+03  0.14176885289E+03  0.20028199241E+03  0.28945694153E+03  0.25500000000E-02 0. -1.
<mgrwt>
<rscale>  0 0.69724320E+02</rscale>
<asrwt>0</asrwt>
<pdfrwt beam="1">  1       11 0.10000000E+01 0.22009435E+03</pdfrwt>
<pdfrwt beam="2">  1        2 0.16785758E-01 0.69724320E+02</pdfrwt>
<totfact> 0.39887381E+02</totfact>
</mgrwt>
</event>
<event>
 5    1  0.9955701E-004  0.1703030E+03  0.7818608E-02  0.1177532E+00
         11   -1    0    0    0    0  0.00000000000E+00  0.00000000000E+00  0.10003547499E+04  0.10003547499E+04  0.51100000000E-03 0.  1.
          2   -1    0    0  501    0 -0.00000000000E+00 -0.00000000000E+00 -0.51349488471E+02  0.51349488534E+02  0.25500000000E-02 0.  1.
         11    1    1    2    0    0  0.47861814989E+01  0.16589665653E+03  0.82374147679E+03  0.84029437030E+03  0.51100000000E-03 0.  1.
         22    1    1    2    0    0 -0.84836711871E+01 -0.30906251958E+02  0.91952105528E+01  0.33342480172E+02  0.00000000000E+00 0. -1.
          2    1    1    2  501    0  0.36974896882E+01 -0.13499040457E+03  0.11606857409E+03  0.17806738796E+03  0.25500000000E-02 0.  1.
<mgrwt>
<rscale>  0 0.17030301E+03</rscale>
<asrwt>0</asrwt>
<pdfrwt beam="1">  1       11 0.10000000E+01 0.16596568E+03</pdfrwt>
<pdfrwt beam="2">  1        2 0.79027236E-02 0.17030301E+03</pdfrwt>
<totfact> 0.10336816E+03</totfact>
</mgrwt>
</event>
<event>
 5    1  0.9955701E-004  0.6553892E+02  0.7818608E-02  0.1394487E+00
         11   -1    0    0    0    0  0.00000000000E+00  0.00000000000E+00  0.10000989422E+04  0.10000989422E+04  0.51100000000E-03 0. -1.
          2   -1    0    0  501    0 -0.00000000000E+00 -0.00000000000E+00 -0.67130539656E+01  0.67130544499E+01  0.25500000000E-02 0. -1.
         11    1    1    2    0    0  0.78648512666E+00  0.53559678792E+02  0.14964734825E+03  0.15894523142E+03  0.51100000000E-03 0. -1.
         22    1    1    2    0    0  0.10130222353E+02  0.62565738230E+01  0.37641341003E+02  0.39479572863E+02  0.00000000000E+00 0.  1.
          2    1    1    2  501    0 -0.10916707479E+02 -0.59816252615E+02  0.80609719899E+03  0.80838719238E+03  0.25500000000E-02 0. -1.
<mgrwt>
<rscale>  0 0.60804265E+02</rscale>
<asrwt>0</asrwt>
<pdfrwt beam="1">  1       11 0.10000000E+01 0.65538918E+02</pdfrwt>
<pdfrwt beam="2">  1        2 0.10328797E-02 0.60804265E+02</pdfrwt>
<totfact> 0.13669459E+04</totfact>
</mgrwt>
</event>
<event>
 5    1  0.9955701E-004  0.3496541E+02  0.7818608E-02  0.1682353E+00
         11   -1    0    0    0    0  0.00000000000E+00  0.00000000000E+00  0.10003666094E+04  0.10003666094E+04  0.51100000000E-03 0. -1.
          2   -1    0    0  501    0 -0.00000000000E+00 -0.00000000000E+00 -0.86813114759E+01  0.86813118504E+01  0.25500000000E-02 0. -1.
         11    1    1    2    0    0  0.28882785247E+02  0.26904019112E+01  0.21550572084E+02  0.36136971421E+02  0.51100000000E-03 0. -1.
         22    1    1    2    0    0  0.41603936247E+01 -0.15341296418E+02  0.59425618119E+02  0.61514781474E+02  0.00000000000E+00 0.  1.
          2    1    1    2  501    0 -0.33043178872E+02  0.12650894507E+02  0.91070910776E+03  0.91139616839E+03  0.25500000000E-02 0. -1.
<mgrwt>
<rscale>  0 0.23575188E+02</rscale>
<asrwt>0</asrwt>
<pdfrwt beam="1">  1       11 0.10000000E+01 0.34965413E+02</pdfrwt>
<pdfrwt beam="2">  1        2 0.13360760E-02 0.23575188E+02</pdfrwt>
<totfact> 0.81229218E+03</totfact>
</mgrwt>
</event>
<event>
 5    1  0.9955701E-004  0.1341560E+03  0.7818608E-02  0.1414645E+00
         11   -1    0    0    0    0  0.00000000000E+00  0.00000000000E+00  0.99995104033E+03  0.99995104033E+03  0.51100000000E-03 0.  1.
          2   -1    0    0  501    0 -0.00000000000E+00 -0.00000000000E+00 -0.14224963512E+03  0.14224963514E+03  0.25500000000E-02 0.  1.
         11    1    1    2    0    0 -0.10524062628E+03 -0.13174967426E+03 -0.23950308633E+02  0.17031495346E+03  0.51100000000E-03 0.  1.
         22    1    1    2    0    0  0.55520576382E+02  0.10561553473E+03  0.36369662546E+02  0.12473944016E+03  0.00000000000E+00 0. -1.
          2    1    1    2  501    0  0.49720049894E+02  0.26134139532E+02  0.84528205130E+03  0.84714628185E+03  0.25500000000E-02 0.  1.
<mgrwt>
<rscale>  0 0.56170069E+02</rscale>
<asrwt>0</asrwt>
<pdfrwt beam="1">  1       11 0.10000000E+01 0.13415600E+03</pdfrwt>
<pdfrwt beam="2">  1        2 0.21883487E-01 0.56170069E+02</pdfrwt>
<totfact> 0.29444916E+02</totfact>
</mgrwt>
</event>
<event>
 5    1  0.9955701E-004  0.1620272E+03  0.7818608E-02  0.1400811E+00
         11   -1    0    0    0    0  0.00000000000E+00  0.00000000000E+00  0.10003130226E+04  0.10003130226E+04  0.51100000000E-03 0.  1.
          2   -1    0    0  501    0 -0.00000000000E+00 -0.00000000000E+00 -0.48360315745E+02  0.48360315813E+02  0.25500000000E-02 0. -1.
         11    1    1    2    0    0 -0.15772158870E+03  0.37503256833E+02  0.70564878847E+03  0.72403232420E+03  0.51100000000E-03 0.  1.
         22    1    1    2    0    0 -0.43027260527E+01 -0.21269218824E+02 -0.76130468471E+01  0.22996773756E+02  0.00000000000E+00 0. -1.
          2    1    1    2  501    0  0.16202431476E+03 -0.16234038009E+02  0.25391696523E+03  0.30164424045E+03  0.25500000000E-02 0. -1.
<mgrwt>
<rscale>  0 0.59295880E+02</rscale>
<asrwt>0</asrwt>
<pdfrwt beam="1">  1       11 0.10000000E+01 0.16202718E+03</pdfrwt>
<pdfrwt beam="2">  1        2 0.74423773E-02 0.59295880E+02</pdfrwt>
<totfact> 0.10325589E+03</totfact>
</mgrwt>
</event>
<event>
 5    1  0.9955701E-004  0.5007702E+02  0.7818608E-02  0.1620011E+00
         11   -1    0    0    0    0  0.00000000000E+00  0.00000000000E+00  0.99996367620E+03  0.99996367620E+03  0.51100000000E-03 0. -1.
          2   -1    0    0  501    0 -0.00000000000E+00 -0.00000000000E+00 -0.90379863416E+01  0.90379867013E+01  0.25500000000E-02 0. -1.
         11    1    1    2    0    0 -0.58865635671E+02  0.13683517761E+01  0.26236134161E+03  0.26888753972E+03  0.51100000000E-03 0. -1.
         22    1    1    2    0    0  0.34867414209E+02  0.13262975084E+02  0.58001178575E+02  0.68962162073E+02  0.00000000000E+00 0.  1.
          2    1    1    2  501    0  0.23998221462E+02 -0.14631326860E+02  0.67056316968E+03  0.67115196110E+03  0.25500000000E-02 0. -1.
<mgrwt>
<rscale>  0 0.28106767E+02</rscale>
<asrwt>0</asrwt>
<pdfrwt beam="1">  1       11 0.10000000E+01 0.50077020E+02</pdfrwt>
<pdfrwt beam="2">  1        2 0.13904089E-02 0.28106767E+02</pdfrwt>
<totfact> 0.79903167E+03</totfact>
</mgrwt>
</event>
<event>
 5    1  0.9955701E-004  0.5000514E+02  0.7818608E-02  0.1620892E+00
         11   -1    0    0    0    0  0.00000000000E+00  0.00000000000E+00  0.10000303006E+04  0.10000303006E+04  0.51100000000E-03 0. -1.
          2   -1    0    0  501    0 -0.00000000000E+00 -0.00000000000E+00 -0.68861715008E+01  0.68861719729E+01  0.25500000000E-02 0. -1.
         11    1    1    2    0    0  0.38113765620E+02 -0.44325962608E+02  0.24863710575E+03  0.25541703242E+03  0.51100000000E-03 0. -1.
         22    1    1    2    0    0 -0.15634825661E+02  0.16036758969E+01  0.20241819878E+02  0.25627150091E+02  0.00000000000E+00 0. -1.
          2    1    1    2  501    0 -0.22478939960E+02  0.42722286711E+02  0.72426520342E+03  0.72587229002E+03  0.25500000000E-02 0. -1.
<mgrwt>
<rscale>  0 0.28034320E+02</rscale>
<asrwt>0</asrwt>
<pdfrwt beam="1">  1       11 0.10000000E+01 0.50005136E+02</pdfrwt>
<pdfrwt beam="2">  1        2 0.10594431E-02 0.28034320E+02</pdfrwt>
<totfact> 0.11398704E+04</totfact>
</mgrwt>
</event>
<event>
 5    1  0.9955701E-004  0.1389470E+03  0.7818608E-02  0.1254872E+00
         11   -1    0    0    0    0  0.00000000000E+00  0.00000000000E+00  0.10001874387E+04  0.10001874387E+04  0.51100000000E-03 0. -1.
          2   -1    0    0  501    0 -0.00000000000E+00 -0.00000000000E+00 -0.58583756335E+02  0.58583756390E+02  0.25500000000E-02 0. -1.
         11    1    1    2    0    0 -0.15305348003E+03 -0.10658566573E+03  0.72412795587E+03  0.74776143814E+03  0.51100000000E-03 0. -1.
         22    1    1    2    0    0  0.71463339515E+02  0.58127393163E+02  0.23504218879E+02  0.95069716712E+02  0.00000000000E+00 0.  1.
          2    1    1    2  501    0  0.81590140510E+02  0.48458272569E+02  0.19397150766E+03  0.21594004028E+03  0.25500000000E-02 0. -1.
<mgrwt>
<rscale>  0 0.11313520E+03</rscale>
<asrwt>0</asrwt>
<pdfrwt beam="1">  1       11 0.10000000E+01 0.13894703E+03</pdfrwt>
<pdfrwt beam="2">  1        2 0.90145747E-02 0.11313520E+03</pdfrwt>
<totfact> 0.85485459E+02</totfact>
</mgrwt>
</event>
<event>
 5    1  0.9955701E-004  0.2761575E+03  0.7818608E-02  0.1121729E+00
         11   -1    0    0    0    0  0.00000000000E+00  0.00000000000E+00  0.10005894984E+04  0.10005894984E+04  0.51100000000E-03 0. -1.
          2   -1    0    0  501    0 -0.00000000000E+00 -0.00000000000E+00 -0.45788665732E+03  0.45788665733E+03  0.25500000000E-02 0. -1.
         11    1    1    2    0    0  0.17918361259E+03  0.23433873163E+03  0.81275519181E+03  0.86463426371E+03  0.51100000000E-03 0. -1.
         22    1    1    2    0    0 -0.20325868296E+03  0.11665513352E+02 -0.28031592797E+03  0.34644941315E+03  0.00000000000E+00 0. -1.
          2    1    1    2  501    0  0.24075070363E+02 -0.24600424498E+03  0.10263577212E+02  0.24739247884E+03  0.25500000000E-02 0. -1.
<mgrwt>
<rscale>  0 0.23711552E+03</rscale>
<asrwt>0</asrwt>
<pdfrwt beam="1">  1       11 0.10000000E+01 0.27615746E+03</pdfrwt>
<pdfrwt beam="2">  1        2 0.70485626E-01 0.23711552E+03</pdfrwt>
<totfact> 0.85638083E+01</totfact>
</mgrwt>
</event>
<event>
 5    1  0.9955701E-004  0.1733211E+03  0.7818608E-02  0.1210191E+00
         11   -1    0    0    0    0  0.00000000000E+00  0.00000000000E+00  0.10003140663E+04  0.10003140663E+04  0.51100000000E-03 0. -1.
          2   -1    0    0  501    0 -0.00000000000E+00 -0.00000000000E+00 -0.37111054169E+03  0.37111054170E+03  0.25500000000E-02 0. -1.
         11    1    1    2    0    0 -0.12793476335E+02  0.17279308644E+03  0.91182311104E+03  0.92813927273E+03  0.51100000000E-03 0. -1.
         22    1    1    2    0    0  0.11664445494E+03  0.81137954673E+01 -0.16971330146E+03  0.20609310332E+03  0.00000000000E+00 0. -1.
          2    1    1    2  501    0 -0.10385097860E+03 -0.18090688191E+03 -0.11290628501E+03  0.23719223191E+03  0.25500000000E-02 0. -1.
<mgrwt>
<rscale>  0 0.14235798E+03</rscale>
<asrwt>0</asrwt>
<pdfrwt beam="1">  1       11 0.10000000E+01 0.17332107E+03</pdfrwt>
<pdfrwt beam="2">  1        2 0.57111859E-01 0.14235798E+03</pdfrwt>
<totfact> 0.10801022E+02</totfact>
</mgrwt>
</event>
<event>
 5    1  0.9955701E-004  0.1730467E+03  0.7818608E-02  0.1485645E+00
         11   -1    0    0    0    0  0.00000000000E+00  0.00000000000E+00  0.10003141422E+04  0.10003141422E+04  0.51100000000E-03 0. -1.
         -2   -1    0    0    0  501 -0.00000000000E+00 -0.00000000000E+00 -0.37430608726E+02  0.37430608813E+02  0.25500000000E-02 0.  1.
         11    1    1    2    0    0  0.17261212217E+03 -0.37461152518E+02  0.45327414809E+03  0.48647274949E+03  0.51100000000E-03 0. -1.
         22    1    1    2    0    0 -0.47131403761E+01  0.97218588638E+01 -0.29511863155E+01  0.11199898778E+02  0.00000000000E+00 0. -1.
         -2    1    1    2    0  501 -0.16789898179E+03  0.27739293655E+02  0.51256057171E+03  0.54007210276E+03  0.25500000000E-02 0.  1.
<mgrwt>
<rscale>  0 0.43238987E+02</rscale>
<asrwt>0</asrwt>
<pdfrwt beam="1">  1       11 0.10000000E+01 0.17304669E+03</pdfrwt>
<pdfrwt beam="2">  1       -2 0.57603640E-02 0.43238987E+02</pdfrwt>
<totfact> 0.10693440E+03</totfact>
</mgrwt>
</event>
<event>
 5    1  0.9955701E-004  0.4878486E+02  0.7818608E-02  0.1459169E+00
         11   -1    0    0    0    0  0.00000000000E+00  0.00000000000E+00  0.10002310624E+04  0.10002310624E+04  0.51100000000E-03 0.  1.
         -2   -1    0    0    0  501 -0.00000000000E+00 -0.00000000000E+00 -0.29061102916E+01  0.29061114104E+01  0.25500000000E-02 0. -1.
         11    1    1    2    0    0 -0.24310235952E+02 -0.14193719386E+02  0.16859640012E+03  0.17093038166E+03  0.51100000000E-03 0.  1.
         22    1    1    2    0    0 -0.11522111006E+02 -0.17025449950E+02  0.10971940267E+03  0.11162872529E+03  0.00000000000E+00 0.  1.
         -2    1    1    2    0  501  0.35832346957E+02  0.31219169336E+02  0.71900914933E+03  0.72057806687E+03  0.25500000000E-02 0. -1.
<mgrwt>
<rscale>  0 0.47524663E+02</rscale>
<asrwt>0</asrwt>
<pdfrwt beam="1">  1       11 0.10000000E+01 0.48784863E+02</pdfrwt>
<pdfrwt beam="2">  1       -2 0.44719727E-03 0.47524663E+02</pdfrwt>
<totfact> 0.39407144E+04</totfact>
</mgrwt>
</event>
<event>
 5    1  0.9955701E-004  0.9328960E+02  0.7818608E-02  0.1583915E+00
         11   -1    0    0    0    0  0.00000000000E+00  0.00000000000E+00  0.10003003569E+04  0.10003003569E+04  0.51100000000E-03 0. -1.
          2   -1    0    0  501    0 -0.00000000000E+00 -0.00000000000E+00 -0.98378230906E+01  0.98378234211E+01  0.25500000000E-02 0. -1.
         11    1    1    2    0    0 -0.83942256147E+02  0.43773538549E+02  0.52559582690E+03  0.53405374102E+03  0.51100000000E-03 0. -1.
         22    1    1    2    0    0  0.74923271098E+01  0.73799907735E+01  0.38694651013E+02  0.40098319745E+02  0.00000000000E+00 0.  1.
          2    1    1    2  501    0  0.76449929037E+02 -0.51153529322E+02  0.42617205594E+03  0.43598611960E+03  0.25500000000E-02 0. -1.
<mgrwt>
<rscale>  0 0.31322373E+02</rscale>
<asrwt>0</asrwt>
<pdfrwt beam="1">  1       11 0.10000000E+01 0.93289605E+02</pdfrwt>
<pdfrwt beam="2">  1        2 0.15139658E-02 0.31322373E+02</pdfrwt>
<totfact> 0.72979297E+03</totfact>
</mgrwt>
</event>
<event>
 5    1  0.9955701E-004  0.1226387E+03  0.7818608E-02  0.1375795E+00
         11   -1    0    0    0    0  0.00000000000E+00  0.00000000000E+00  0.10001781925E+04  0.10001781925E+04  0.51100000000E-03 0.  1.
          2   -1    0    0  501    0 -0.00000000000E+00 -0.00000000000E+00 -0.25275645053E+02  0.25275645181E+02  0.25500000000E-02 0.  1.
         11    1    1    2    0    0  0.11624537892E+03 -0.25971964887E+02  0.58782762944E+03  0.59977400161E+03  0.51100000000E-03 0.  1.
         22    1    1    2    0    0  0.16281085445E+02  0.31062332439E+02  0.35411090019E+02  0.49838614910E+02  0.00000000000E+00 0.  1.
          2    1    1    2  501    0 -0.13252646437E+03 -0.50903675521E+01  0.35166382804E+03  0.37584122121E+03  0.25500000000E-02 0.  1.
<mgrwt>
<rscale>  0 0.65582035E+02</rscale>
<asrwt>0</asrwt>
<pdfrwt beam="1">  1       11 0.10000000E+01 0.12263867E+03</pdfrwt>
<pdfrwt beam="2">  1        2 0.38892536E-02 0.65582035E+02</pdfrwt>
<totfact> 0.23706581E+03</totfact>
</mgrwt>
</event>
<event>
 5    1  0.9955701E-004  0.3708096E+03  0.7818608E-02  0.1187517E+00
         11   -1    0    0    0    0  0.00000000000E+00  0.00000000000E+00  0.10008105589E+04  0.10008105589E+04  0.51100000000E-03 0.  1.
          2   -1    0    0  501    0 -0.00000000000E+00 -0.00000000000E+00 -0.31441172136E+03  0.31441172137E+03  0.25500000000E-02 0.  1.
         11    1    1    2    0    0 -0.35893693686E+03  0.12636108125E+02  0.69615847004E+03  0.78334667375E+03  0.51100000000E-03 0.  1.
         22    1    1    2    0    0 -0.60006972300E+02 -0.35940220848E+02 -0.80195022164E+02  0.10641324062E+03  0.00000000000E+00 0.  1.
          2    1    1    2  501    0  0.41894390916E+03  0.23304112723E+02  0.70435389690E+02  0.42546236593E+03  0.25500000000E-02 0.  1.
<mgrwt>
<rscale>  0 0.16104936E+03</rscale>
<asrwt>0</asrwt>
<pdfrwt beam="1">  1       11 0.10000000E+01 0.37080959E+03</pdfrwt>
<pdfrwt beam="2">  1        2 0.48410240E-01 0.16104936E+03</pdfrwt>
<totfact> 0.12881211E+02</totfact>
</mgrwt>
</event>
<event>
 5    1  0.9955701E-004  0.1563678E+03  0.7818608E-02  0.1311609E+00
         11   -1    0    0    0    0  0.00000000000E+00  0.00000000000E+00  0.10000517410E+04  0.10000517410E+04  0.51100000000E-03 0.  1.
         -2   -1    0    0    0  501 -0.00000000000E+00 -0.00000000000E+00 -0.61016372716E+02  0.61016372770E+02  0.25500000000E-02 0. -1.
         11    1    1    2    0    0 -0.10351863354E+03 -0.13366983455E+03  0.77151964858E+03  0.78982675335E+03  0.51100000000E-03 0.  1.
         22    1    1    2    0    0  0.43817133911E+02  0.19170718829E+02 -0.12750451097E+02  0.49497794776E+02  0.00000000000E+00 0. -1.
         -2    1    1    2    0  501  0.59701499632E+02  0.11449911572E+03  0.18026617076E+03  0.22174356560E+03  0.25500000000E-02 0. -1.
<mgrwt>
<rscale>  0 0.86479249E+02</rscale>
<asrwt>0</asrwt>
<pdfrwt beam="1">  1       11 0.10000000E+01 0.15636779E+03</pdfrwt>
<pdfrwt beam="2">  1       -2 0.93876197E-02 0.86479249E+02</pdfrwt>
<totfact> 0.54669818E+02</totfact>
</mgrwt>
</event>
<event>
 5    1  0.9955701E-004  0.1816953E+03  0.7818608E-02  0.1166172E+00
         11   -1    0    0    0    0  0.00000000000E+00  0.00000000000E+00  0.99986976483E+03  0.99986976483E+03  0.51100000000E-03 0. -1.
          2   -1    0    0  501    0 -0.00000000000E+00 -0.00000000000E+00 -0.10156369964E+03  0.10156369967E+03  0.25500000000E-02 0. -1.
         11    1    1    2    0    0  0.18527890927E+03  0.23390566920E+02  0.86704660050E+03  0.88693021161E+03  0.51100000000E-03 0. -1.
         22    1    1    2    0    0 -0.44709315553E+01 -0.11429236036E+02  0.30955777706E+02  0.33299802383E+02  0.00000000000E+00 0.  1.
          2    1    1    2  501    0 -0.18080797772E+03 -0.11961330884E+02  0.30368699172E+00  0.18120345051E+03  0.25500000000E-02 0. -1.
<mgrwt>
<rscale>  0 0.18169530E+03</rscale>
<asrwt>0</asrwt>
<pdfrwt beam="1">  1       11 0.10000000E+01 0.12272598E+02</pdfrwt>
<pdfrwt beam="2">  1        2 0.15623149E-01 0.18169530E+03</pdfrwt>
<totfact> 0.45123385E+02</totfact>
</mgrwt>
</event>
<event>
 5    1  0.9955701E-004  0.3738625E+02  0.7818608E-02  0.1589290E+00
         11   -1    0    0    0    0  0.00000000000E+00  0.00000000000E+00  0.10003598408E+04  0.10003598408E+04  0.51100000000E-03 0.  1.
          2   -1    0    0  501    0 -0.00000000000E+00 -0.00000000000E+00 -0.10028613944E+02  0.10028614268E+02  0.25500000000E-02 0.  1.
         11    1    1    2    0    0 -0.26449676841E+02  0.53341348927E+02  0.29321986073E+03  0.29920356221E+03  0.51100000000E-03 0.  1.
         22    1    1    2    0    0  0.10091586046E+02 -0.23301301274E+02  0.17793549582E+02  0.31006469595E+02  0.00000000000E+00 0.  1.
          2    1    1    2  501    0  0.16358090794E+02 -0.30040047653E+02  0.67931781651E+03  0.68017842324E+03  0.25500000000E-02 0.  1.
<mgrwt>
<rscale>  0 0.30811336E+02</rscale>
<asrwt>0</asrwt>
<pdfrwt beam="1">  1       11 0.10000000E+01 0.37386248E+02</pdfrwt>
<pdfrwt beam="2">  1        2 0.15434188E-02 0.30811336E+02</pdfrwt>
<totfact> 0.70948070E+03</totfact>
</mgrwt>
</event>
<event>
 5    1  0.9955701E-004  0.1472855E+03  0.7818608E-02  0.1203849E+00
         11   -1    0    0    0    0  0.00000000000E+00  0.00000000000E+00  0.99991982978E+03  0.99991982978E+03  0.51100000000E-03 0. -1.
          2   -1    0    0  501    0 -0.00000000000E+00 -0.00000000000E+00 -0.46934618209E+02  0.46934618278E+02  0.25500000000E-02 0. -1.
         11    1    1    2    0    0  0.13345425562E+03 -0.57449103933E+02  0.86106854536E+03  0.87324079021E+03  0.51100000000E-03 0. -1.
         22    1    1    2    0    0 -0.12035771870E+02 -0.17974723327E+01  0.82636076126E+01  0.14709790007E+02  0.00000000000E+00 0.  1.
          2    1    1    2  501    0 -0.12141848375E+03  0.59246576266E+02  0.83653058608E+02  0.15890386785E+03  0.25500000000E-02 0. -1.
<mgrwt>
<rscale>  0 0.14728553E+03</rscale>
<asrwt>0</asrwt>
<pdfrwt beam="1">  1       11 0.10000000E+01 0.14529431E+03</pdfrwt>
<pdfrwt beam="2">  1        2 0.72201314E-02 0.14728553E+03</pdfrwt>
<totfact> 0.11483325E+03</totfact>
</mgrwt>
</event>
<event>
 5    1  0.9955701E-004  0.3736223E+02  0.7818608E-02  0.1553288E+00
         11   -1    0    0    0    0  0.00000000000E+00  0.00000000000E+00  0.10003990227E+04  0.10003990227E+04  0.51100000000E-03 0. -1.
          2   -1    0    0  501    0 -0.00000000000E+00 -0.00000000000E+00 -0.13054583064E+02  0.13054583313E+02  0.25500000000E-02 0. -1.
         11    1    1    2    0    0 -0.33888354810E+02 -0.14098456342E+02  0.39703172543E+02  0.54069667774E+02  0.51100000000E-03 0. -1.
         22    1    1    2    0    0  0.13640291994E+02  0.42004132750E+02  0.82679430459E+02  0.93735227928E+02  0.00000000000E+00 0.  1.
          2    1    1    2  501    0  0.20248062816E+02 -0.27905676407E+02  0.86496183661E+03  0.86564871029E+03  0.25500000000E-02 0. -1.
<mgrwt>
<rscale>  0 0.34477686E+02</rscale>
<asrwt>0</asrwt>
<pdfrwt beam="1">  1       11 0.10000000E+01 0.37362228E+02</pdfrwt>
<pdfrwt beam="2">  1        2 0.20091988E-02 0.34477686E+02</pdfrwt>
<totfact> 0.51291641E+03</totfact>
</mgrwt>
</event>
<event>
 5    1  0.9955701E-004  0.2916799E+03  0.7818608E-02  0.1321693E+00
         11   -1    0    0    0    0  0.00000000000E+00  0.00000000000E+00  0.10000071600E+04  0.10000071600E+04  0.51100000000E-03 0. -1.
          2   -1    0    0  501    0 -0.00000000000E+00 -0.00000000000E+00 -0.11480444736E+03  0.11480444739E+03  0.25500000000E-02 0. -1.
         11    1    1    2    0    0  0.14658372557E+03 -0.25974531685E+03  0.63520012386E+03  0.70173614385E+03  0.51100000000E-03 0. -1.
         22    1    1    2    0    0  0.32402657855E+01  0.23194689304E+02 -0.14786219232E+02  0.27697025354E+02  0.00000000000E+00 0.  1.
          2    1    1    2  501    0 -0.14982399136E+03  0.23655062755E+03  0.26478880805E+03  0.38537843823E+03  0.25500000000E-02 0. -1.
<mgrwt>
<rscale>  0 0.82650593E+02</rscale>
<asrwt>0</asrwt>
<pdfrwt beam="1">  1       11 0.10000000E+01 0.29167985E+03</pdfrwt>
<pdfrwt beam="2">  1        2 0.17662349E-01 0.82650593E+02</pdfrwt>
<totfact> 0.37948016E+02</totfact>
</mgrwt>
</event>
<event>
 5    1  0.9955701E-004  0.1026467E+03  0.7818608E-02  0.1493227E+00
         11   -1    0    0    0    0  0.00000000000E+00  0.00000000000E+00  0.10002255233E+04  0.10002255233E+04  0.51100000000E-03 0.  1.
          2   -1    0    0  501    0 -0.00000000000E+00 -0.00000000000E+00 -0.15261365944E+02  0.15261366157E+02  0.25500000000E-02 0.  1.
         11    1    1    2    0    0 -0.77528273091E+02  0.67028512131E+02  0.61055697725E+03  0.61909876194E+03  0.51100000000E-03 0.  1.
         22    1    1    2    0    0 -0.11227020008E+02 -0.13130936901E+02  0.17137887627E+02  0.24334639395E+02  0.00000000000E+00 0. -1.
          2    1    1    2  501    0  0.88755293099E+02 -0.53897575230E+02  0.35726929245E+03  0.37205348809E+03  0.25500000000E-02 0.  1.
<mgrwt>
<rscale>  0 0.42111119E+02</rscale>
<asrwt>0</asrwt>
<pdfrwt beam="1">  1       11 0.10000000E+01 0.10264671E+03</pdfrwt>
<pdfrwt beam="2">  1        2 0.23484319E-02 0.42111119E+02</pdfrwt>
<totfact> 0.43186262E+03</totfact>
</mgrwt>
</event>
<event>
 5    1  0.9955701E-004  0.1303490E+03  0.7818608E-02  0.1490553E+00
         11   -1    0    0    0    0  0.00000000000E+00  0.00000000000E+00  0.10002403494E+04  0.10002403494E+04  0.51100000000E-03 0.  1.
          2   -1    0    0  501    0 -0.00000000000E+00 -0.00000000000E+00 -0.43375637737E+02  0.43375637811E+02  0.25500000000E-02 0.  1.
         11    1    1    2    0    0  0.10312952470E+03 -0.86414616184E+02  0.73103091351E+03  0.74330974786E+03  0.51100000000E-03 0.  1.
         22    1    1    2    0    0 -0.11605218168E+02  0.75769761738E+01 -0.21194762126E+02  0.25324091262E+02  0.00000000000E+00 0.  1.
          2    1    1    2  501    0 -0.91524306531E+02  0.78837640010E+02  0.24702856028E+03  0.27498214809E+03  0.25500000000E-02 0.  1.
<mgrwt>
<rscale>  0 0.42504119E+02</rscale>
<asrwt>0</asrwt>
<pdfrwt beam="1">  1       11 0.10000000E+01 0.13034903E+03</pdfrwt>
<pdfrwt beam="2">  1        2 0.66747787E-02 0.42504119E+02</pdfrwt>
<totfact> 0.11452804E+03</totfact>
</mgrwt>
</event>
<event>
 5    1  0.9955701E-004  0.2102985E+03  0.7818608E-02  0.1141330E+00
         11   -1    0    0    0    0  0.00000000000E+00  0.00000000000E+00  0.10000353582E+04  0.10000353582E+04  0.51100000000E-03 0. -1.
          2   -1    0    0  501    0 -0.00000000000E+00 -0.00000000000E+00 -0.82206946453E+02  0.82206946493E+02  0.25500000000E-02 0. -1.
         11    1    1    2    0    0 -0.15233625319E+02 -0.20423435447E+03  0.82905153397E+03  0.85397317339E+03  0.51100000000E-03 0. -1.
         22    1    1    2    0    0 -0.15485499712E+02  0.34647350229E+02  0.15721210564E+02  0.41077926442E+02  0.00000000000E+00 0. -1.
          2    1    1    2  501    0  0.30719125031E+02  0.16958700424E+03  0.73055667170E+02  0.18719120482E+03  0.25500000000E-02 0. -1.
<mgrwt>
<rscale>  0 0.21029851E+03</rscale>
<asrwt>0</asrwt>
<pdfrwt beam="1">  1       11 0.10000000E+01 0.20480170E+03</pdfrwt>
<pdfrwt beam="2">  1        2 0.12647669E-01 0.21029851E+03</pdfrwt>
<totfact> 0.58387309E+02</totfact>
</mgrwt>
</event>
<event>
 5    1  0.9955701E-004  0.2043858E+03  0.7818608E-02  0.1146091E+00
         11   -1    0    0    0    0  0.00000000000E+00  0.00000000000E+00  0.10000347834E+04  0.10000347834E+04  0.51100000000E-03 0.  1.
          2   -1    0    0  501    0 -0.00000000000E+00 -0.00000000000E+00 -0.41337611459E+02  0.41337611537E+02  0.25500000000E-02 0.  1.
         11    1    1    2    0    0  0.99103989282E+02  0.17550890009E+03  0.50651172214E+03  0.54514135723E+03  0.51100000000E-03 0.  1.
         22    1    1    2    0    0 -0.89618386096E+01 -0.18299331121E+02  0.25385420543E+02  0.32551492238E+02  0.00000000000E+00 0.  1.
          2    1    1    2  501    0 -0.90142150673E+02 -0.15720956896E+03  0.42680002924E+03  0.46367954545E+03  0.25500000000E-02 0.  1.
<mgrwt>
<rscale>  0 0.20438582E+03</rscale>
<asrwt>0</asrwt>
<pdfrwt beam="1">  1       11 0.10000000E+01 0.20155638E+03</pdfrwt>
<pdfrwt beam="2">  1        2 0.63598536E-02 0.20438582E+03</pdfrwt>
<totfact> 0.13811871E+03</totfact>
</mgrwt>
</event>
<event>
 5    1  0.9955701E-004  0.5893294E+02  0.7818608E-02  0.1526444E+00
         11   -1    0    0    0    0  0.00000000000E+00  0.00000000000E+00  0.10001972220E+04  0.10001972220E+04  0.51100000000E-03 0. -1.
          2   -1    0    0  501    0 -0.00000000000E+00 -0.00000000000E+00 -0.10948105369E+02  0.10948105666E+02  0.25500000000E-02 0. -1.
         11    1    1    2    0    0 -0.35247225361E+02 -0.69791758982E+02  0.21245565642E+03  0.22638609158E+03  0.51100000000E-03 0. -1.
         22    1    1    2    0    0  0.17281145098E+02  0.16687048390E+02  0.46699780246E+02  0.52516331126E+02  0.00000000000E+00 0. -1.
          2    1    1    2  501    0  0.17966080263E+02  0.53104710592E+02  0.73009367998E+03  0.73224290497E+03  0.25500000000E-02 0. -1.
<mgrwt>
<rscale>  0 0.37626244E+02</rscale>
<asrwt>0</asrwt>
<pdfrwt beam="1">  1       11 0.10000000E+01 0.58932936E+02</pdfrwt>
<pdfrwt beam="2">  1        2 0.16846561E-02 0.37626244E+02</pdfrwt>
<totfact> 0.65545338E+03</totfact>
</mgrwt>
</event>
<event>
 5    1  0.9955701E-004  0.9965849E+02  0.7818608E-02  0.1292580E+00
         11   -1    0    0    0    0  0.00000000000E+00  0.00000000000E+00  0.10004794110E+04  0.10004794110E+04  0.51100000000E-03 0.  1.
          2   -1    0    0  501    0 -0.00000000000E+00 -0.00000000000E+00 -0.10752337578E+03  0.10752337581E+03  0.25500000000E-02 0.  1.
         11    1    1    2    0    0 -0.80608263908E+02 -0.41994300635E+02  0.51914253584E+03  0.52703907447E+03  0.51100000000E-03 0.  1.
         22    1    1    2    0    0  0.18295874237E+02 -0.87487059740E+02 -0.70598235799E+02  0.11389835615E+03  0.00000000000E+00 0. -1.
          2    1    1    2  501    0  0.62312389671E+02  0.12948136038E+03  0.44441173517E+03  0.46706535619E+03  0.25500000000E-02 0.  1.
<mgrwt>
<rscale>  0 0.94379247E+02</rscale>
<asrwt>0</asrwt>
<pdfrwt beam="1">  1       11 0.10000000E+01 0.99658488E+02</pdfrwt>
<pdfrwt beam="2">  1        2 0.16549988E-01 0.94379247E+02</pdfrwt>
<totfact> 0.41099320E+02</totfact>
</mgrwt>
</event>
<event>
 5    1  0.9955701E-004  0.1422381E+03  0.7818608E-02  0.1247106E+00
         11   -1    0    0    0    0  0.00000000000E+00  0.00000000000E+00  0.10001887470E+04  0.10001887470E+04  0.51100000000E-03 0.  1.
          2   -1    0    0  501    0 -0.00000000000E+00 -0.00000000000E+00 -0.13997637342E+03  0.13997637344E+03  0.25500000000E-02 0.  1.
         11    1    1    2    0    0  0.11222941603E+03 -0.10304147903E+03  0.72396780932E+03  0.73982591003E+03  0.51100000000E-03 0.  1.
         22    1    1    2    0    0 -0.90677366969E+02 -0.35099390923E+02 -0.91231337309E+02  0.13333232553E+03  0.00000000000E+00 0.  1.
          2    1    1    2  501    0 -0.21552049061E+02  0.13814086995E+03  0.22747590153E+03  0.26700688484E+03  0.25500000000E-02 0.  1.
<mgrwt>
<rscale>  0 0.11760232E+03</rscale>
<asrwt>0</asrwt>
<pdfrwt beam="1">  1       11 0.10000000E+01 0.14223807E+03</pdfrwt>
<pdfrwt beam="2">  1        2 0.21538891E-01 0.11760232E+03</pdfrwt>
<totfact> 0.30770309E+02</totfact>
</mgrwt>
</event>
<event>
 5    1  0.9955701E-004  0.3793299E+03  0.7818608E-02  0.1160816E+00
         11   -1    0    0    0    0  0.00000000000E+00  0.00000000000E+00  0.10000312151E+04  0.10000312151E+04  0.51100000000E-03 0. -1.
          2   -1    0    0  501    0 -0.00000000000E+00 -0.00000000000E+00 -0.25264182457E+03  0.25264182458E+03  0.25500000000E-02 0. -1.
         11    1    1    2    0    0  0.26960174378E+03  0.29121848552E+03  0.69710684795E+03  0.80215413982E+03  0.51100000000E-03 0. -1.
         22    1    1    2    0    0  0.64954878219E+01 -0.92365764322E+02 -0.36246817815E+02  0.99435695716E+02  0.00000000000E+00 0. -1.
          2    1    1    2  501    0 -0.27609723161E+03 -0.19885272120E+03  0.86529360405E+02  0.35108320417E+03  0.25500000000E-02 0. -1.
<mgrwt>
<rscale>  0 0.18741298E+03</rscale>
<asrwt>0</asrwt>
<pdfrwt beam="1">  1       11 0.10000000E+01 0.37932991E+03</pdfrwt>
<pdfrwt beam="2">  1        2 0.38869185E-01 0.18741298E+03</pdfrwt>
<totfact> 0.16301292E+02</totfact>
</mgrwt>
</event>
<event>
 5    1  0.9955701E-004  0.1188181E+03  0.7818608E-02  0.1262376E+00
         11   -1    0    0    0    0  0.00000000000E+00  0.00000000000E+00  0.10000983058E+04  0.10000983058E+04  0.51100000000E-03 0. -1.
          2   -1    0    0  501    0 -0.00000000000E+00 -0.00000000000E+00 -0.22514338776E+02  0.22514338920E+02  0.25500000000E-02 0. -1.
         11    1    1    2    0    0 -0.32248961423E+02 -0.23407231062E+01  0.33867259910E+02  0.46823773787E+02  0.51100000000E-03 0. -1.
         22    1    1    2    0    0 -0.50390965093E+02 -0.68781113622E+02  0.13442681689E+03  0.15918749968E+03  0.00000000000E+00 0. -1.
          2    1    1    2  501    0  0.82639926515E+02  0.71121836728E+02  0.80928989023E+03  0.81660137127E+03  0.25500000000E-02 0. -1.
<mgrwt>
<rscale>  0 0.10903061E+03</rscale>
<asrwt>0</asrwt>
<pdfrwt beam="1">  1       11 0.10000000E+01 0.11881813E+03</pdfrwt>
<pdfrwt beam="2">  1        2 0.34640848E-02 0.10903061E+03</pdfrwt>
<totfact> 0.29119177E+03</totfact>
</mgrwt>
</event>
<event>
 5    1  0.9955701E-004  0.1904891E+03  0.7818608E-02  0.1158021E+00
         11   -1    0    0    0    0  0.00000000000E+00  0.00000000000E+00  0.10003813624E+04  0.10003813624E+04  0.51100000000E-03 0. -1.
         -2   -1    0    0    0  501 -0.00000000000E+00 -0.00000000000E+00 -0.83817131944E+02  0.83817131982E+02  0.25500000000E-02 0. -1.
         11    1    1    2    0    0 -0.15753093021E+03  0.10225391470E+03  0.86735609313E+03  0.88745616756E+03  0.51100000000E-03 0. -1.
         22    1    1    2    0    0  0.13066277097E+02 -0.37254974652E+01 -0.36388790583E+01  0.14065858287E+02  0.00000000000E+00 0.  1.
         -2    1    1    2    0  501  0.14446465311E+03 -0.98528417233E+02  0.52847016345E+02  0.18267646850E+03  0.25500000000E-02 0. -1.
<mgrwt>
<rscale>  0 0.19048911E+03</rscale>
<asrwt>0</asrwt>
<pdfrwt beam="1">  1       11 0.10000000E+01 0.18780803E+03</pdfrwt>
<pdfrwt beam="2">  1       -2 0.12899861E-01 0.19048911E+03</pdfrwt>
<totfact> 0.34623339E+02</totfact>
</mgrwt>
</event>
<event>
 5    1  0.9955701E-004  0.3415286E+02  0.7818608E-02  0.1641152E+00
         11   -1    0    0    0    0  0.00000000000E+00  0.00000000000E+00  0.99999398856E+03  0.99999398856E+03  0.51100000000E-03 0. -1.
          2   -1    0    0  501    0 -0.00000000000E+00 -0.00000000000E+00 -0.84447963550E+01  0.84447967400E+01  0.25500000000E-02 0. -1.
         11    1    1    2    0    0 -0.22776372803E+02  0.17749039271E+02  0.11340941420E+03  0.11702771801E+03  0.51100000000E-03 0. -1.
         22    1    1    2    0    0 -0.13320434308E+02 -0.15539884753E+02  0.10473874794E+02  0.22991825536E+02  0.00000000000E+00 0. -1.
          2    1    1    2  501    0  0.36096807111E+02 -0.22091545177E+01  0.86766590321E+03  0.86841924175E+03  0.25500000000E-02 0. -1.
<mgrwt>
<rscale>  0 0.26439101E+02</rscale>
<asrwt>0</asrwt>
<pdfrwt beam="1">  1       11 0.10000000E+01 0.34152856E+02</pdfrwt>
<pdfrwt beam="2">  1        2 0.12991916E-02 0.26439101E+02</pdfrwt>
<totfact> 0.86240497E+03</totfact>
</mgrwt>
</event>
<event>
 5    1  0.9955701E-004  0.1827701E+03  0.7818608E-02  0.1329618E+00
         11   -1    0    0    0    0  0.00000000000E+00  0.00000000000E+00  0.99998133276E+03  0.99998133276E+03  0.51100000000E-03 0. -1.
          2   -1    0    0  501    0 -0.00000000000E+00 -0.00000000000E+00 -0.43856987670E+02  0.43856987744E+02  0.25500000000E-02 0. -1.
         11    1    1    2    0    0 -0.20089357725E+03  0.20560219914E+01  0.45880194488E+03  0.50086094002E+03  0.51100000000E-03 0. -1.
         22    1    1    2    0    0  0.31301165864E+02 -0.15304385738E+02  0.31145935026E+02  0.46733890015E+02  0.00000000000E+00 0.  1.
          2    1    1    2  501    0  0.16959241138E+03  0.13248363747E+02  0.46617646518E+03  0.49624349047E+03  0.25500000000E-02 0. -1.
<mgrwt>
<rscale>  0 0.79800561E+02</rscale>
<asrwt>0</asrwt>
<pdfrwt beam="1">  1       11 0.10000000E+01 0.18277006E+03</pdfrwt>
<pdfrwt beam="2">  1        2 0.67471027E-02 0.79800561E+02</pdfrwt>
<totfact> 0.11954354E+03</totfact>
</mgrwt>
</event>
<event>
 5    1  0.9955701E-004  0.6224024E+02  0.7818608E-02  0.1441520E+00
         11   -1    0    0    0    0  0.00000000000E+00  0.00000000000E+00  0.10003556571E+04  0.10003556571E+04  0.51100000000E-03 0. -1.
          2   -1    0    0  501    0 -0.00000000000E+00 -0.00000000000E+00 -0.15627289737E+02  0.15627289945E+02  0.25500000000E-02 0. -1.
         11    1    1    2    0    0 -0.52119309146E+02 -0.77402817240E+02  0.42524750788E+03  0.43536543439E+03  0.51100000000E-03 0. -1.
         22    1    1    2    0    0  0.30398824394E+02  0.27993940199E+02  0.37343861533E+02  0.55698412963E+02  0.00000000000E+00 0. -1.
          2    1    1    2  501    0  0.21720484752E+02  0.49408877042E+02  0.52213699795E+03  0.52491909969E+03  0.25500000000E-02 0. -1.
<mgrwt>
<rscale>  0 0.50715598E+02</rscale>
<asrwt>0</asrwt>
<pdfrwt beam="1">  1       11 0.10000000E+01 0.62240242E+02</pdfrwt>
<pdfrwt beam="2">  1        2 0.24050534E-02 0.50715598E+02</pdfrwt>
<totfact> 0.43004200E+03</totfact>
</mgrwt>
</event>
<event>
 5    1  0.9955701E-004  0.1534831E+03  0.7818608E-02  0.1196257E+00
         11   -1    0    0    0    0  0.00000000000E+00  0.00000000000E+00  0.99984973145E+03  0.99984973145E+03  0.51100000000E-03 0.  1.
         -2   -1    0    0    0  501 -0.00000000000E+00 -0.00000000000E+00 -0.47895240762E+02  0.47895240830E+02  0.25500000000E-02 0. -1.
         11    1    1    2    0    0  0.14095389124E+03  0.20437844612E+02  0.85371469508E+03  0.86551400078E+03  0.51100000000E-03 0.  1.
         22    1    1    2    0    0 -0.47902695454E+02  0.18749188981E+02  0.23188169955E+02  0.56425982890E+02  0.00000000000E+00 0. -1.
         -2    1    1    2    0  501 -0.93051195787E+02 -0.39187033593E+02  0.75051625646E+02  0.12580498860E+03  0.25500000000E-02 0. -1.
<mgrwt>
<rscale>  0 0.15348312E+03</rscale>
<asrwt>0</asrwt>
<pdfrwt beam="1">  1       11 0.10000000E+01 0.14242789E+03</pdfrwt>
<pdfrwt beam="2">  1       -2 0.73673911E-02 0.15348312E+03</pdfrwt>
<totfact> 0.82749826E+02</totfact>
</mgrwt>
</event>
<event>
 5    1  0.9955701E-004  0.2529078E+03  0.7818608E-02  0.1303238E+00
         11   -1    0    0    0    0  0.00000000000E+00  0.00000000000E+00  0.10000704297E+04  0.10000704297E+04  0.51100000000E-03 0.  1.
          2   -1    0    0  501    0 -0.00000000000E+00 -0.00000000000E+00 -0.10915483699E+03  0.10915483702E+03  0.25500000000E-02 0.  1.
         11    1    1    2    0    0  0.24729362976E+03 -0.58068841497E+02  0.67827907914E+03  0.72428491553E+03  0.51100000000E-03 0.  1.
         22    1    1    2    0    0 -0.11445912436E+02 -0.29791118136E+02 -0.23650942795E+02  0.39722622350E+02  0.00000000000E+00 0. -1.
          2    1    1    2  501    0 -0.23584771733E+03  0.87859959633E+02  0.23628745641E+03  0.34521772889E+03  0.25500000000E-02 0.  1.
<mgrwt>
<rscale>  0 0.89840765E+02</rscale>
<asrwt>0</asrwt>
<pdfrwt beam="1">  1       11 0.10000000E+01 0.25290777E+03</pdfrwt>
<pdfrwt beam="2">  1        2 0.16794234E-01 0.89840765E+02</pdfrwt>
<totfact> 0.40330784E+02</totfact>
</mgrwt>
</event>
<event>
 5    1  0.9955701E-004  0.4161489E+02  0.7818608E-02  0.1630569E+00
         11   -1    0    0    0    0  0.00000000000E+00  0.00000000000E+00  0.10003066669E+04  0.10003066669E+04  0.51100000000E-03 0. -1.
          2   -1    0    0  501    0 -0.00000000000E+00 -0.00000000000E+00 -0.53182278231E+01  0.53182284344E+01  0.25500000000E-02 0. -1.
         11    1    1    2    0    0  0.16576959305E+02 -0.23205978602E+02  0.68060777030E+02  0.73794189425E+02  0.51100000000E-03 0. -1.
         22    1    1    2    0    0 -0.43029659508E+02  0.29772626436E+02  0.31660871681E+03  0.32090347527E+03  0.00000000000E+00 0. -1.
          2    1    1    2  501    0  0.26452700203E+02 -0.65666478346E+01  0.61031894525E+03  0.61092723065E+03  0.25500000000E-02 0. -1.
<mgrwt>
<rscale>  0 0.27255572E+02</rscale>
<asrwt>0</asrwt>
<pdfrwt beam="1">  1       11 0.10000000E+01 0.41614887E+02</pdfrwt>
<pdfrwt beam="2">  1        2 0.81843983E-03 0.27255572E+02</pdfrwt>
<totfact> 0.15903169E+04</totfact>
</mgrwt>
</event>
<event>
 5    1  0.9955701E-004  0.3766782E+02  0.7818608E-02  0.1714810E+00
         11   -1    0    0    0    0  0.00000000000E+00  0.00000000000E+00  0.99995918579E+03  0.99995918579E+03  0.51100000000E-03 0. -1.
          2   -1    0    0  501    0 -0.00000000000E+00 -0.00000000000E+00 -0.50798055314E+01  0.50798061714E+01  0.25500000000E-02 0. -1.
         11    1    1    2    0    0 -0.16530004943E+02  0.27148761324E+02  0.89830749930E+02  0.95288299062E+02  0.51100000000E-03 0. -1.
         22    1    1    2    0    0 -0.12348841172E+02 -0.12841854581E+01  0.18063773688E+02  0.21919008427E+02  0.00000000000E+00 0. -1.
          2    1    1    2  501    0  0.28878846114E+02 -0.25864575866E+02  0.88698485664E+03  0.88783168447E+03  0.25500000000E-02 0. -1.
<mgrwt>
<rscale>  0 0.21625496E+02</rscale>
<asrwt>0</asrwt>
<pdfrwt beam="1">  1       11 0.10000000E+01 0.37667819E+02</pdfrwt>
<pdfrwt beam="2">  1        2 0.78147667E-03 0.21625496E+02</pdfrwt>
<totfact> 0.16003197E+04</totfact>
</mgrwt>
</event>
<event>
 5    1  0.9955701E-004  0.1419350E+03  0.7818608E-02  0.1311255E+00
         11   -1    0    0    0    0  0.00000000000E+00  0.00000000000E+00  0.10000894418E+04  0.10000894418E+04  0.51100000000E-03 0.  1.
          2   -1    0    0  501    0 -0.00000000000E+00 -0.00000000000E+00 -0.19563966205E+03  0.19563966207E+03  0.25500000000E-02 0.  1.
         11    1    1    2    0    0 -0.88431703335E+02  0.12350356006E+03  0.86141167992E+03  0.87470187939E+03  0.51100000000E-03 0.  1.
         22    1    1    2    0    0  0.48220431868E+02 -0.21655451156E+02 -0.16132263431E+03  0.16976207161E+03  0.00000000000E+00 0.  1.
          2    1    1    2  501    0  0.40211271467E+02 -0.10184810891E+03  0.10436073417E+03  0.15126515291E+03  0.25500000000E-02 0.  1.
<mgrwt>
<rscale>  0 0.86617939E+02</rscale>
<asrwt>0</asrwt>
<pdfrwt beam="1">  1       11 0.10000000E+01 0.14193496E+03</pdfrwt>
<pdfrwt beam="2">  1        2 0.30101101E-01 0.86617939E+02</pdfrwt>
<totfact> 0.21177866E+02</totfact>
</mgrwt>
</event>
<event>
 5    1  0.9955701E-004  0.1600280E+03  0.7818608E-02  0.1422318E+00
         11   -1    0    0    0    0  0.00000000000E+00  0.00000000000E+00  0.99996721444E+03  0.99996721444E+03  0.51100000000E-03 0. -1.
         -2   -1    0    0    0  501 -0.00000000000E+00 -0.00000000000E+00 -0.37433542121E+02  0.37433542208E+02  0.25500000000E-02 0.  1.
         11    1    1    2    0    0 -0.23003310871E+01  0.15886301954E+03  0.65863571930E+03  0.67752768301E+03  0.51100000000E-03 0. -1.
         22    1    1    2    0    0  0.18227702584E+02  0.36197382121E+01  0.49206600268E+01  0.19224061519E+02  0.00000000000E+00 0.  1.
         -2    1    1    2    0  501 -0.15927371497E+02 -0.16248275775E+03  0.29897729299E+03  0.34064901212E+03  0.25500000000E-02 0.  1.
<mgrwt>
<rscale>  0 0.54533493E+02</rscale>
<asrwt>0</asrwt>
<pdfrwt beam="1">  1       11 0.10000000E+01 0.16002796E+03</pdfrwt>
<pdfrwt beam="2">  1       -2 0.57588175E-02 0.54533493E+02</pdfrwt>
<totfact> 0.10970178E+03</totfact>
</mgrwt>
</event>
<event>
 5    1  0.9955701E-004  0.7724554E+02  0.7818608E-02  0.1400418E+00
         11   -1    0    0    0    0  0.00000000000E+00  0.00000000000E+00  0.10001197154E+04  0.10001197154E+04  0.51100000000E-03 0.  1.
          2   -1    0    0  501    0 -0.00000000000E+00 -0.00000000000E+00 -0.12979990595E+02  0.12979990845E+02  0.25500000000E-02 0.  1.
         11    1    1    2    0    0 -0.65573050060E+02  0.43029502008E+02  0.29643909426E+03  0.30663903787E+03  0.51100000000E-03 0.  1.
         22    1    1    2    0    0  0.22607416593E+02 -0.84028289730E+02  0.35221995262E+03  0.36280951446E+03  0.00000000000E+00 0.  1.
          2    1    1    2  501    0  0.42965633468E+02  0.40998787722E+02  0.33848067789E+03  0.34365115388E+03  0.25500000000E-02 0.  1.
<mgrwt>
<rscale>  0 0.59388099E+02</rscale>
<asrwt>0</asrwt>
<pdfrwt beam="1">  1       11 0.10000000E+01 0.77245545E+02</pdfrwt>
<pdfrwt beam="2">  1        2 0.19971607E-02 0.59388099E+02</pdfrwt>
<totfact> 0.56229493E+03</totfact>
</mgrwt>
</event>
<event>
 5    1  0.9955701E-004  0.5405607E+03  0.7818608E-02  0.1314715E+00
         11   -1    0    0    0    0  0.00000000000E+00  0.00000000000E+00  0.10001273833E+04  0.10001273833E+04  0.51100000000E-03 0. -1.
          2   -1    0    0  501    0 -0.00000000000E+00 -0.00000000000E+00 -0.69034357725E+03  0.69034357725E+03  0.25500000000E-02 0. -1.
         11    1    1    2    0    0 -0.49794628016E+03  0.20869537400E+03  0.78764901258E+03  0.95493205207E+03  0.51100000000E-03 0. -1.
         22    1    1    2    0    0 -0.58118982723E-01  0.13452270465E+02 -0.75167564656E+01  0.15410015777E+02  0.00000000000E+00 0.  1.
          2    1    1    2  501    0  0.49800439914E+03 -0.22214764447E+03 -0.47034845011E+03  0.72012889266E+03  0.25500000000E-02 0. -1.
<mgrwt>
<rscale>  0 0.85275068E+02</rscale>
<asrwt>0</asrwt>
<pdfrwt beam="1">  1       11 0.10000000E+01 0.54056074E+03</pdfrwt>
<pdfrwt beam="2">  1        2 0.10622023E+00 0.85275068E+02</pdfrwt>
<totfact> 0.55082825E+01</totfact>
</mgrwt>
</event>
<event>
 5    1  0.9955701E-004  0.1881316E+03  0.7818608E-02  0.1299483E+00
         11   -1    0    0    0    0  0.00000000000E+00  0.00000000000E+00  0.10001610727E+04  0.10001610727E+04  0.51100000000E-03 0. -1.
          2   -1    0    0  501    0 -0.00000000000E+00 -0.00000000000E+00 -0.52334009588E+02  0.52334009650E+02  0.25500000000E-02 0. -1.
         11    1    1    2    0    0  0.19748401936E+03 -0.35364892025E+02  0.50086718766E+03  0.53955403174E+03  0.51100000000E-03 0. -1.
         22    1    1    2    0    0 -0.19031081940E+02  0.40125848174E+02  0.17280933839E+02  0.47653923719E+02  0.00000000000E+00 0. -1.
          2    1    1    2  501    0 -0.17845293742E+03 -0.47609561490E+01  0.42967894159E+03  0.46528712687E+03  0.25500000000E-02 0. -1.
<mgrwt>
<rscale>  0 0.91405460E+02</rscale>
<asrwt>0</asrwt>
<pdfrwt beam="1">  1       11 0.10000000E+01 0.18813161E+03</pdfrwt>
<pdfrwt beam="2">  1        2 0.80526827E-02 0.91405460E+02</pdfrwt>
<totfact> 0.96886180E+02</totfact>
</mgrwt>
</event>
<event>
 5    1  0.9955701E-004  0.4753282E+02  0.7818608E-02  0.1543976E+00
         11   -1    0    0    0    0  0.00000000000E+00  0.00000000000E+00  0.99992745627E+03  0.99992745627E+03  0.51100000000E-03 0. -1.
         -2   -1    0    0    0  501 -0.00000000000E+00 -0.00000000000E+00 -0.61380593558E+01  0.61380598855E+01  0.25500000000E-02 0.  1.
         11    1    1    2    0    0 -0.19484150803E+02  0.26448819945E+02  0.18249266065E+03  0.18542584340E+03  0.51100000000E-03 0. -1.
         22    1    1    2    0    0 -0.20272511295E+02  0.17148161911E+02  0.46319242960E+02  0.53390134290E+02  0.00000000000E+00 0. -1.
         -2    1    1    2    0  501  0.39756662098E+02 -0.43596981856E+02  0.76497749330E+03  0.76724953847E+03  0.25500000000E-02 0.  1.
<mgrwt>
<rscale>  0 0.35526239E+02</rscale>
<asrwt>0</asrwt>
<pdfrwt beam="1">  1       11 0.10000000E+01 0.47532823E+02</pdfrwt>
<pdfrwt beam="2">  1       -2 0.94424833E-03 0.35526239E+02</pdfrwt>
<totfact> 0.13260258E+04</totfact>
</mgrwt>
</event>
<event>
 5    1  0.9955701E-004  0.2429146E+03  0.7818608E-02  0.1117866E+00
         11   -1    0    0    0    0  0.00000000000E+00  0.00000000000E+00  0.10005351764E+04  0.10005351764E+04  0.51100000000E-03 0. -1.
         -2   -1    0    0    0  501 -0.00000000000E+00 -0.00000000000E+00 -0.16449384614E+03  0.16449384616E+03  0.25500000000E-02 0.  1.
         11    1    1    2    0    0  0.15743339787E+03  0.15743275116E+03  0.88896000938E+03  0.91641706891E+03  0.51100000000E-03 0. -1.
         22    1    1    2    0    0 -0.62227345201E+02 -0.80100339632E+01 -0.31321563418E+02  0.70124485523E+02  0.00000000000E+00 0.  1.
         -2    1    1    2    0  501 -0.95206052668E+02 -0.14942271720E+03 -0.21597115679E+02  0.17848746816E+03  0.25500000000E-02 0.  1.
<mgrwt>
<rscale>  0 0.24291463E+03</rscale>
<asrwt>0</asrwt>
<pdfrwt beam="1">  1       11 0.10000000E+01 0.22264399E+03</pdfrwt>
<pdfrwt beam="2">  1       -2 0.25320288E-01 0.24291463E+03</pdfrwt>
<totfact> 0.11161904E+02</totfact>
</mgrwt>
</event>
<event>
 5    1  0.9955701E-004  0.6362726E+02  0.7818608E-02  0.1596190E+00
         11   -1    0    0    0    0  0.00000000000E+00  0.00000000000E+00  0.10002343028E+04  0.10002343028E+04  0.51100000000E-03 0. -1.
          2   -1    0    0  501    0 -0.00000000000E+00 -0.00000000000E+00 -0.77977158323E+01  0.77977162493E+01  0.25500000000E-02 0. -1.
         11    1    1    2    0    0  0.35072704173E+02  0.53282370486E+02  0.26773274786E+03  0.27522705146E+03  0.51100000000E-03 0. -1.
         22    1    1    2    0    0 -0.12655597482E+02  0.66750002187E+01  0.17033160995E+02  0.22245187098E+02  0.00000000000E+00 0. -1.
          2    1    1    2  501    0 -0.22417106691E+02 -0.59957370705E+02  0.70767067817E+03  0.71055978054E+03  0.25500000000E-02 0. -1.
<mgrwt>
<rscale>  0 0.30172511E+02</rscale>
<asrwt>0</asrwt>
<pdfrwt beam="1">  1       11 0.10000000E+01 0.63627260E+02</pdfrwt>
<pdfrwt beam="2">  1        2 0.11999297E-02 0.30172511E+02</pdfrwt>
<totfact> 0.98270095E+03</totfact>
</mgrwt>
</event>
<event>
 5    1  0.9955701E-004  0.1250857E+03  0.7818608E-02  0.1446175E+00
         11   -1    0    0    0    0  0.00000000000E+00  0.00000000000E+00  0.10002469799E+04  0.10002469799E+04  0.51100000000E-03 0.  1.
          2   -1    0    0  501    0 -0.00000000000E+00 -0.00000000000E+00 -0.64962912527E+02  0.64962912577E+02  0.25500000000E-02 0.  1.
         11    1    1    2    0    0  0.10373208372E+03  0.84924062539E+02  0.81085687998E+02  0.15667587686E+03  0.51100000000E-03 0.  1.
         22    1    1    2    0    0 -0.18989324257E+02  0.58268308432E+01 -0.18441899702E+02  0.27104428753E+02  0.00000000000E+00 0.  1.
          2    1    1    2  501    0 -0.84742759460E+02 -0.90750893382E+02  0.87264027903E+03  0.88142958683E+03  0.25500000000E-02 0.  1.
<mgrwt>
<rscale>  0 0.49845767E+02</rscale>
<asrwt>0</asrwt>
<pdfrwt beam="1">  1       11 0.10000000E+01 0.12508572E+03</pdfrwt>
<pdfrwt beam="2">  1        2 0.99967623E-02 0.49845767E+02</pdfrwt>
<totfact> 0.71275883E+02</totfact>
</mgrwt>
</event>
<event>
 5    1  0.9955701E-004  0.3645411E+02  0.7818608E-02  0.1656882E+00
         11   -1    0    0    0    0  0.00000000000E+00  0.00000000000E+00  0.99988196158E+03  0.99988196158E+03  0.51100000000E-03 0. -1.
          2   -1    0    0  501    0 -0.00000000000E+00 -0.00000000000E+00 -0.55247585887E+01  0.55247591772E+01  0.25500000000E-02 0. -1.
         11    1    1    2    0    0 -0.34058786236E+02  0.37173033081E+02  0.20753454624E+03  0.21357065152E+03  0.51100000000E-03 0. -1.
         22    1    1    2    0    0  0.13477662858E+02 -0.22477332832E+02  0.72940077304E+02  0.77505695045E+02  0.00000000000E+00 0. -1.
          2    1    1    2  501    0  0.20581123379E+02 -0.14695700249E+02  0.71388257944E+03  0.71433037419E+03  0.25500000000E-02 0. -1.
<mgrwt>
<rscale>  0 0.25289252E+02</rscale>
<asrwt>0</asrwt>
<pdfrwt beam="1">  1       11 0.10000000E+01 0.36454111E+02</pdfrwt>
<pdfrwt beam="2">  1        2 0.84986255E-03 0.25289252E+02</pdfrwt>
<totfact> 0.14880194E+04</totfact>
</mgrwt>
</event>
<event>
 5    1  0.9955701E-004  0.1858652E+03  0.7818608E-02  0.1162244E+00
         11   -1    0    0    0    0  0.00000000000E+00  0.00000000000E+00  0.10008819705E+04  0.10008819705E+04  0.51100000000E-03 0. -1.
          2   -1    0    0  501    0 -0.00000000000E+00 -0.00000000000E+00 -0.34198105928E+03  0.34198105929E+03  0.25500000000E-02 0. -1.
         11    1    1    2    0    0 -0.66700219511E+02  0.16244203904E+03  0.96712353418E+03  0.98293655223E+03  0.51100000000E-03 0. -1.
         22    1    1    2    0    0 -0.19369832153E+01 -0.38833661678E+02 -0.35115767615E+02  0.52392006246E+02  0.00000000000E+00 0.  1.
          2    1    1    2  501    0  0.68637202726E+02 -0.12360837736E+03 -0.27310685539E+03  0.30753447127E+03  0.25500000000E-02 0. -1.
<mgrwt>
<rscale>  0 0.18586523E+03</rscale>
<asrwt>0</asrwt>
<pdfrwt beam="1">  1       11 0.10000000E+01 0.17560278E+03</pdfrwt>
<pdfrwt beam="2">  1        2 0.52658872E-01 0.18586523E+03</pdfrwt>
<totfact> 0.11773895E+02</totfact>
</mgrwt>
</event>
<event>
 5    1  0.9955701E-004  0.9412902E+02  0.7818608E-02  0.1471842E+00
         11   -1    0    0    0    0  0.00000000000E+00  0.00000000000E+00  0.10003520692E+04  0.10003520692E+04  0.51100000000E-03 0. -1.
          2   -1    0    0  501    0 -0.00000000000E+00 -0.00000000000E+00 -0.16190095093E+02  0.16190095293E+02  0.25500000000E-02 0. -1.
         11    1    1    2    0    0  0.69019601117E+02  0.75077907368E+02  0.49199172959E+03  0.50245025575E+03  0.51100000000E-03 0. -1.
         22    1    1    2    0    0 -0.21899595563E+02  0.12588452727E+00  0.10450573636E+02  0.24265667558E+02  0.00000000000E+00 0. -1.
          2    1    1    2  501    0 -0.47120005554E+02 -0.75203791895E+02  0.48171967092E+03  0.48982624123E+03  0.25500000000E-02 0. -1.
<mgrwt>
<rscale>  0 0.45402869E+02</rscale>
<asrwt>0</asrwt>
<pdfrwt beam="1">  1       11 0.10000000E+01 0.94129020E+02</pdfrwt>
<pdfrwt beam="2">  1        2 0.24916607E-02 0.45402869E+02</pdfrwt>
<totfact> 0.40413788E+03</totfact>
</mgrwt>
</event>
<event>
 5    1  0.9955701E-004  0.3072510E+03  0.7818608E-02  0.1300893E+00
         11   -1    0    0    0    0  0.00000000000E+00  0.00000000000E+00  0.10001815916E+04  0.10001815916E+04  0.51100000000E-03 0. -1.
         -2   -1    0    0    0  501 -0.00000000000E+00 -0.00000000000E+00 -0.15483909386E+03  0.15483909388E+03  0.25500000000E-02 0.  1.
         11    1    1    2    0    0 -0.32681428399E+02  0.29582950179E+03  0.52238370100E+03  0.60122200638E+03  0.51100000000E-03 0. -1.
         22    1    1    2    0    0 -0.14466028729E+02  0.22609909381E+02 -0.52662799588E+02  0.59108751043E+02  0.00000000000E+00 0.  1.
         -2    1    1    2    0  501  0.47147457128E+02 -0.31843941117E+03  0.37562159636E+03  0.49468992809E+03  0.25500000000E-02 0.  1.
<mgrwt>
<rscale>  0 0.90813673E+02</rscale>
<asrwt>0</asrwt>
<pdfrwt beam="1">  1       11 0.10000000E+01 0.30725102E+03</pdfrwt>
<pdfrwt beam="2">  1       -2 0.23825724E-01 0.90813673E+02</pdfrwt>
<totfact> 0.12108840E+02</totfact>
</mgrwt>
</event>
<event>
 5    1  0.9955701E-004  0.1059207E+03  0.7818608E-02  0.1540101E+00
         11   -1    0    0    0    0  0.00000000000E+00  0.00000000000E+00  0.10003383048E+04  0.10003383048E+04  0.51100000000E-03 0. -1.
          2   -1    0    0  501    0 -0.00000000000E+00 -0.00000000000E+00 -0.39977857545E+02  0.39977857626E+02  0.25500000000E-02 0. -1.
         11    1    1    2    0    0 -0.26756140683E+02  0.93628417226E+02  0.94586267812E+02  0.13575247193E+03  0.51100000000E-03 0. -1.
         22    1    1    2    0    0  0.45252251187E+01  0.11350441278E+02 -0.13820510854E+02  0.18447674646E+02  0.00000000000E+00 0. -1.
          2    1    1    2  501    0  0.22230915565E+02 -0.10497885850E+03  0.87959469030E+03  0.88611601585E+03  0.25500000000E-02 0. -1.
<mgrwt>
<rscale>  0 0.35975986E+02</rscale>
<asrwt>0</asrwt>
<pdfrwt beam="1">  1       11 0.10000000E+01 0.10592072E+03</pdfrwt>
<pdfrwt beam="2">  1        2 0.61525202E-02 0.35975986E+02</pdfrwt>
<totfact> 0.12443709E+03</totfact>
</mgrwt>
</event>
<event>
 5    1  0.9955701E-004  0.2206019E+03  0.7818608E-02  0.1409296E+00
         11   -1    0    0    0    0  0.00000000000E+00  0.00000000000E+00  0.10003609779E+04  0.10003609779E+04  0.51100000000E-03 0. -1.
          2   -1    0    0  501    0 -0.00000000000E+00 -0.00000000000E+00 -0.16634787058E+03  0.16634787060E+03  0.25500000000E-02 0. -1.
         11    1    1    2    0    0 -0.18372702600E+03 -0.12479531547E+03  0.89097831932E+03  0.91824389807E+03  0.51100000000E-03 0. -1.
         22    1    1    2    0    0  0.14358576982E+02  0.40171191964E+01 -0.36513397253E+02  0.39440260630E+02  0.00000000000E+00 0. -1.
          2    1    1    2  501    0  0.16936844902E+03  0.12077819627E+03 -0.20451814736E+02  0.20902468981E+03  0.25500000000E-02 0. -1.
<mgrwt>
<rscale>  0 0.57351189E+02</rscale>
<asrwt>0</asrwt>
<pdfrwt beam="1">  1       11 0.10000000E+01 0.22060192E+03</pdfrwt>
<pdfrwt beam="2">  1        2 0.25601217E-01 0.57351189E+02</pdfrwt>
<totfact> 0.24881888E+02</totfact>
</mgrwt>
</event>
<event>
 5    1  0.9955701E-004  0.2932621E+03  0.7818608E-02  0.1088658E+00
         11   -1    0    0    0    0  0.00000000000E+00  0.00000000000E+00  0.10004332997E+04  0.10004332997E+04  0.51100000000E-03 0. -1.
          2   -1    0    0  501    0 -0.00000000000E+00 -0.00000000000E+00 -0.92701884045E+02  0.92701884080E+02  0.25500000000E-02 0. -1.
         11    1    1    2    0    0 -0.21763723508E+03  0.18852937039E+03  0.61351754428E+03  0.67772639519E+03  0.51100000000E-03 0. -1.
         22    1    1    2    0    0  0.67539474962E+01 -0.10752527435E+02  0.82270386938E+00  0.12724366180E+02  0.00000000000E+00 0. -1.
          2    1    1    2  501    0  0.21088328759E+03 -0.17777684296E+03  0.29339116751E+03  0.40268442241E+03  0.25500000000E-02 0. -1.
<mgrwt>
<rscale>  0 0.29326210E+03</rscale>
<asrwt>0</asrwt>
<pdfrwt beam="1">  1       11 0.10000000E+01 0.28793973E+03</pdfrwt>
<pdfrwt beam="2">  1        2 0.14268008E-01 0.29326210E+03</pdfrwt>
<totfact> 0.51149748E+02</totfact>
</mgrwt>
</event>
<event>
 5    1  0.9955701E-004  0.1620003E+03  0.7818608E-02  0.1474463E+00
         11   -1    0    0    0    0  0.00000000000E+00  0.00000000000E+00  0.10004886223E+04  0.10004886223E+04  0.51100000000E-03 0.  1.
          2   -1    0    0  501    0 -0.00000000000E+00 -0.00000000000E+00 -0.72023685733E+02  0.72023685778E+02  0.25500000000E-02 0.  1.
         11    1    1    2    0    0  0.23609151539E+02 -0.16260660315E+03  0.52918454221E+03  0.55410701055E+03  0.51100000000E-03 0.  1.
         22    1    1    2    0    0 -0.12020496532E+02  0.33893705113E+01 -0.44797203441E+02  0.46505586820E+02  0.00000000000E+00 0.  1.
          2    1    1    2  501    0 -0.11588655007E+02  0.15921723264E+03  0.44407759780E+03  0.47189971071E+03  0.25500000000E-02 0.  1.
<mgrwt>
<rscale>  0 0.44980601E+02</rscale>
<asrwt>0</asrwt>
<pdfrwt beam="1">  1       11 0.10000000E+01 0.16200030E+03</pdfrwt>
<pdfrwt beam="2">  1        2 0.11085981E-01 0.44980601E+02</pdfrwt>
<totfact> 0.62619846E+02</totfact>
</mgrwt>
</event>
<event>
 5    1  0.9955701E-004  0.9644985E+02  0.7818608E-02  0.1452299E+00
         11   -1    0    0    0    0  0.00000000000E+00  0.00000000000E+00  0.10000559860E+04  0.10000559860E+04  0.51100000000E-03 0.  1.
          2   -1    0    0  501    0 -0.00000000000E+00 -0.00000000000E+00 -0.24353424536E+02  0.24353424670E+02  0.25500000000E-02 0.  1.
         11    1    1    2    0    0  0.10170926426E+03 -0.45429346580E+02  0.20186372266E+03  0.23055923858E+03  0.51100000000E-03 0.  1.
         22    1    1    2    0    0 -0.10968550581E+02  0.22044953348E+02  0.14140179103E+02  0.28394255317E+02  0.00000000000E+00 0.  1.
          2    1    1    2  501    0 -0.90740713683E+02  0.23384393231E+02  0.75969865966E+03  0.76545591673E+03  0.25500000000E-02 0.  1.
<mgrwt>
<rscale>  0 0.48732715E+02</rscale>
<asrwt>0</asrwt>
<pdfrwt beam="1">  1       11 0.10000000E+01 0.96449852E+02</pdfrwt>
<pdfrwt beam="2">  1        2 0.37468904E-02 0.48732715E+02</pdfrwt>
<totfact> 0.24035575E+03</totfact>
</mgrwt>
</event>
<event>
 5    1  0.9955701E-004  0.1117671E+03  0.7818608E-02  0.1444022E+00
         11   -1    0    0    0    0  0.00000000000E+00  0.00000000000E+00  0.10004799796E+04  0.10004799796E+04  0.51100000000E-03 0. -1.
          2   -1    0    0  501    0 -0.00000000000E+00 -0.00000000000E+00 -0.17263298808E+02  0.17263298996E+02  0.25500000000E-02 0. -1.
         11    1    1    2    0    0 -0.81172648776E+02 -0.93506076805E+02  0.43014141666E+03  0.44760923096E+03  0.51100000000E-03 0. -1.
         22    1    1    2    0    0  0.21293488370E+02  0.75374450676E+01  0.35611709027E+02  0.42171311871E+02  0.00000000000E+00 0. -1.
          2    1    1    2  501    0  0.59879160406E+02  0.85968631738E+02  0.51746355507E+03  0.52796273574E+03  0.25500000000E-02 0. -1.
<mgrwt>
<rscale>  0 0.50245545E+02</rscale>
<asrwt>0</asrwt>
<pdfrwt beam="1">  1       11 0.10000000E+01 0.11176715E+03</pdfrwt>
<pdfrwt beam="2">  1        2 0.26571668E-02 0.50245545E+02</pdfrwt>
<totfact> 0.37686583E+03</totfact>
</mgrwt>
</event>
<event>
 5    1  0.9955701E-004  0.5568648E+03  0.7818608E-02  0.1314759E+00
         11   -1    0    0    0    0  0.00000000000E+00  0.00000000000E+00  0.99977793258E+03  0.99977793258E+03  0.51100000000E-03 0.  1.
          2   -1    0    0  501    0 -0.00000000000E+00 -0.00000000000E+00 -0.27086494649E+04  0.27086494649E+04  0.25500000000E-02 0.  1.
         11    1    1    2    0    0 -0.85775959849E+02 -0.55034217511E+03  0.88924976250E+03  0.10492850733E+04  0.51100000000E-03 0.  1.
         22    1    1    2    0    0 -0.11653745401E+02  0.58804355067E+01 -0.72372205221E+02  0.73539957793E+02  0.00000000000E+00 0.  1.
          2    1    1    2  501    0  0.97429705250E+02  0.54446173960E+03 -0.25257490896E+04  0.25856023664E+04  0.25500000000E-02 0.  1.
<mgrwt>
<rscale>  0 0.85258062E+02</rscale>
<asrwt>0</asrwt>
<pdfrwt beam="1">  1       11 0.10000000E+01 0.55686477E+03</pdfrwt>
<pdfrwt beam="2">  1        2 0.41662275E+00 0.85258062E+02</pdfrwt>
<totfact> 0.45255845E+00</totfact>
</mgrwt>
</event>
<event>
 5    1  0.9955701E-004  0.3486113E+03  0.7818608E-02  0.1063186E+00
         11   -1    0    0    0    0  0.00000000000E+00  0.00000000000E+00  0.10000135592E+04  0.10000135592E+04  0.51100000000E-03 0. -1.
          2   -1    0    0  501    0 -0.00000000000E+00 -0.00000000000E+00 -0.12093187226E+03  0.12093187229E+03  0.25500000000E-02 0. -1.
         11    1    1    2    0    0 -0.12719839174E+03  0.31608863504E+03  0.36007468248E+03  0.49572697427E+03  0.51100000000E-03 0. -1.
         22    1    1    2    0    0 -0.94434176312E+01 -0.26985823797E+02  0.36361491001E+02  0.46255495353E+02  0.00000000000E+00 0. -1.
          2    1    1    2  501    0  0.13664180937E+03 -0.28910281124E+03  0.48264551345E+03  0.57896296185E+03  0.25500000000E-02 0. -1.
<mgrwt>
<rscale>  0 0.34861131E+03</rscale>
<asrwt>0</asrwt>
<pdfrwt beam="1">  1       11 0.10000000E+01 0.34072213E+03</pdfrwt>
<pdfrwt beam="2">  1        2 0.18605155E-01 0.34861131E+03</pdfrwt>
<totfact> 0.37536969E+02</totfact>
</mgrwt>
</event>
<event>
 5    1  0.9955701E-004  0.7901684E+02  0.7818608E-02  0.1535054E+00
         11   -1    0    0    0    0  0.00000000000E+00  0.00000000000E+00  0.99996927758E+03  0.99996927758E+03  0.51100000000E-03 0. -1.
          2   -1    0    0  501    0 -0.00000000000E+00 -0.00000000000E+00 -0.95536035837E+01  0.95536039240E+01  0.25500000000E-02 0. -1.
         11    1    1    2    0    0 -0.83171840740E+02  0.36515761762E+02  0.35598509217E+03  0.36739126527E+03  0.51100000000E-03 0. -1.
         22    1    1    2    0    0  0.16433079940E+02 -0.40653317740E+01  0.45557911794E+02  0.48601402920E+02  0.00000000000E+00 0.  1.
          2    1    1    2  501    0  0.66738760800E+02 -0.32450429988E+02  0.58887267003E+03  0.59353021331E+03  0.25500000000E-02 0. -1.
<mgrwt>
<rscale>  0 0.36573671E+02</rscale>
<asrwt>0</asrwt>
<pdfrwt beam="1">  1       11 0.10000000E+01 0.79016841E+02</pdfrwt>
<pdfrwt beam="2">  1        2 0.14697400E-02 0.36573671E+02</pdfrwt>
<totfact> 0.78051527E+03</totfact>
</mgrwt>
</event>
<event>
 5    1  0.9955701E-004  0.1431960E+03  0.7818608E-02  0.1346789E+00
         11   -1    0    0    0    0  0.00000000000E+00  0.00000000000E+00  0.10002674982E+04  0.10002674982E+04  0.51100000000E-03 0. -1.
          2   -1    0    0  501    0 -0.00000000000E+00 -0.00000000000E+00 -0.60174692236E+02  0.60174692290E+02  0.25500000000E-02 0. -1.
         11    1    1    2    0    0 -0.16283528894E+03  0.37629864335E+02  0.12424104826E+03  0.20824787175E+03  0.51100000000E-03 0. -1.
         22    1    1    2    0    0  0.22963977782E+02 -0.30663323698E+02  0.18327267915E+02  0.42467310310E+02  0.00000000000E+00 0.  1.
          2    1    1    2  501    0  0.13987131115E+03 -0.69665406374E+01  0.79752448976E+03  0.80972700841E+03  0.25500000000E-02 0. -1.
<mgrwt>
<rscale>  0 0.74065529E+02</rscale>
<asrwt>0</asrwt>
<pdfrwt beam="1">  1       11 0.10000000E+01 0.14319605E+03</pdfrwt>
<pdfrwt beam="2">  1        2 0.92601211E-02 0.74065529E+02</pdfrwt>
<totfact> 0.80417917E+02</totfact>
</mgrwt>
</event>
<event>
 5    1  0.9955701E-004  0.1501105E+03  0.7818608E-02  0.1497560E+00
         11   -1    0    0    0    0  0.00000000000E+00  0.00000000000E+00  0.10000578057E+04  0.10000578057E+04  0.51100000000E-03 0. -1.
          2   -1    0    0  501    0 -0.00000000000E+00 -0.00000000000E+00 -0.37318321642E+02  0.37318321729E+02  0.25500000000E-02 0. -1.
         11    1    1    2    0    0 -0.76293015388E+02  0.13092046898E+03  0.78605820745E+03  0.80053001124E+03  0.51100000000E-03 0. -1.
         22    1    1    2    0    0  0.11409686241E+02 -0.11230994094E+01  0.64336688762E+01  0.13146649292E+02  0.00000000000E+00 0.  1.
          2    1    1    2  501    0  0.64883329147E+02 -0.12979736957E+03  0.17024760777E+03  0.22369946693E+03  0.25500000000E-02 0. -1.
<mgrwt>
<rscale>  0 0.41484837E+02</rscale>
<asrwt>0</asrwt>
<pdfrwt beam="1">  1       11 0.10000000E+01 0.15011055E+03</pdfrwt>
<pdfrwt beam="2">  1        2 0.57416120E-02 0.41484837E+02</pdfrwt>
<totfact> 0.13758565E+03</totfact>
</mgrwt>
</event>
<event>
 5    1  0.9955701E-004  0.9184424E+02  0.7818608E-02  0.1548183E+00
         11   -1    0    0    0    0  0.00000000000E+00  0.00000000000E+00  0.10000706323E+04  0.10000706323E+04  0.51100000000E-03 0. -1.
          2   -1    0    0  501    0 -0.00000000000E+00 -0.00000000000E+00 -0.10505171481E+02  0.10505171791E+02  0.25500000000E-02 0. -1.
         11    1    1    2    0    0 -0.35113008181E+02 -0.91291621597E+02  0.44187516851E+03  0.45257126297E+03  0.51100000000E-03 0. -1.
         22    1    1    2    0    0 -0.42241353526E+01  0.12689092730E+02  0.29201969887E+02  0.32118708553E+02  0.00000000000E+00 0.  1.
          2    1    1    2  501    0  0.39337143534E+02  0.78602528867E+02  0.51848832245E+03  0.52588583260E+03  0.25500000000E-02 0. -1.
<mgrwt>
<rscale>  0 0.35047091E+02</rscale>
<asrwt>0</asrwt>
<pdfrwt beam="1">  1       11 0.10000000E+01 0.91844240E+02</pdfrwt>
<pdfrwt beam="2">  1        2 0.16162944E-02 0.35047091E+02</pdfrwt>
<totfact> 0.68363879E+03</totfact>
</mgrwt>
</event>
<event>
 5    1  0.9955701E-004  0.2477582E+03  0.7818608E-02  0.1303302E+00
         11   -1    0    0    0    0  0.00000000000E+00  0.00000000000E+00  0.99995494859E+03  0.99995494859E+03  0.51100000000E-03 0. -1.
          2   -1    0    0  501    0 -0.00000000000E+00 -0.00000000000E+00 -0.78631286724E+02  0.78631286766E+02  0.25500000000E-02 0. -1.
         11    1    1    2    0    0  0.22067222454E+02 -0.24910219567E+03  0.58496192365E+03  0.63617554049E+03  0.51100000000E-03 0. -1.
         22    1    1    2    0    0  0.31111209058E+02  0.95992036951E+01  0.98816068110E+01  0.34024964273E+02  0.00000000000E+00 0. -1.
          2    1    1    2  501    0 -0.53178431512E+02  0.23950299198E+03  0.32648013140E+03  0.40838573059E+03  0.25500000000E-02 0. -1.
<mgrwt>
<rscale>  0 0.89814373E+02</rscale>
<asrwt>0</asrwt>
<pdfrwt beam="1">  1       11 0.10000000E+01 0.24775823E+03</pdfrwt>
<pdfrwt beam="2">  1        2 0.12096576E-01 0.89814373E+02</pdfrwt>
<totfact> 0.59070064E+02</totfact>
</mgrwt>
</event>
<event>
 5    1  0.9955701E-004  0.2309611E+03  0.7818608E-02  0.1125965E+00
         11   -1    0    0    0    0  0.00000000000E+00  0.00000000000E+00  0.10001048792E+04  0.10001048792E+04  0.51100000000E-03 0.  1.
          2   -1    0    0  501    0 -0.00000000000E+00 -0.00000000000E+00 -0.51105136163E+03  0.51105136164E+03  0.25500000000E-02 0.  1.
         11    1    1    2    0    0  0.26532026039E+02  0.22280095813E+03  0.96040183609E+03  0.98626360681E+03  0.51100000000E-03 0.  1.
         22    1    1    2    0    0 -0.52176576607E+01 -0.46714335053E+02 -0.15779904031E+03  0.16465111652E+03  0.00000000000E+00 0.  1.
          2    1    1    2  501    0 -0.21314368379E+02 -0.17608662307E+03 -0.31354927816E+03  0.36024151755E+03  0.25500000000E-02 0.  1.
<mgrwt>
<rscale>  0 0.23096112E+03</rscale>
<asrwt>0</asrwt>
<pdfrwt beam="1">  1       11 0.10000000E+01 0.22437517E+03</pdfrwt>
<pdfrwt beam="2">  1        2 0.78631530E-01 0.23096112E+03</pdfrwt>
<totfact> 0.75842412E+01</totfact>
</mgrwt>
</event>
<event>
 5    1  0.9955701E-004  0.7127492E+02  0.7818608E-02  0.1618397E+00
         11   -1    0    0    0    0  0.00000000000E+00  0.00000000000E+00  0.10002479510E+04  0.10002479510E+04  0.51100000000E-03 0.  1.
          2   -1    0    0  501    0 -0.00000000000E+00 -0.00000000000E+00 -0.11818246983E+02  0.11818247258E+02  0.25500000000E-02 0.  1.
         11    1    1    2    0    0  0.19994758743E+02  0.67271198456E+02  0.13517536698E+03  0.15230753217E+03  0.51100000000E-03 0.  1.
         22    1    1    2    0    0 -0.10557880418E+02  0.37052852620E+01  0.16438737392E+02  0.19885423426E+02  0.00000000000E+00 0.  1.
          2    1    1    2  501    0 -0.94368783248E+01 -0.70976483718E+02  0.83681559966E+03  0.83987324267E+03  0.25500000000E-02 0.  1.
<mgrwt>
<rscale>  0 0.28240188E+02</rscale>
<asrwt>0</asrwt>
<pdfrwt beam="1">  1       11 0.10000000E+01 0.71274919E+02</pdfrwt>
<pdfrwt beam="2">  1        2 0.18186426E-02 0.28240188E+02</pdfrwt>
<totfact> 0.56399520E+03</totfact>
</mgrwt>
</event>
<event>
 5    1  0.9955701E-004  0.3213413E+02  0.7818608E-02  0.1693403E+00
         11   -1    0    0    0    0  0.00000000000E+00  0.00000000000E+00  0.10000337443E+04  0.10000337443E+04  0.51100000000E-03 0. -1.
          2   -1    0    0  501    0 -0.00000000000E+00 -0.00000000000E+00 -0.33659080823E+01  0.33659090482E+01  0.25500000000E-02 0. -1.
         11    1    1    2    0    0  0.21340396235E+02 -0.34793405524E+02  0.22539158405E+03  0.22905754679E+03  0.51100000000E-03 0. -1.
         22    1    1    2    0    0  0.57004422898E+00  0.28190840124E+02  0.14895506383E+03  0.15160032803E+03  0.00000000000E+00 0. -1.
          2    1    1    2  501    0 -0.21910440464E+02  0.66025653999E+01  0.62232118837E+03  0.62274177856E+03  0.25500000000E-02 0. -1.
<mgrwt>
<rscale>  0 0.22883647E+02</rscale>
<asrwt>0</asrwt>
<pdfrwt beam="1">  1       11 0.10000000E+01 0.32134125E+02</pdfrwt>
<pdfrwt beam="2">  1        2 0.51784955E-03 0.22883647E+02</pdfrwt>
<totfact> 0.27811384E+04</totfact>
</mgrwt>
</event>
<event>
 5    1  0.9955701E-004  0.2668510E+03  0.7818608E-02  0.1103095E+00
         11   -1    0    0    0    0  0.00000000000E+00  0.00000000000E+00  0.10003138252E+04  0.10003138252E+04  0.51100000000E-03 0.  1.
          2   -1    0    0  501    0 -0.00000000000E+00 -0.00000000000E+00 -0.76338713815E+03  0.76338713816E+03  0.25500000000E-02 0.  1.
         11    1    1    2    0    0  0.22491398231E+03 -0.11820148652E+03  0.95994925097E+03  0.99300576800E+03  0.51100000000E-03 0.  1.
         22    1    1    2    0    0 -0.25151991879E+02  0.35387542521E+02 -0.20136365335E+03  0.20599082929E+03  0.00000000000E+00 0. -1.
          2    1    1    2  501    0 -0.19976199043E+03  0.82813944001E+02 -0.52165891054E+03  0.56470436610E+03  0.25500000000E-02 0.  1.
<mgrwt>
<rscale>  0 0.26685100E+03</rscale>
<asrwt>0</asrwt>
<pdfrwt beam="1">  1       11 0.10000000E+01 0.25408245E+03</pdfrwt>
<pdfrwt beam="2">  1        2 0.11748103E+00 0.26685100E+03</pdfrwt>
<totfact> 0.47039104E+01</totfact>
</mgrwt>
</event>
<event>
 5    1  0.9955701E-004  0.1763506E+03  0.7818608E-02  0.1466558E+00
         11   -1    0    0    0    0  0.00000000000E+00  0.00000000000E+00  0.10001338006E+04  0.10001338006E+04  0.51100000000E-03 0. -1.
          2   -1    0    0  501    0 -0.00000000000E+00 -0.00000000000E+00 -0.66262343831E+02  0.66262343880E+02  0.25500000000E-02 0. -1.
         11    1    1    2    0    0  0.17138283678E+03 -0.45173035444E+02  0.81321002299E+03  0.83229995877E+03  0.51100000000E-03 0. -1.
         22    1    1    2    0    0 -0.75758640550E+01 -0.94870494995E+01 -0.11436302882E+02  0.16678934259E+02  0.00000000000E+00 0. -1.
          2    1    1    2  501    0 -0.16380697272E+03  0.54660084943E+02  0.13209773669E+03  0.21741725149E+03  0.25500000000E-02 0. -1.
<mgrwt>
<rscale>  0 0.46271252E+02</rscale>
<asrwt>0</asrwt>
<pdfrwt beam="1">  1       11 0.10000000E+01 0.17635061E+03</pdfrwt>
<pdfrwt beam="2">  1        2 0.10195570E-01 0.46271252E+02</pdfrwt>
<totfact> 0.69240173E+02</totfact>
</mgrwt>
</event>
<event>
 5    1  0.9955701E-004  0.2130990E+03  0.7818608E-02  0.1340042E+00
         11   -1    0    0    0    0  0.00000000000E+00  0.00000000000E+00  0.99994642872E+03  0.99994642872E+03  0.51100000000E-03 0. -1.
          2   -1    0    0  501    0 -0.00000000000E+00 -0.00000000000E+00 -0.68658553753E+03  0.68658553754E+03  0.25500000000E-02 0. -1.
         11    1    1    2    0    0 -0.80052278242E+02  0.19764240163E+03  0.96786527245E+03  0.99107722797E+03  0.51100000000E-03 0. -1.
         22    1    1    2    0    0 -0.21650465612E+02 -0.16603118473E+02 -0.85268344473E+02  0.89527072852E+02  0.00000000000E+00 0. -1.
          2    1    1    2  501    0  0.10170274385E+03 -0.18103928316E+03 -0.56923603679E+03  0.60592766544E+03  0.25500000000E-02 0. -1.
<mgrwt>
<rscale>  0 0.76250590E+02</rscale>
<asrwt>0</asrwt>
<pdfrwt beam="1">  1       11 0.10000000E+01 0.21309900E+03</pdfrwt>
<pdfrwt beam="2">  1        2 0.10562288E+00 0.76250590E+02</pdfrwt>
<totfact> 0.55624042E+01</totfact>
</mgrwt>
</event>
<event>
 5    1  0.9955701E-004  0.2364675E+03  0.7818608E-02  0.1230632E+00
         11   -1    0    0    0    0  0.00000000000E+00  0.00000000000E+00  0.10003200731E+04  0.10003200731E+04  0.51100000000E-03 0. -1.
          2   -1    0    0  501    0 -0.00000000000E+00 -0.00000000000E+00 -0.19401278054E+03  0.19401278056E+03  0.25500000000E-02 0. -1.
         11    1    1    2    0    0  0.33350772903E+02  0.24046674730E+03  0.49487105303E+03  0.55121129319E+03  0.51100000000E-03 0. -1.
         22    1    1    2    0    0  0.63855330382E+02 -0.26562165471E+02 -0.12761789901E+03  0.14515295381E+03  0.00000000000E+00 0. -1.
          2    1    1    2  501    0 -0.97206103285E+02 -0.21390458183E+03  0.43905413851E+03  0.49796860664E+03  0.25500000000E-02 0. -1.
<mgrwt>
<rscale>  0 0.12788276E+03</rscale>
<asrwt>0</asrwt>
<pdfrwt beam="1">  1       11 0.10000000E+01 0.23646750E+03</pdfrwt>
<pdfrwt beam="2">  1        2 0.29857673E-01 0.12788276E+03</pdfrwt>
<totfact> 0.21543608E+02</totfact>
</mgrwt>
</event>
<event>
 5    1  0.9955701E-004  0.4771694E+02  0.7818608E-02  0.1458060E+00
         11   -1    0    0    0    0  0.00000000000E+00  0.00000000000E+00  0.10003338323E+04  0.10003338323E+04  0.51100000000E-03 0.  1.
         -2   -1    0    0    0  501 -0.00000000000E+00 -0.00000000000E+00 -0.25713775830E+02  0.25713775956E+02  0.25500000000E-02 0.  1.
         11    1    1    2    0    0 -0.10309675571E+02  0.48450837900E+02  0.18737212780E+03  0.19380940993E+03  0.51100000000E-03 0.  1.
         22    1    1    2    0    0  0.47092233556E+02 -0.13519222458E+02  0.60173728113E+01  0.49362502092E+02  0.00000000000E+00 0.  1.
         -2    1    1    2    0  501 -0.36782557985E+02 -0.34931615442E+02  0.78123055591E+03  0.78287569627E+03  0.25500000000E-02 0.  1.
<mgrwt>
<rscale>  0 0.47716939E+02</rscale>
<asrwt>0</asrwt>
<pdfrwt beam="1">  1       11 0.10000000E+01 0.46472842E+02</pdfrwt>
<pdfrwt beam="2">  1       -2 0.39572860E-02 0.47716939E+02</pdfrwt>
<totfact> 0.18661862E+03</totfact>
</mgrwt>
</event>
<event>
 5    1  0.9955701E-004  0.2265538E+03  0.7818608E-02  0.1189153E+00
         11   -1    0    0    0    0  0.00000000000E+00  0.00000000000E+00  0.10002575609E+04  0.10002575609E+04  0.51100000000E-03 0.  1.
          2   -1    0    0  501    0 -0.00000000000E+00 -0.00000000000E+00 -0.50584091117E+03  0.50584091117E+03  0.25500000000E-02 0.  1.
         11    1    1    2    0    0  0.34463900265E+01 -0.23728465195E+03  0.85306016786E+03  0.88545329275E+03  0.51100000000E-03 0.  1.
         22    1    1    2    0    0 -0.92554919050E+02  0.63826008783E+02 -0.40490559197E+03  0.42022459572E+03  0.00000000000E+00 0.  1.
          2    1    1    2  501    0  0.89108529023E+02  0.17345864317E+03  0.46262073797E+02  0.20042058356E+03  0.25500000000E-02 0.  1.
<mgrwt>
<rscale>  0 0.15959672E+03</rscale>
<asrwt>0</asrwt>
<pdfrwt beam="1">  1       11 0.10000000E+01 0.22655385E+03</pdfrwt>
<pdfrwt beam="2">  1        2 0.77841720E-01 0.15959672E+03</pdfrwt>
<totfact> 0.77159797E+01</totfact>
</mgrwt>
</event>
<event>
 5    1  0.9955701E-004  0.2559514E+03  0.7818608E-02  0.1321650E+00
         11   -1    0    0    0    0  0.00000000000E+00  0.00000000000E+00  0.10000624703E+04  0.10000624703E+04  0.51100000000E-03 0. -1.
          2   -1    0    0  501    0 -0.00000000000E+00 -0.00000000000E+00 -0.28003636523E+03  0.28003636525E+03  0.25500000000E-02 0. -1.
         11    1    1    2    0    0 -0.12764737766E+03  0.22244668421E+03  0.89543064234E+03  0.93143567442E+03  0.51100000000E-03 0. -1.
         22    1    1    2    0    0 -0.19548463774E+02 -0.18185791320E+02 -0.71447707410E+02  0.76273457611E+02  0.00000000000E+00 0.  1.
          2    1    1    2  501    0  0.14719584144E+03 -0.20426089289E+03 -0.10395682986E+03  0.27238970352E+03  0.25500000000E-02 0. -1.
<mgrwt>
<rscale>  0 0.82666710E+02</rscale>
<asrwt>0</asrwt>
<pdfrwt beam="1">  1       11 0.10000000E+01 0.25595141E+03</pdfrwt>
<pdfrwt beam="2">  1        2 0.43085208E-01 0.82666710E+02</pdfrwt>
<totfact> 0.14504956E+02</totfact>
</mgrwt>
</event>
<event>
 5    1  0.9955701E-004  0.1330286E+03  0.7818608E-02  0.1439176E+00
         11   -1    0    0    0    0  0.00000000000E+00  0.00000000000E+00  0.99991166017E+03  0.99991166017E+03  0.51100000000E-03 0. -1.
          2   -1    0    0  501    0 -0.00000000000E+00 -0.00000000000E+00 -0.20924859417E+02  0.20924859572E+02  0.25500000000E-02 0. -1.
         11    1    1    2    0    0 -0.87803597594E+02 -0.93477581099E+02  0.47515139287E+03  0.49215482936E+03  0.51100000000E-03 0. -1.
         22    1    1    2    0    0  0.53824178157E+01 -0.18925662870E+02  0.44305761874E+02  0.48478362924E+02  0.00000000000E+00 0. -1.
          2    1    1    2  501    0  0.82421179779E+02  0.11240324397E+03  0.45952964601E+03  0.48020332745E+03  0.25500000000E-02 0. -1.
<mgrwt>
<rscale>  0 0.51161428E+02</rscale>
<asrwt>0</asrwt>
<pdfrwt beam="1">  1       11 0.10000000E+01 0.13302861E+03</pdfrwt>
<pdfrwt beam="2">  1        2 0.32189247E-02 0.51161428E+02</pdfrwt>
<totfact> 0.29423209E+03</totfact>
</mgrwt>
</event>
<event>
 5    1  0.9955701E-004  0.1015740E+03  0.7818608E-02  0.1395197E+00
         11   -1    0    0    0    0  0.00000000000E+00  0.00000000000E+00  0.10003301444E+04  0.10003301444E+04  0.51100000000E-03 0. -1.
         -2   -1    0    0    0  501 -0.00000000000E+00 -0.00000000000E+00 -0.43021967882E+02  0.43021967958E+02  0.25500000000E-02 0.  1.
         11    1    1    2    0    0 -0.49735687458E+02 -0.68669037544E+02  0.34995003501E+03  0.36007513428E+03  0.51100000000E-03 0. -1.
         22    1    1    2    0    0 -0.25790466984E+02 -0.25392632104E+02 -0.22071516818E+02  0.42392048866E+02  0.00000000000E+00 0. -1.
         -2    1    1    2    0  501  0.75526154442E+02  0.94061669649E+02  0.62942965830E+03  0.64088492918E+03  0.25500000000E-02 0.  1.
<mgrwt>
<rscale>  0 0.60632254E+02</rscale>
<asrwt>0</asrwt>
<pdfrwt beam="1">  1       11 0.10000000E+01 0.10157404E+03</pdfrwt>
<pdfrwt beam="2">  1       -2 0.66209493E-02 0.60632254E+02</pdfrwt>
<totfact> 0.90153634E+02</totfact>
</mgrwt>
</event>
<event>
 5    1  0.9955701E-004  0.3085764E+03  0.7818608E-02  0.1224281E+00
         11   -1    0    0    0    0  0.00000000000E+00  0.00000000000E+00  0.10000537522E+04  0.10000537522E+04  0.51100000000E-03 0. -1.
          2   -1    0    0  501    0 -0.00000000000E+00 -0.00000000000E+00 -0.42568479471E+03  0.42568479472E+03  0.25500000000E-02 0. -1.
         11    1    1    2    0    0  0.21361465497E+03  0.21631438501E+03  0.85386415430E+03  0.90637030400E+03  0.51100000000E-03 0. -1.
         22    1    1    2    0    0  0.50135854489E+02  0.26278808097E+02 -0.10835055634E+03  0.12224574724E+03  0.00000000000E+00 0. -1.
          2    1    1    2  501    0 -0.26375050946E+03 -0.24259319310E+03 -0.17114464050E+03  0.39712249566E+03  0.25500000000E-02 0. -1.
<mgrwt>
<rscale>  0 0.13216320E+03</rscale>
<asrwt>0</asrwt>
<pdfrwt beam="1">  1       11 0.10000000E+01 0.30857635E+03</pdfrwt>
<pdfrwt beam="2">  1        2 0.65493487E-01 0.13216320E+03</pdfrwt>
<totfact> 0.93342888E+01</totfact>
</mgrwt>
</event>
<event>
 5    1  0.9955701E-004  0.8015834E+02  0.7818608E-02  0.1563473E+00
         11   -1    0    0    0    0  0.00000000000E+00  0.00000000000E+00  0.10003299412E+04  0.10003299412E+04  0.51100000000E-03 0.  1.
          2   -1    0    0  501    0 -0.00000000000E+00 -0.00000000000E+00 -0.98938238649E+01  0.98938241935E+01  0.25500000000E-02 0.  1.
         11    1    1    2    0    0 -0.85796118598E+02  0.86126217931E+01  0.40182612901E+03  0.41097370862E+03  0.51100000000E-03 0.  1.
         22    1    1    2    0    0  0.88365470627E+01 -0.10730392660E+02  0.14823115018E+02  0.20321186714E+02  0.00000000000E+00 0. -1.
          2    1    1    2  501    0  0.76959571535E+02  0.21177708665E+01  0.57378687334E+03  0.57892887010E+03  0.25500000000E-02 0.  1.
<mgrwt>
<rscale>  0 0.33380326E+02</rscale>
<asrwt>0</asrwt>
<pdfrwt beam="1">  1       11 0.10000000E+01 0.80158340E+02</pdfrwt>
<pdfrwt beam="2">  1        2 0.15226289E-02 0.33380326E+02</pdfrwt>
<totfact> 0.73286831E+03</totfact>
</mgrwt>
</event>
<event>
 5    1  0.9955701E-004  0.4994448E+02  0.7818608E-02  0.1572472E+00
         11   -1    0    0    0    0  0.00000000000E+00  0.00000000000E+00  0.99982377104E+03  0.99982377104E+03  0.51100000000E-03 0.  1.
          2   -1    0    0  501    0 -0.00000000000E+00 -0.00000000000E+00 -0.56738539924E+01  0.56738545654E+01  0.25500000000E-02 0.  1.
         11    1    1    2    0    0 -0.12481621802E+02  0.63907707777E+02  0.36403642922E+03  0.36981415304E+03  0.51100000000E-03 0.  1.
         22    1    1    2    0    0  0.99044147273E+01 -0.18614248955E+02  0.56960741321E+02  0.60738074937E+02  0.00000000000E+00 0.  1.
          2    1    1    2  501    0  0.25772070746E+01 -0.45293458822E+02  0.57315274651E+03  0.57494539762E+03  0.25500000000E-02 0.  1.
<mgrwt>
<rscale>  0 0.32451368E+02</rscale>
<asrwt>0</asrwt>
<pdfrwt beam="1">  1       11 0.10000000E+01 0.49944481E+02</pdfrwt>
<pdfrwt beam="2">  1        2 0.87274680E-03 0.32451368E+02</pdfrwt>
<totfact> 0.15179577E+04</totfact>
</mgrwt>
</event>
<event>
 5    1  0.9955701E-004  0.1333841E+03  0.7818608E-02  0.1348117E+00
         11   -1    0    0    0    0  0.00000000000E+00  0.00000000000E+00  0.10002763286E+04  0.10002763286E+04  0.51100000000E-03 0. -1.
          2   -1    0    0  501    0 -0.00000000000E+00 -0.00000000000E+00 -0.34592405746E+02  0.34592405840E+02  0.25500000000E-02 0. -1.
         11    1    1    2    0    0 -0.74795296661E+02  0.11092301586E+03  0.71613778677E+03  0.72852699435E+03  0.51100000000E-03 0. -1.
         22    1    1    2    0    0 -0.31842109862E+02 -0.25288392067E+02  0.50456274766E+02  0.64801685141E+02  0.00000000000E+00 0. -1.
          2    1    1    2  501    0  0.10663740652E+03 -0.85634623792E+02  0.19908986133E+03  0.24154005496E+03  0.25500000000E-02 0. -1.
<mgrwt>
<rscale>  0 0.73645808E+02</rscale>
<asrwt>0</asrwt>
<pdfrwt beam="1">  1       11 0.10000000E+01 0.13338412E+03</pdfrwt>
<pdfrwt beam="2">  1        2 0.53233790E-02 0.73645808E+02</pdfrwt>
<totfact> 0.16020700E+03</totfact>
</mgrwt>
</event>
<event>
 5    1  0.9955701E-004  0.1241430E+03  0.7818608E-02  0.1236415E+00
         11   -1    0    0    0    0  0.00000000000E+00  0.00000000000E+00  0.10002671664E+04  0.10002671664E+04  0.51100000000E-03 0. -1.
          2   -1    0    0  501    0 -0.00000000000E+00 -0.00000000000E+00 -0.16903555314E+02  0.16903555506E+02  0.25500000000E-02 0. -1.
         11    1    1    2    0    0 -0.28247606389E+02  0.11484404798E+03  0.29719436357E+03  0.31986180197E+03  0.51100000000E-03 0. -1.
         22    1    1    2    0    0 -0.43022962596E+01 -0.14028788763E+02  0.42072841226E+02  0.44558283585E+02  0.00000000000E+00 0. -1.
          2    1    1    2  501    0  0.32549902649E+02 -0.10081525921E+03  0.64409640634E+03  0.65275063639E+03  0.25500000000E-02 0. -1.
<mgrwt>
<rscale>  0 0.12414304E+03</rscale>
<asrwt>0</asrwt>
<pdfrwt beam="1">  1       11 0.10000000E+01 0.11826706E+03</pdfrwt>
<pdfrwt beam="2">  1        2 0.26012417E-02 0.12414304E+03</pdfrwt>
<totfact> 0.43305704E+03</totfact>
</mgrwt>
</event>
<event>
 5    1  0.9955701E-004  0.4955458E+02  0.7818608E-02  0.1615927E+00
         11   -1    0    0    0    0  0.00000000000E+00  0.00000000000E+00  0.10003842691E+04  0.10003842691E+04  0.51100000000E-03 0. -1.
          2   -1    0    0  501    0 -0.00000000000E+00 -0.00000000000E+00 -0.45673104656E+01  0.45673111774E+01  0.25500000000E-02 0. -1.
         11    1    1    2    0    0 -0.38639538957E+02  0.32409169712E+02  0.29720287260E+03  0.30145134887E+03  0.51100000000E-03 0. -1.
         22    1    1    2    0    0 -0.79411698398E+01 -0.14268199705E+02  0.43209137245E+02  0.46191701016E+02  0.00000000000E+00 0. -1.
          2    1    1    2  501    0  0.46580708797E+02 -0.18140970007E+02  0.65540494877E+03  0.65730853037E+03  0.25500000000E-02 0. -1.
<mgrwt>
<rscale>  0 0.28446223E+02</rscale>
<asrwt>0</asrwt>
<pdfrwt beam="1">  1       11 0.10000000E+01 0.49554575E+02</pdfrwt>
<pdfrwt beam="2">  1        2 0.70293320E-03 0.28446223E+02</pdfrwt>
<totfact> 0.19626222E+04</totfact>
</mgrwt>
</event>
<event>
 5    1  0.9955701E-004  0.9823874E+02  0.7818608E-02  0.1311474E+00
         11   -1    0    0    0    0  0.00000000000E+00  0.00000000000E+00  0.10002808080E+04  0.10002808080E+04  0.51100000000E-03 0. -1.
          2   -1    0    0  501    0 -0.00000000000E+00 -0.00000000000E+00 -0.23540849489E+02  0.23540849627E+02  0.25500000000E-02 0. -1.
         11    1    1    2    0    0 -0.90877731049E+02 -0.37161754947E+02  0.27187317912E+03  0.28905844315E+03  0.51100000000E-03 0. -1.
         22    1    1    2    0    0 -0.11004881372E+02  0.75421453190E+02  0.13899829627E+03  0.15852453873E+03  0.00000000000E+00 0. -1.
          2    1    1    2  501    0  0.10188261242E+03 -0.38259698242E+02  0.56586848315E+03  0.57623867577E+03  0.25500000000E-02 0. -1.
<mgrwt>
<rscale>  0 0.86531859E+02</rscale>
<asrwt>0</asrwt>
<pdfrwt beam="1">  1       11 0.10000000E+01 0.98238743E+02</pdfrwt>
<pdfrwt beam="2">  1        2 0.36226861E-02 0.86531859E+02</pdfrwt>
<totfact> 0.26798008E+03</totfact>
</mgrwt>
</event>
<event>
 5    1  0.9955701E-004  0.1364681E+03  0.7818608E-02  0.1355952E+00
         11   -1    0    0    0    0  0.00000000000E+00  0.00000000000E+00  0.10003909391E+04  0.10003909391E+04  0.51100000000E-03 0.  1.
          2   -1    0    0  501    0 -0.00000000000E+00 -0.00000000000E+00 -0.45658624055E+02  0.45658624127E+02  0.25500000000E-02 0.  1.
         11    1    1    2    0    0 -0.35764126578E+01  0.13330093948E+03  0.75056060196E+03  0.76231433701E+03  0.51100000000E-03 0.  1.
         22    1    1    2    0    0  0.32619771157E+02  0.17843680534E+02  0.15584960769E+02  0.40315473549E+02  0.00000000000E+00 0.  1.
          2    1    1    2  501    0 -0.29043358499E+02 -0.15114462001E+03  0.18858675229E+03  0.24341975264E+03  0.25500000000E-02 0.  1.
<mgrwt>
<rscale>  0 0.71232412E+02</rscale>
<asrwt>0</asrwt>
<pdfrwt beam="1">  1       11 0.10000000E+01 0.13646810E+03</pdfrwt>
<pdfrwt beam="2">  1        2 0.70271496E-02 0.71232412E+02</pdfrwt>
<totfact> 0.11256696E+03</totfact>
</mgrwt>
</event>
<event>
 5    1  0.9955701E-004  0.1101022E+03  0.7818608E-02  0.1364592E+00
         11   -1    0    0    0    0  0.00000000000E+00  0.00000000000E+00  0.10002787301E+04  0.10002787301E+04  0.51100000000E-03 0. -1.
          2   -1    0    0  501    0 -0.00000000000E+00 -0.00000000000E+00 -0.33563932427E+02  0.33563932524E+02  0.25500000000E-02 0. -1.
         11    1    1    2    0    0  0.71004171205E+01  0.13214562608E+03  0.44540127314E+03  0.46464521576E+03  0.51100000000E-03 0. -1.
         22    1    1    2    0    0 -0.26328491813E+02 -0.33818449238E+02  0.48806677030E+01  0.43135807715E+02  0.00000000000E+00 0.  1.
          2    1    1    2  501    0  0.19228074692E+02 -0.98327176843E+02  0.51643285686E+03  0.52606163918E+03  0.25500000000E-02 0. -1.
<mgrwt>
<rscale>  0 0.68693855E+02</rscale>
<asrwt>0</asrwt>
<pdfrwt beam="1">  1       11 0.10000000E+01 0.11010219E+03</pdfrwt>
<pdfrwt beam="2">  1        2 0.51651210E-02 0.68693855E+02</pdfrwt>
<totfact> 0.16538745E+03</totfact>
</mgrwt>
</event>
<event>
 5    1  0.9955701E-004  0.3281551E+03  0.7818608E-02  0.1297940E+00
         11   -1    0    0    0    0  0.00000000000E+00  0.00000000000E+00  0.99997382624E+03  0.99997382624E+03  0.51100000000E-03 0.  1.
          2   -1    0    0  501    0 -0.00000000000E+00 -0.00000000000E+00 -0.37540001017E+03  0.37540001018E+03  0.25500000000E-02 0. -1.
         11    1    1    2    0    0 -0.90267836350E+02 -0.31607795927E+03  0.87672895700E+03  0.93632645090E+03  0.51100000000E-03 0.  1.
         22    1    1    2    0    0 -0.22462294398E+02  0.12744410656E+02 -0.53302308456E+02  0.59229306592E+02  0.00000000000E+00 0.  1.
          2    1    1    2  501    0  0.11273013075E+03  0.30333354861E+03 -0.19885283248E+03  0.37981807893E+03  0.25500000000E-02 0. -1.
<mgrwt>
<rscale>  0 0.92059139E+02</rscale>
<asrwt>0</asrwt>
<pdfrwt beam="1">  1       11 0.10000000E+01 0.32815509E+03</pdfrwt>
<pdfrwt beam="2">  1        2 0.57752334E-01 0.92059139E+02</pdfrwt>
<totfact> 0.10686218E+02</totfact>
</mgrwt>
</event>
<event>
 5    1  0.9955701E-004  0.2473768E+03  0.7818608E-02  0.1353662E+00
         11   -1    0    0    0    0  0.00000000000E+00  0.00000000000E+00  0.10005358478E+04  0.10005358478E+04  0.51100000000E-03 0.  1.
          2   -1    0    0  501    0 -0.00000000000E+00 -0.00000000000E+00 -0.81038703918E+02  0.81038703958E+02  0.25500000000E-02 0.  1.
         11    1    1    2    0    0  0.23968968903E+03  0.27838041504E+02  0.55754575634E+03  0.60752232387E+03  0.51100000000E-03 0.  1.
         22    1    1    2    0    0  0.14030954118E+02  0.15507698063E+02 -0.88174385725E+01  0.22695893807E+02  0.00000000000E+00 0.  1.
          2    1    1    2  501    0 -0.25372064315E+03 -0.43345739567E+02  0.37076882613E+03  0.45135633410E+03  0.25500000000E-02 0.  1.
<mgrwt>
<rscale>  0 0.71926401E+02</rscale>
<asrwt>0</asrwt>
<pdfrwt beam="1">  1       11 0.10000000E+01 0.24737678E+03</pdfrwt>
<pdfrwt beam="2">  1        2 0.12474173E-01 0.71926401E+02</pdfrwt>
<totfact> 0.56243251E+02</totfact>
</mgrwt>
</event>
<event>
 5    1  0.9955701E-004  0.2515903E+03  0.7818608E-02  0.1286485E+00
         11   -1    0    0    0    0  0.00000000000E+00  0.00000000000E+00  0.10006606464E+04  0.10006606464E+04  0.51100000000E-03 0. -1.
          2   -1    0    0  501    0 -0.00000000000E+00 -0.00000000000E+00 -0.11901995378E+03  0.11901995381E+03  0.25500000000E-02 0. -1.
         11    1    1    2    0    0 -0.16163017213E+02  0.25982419617E+03  0.72028989109E+03  0.76588992894E+03  0.51100000000E-03 0. -1.
         22    1    1    2    0    0  0.24685887909E+02 -0.28209990698E+02 -0.34049927530E+02  0.50641822655E+02  0.00000000000E+00 0. -1.
          2    1    1    2  501    0 -0.85228706964E+01 -0.23161420547E+03  0.19540072910E+03  0.30314884865E+03  0.25500000000E-02 0. -1.
<mgrwt>
<rscale>  0 0.97113866E+02</rscale>
<asrwt>0</asrwt>
<pdfrwt beam="1">  1       11 0.10000000E+01 0.25159033E+03</pdfrwt>
<pdfrwt beam="2">  1        2 0.18322859E-01 0.97113866E+02</pdfrwt>
<totfact> 0.36648814E+02</totfact>
</mgrwt>
</event>
<event>
 5    1  0.9955701E-004  0.5077212E+02  0.7818608E-02  0.1582536E+00
         11   -1    0    0    0    0  0.00000000000E+00  0.00000000000E+00  0.10003367125E+04  0.10003367125E+04  0.51100000000E-03 0. -1.
          2   -1    0    0  501    0 -0.00000000000E+00 -0.00000000000E+00 -0.21209814629E+02  0.21209814782E+02  0.25500000000E-02 0. -1.
         11    1    1    2    0    0 -0.28812780765E+02  0.30329733057E+02  0.10855308378E+03  0.11633503789E+03  0.51100000000E-03 0. -1.
         22    1    1    2    0    0  0.72189897554E+01  0.18101623142E+02 -0.10775312198E+02  0.22268586090E+02  0.00000000000E+00 0. -1.
          2    1    1    2  501    0  0.21593791009E+02 -0.48431356199E+02  0.88134912628E+03  0.88294290329E+03  0.25500000000E-02 0. -1.
<mgrwt>
<rscale>  0 0.31455477E+02</rscale>
<asrwt>0</asrwt>
<pdfrwt beam="1">  1       11 0.10000000E+01 0.50772116E+02</pdfrwt>
<pdfrwt beam="2">  1        2 0.32641470E-02 0.31455477E+02</pdfrwt>
<totfact> 0.27059503E+03</totfact>
</mgrwt>
</event>
<event>
 5    1  0.9955701E-004  0.2304957E+03  0.7818608E-02  0.1281954E+00
         11   -1    0    0    0    0  0.00000000000E+00  0.00000000000E+00  0.10001747022E+04  0.10001747022E+04  0.51100000000E-03 0.  1.
          2   -1    0    0  501    0 -0.00000000000E+00 -0.00000000000E+00 -0.71842356378E+02  0.71842356424E+02  0.25500000000E-02 0.  1.
         11    1    1    2    0    0 -0.14868156545E+03 -0.16875174476E+03  0.24459213833E+03  0.33227800619E+03  0.51100000000E-03 0.  1.
         22    1    1    2    0    0 -0.35519486958E+02  0.23711925018E+02  0.62193896805E+02  0.75445146574E+02  0.00000000000E+00 0. -1.
          2    1    1    2  501    0  0.18420105241E+03  0.14503981975E+03  0.62154631064E+03  0.66429390581E+03  0.25500000000E-02 0.  1.
<mgrwt>
<rscale>  0 0.99215811E+02</rscale>
<asrwt>0</asrwt>
<pdfrwt beam="1">  1       11 0.10000000E+01 0.23049566E+03</pdfrwt>
<pdfrwt beam="2">  1        2 0.11054601E-01 0.99215811E+02</pdfrwt>
<totfact> 0.66148930E+02</totfact>
</mgrwt>
</event>
<event>
 5    1  0.9955701E-004  0.9839384E+02  0.7818608E-02  0.1432606E+00
         11   -1    0    0    0    0  0.00000000000E+00  0.00000000000E+00  0.10001705969E+04  0.10001705969E+04  0.51100000000E-03 0.  1.
         -2   -1    0    0    0  501 -0.00000000000E+00 -0.00000000000E+00 -0.15025414696E+02  0.15025414912E+02  0.25500000000E-02 0.  1.
         11    1    1    2    0    0 -0.49746032814E+02  0.71608113871E+02  0.29553631898E+03  0.30813001410E+03  0.51100000000E-03 0.  1.
         22    1    1    2    0    0  0.78238161475E+01  0.26831559382E+02  0.40558482600E+02  0.49255813756E+02  0.00000000000E+00 0.  1.
         -2    1    1    2    0  501  0.41922216666E+02 -0.98439673252E+02  0.64905038059E+03  0.65781018392E+03  0.25500000000E-02 0.  1.
<mgrwt>
<rscale>  0 0.52440488E+02</rscale>
<asrwt>0</asrwt>
<pdfrwt beam="1">  1       11 0.10000000E+01 0.98393842E+02</pdfrwt>
<pdfrwt beam="2">  1       -2 0.23119966E-02 0.52440488E+02</pdfrwt>
<totfact> 0.40754646E+03</totfact>
</mgrwt>
</event>
<event>
 5    1  0.9955701E-004  0.2290171E+03  0.7818608E-02  0.1127333E+00
         11   -1    0    0    0    0  0.00000000000E+00  0.00000000000E+00  0.10001279345E+04  0.10001279345E+04  0.51100000000E-03 0. -1.
          2   -1    0    0  501    0 -0.00000000000E+00 -0.00000000000E+00 -0.94269023587E+02  0.94269023621E+02  0.25500000000E-02 0.  1.
         11    1    1    2    0    0 -0.32416207778E+02 -0.39072793449E+02  0.18476445770E+03  0.19161262627E+03  0.51100000000E-03 0. -1.
         22    1    1    2    0    0  0.21517021407E+03  0.15727166702E+03  0.59324973266E+03  0.65036746811E+03  0.00000000000E+00 0. -1.
          2    1    1    2  501    0 -0.18275400629E+03 -0.11819887357E+03  0.12784472055E+03  0.25241686375E+03  0.25500000000E-02 0.  1.
<mgrwt>
<rscale>  0 0.22901711E+03</rscale>
<asrwt>0</asrwt>
<pdfrwt beam="1">  1       11 0.10000000E+01 0.50769023E+02</pdfrwt>
<pdfrwt beam="2">  1        2 0.14504782E-01 0.22901711E+03</pdfrwt>
<totfact> 0.49701593E+02</totfact>
</mgrwt>
</event>
<event>
 5    1  0.9955701E-004  0.3154760E+03  0.7818608E-02  0.1077750E+00
         11   -1    0    0    0    0  0.00000000000E+00  0.00000000000E+00  0.10004773462E+04  0.10004773462E+04  0.51100000000E-03 0. -1.
          2   -1    0    0  501    0 -0.00000000000E+00 -0.00000000000E+00 -0.89578604581E+03  0.89578604581E+03  0.25500000000E-02 0.  1.
         11    1    1    2    0    0  0.30766742573E+03  0.89355205007E+01  0.94755574938E+03  0.99629362468E+03  0.51100000000E-03 0. -1.
         22    1    1    2    0    0 -0.27501827460E+02 -0.16217111088E+02 -0.53184929973E+02  0.62032104446E+02  0.00000000000E+00 0. -1.
          2    1    1    2  501    0 -0.28016559827E+03  0.72815905877E+01 -0.78967951905E+03  0.83793766286E+03  0.25500000000E-02 0.  1.
<mgrwt>
<rscale>  0 0.31547599E+03</rscale>
<asrwt>0</asrwt>
<pdfrwt beam="1">  1       11 0.10000000E+01 0.30779715E+03</pdfrwt>
<pdfrwt beam="2">  1        2 0.13787902E+00 0.31547599E+03</pdfrwt>
<totfact> 0.37956378E+01</totfact>
</mgrwt>
</event>
<event>
 5    1  0.1419939E-003  0.9945841E+03  0.7818608E-02  0.1246389E+00
         11   -1    0    0    0    0  0.00000000000E+00  0.00000000000E+00  0.10004686652E+04  0.10004686652E+04  0.51100000000E-03 0. -1.
          2   -1    0    0  501    0 -0.00000000000E+00 -0.00000000000E+00 -0.17751783679E+04  0.17751783679E+04  0.25500000000E-02 0. -1.
         11    1    1    2    0    0 -0.99457621776E+03 -0.14684096172E+03 -0.12785005179E+04  0.16264401911E+04  0.51100000000E-03 0. -1.
         22    1    1    2    0    0  0.12099973955E+02  0.70540166352E+01 -0.22053568161E+02  0.26125244287E+02  0.00000000000E+00 0. -1.
          2    1    1    2  501    0  0.98247624381E+03  0.13978694509E+03  0.52584438329E+03  0.11230815977E+04  0.25500000000E-02 0. -1.
<mgrwt>
<rscale>  0 0.11802608E+03</rscale>
<asrwt>0</asrwt>
<pdfrwt beam="1">  1       11 0.10000000E+01 0.99458410E+03</pdfrwt>
<pdfrwt beam="2">  1        2 0.27323235E+00 0.11802608E+03</pdfrwt>
<totfact> 0.13173561E+01</totfact>
</mgrwt>
</event>
<event>
 5    1  0.9955701E-004  0.3873806E+02  0.7818608E-02  0.1517709E+00
         11   -1    0    0    0    0  0.00000000000E+00  0.00000000000E+00  0.10002990588E+04  0.10002990588E+04  0.51100000000E-03 0.  1.
          2   -1    0    0  501    0 -0.00000000000E+00 -0.00000000000E+00 -0.72386441166E+01  0.72386445657E+01  0.25500000000E-02 0.  1.
         11    1    1    2    0    0  0.44934743168E+01 -0.24634428592E+02  0.31744079770E+02  0.40431831324E+02  0.51100000000E-03 0.  1.
         22    1    1    2    0    0 -0.31773793387E+02  0.27465592060E+02  0.16317261353E+03  0.16849105169E+03  0.00000000000E+00 0.  1.
          2    1    1    2  501    0  0.27280319070E+02 -0.28311634681E+01  0.79814372141E+03  0.79861482037E+03  0.25500000000E-02 0.  1.
<mgrwt>
<rscale>  0 0.38738057E+02</rscale>
<asrwt>0</asrwt>
<pdfrwt beam="1">  1       11 0.10000000E+01 0.25040907E+02</pdfrwt>
<pdfrwt beam="2">  1        2 0.11139706E-02 0.38738057E+02</pdfrwt>
<totfact> 0.11381544E+04</totfact>
</mgrwt>
</event>
<event>
 5    1  0.9955701E-004  0.2018148E+03  0.7818608E-02  0.1296234E+00
         11   -1    0    0    0    0  0.00000000000E+00  0.00000000000E+00  0.10005987180E+04  0.10005987180E+04  0.51100000000E-03 0. -1.
          2   -1    0    0  501    0 -0.00000000000E+00 -0.00000000000E+00 -0.42874457620E+03  0.42874457621E+03  0.25500000000E-02 0. -1.
         11    1    1    2    0    0  0.18717595894E+03  0.76422628572E+02  0.92971099062E+03  0.95143984773E+03  0.51100000000E-03 0. -1.
         22    1    1    2    0    0 -0.21834540938E+02  0.36651258189E+02 -0.24358384962E+03  0.24729163694E+03  0.00000000000E+00 0. -1.
          2    1    1    2  501    0 -0.16534141800E+03 -0.11307388676E+03 -0.11427299916E+03  0.23061180958E+03  0.25500000000E-02 0. -1.
<mgrwt>
<rscale>  0 0.92789336E+02</rscale>
<asrwt>0</asrwt>
<pdfrwt beam="1">  1       11 0.10000000E+01 0.20181482E+03</pdfrwt>
<pdfrwt beam="2">  1        2 0.66000194E-01 0.92789336E+02</pdfrwt>
<totfact> 0.92831636E+01</totfact>
</mgrwt>
</event>
<event>
 5    1  0.9955701E-004  0.8997272E+02  0.7818608E-02  0.1566352E+00
         11   -1    0    0    0    0  0.00000000000E+00  0.00000000000E+00  0.10003682364E+04  0.10003682364E+04  0.51100000000E-03 0.  1.
          2   -1    0    0  501    0 -0.00000000000E+00 -0.00000000000E+00 -0.17170379528E+02  0.17170379718E+02  0.25500000000E-02 0.  1.
         11    1    1    2    0    0 -0.90717186060E+02  0.41380868606E+02  0.17332762437E+03  0.19996111998E+03  0.51100000000E-03 0.  1.
         22    1    1    2    0    0  0.90485101061E+01 -0.81260649525E+01  0.25341752775E+02  0.28108946983E+02  0.00000000000E+00 0. -1.
          2    1    1    2  501    0  0.81668675954E+02 -0.33254803654E+02  0.78452847970E+03  0.78946854913E+03  0.25500000000E-02 0.  1.
<mgrwt>
<rscale>  0 0.33079091E+02</rscale>
<asrwt>0</asrwt>
<pdfrwt beam="1">  1       11 0.10000000E+01 0.89972719E+02</pdfrwt>
<pdfrwt beam="2">  1        2 0.26425695E-02 0.33079091E+02</pdfrwt>
<totfact> 0.35728258E+03</totfact>
</mgrwt>
</event>
<event>
 5    1  0.9955701E-004  0.4069948E+03  0.7818608E-02  0.1164443E+00
         11   -1    0    0    0    0  0.00000000000E+00  0.00000000000E+00  0.10001958399E+04  0.10001958399E+04  0.51100000000E-03 0.  1.
          2   -1    0    0  501    0 -0.00000000000E+00 -0.00000000000E+00 -0.23107825019E+03  0.23107825020E+03  0.25500000000E-02 0.  1.
         11    1    1    2    0    0  0.24000543470E+03  0.34124470307E+03  0.59441791883E+03  0.72621155202E+03  0.51100000000E-03 0.  1.
         22    1    1    2    0    0 -0.81268099208E+02  0.15580117932E+02  0.40331974800E+02  0.92053854970E+02  0.00000000000E+00 0.  1.
          2    1    1    2  501    0 -0.15873733549E+03 -0.35682482100E+03  0.13436769607E+03  0.41300868310E+03  0.25500000000E-02 0.  1.
<mgrwt>
<rscale>  0 0.18351576E+03</rscale>
<asrwt>0</asrwt>
<pdfrwt beam="1">  1       11 0.10000000E+01 0.40699476E+03</pdfrwt>
<pdfrwt beam="2">  1        2 0.35557461E-01 0.18351576E+03</pdfrwt>
<totfact> 0.17939641E+02</totfact>
</mgrwt>
</event>
<event>
 5    1  0.9955701E-004  0.3125954E+02  0.7818608E-02  0.1663503E+00
         11   -1    0    0    0    0  0.00000000000E+00  0.00000000000E+00  0.10002165819E+04  0.10002165819E+04  0.51100000000E-03 0.  1.
          2   -1    0    0  501    0 -0.00000000000E+00 -0.00000000000E+00 -0.57564167471E+01  0.57564173119E+01  0.25500000000E-02 0.  1.
         11    1    1    2    0    0  0.20292148965E+02 -0.91232596937E+00  0.20475895214E+02  0.28842086148E+02  0.51100000000E-03 0.  1.
         22    1    1    2    0    0  0.67456076107E+01  0.18528029721E+02  0.74414516633E+02  0.76982539534E+02  0.00000000000E+00 0.  1.
          2    1    1    2  501    0 -0.27037756576E+02 -0.17615703751E+02  0.89956975335E+03  0.90014837357E+03  0.25500000000E-02 0.  1.
<mgrwt>
<rscale>  0 0.24826772E+02</rscale>
<asrwt>0</asrwt>
<pdfrwt beam="1">  1       11 0.10000000E+01 0.31259538E+02</pdfrwt>
<pdfrwt beam="2">  1        2 0.88579440E-03 0.24826772E+02</pdfrwt>
<totfact> 0.14035395E+04</totfact>
</mgrwt>
</event>
<event>
 5    1  0.9955701E-004  0.1769083E+03  0.7818608E-02  0.1260078E+00
         11   -1    0    0    0    0  0.00000000000E+00  0.00000000000E+00  0.10004216237E+04  0.10004216237E+04  0.51100000000E-03 0.  1.
          2   -1    0    0  501    0 -0.00000000000E+00 -0.00000000000E+00 -0.63566235365E+03  0.63566235366E+03  0.25500000000E-02 0. -1.
         11    1    1    2    0    0 -0.36536250039E+02 -0.17459583381E+03  0.96765569034E+03  0.98395941878E+03  0.51100000000E-03 0.  1.
         22    1    1    2    0    0 -0.41922827120E+02  0.54461441839E+02 -0.38594584066E+03  0.39201755573E+03  0.00000000000E+00 0. -1.
          2    1    1    2  501    0  0.78459077159E+02  0.12013439197E+03 -0.21695057964E+03  0.26010700285E+03  0.25500000000E-02 0. -1.
<mgrwt>
<rscale>  0 0.11026602E+03</rscale>
<asrwt>0</asrwt>
<pdfrwt beam="1">  1       11 0.10000000E+01 0.17690828E+03</pdfrwt>
<pdfrwt beam="2">  1        2 0.97835438E-01 0.11026602E+03</pdfrwt>
<totfact> 0.60129107E+01</totfact>
</mgrwt>
</event>
<event>
 5    1  0.9955701E-004  0.4217458E+02  0.7818608E-02  0.1538210E+00
         11   -1    0    0    0    0  0.00000000000E+00  0.00000000000E+00  0.10002969182E+04  0.10002969182E+04  0.51100000000E-03 0. -1.
          2   -1    0    0  501    0 -0.00000000000E+00 -0.00000000000E+00 -0.49741754508E+01  0.49741761044E+01  0.25500000000E-02 0. -1.
         11    1    1    2    0    0 -0.49029975333E+01 -0.54709827845E+02  0.26492940743E+03  0.27056384749E+03  0.51100000000E-03 0. -1.
         22    1    1    2    0    0  0.24527119560E+02  0.19070864770E+02  0.16831855375E+03  0.17116194967E+03  0.00000000000E+00 0. -1.
          2    1    1    2  501    0 -0.19624122027E+02  0.35638963075E+02  0.56207478153E+03  0.56354529711E+03  0.25500000000E-02 0. -1.
<mgrwt>
<rscale>  0 0.36198311E+02</rscale>
<asrwt>0</asrwt>
<pdfrwt beam="1">  1       11 0.10000000E+01 0.42174579E+02</pdfrwt>
<pdfrwt beam="2">  1        2 0.76548501E-03 0.36198311E+02</pdfrwt>
<totfact> 0.18492288E+04</totfact>
</mgrwt>
</event>
<event>
 5    1  0.9955701E-004  0.2836398E+03  0.7818608E-02  0.1093717E+00
         11   -1    0    0    0    0  0.00000000000E+00  0.00000000000E+00  0.10004565970E+04  0.10004565970E+04  0.51100000000E-03 0.  1.
          2   -1    0    0  501    0 -0.00000000000E+00 -0.00000000000E+00 -0.38199251886E+03  0.38199251887E+03  0.25500000000E-02 0.  1.
         11    1    1    2    0    0  0.85695270053E+02 -0.26593544025E+03  0.92413729953E+03  0.96545071654E+03  0.51100000000E-03 0.  1.
         22    1    1    2    0    0  0.50973566925E+01  0.13919319881E+02 -0.24617748733E+02  0.28736110800E+02  0.00000000000E+00 0.  1.
          2    1    1    2  501    0 -0.90792626746E+02  0.25201612036E+03 -0.28105547264E+03  0.38826228854E+03  0.25500000000E-02 0.  1.
<mgrwt>
<rscale>  0 0.28363982E+03</rscale>
<asrwt>0</asrwt>
<pdfrwt beam="1">  1       11 0.10000000E+01 0.27940175E+03</pdfrwt>
<pdfrwt beam="2">  1        2 0.58794911E-01 0.28363982E+03</pdfrwt>
<totfact> 0.10432127E+02</totfact>
</mgrwt>
</event>
<event>
 5    1  0.1258379E-003  0.1635053E+03  0.7818608E-02  0.1239653E+00
         11   -1    0    0    0    0  0.00000000000E+00  0.00000000000E+00  0.10004000821E+04  0.10004000821E+04  0.51100000000E-03 0. -1.
         -2   -1    0    0    0  501 -0.00000000000E+00 -0.00000000000E+00 -0.52657746154E+03  0.52657746155E+03  0.25500000000E-02 0.  1.
         11    1    1    2    0    0  0.16255115056E+03  0.35842377781E+02  0.97167086478E+03  0.98582545213E+03  0.51100000000E-03 0. -1.
         22    1    1    2    0    0 -0.84809614523E+02  0.33531219251E+02 -0.33998007711E+03  0.35199924178E+03  0.00000000000E+00 0.  1.
         -2    1    1    2    0  501 -0.77741536041E+02 -0.69373597032E+02 -0.15786816708E+03  0.18915284977E+03  0.25500000000E-02 0.  1.
<mgrwt>
<rscale>  0 0.12211183E+03</rscale>
<asrwt>0</asrwt>
<pdfrwt beam="1">  1       11 0.10000000E+01 0.16350529E+03</pdfrwt>
<pdfrwt beam="2">  1       -2 0.81044326E-01 0.12211183E+03</pdfrwt>
<totfact> 0.11428086E+01</totfact>
</mgrwt>
</event>
<event>
 5    1  0.9955701E-004  0.2360679E+03  0.7818608E-02  0.1122440E+00
         11   -1    0    0    0    0  0.00000000000E+00  0.00000000000E+00  0.10002348562E+04  0.10002348562E+04  0.51100000000E-03 0.  1.
          2   -1    0    0  501    0 -0.00000000000E+00 -0.00000000000E+00 -0.18103283111E+03  0.18103283113E+03  0.25500000000E-02 0.  1.
         11    1    1    2    0    0 -0.44444422400E+02 -0.22176129124E+03  0.90290385949E+03  0.93080006256E+03  0.51100000000E-03 0.  1.
         22    1    1    2    0    0 -0.12321449501E+02  0.46479782371E+02  0.39791661792E-01  0.48085235472E+02  0.00000000000E+00 0.  1.
          2    1    1    2  501    0  0.56765871901E+02  0.17528150887E+03 -0.83741626049E+02  0.20238238931E+03  0.25500000000E-02 0.  1.
<mgrwt>
<rscale>  0 0.23606786E+03</rscale>
<asrwt>0</asrwt>
<pdfrwt beam="1">  1       11 0.10000000E+01 0.22617112E+03</pdfrwt>
<pdfrwt beam="2">  1        2 0.27857745E-01 0.23606786E+03</pdfrwt>
<totfact> 0.23510740E+02</totfact>
</mgrwt>
</event>
<event>
 5    1  0.9955701E-004  0.2655224E+03  0.7818608E-02  0.1329811E+00
         11   -1    0    0    0    0  0.00000000000E+00  0.00000000000E+00  0.10001424687E+04  0.10001424687E+04  0.51100000000E-03 0. -1.
          2   -1    0    0  501    0 -0.00000000000E+00 -0.00000000000E+00 -0.12823158267E+03  0.12823158270E+03  0.25500000000E-02 0. -1.
         11    1    1    2    0    0  0.11385896329E+03 -0.24885260919E+03  0.19866456945E+03  0.33817021717E+03  0.51100000000E-03 0. -1.
         22    1    1    2    0    0  0.14281636257E+02  0.19216938558E+02 -0.30590243156E+02  0.38846091670E+02  0.00000000000E+00 0. -1.
          2    1    1    2  501    0 -0.12814059954E+03  0.22963567063E+03  0.70383655969E+03  0.75135774252E+03  0.25500000000E-02 0. -1.
<mgrwt>
<rscale>  0 0.79732914E+02</rscale>
<asrwt>0</asrwt>
<pdfrwt beam="1">  1       11 0.10000000E+01 0.26552244E+03</pdfrwt>
<pdfrwt beam="2">  1        2 0.19730746E-01 0.79732914E+02</pdfrwt>
<totfact> 0.33464453E+02</totfact>
</mgrwt>
</event>
<event>
 5    1  0.9955701E-004  0.1015188E+03  0.7818608E-02  0.1290707E+00
         11   -1    0    0    0    0  0.00000000000E+00  0.00000000000E+00  0.10001897649E+04  0.10001897649E+04  0.51100000000E-03 0. -1.
         -2   -1    0    0    0  501 -0.00000000000E+00 -0.00000000000E+00 -0.10360956268E+02  0.10360956582E+02  0.25500000000E-02 0. -1.
         11    1    1    2    0    0  0.35261459655E+02  0.99521482934E+01  0.21519740350E+03  0.21829415537E+03  0.51100000000E-03 0. -1.
         22    1    1    2    0    0  0.58673765153E+02  0.55672871643E+01  0.16445750778E+03  0.17469939115E+03  0.00000000000E+00 0.  1.
         -2    1    1    2    0  501 -0.93935224808E+02 -0.15519435458E+02  0.61017389734E+03  0.61755717495E+03  0.25500000000E-02 0. -1.
<mgrwt>
<rscale>  0 0.95208610E+02</rscale>
<asrwt>0</asrwt>
<pdfrwt beam="1">  1       11 0.10000000E+01 0.10151885E+03</pdfrwt>
<pdfrwt beam="2">  1       -2 0.15942957E-02 0.95208610E+02</pdfrwt>
<totfact> 0.75435581E+03</totfact>
</mgrwt>
</event>
<event>
 5    1  0.9955701E-004  0.2336865E+02  0.7818608E-02  0.1850588E+00
         11   -1    0    0    0    0  0.00000000000E+00  0.00000000000E+00  0.99985210859E+03  0.99985210859E+03  0.51100000000E-03 0. -1.
          2   -1    0    0  501    0 -0.00000000000E+00 -0.00000000000E+00 -0.33447193255E+01  0.33447202976E+01  0.25500000000E-02 0. -1.
         11    1    1    2    0    0  0.23924570745E+02  0.17527460415E+02  0.99020289139E+02  0.10336640951E+03  0.51100000000E-03 0. -1.
         22    1    1    2    0    0 -0.10346132215E+02  0.10595207993E+01  0.25497035640E+02  0.27536591339E+02  0.00000000000E+00 0.  1.
          2    1    1    2  501    0 -0.13578438530E+02 -0.18586981214E+02  0.87199006448E+03  0.87229382804E+03  0.25500000000E-02 0. -1.
<mgrwt>
<rscale>  0 0.15589725E+02</rscale>
<asrwt>0</asrwt>
<pdfrwt beam="1">  1       11 0.10000000E+01 0.23368652E+02</pdfrwt>
<pdfrwt beam="2">  1        2 0.51449616E-03 0.15589725E+02</pdfrwt>
<totfact> 0.25218539E+04</totfact>
</mgrwt>
</event>
<event>
 5    1  0.9955701E-004  0.1524058E+03  0.7818608E-02  0.1422266E+00
         11   -1    0    0    0    0  0.00000000000E+00  0.00000000000E+00  0.10002030804E+04  0.10002030804E+04  0.51100000000E-03 0. -1.
          2   -1    0    0  501    0 -0.00000000000E+00 -0.00000000000E+00 -0.38678495091E+02  0.38678495175E+02  0.25500000000E-02 0. -1.
         11    1    1    2    0    0 -0.17253706492E+02  0.15241548235E+03  0.20787382841E+03  0.25834027596E+03  0.51100000000E-03 0. -1.
         22    1    1    2    0    0 -0.19018836155E+02 -0.43984362310E+01  0.10982320061E+02  0.22398074111E+02  0.00000000000E+00 0. -1.
          2    1    1    2  501    0  0.36272542646E+02 -0.14801704612E+03  0.74266843688E+03  0.75814322554E+03  0.25500000000E-02 0. -1.
<mgrwt>
<rscale>  0 0.54544339E+02</rscale>
<asrwt>0</asrwt>
<pdfrwt beam="1">  1       11 0.10000000E+01 0.15240582E+03</pdfrwt>
<pdfrwt beam="2">  1        2 0.59517460E-02 0.54544339E+02</pdfrwt>
<totfact> 0.13523989E+03</totfact>
</mgrwt>
</event>
<event>
 5    1  0.9955701E-004  0.8944493E+02  0.7818608E-02  0.1462729E+00
         11   -1    0    0    0    0  0.00000000000E+00  0.00000000000E+00  0.10003213531E+04  0.10003213531E+04  0.51100000000E-03 0. -1.
         -2   -1    0    0    0  501 -0.00000000000E+00 -0.00000000000E+00 -0.29183659166E+02  0.29183659278E+02  0.25500000000E-02 0. -1.
         11    1    1    2    0    0 -0.10577080368E+03 -0.21367347071E+02  0.34281757066E+03  0.35939937839E+03  0.51100000000E-03 0. -1.
         22    1    1    2    0    0  0.23634990316E+02  0.68497836867E+01 -0.98515116031E+01  0.26506312166E+02  0.00000000000E+00 0. -1.
         -2    1    1    2    0  501  0.82135813366E+02  0.14517563384E+02  0.63817163490E+03  0.64359932185E+03  0.25500000000E-02 0. -1.
<mgrwt>
<rscale>  0 0.46915039E+02</rscale>
<asrwt>0</asrwt>
<pdfrwt beam="1">  1       11 0.10000000E+01 0.89444930E+02</pdfrwt>
<pdfrwt beam="2">  1       -2 0.44912364E-02 0.46915039E+02</pdfrwt>
<totfact> 0.15509777E+03</totfact>
</mgrwt>
</event>
<event>
 5    1  0.9955701E-004  0.1472028E+03  0.7818608E-02  0.1403968E+00
         11   -1    0    0    0    0  0.00000000000E+00  0.00000000000E+00  0.10000693386E+04  0.10000693386E+04  0.51100000000E-03 0.  1.
          2   -1    0    0  501    0 -0.00000000000E+00 -0.00000000000E+00 -0.70857037143E+02  0.70857037189E+02  0.25500000000E-02 0.  1.
         11    1    1    2    0    0 -0.12627972162E+03 -0.80456971079E+02  0.82270100264E+03  0.83621578079E+03  0.51100000000E-03 0.  1.
         22    1    1    2    0    0  0.21542047354E+02 -0.88728542464E+01 -0.31898247739E+02  0.39500450067E+02  0.00000000000E+00 0. -1.
          2    1    1    2  501    0  0.10473767426E+03  0.89329825326E+02  0.13840954656E+03  0.19521014494E+03  0.25500000000E-02 0.  1.
<mgrwt>
<rscale>  0 0.58561937E+02</rscale>
<asrwt>0</asrwt>
<pdfrwt beam="1">  1       11 0.10000000E+01 0.14720278E+03</pdfrwt>
<pdfrwt beam="2">  1        2 0.10901838E-01 0.58561937E+02</pdfrwt>
<totfact> 0.65064671E+02</totfact>
</mgrwt>
</event>
<event>
 5    1  0.9955701E-004  0.1149900E+03  0.7818608E-02  0.1548954E+00
         11   -1    0    0    0    0  0.00000000000E+00  0.00000000000E+00  0.10005086341E+04  0.10005086341E+04  0.51100000000E-03 0. -1.
          2   -1    0    0  501    0 -0.00000000000E+00 -0.00000000000E+00 -0.16597783286E+02  0.16597783482E+02  0.25500000000E-02 0. -1.
         11    1    1    2    0    0 -0.10316334654E+03  0.47868499376E+02  0.63644953680E+03  0.64653080530E+03  0.51100000000E-03 0. -1.
         22    1    1    2    0    0 -0.76426229460E+01 -0.73867393495E+01  0.35369580535E+02  0.36932111108E+02  0.00000000000E+00 0. -1.
          2    1    1    2  501    0  0.11080596948E+03 -0.40481760026E+02  0.31209173352E+03  0.33364350122E+03  0.25500000000E-02 0. -1.
<mgrwt>
<rscale>  0 0.34960236E+02</rscale>
<asrwt>0</asrwt>
<pdfrwt beam="1">  1       11 0.10000000E+01 0.11499004E+03</pdfrwt>
<pdfrwt beam="2">  1        2 0.25548039E-02 0.34960236E+02</pdfrwt>
<totfact> 0.37637981E+03</totfact>
</mgrwt>
</event>
<event>
 5    1  0.9955701E-004  0.1138740E+04  0.7818608E-02  0.1179492E+00
         11   -1    0    0    0    0  0.00000000000E+00  0.00000000000E+00  0.10003497510E+04  0.10003497510E+04  0.51100000000E-03 0. -1.
          2   -1    0    0  501    0 -0.00000000000E+00 -0.00000000000E+00 -0.13625991926E+04  0.13625991926E+04  0.25500000000E-02 0. -1.
         11    1    1    2    0    0 -0.82545176686E+03 -0.79423437575E+03  0.86026204585E+01  0.11455360615E+04  0.51100000000E-03 0. -1.
         22    1    1    2    0    0  0.24756707366E+02 -0.27873877531E+01 -0.26425538225E+02  0.36317670087E+02  0.00000000000E+00 0.  1.
          2    1    1    2  501    0  0.80069505949E+03  0.79702176350E+03 -0.34442652382E+03  0.11810952121E+04  0.25500000000E-02 0. -1.
<mgrwt>
<rscale>  0 0.16843275E+03</rscale>
<asrwt>0</asrwt>
<pdfrwt beam="1">  1       11 0.10000000E+01 0.11387405E+04</pdfrwt>
<pdfrwt beam="2">  1        2 0.20970396E+00 0.16843275E+03</pdfrwt>
<totfact> 0.20964339E+01</totfact>
</mgrwt>
</event>
<event>
 5    1  0.9955701E-004  0.3604620E+03  0.7818608E-02  0.1296549E+00
         11   -1    0    0    0    0  0.00000000000E+00  0.00000000000E+00  0.10004330992E+04  0.10004330992E+04  0.51100000000E-03 0. -1.
          2   -1    0    0  501    0 -0.00000000000E+00 -0.00000000000E+00 -0.17104416875E+03  0.17104416877E+03  0.25500000000E-02 0. -1.
         11    1    1    2    0    0 -0.18606298551E+03  0.31522108450E+03  0.66281726633E+03  0.75717269842E+03  0.51100000000E-03 0. -1.
         22    1    1    2    0    0 -0.37142491694E+01 -0.23524516130E+02 -0.78051236806E+01  0.25062291629E+02  0.00000000000E+00 0.  1.
          2    1    1    2  501    0  0.18977723468E+03 -0.29169656837E+03  0.17437678784E+03  0.38924227795E+03  0.25500000000E-02 0. -1.
<mgrwt>
<rscale>  0 0.92653860E+02</rscale>
<asrwt>0</asrwt>
<pdfrwt beam="1">  1       11 0.10000000E+01 0.36046201E+03</pdfrwt>
<pdfrwt beam="2">  1        2 0.26325884E-01 0.92653860E+02</pdfrwt>
<totfact> 0.24502147E+02</totfact>
</mgrwt>
</event>
<event>
 5    1  0.9955701E-004  0.6100012E+02  0.7818608E-02  0.1423746E+00
         11   -1    0    0    0    0  0.00000000000E+00  0.00000000000E+00  0.10001442814E+04  0.10001442814E+04  0.51100000000E-03 0. -1.
          2   -1    0    0  501    0 -0.00000000000E+00 -0.00000000000E+00 -0.46320360020E+01  0.46320367040E+01  0.25500000000E-02 0. -1.
         11    1    1    2    0    0 -0.23507983338E+02  0.27383451298E+02  0.13972684458E+03  0.14431240343E+03  0.51100000000E-03 0. -1.
         22    1    1    2    0    0  0.60943200952E+01  0.23981226842E+02  0.11185413417E+03  0.11455822672E+03  0.00000000000E+00 0. -1.
          2    1    1    2  501    0  0.17413663242E+02 -0.51364678141E+02  0.74393126664E+03  0.74590568795E+03  0.25500000000E-02 0. -1.
<mgrwt>
<rscale>  0 0.54236204E+02</rscale>
<asrwt>0</asrwt>
<pdfrwt beam="1">  1       11 0.10000000E+01 0.61000117E+02</pdfrwt>
<pdfrwt beam="2">  1        2 0.71272378E-03 0.54236204E+02</pdfrwt>
<totfact> 0.22101218E+04</totfact>
</mgrwt>
</event>
<event>
 5    1  0.9955701E-004  0.1366969E+03  0.7818608E-02  0.1404822E+00
         11   -1    0    0    0    0  0.00000000000E+00  0.00000000000E+00  0.10001531133E+04  0.10001531133E+04  0.51100000000E-03 0. -1.
          2   -1    0    0  501    0 -0.00000000000E+00 -0.00000000000E+00 -0.25772529252E+02  0.25772529378E+02  0.25500000000E-02 0. -1.
         11    1    1    2    0    0 -0.16199554636E+02 -0.13966555730E+03  0.41202227890E+03  0.43535187122E+03  0.51100000000E-03 0. -1.
         22    1    1    2    0    0 -0.22579986932E+02  0.10543332108E+02  0.20721133950E+02  0.32409613604E+02  0.00000000000E+00 0. -1.
          2    1    1    2  501    0  0.38779541567E+02  0.12912222519E+03  0.54163717117E+03  0.55816415783E+03  0.25500000000E-02 0. -1.
<mgrwt>
<rscale>  0 0.58365359E+02</rscale>
<asrwt>0</asrwt>
<pdfrwt beam="1">  1       11 0.10000000E+01 0.13669687E+03</pdfrwt>
<pdfrwt beam="2">  1        2 0.39656115E-02 0.58365359E+02</pdfrwt>
<totfact> 0.22819042E+03</totfact>
</mgrwt>
</event>
<event>
 5    1  0.9955701E-004  0.1570428E+03  0.7818608E-02  0.1471195E+00
         11   -1    0    0    0    0  0.00000000000E+00  0.00000000000E+00  0.10001704060E+04  0.10001704060E+04  0.51100000000E-03 0. -1.
          2   -1    0    0  501    0 -0.00000000000E+00 -0.00000000000E+00 -0.36599403223E+02  0.36599403311E+02  0.25500000000E-02 0. -1.
         11    1    1    2    0    0 -0.50642513375E+02  0.14519499164E+03  0.67946507782E+03  0.69664843482E+03  0.51100000000E-03 0. -1.
         22    1    1    2    0    0 -0.93997621060E+01  0.92493106110E+01  0.25628658571E+01  0.13434044656E+02  0.00000000000E+00 0. -1.
          2    1    1    2  501    0  0.60042275481E+02 -0.15444430225E+03  0.28154305912E+03  0.32668732986E+03  0.25500000000E-02 0. -1.
<mgrwt>
<rscale>  0 0.45507939E+02</rscale>
<asrwt>0</asrwt>
<pdfrwt beam="1">  1       11 0.10000000E+01 0.15704277E+03</pdfrwt>
<pdfrwt beam="2">  1        2 0.56316368E-02 0.45507939E+02</pdfrwt>
<totfact> 0.14230875E+03</totfact>
</mgrwt>
</event>
<event>
 5    1  0.9955701E-004  0.5487757E+03  0.7818608E-02  0.1001778E+00
         11   -1    0    0    0    0  0.00000000000E+00  0.00000000000E+00  0.10006643089E+04  0.10006643089E+04  0.51100000000E-03 0. -1.
          2   -1    0    0  501    0 -0.00000000000E+00 -0.00000000000E+00 -0.17271419103E+04  0.17271419103E+04  0.25500000000E-02 0. -1.
         11    1    1    2    0    0  0.51791831410E+03  0.87690183640E+02  0.88295068815E+03  0.10273903183E+04  0.51100000000E-03 0. -1.
         22    1    1    2    0    0 -0.20547778813E+03  0.39680081540E+02 -0.68973694633E+03  0.72078615790E+03  0.00000000000E+00 0.  1.
          2    1    1    2  501    0 -0.31244052597E+03 -0.12737026518E+03 -0.91969134315E+03  0.97962974301E+03  0.25500000000E-02 0. -1.
<mgrwt>
<rscale>  0 0.54877574E+03</rscale>
<asrwt>0</asrwt>
<pdfrwt beam="1">  1       11 0.10000000E+01 0.52528939E+03</pdfrwt>
<pdfrwt beam="2">  1        2 0.26589065E+00 0.54877574E+03</pdfrwt>
<totfact> 0.12210861E+01</totfact>
</mgrwt>
</event>
<event>
 5    1  0.9955701E-004  0.2780705E+03  0.7818608E-02  0.1099840E+00
         11   -1    0    0    0    0  0.00000000000E+00  0.00000000000E+00  0.10003037682E+04  0.10003037682E+04  0.51100000000E-03 0.  1.
          2   -1    0    0  501    0 -0.00000000000E+00 -0.00000000000E+00 -0.75869013902E+02  0.75869013945E+02  0.25500000000E-02 0.  1.
         11    1    1    2    0    0 -0.19866612691E+03  0.12204330439E+03  0.36961349181E+03  0.43700907480E+03  0.51100000000E-03 0.  1.
         22    1    1    2    0    0 -0.32797340511E+02  0.21821472584E+02  0.11696890914E+03  0.12342434086E+03  0.00000000000E+00 0.  1.
          2    1    1    2  501    0  0.23146346742E+03 -0.14386477698E+03  0.43785235332E+03  0.51573936646E+03  0.25500000000E-02 0.  1.
<mgrwt>
<rscale>  0 0.27252965E+03</rscale>
<asrwt>0</asrwt>
<pdfrwt beam="1">  1       11 0.10000000E+01 0.27807046E+03</pdfrwt>
<pdfrwt beam="2">  1        2 0.11675701E-01 0.27252965E+03</pdfrwt>
<totfact> 0.65081446E+02</totfact>
</mgrwt>
</event>
<event>
 5    1  0.9955701E-004  0.2126258E+03  0.7818608E-02  0.1139503E+00
         11   -1    0    0    0    0  0.00000000000E+00  0.00000000000E+00  0.10002971832E+04  0.10002971832E+04  0.51100000000E-03 0.  1.
         -2   -1    0    0    0  501 -0.00000000000E+00 -0.00000000000E+00 -0.53175018603E+02  0.53175018664E+02  0.25500000000E-02 0. -1.
         11    1    1    2    0    0 -0.17500601295E+03 -0.10833823604E+03  0.68881597947E+03  0.71891009976E+03  0.51100000000E-03 0.  1.
         22    1    1    2    0    0  0.15529021113E+02  0.10369615095E+02  0.44995510785E+01  0.19207430173E+02  0.00000000000E+00 0.  1.
         -2    1    1    2    0  501  0.15947699183E+03  0.97968620949E+02  0.25380663402E+03  0.31535467191E+03  0.25500000000E-02 0. -1.
<mgrwt>
<rscale>  0 0.21262576E+03</rscale>
<asrwt>0</asrwt>
<pdfrwt beam="1">  1       11 0.10000000E+01 0.20582584E+03</pdfrwt>
<pdfrwt beam="2">  1       -2 0.81832031E-02 0.21262576E+03</pdfrwt>
<totfact> 0.71817458E+02</totfact>
</mgrwt>
</event>
<event>
 5    1  0.9955701E-004  0.2320379E+03  0.7818608E-02  0.1328632E+00
         11   -1    0    0    0    0  0.00000000000E+00  0.00000000000E+00  0.10003436739E+04  0.10003436739E+04  0.51100000000E-03 0.  1.
         -2   -1    0    0    0  501 -0.00000000000E+00 -0.00000000000E+00 -0.10926513300E+03  0.10926513303E+03  0.25500000000E-02 0.  1.
         11    1    1    2    0    0 -0.13792593015E+02 -0.22717904448E+03  0.69086301595E+03  0.72738728383E+03  0.51100000000E-03 0.  1.
         22    1    1    2    0    0 -0.22852831106E+02 -0.15625205790E+02 -0.33338835169E+02  0.43334476759E+02  0.00000000000E+00 0.  1.
         -2    1    1    2    0  501  0.36645424121E+02  0.24280425026E+03  0.23355436016E+03  0.33888704639E+03  0.25500000000E-02 0.  1.
<mgrwt>
<rscale>  0 0.80148090E+02</rscale>
<asrwt>0</asrwt>
<pdfrwt beam="1">  1       11 0.10000000E+01 0.23203789E+03</pdfrwt>
<pdfrwt beam="2">  1       -2 0.16815797E-01 0.80148090E+02</pdfrwt>
<totfact> 0.21589885E+02</totfact>
</mgrwt>
</event>
<event>
 5    1  0.9955701E-004  0.1830112E+03  0.7818608E-02  0.1551196E+00
         11   -1    0    0    0    0  0.00000000000E+00  0.00000000000E+00  0.10001094028E+04  0.10001094028E+04  0.51100000000E-03 0. -1.
          2   -1    0    0  501    0 -0.00000000000E+00 -0.00000000000E+00 -0.15642691593E+03  0.15642691595E+03  0.25500000000E-02 0. -1.
         11    1    1    2    0    0 -0.13723576455E+03  0.12167155219E+03  0.91200661379E+03  0.93026538433E+03  0.51100000000E-03 0. -1.
         22    1    1    2    0    0  0.15535277579E+03 -0.92065459456E+02 -0.62390986265E+02  0.19105802505E+03  0.00000000000E+00 0. -1.
          2    1    1    2  501    0 -0.18117011236E+02 -0.29606092732E+02 -0.59331406422E+01  0.35212909385E+02  0.25500000000E-02 0. -1.
<mgrwt>
<rscale>  0 0.34709463E+02</rscale>
<asrwt>0</asrwt>
<pdfrwt beam="1">  1       11 0.10000000E+01 0.18301125E+03</pdfrwt>
<pdfrwt beam="2">  1        2 0.24068312E-01 0.34709463E+02</pdfrwt>
<totfact> 0.26056598E+02</totfact>
</mgrwt>
</event>
<event>
 5    1  0.9955701E-004  0.2081642E+03  0.7818608E-02  0.1269157E+00
         11   -1    0    0    0    0  0.00000000000E+00  0.00000000000E+00  0.99969929596E+03  0.99969929596E+03  0.51100000000E-03 0.  1.
          2   -1    0    0  501    0 -0.00000000000E+00 -0.00000000000E+00 -0.69130635774E+02  0.69130635822E+02  0.25500000000E-02 0.  1.
         11    1    1    2    0    0  0.18273880477E+03 -0.15560197824E+03  0.47958400118E+03  0.53628934410E+03  0.51100000000E-03 0.  1.
         22    1    1    2    0    0 -0.37401854101E+02  0.38196197746E+02  0.11066989849E+02  0.54592366470E+02  0.00000000000E+00 0.  1.
          2    1    1    2  501    0 -0.14533695067E+03  0.11740578050E+03  0.43991766915E+03  0.47794822121E+03  0.25500000000E-02 0.  1.
<mgrwt>
<rscale>  0 0.10549034E+03</rscale>
<asrwt>0</asrwt>
<pdfrwt beam="1">  1       11 0.10000000E+01 0.20816417E+03</pdfrwt>
<pdfrwt beam="2">  1        2 0.10632284E-01 0.10549034E+03</pdfrwt>
<totfact> 0.69578473E+02</totfact>
</mgrwt>
</event>
<event>
 5    1  0.9955701E-004  0.7983429E+02  0.7818608E-02  0.1567070E+00
         11   -1    0    0    0    0  0.00000000000E+00  0.00000000000E+00  0.10008085562E+04  0.10008085562E+04  0.51100000000E-03 0. -1.
         -2   -1    0    0    0  501 -0.00000000000E+00 -0.00000000000E+00 -0.23304726984E+02  0.23304727124E+02  0.25500000000E-02 0. -1.
         11    1    1    2    0    0 -0.15212484270E+02  0.76713344729E+02  0.42771160171E+03  0.43480291072E+03  0.51100000000E-03 0. -1.
         22    1    1    2    0    0  0.12723879007E+02  0.49271226260E+01 -0.14048699220E+02  0.19584166669E+02  0.00000000000E+00 0. -1.
         -2    1    1    2    0  501  0.24886052634E+01 -0.81640467355E+02  0.56384092671E+03  0.56972620592E+03  0.25500000000E-02 0. -1.
<mgrwt>
<rscale>  0 0.33004577E+02</rscale>
<asrwt>0</asrwt>
<pdfrwt beam="1">  1       11 0.10000000E+01 0.79834289E+02</pdfrwt>
<pdfrwt beam="2">  1       -2 0.35882415E-02 0.33004577E+02</pdfrwt>
<totfact> 0.20416152E+03</totfact>
</mgrwt>
</event>
<event>
 5    1  0.9955701E-004  0.9372927E+02  0.7818608E-02  0.1294064E+00
         11   -1    0    0    0    0  0.00000000000E+00  0.00000000000E+00  0.10004438551E+04  0.10004438551E+04  0.51100000000E-03 0.  1.
          2   -1    0    0  501    0 -0.00000000000E+00 -0.00000000000E+00 -0.18092239734E+02  0.18092239913E+02  0.25500000000E-02 0.  1.
         11    1    1    2    0    0  0.52403168755E+00  0.17951729987E+02  0.73329499281E+02  0.75496719689E+02  0.51100000000E-03 0.  1.
         22    1    1    2    0    0  0.89221030205E+02  0.25416843619E+02  0.14232684235E+03  0.16989213702E+03  0.00000000000E+00 0.  1.
          2    1    1    2  501    0 -0.89745061893E+02 -0.43368573606E+02  0.76669527373E+03  0.77314723830E+03  0.25500000000E-02 0.  1.
<mgrwt>
<rscale>  0 0.93729267E+02</rscale>
<asrwt>0</asrwt>
<pdfrwt beam="1">  1       11 0.10000000E+01 0.17959377E+02</pdfrwt>
<pdfrwt beam="2">  1        2 0.27846569E-02 0.93729267E+02</pdfrwt>
<totfact> 0.38299204E+03</totfact>
</mgrwt>
</event>
<event>
 5    1  0.9955701E-004  0.8470937E+02  0.7818608E-02  0.1584679E+00
         11   -1    0    0    0    0  0.00000000000E+00  0.00000000000E+00  0.99998198782E+03  0.99998198782E+03  0.51100000000E-03 0. -1.
          2   -1    0    0  501    0 -0.00000000000E+00 -0.00000000000E+00 -0.17033906978E+02  0.17033907169E+02  0.25500000000E-02 0. -1.
         11    1    1    2    0    0 -0.20317456240E+02 -0.75909052612E+02  0.35923732155E+03  0.36773147335E+03  0.51100000000E-03 0. -1.
         22    1    1    2    0    0  0.16286788858E+01 -0.11412043293E+02 -0.61906253294E+01  0.13084768588E+02  0.00000000000E+00 0. -1.
          2    1    1    2  501    0  0.18688777354E+02  0.87321095905E+02  0.62990138462E+03  0.63619965305E+03  0.25500000000E-02 0. -1.
<mgrwt>
<rscale>  0 0.31249029E+02</rscale>
<asrwt>0</asrwt>
<pdfrwt beam="1">  1       11 0.10000000E+01 0.84709375E+02</pdfrwt>
<pdfrwt beam="2">  1        2 0.26205538E-02 0.31249029E+02</pdfrwt>
<totfact> 0.35798599E+03</totfact>
</mgrwt>
</event>
<event>
 5    1  0.9955701E-004  0.6423444E+02  0.7818608E-02  0.1408016E+00
         11   -1    0    0    0    0  0.00000000000E+00  0.00000000000E+00  0.10005799603E+04  0.10005799603E+04  0.51100000000E-03 0.  1.
          2   -1    0    0  501    0 -0.00000000000E+00 -0.00000000000E+00 -0.69545190682E+02  0.69545190729E+02  0.25500000000E-02 0.  1.
         11    1    1    2    0    0  0.48817969785E+01 -0.20430127469E+02 -0.17796163600E+02  0.27530446587E+02  0.51100000000E-03 0.  1.
         22    1    1    2    0    0  0.40505870497E+02 -0.15097403508E+02 -0.35892052979E+02  0.56186267045E+02  0.00000000000E+00 0.  1.
          2    1    1    2  501    0 -0.45387667475E+02  0.35527530977E+02  0.98472298622E+03  0.98640843742E+03  0.25500000000E-02 0.  1.
<mgrwt>
<rscale>  0 0.57638926E+02</rscale>
<asrwt>0</asrwt>
<pdfrwt beam="1">  1       11 0.10000000E+01 0.64234442E+02</pdfrwt>
<pdfrwt beam="2">  1        2 0.10705465E-01 0.57638926E+02</pdfrwt>
<totfact> 0.66406957E+02</totfact>
</mgrwt>
</event>
<event>
 5    1  0.9955701E-004  0.2103197E+02  0.7818608E-02  0.1828506E+00
         11   -1    0    0    0    0  0.00000000000E+00  0.00000000000E+00  0.10001224953E+04  0.10001224953E+04  0.51100000000E-03 0. -1.
          2   -1    0    0  501    0 -0.00000000000E+00 -0.00000000000E+00 -0.63798481974E+01  0.63798487070E+01  0.25500000000E-02 0. -1.
         11    1    1    2    0    0 -0.17746550971E+02 -0.28095198775E+02  0.50216863141E+02  0.60216389875E+02  0.51100000000E-03 0. -1.
         22    1    1    2    0    0  0.49386144377E+01  0.11772115019E+02  0.31018340690E+02  0.33542660356E+02  0.00000000000E+00 0.  1.
          2    1    1    2  501    0  0.12807936533E+02  0.16323083756E+02  0.91250744330E+03  0.91274329380E+03  0.25500000000E-02 0. -1.
<mgrwt>
<rscale>  0 0.16385835E+02</rscale>
<asrwt>0</asrwt>
<pdfrwt beam="1">  1       11 0.10000000E+01 0.21031975E+02</pdfrwt>
<pdfrwt beam="2">  1        2 0.98163535E-03 0.16385835E+02</pdfrwt>
<totfact> 0.11129451E+04</totfact>
</mgrwt>
</event>
<event>
 5    1  0.9955701E-004  0.2008662E+03  0.7818608E-02  0.1320026E+00
         11   -1    0    0    0    0  0.00000000000E+00  0.00000000000E+00  0.99998099021E+03  0.99998099021E+03  0.51100000000E-03 0.  1.
          2   -1    0    0  501    0 -0.00000000000E+00 -0.00000000000E+00 -0.65200684399E+02  0.65200684449E+02  0.25500000000E-02 0.  1.
         11    1    1    2    0    0  0.21682844090E+03 -0.44762265192E+02  0.61518205961E+03  0.65380975799E+03  0.51100000000E-03 0.  1.
         22    1    1    2    0    0 -0.14899247596E+03  0.93050523567E+02  0.22143864010E+03  0.28265213453E+03  0.00000000000E+00 0.  1.
          2    1    1    2  501    0 -0.67835964949E+02 -0.48288258375E+02  0.98159606096E+02  0.12871978214E+03  0.25500000000E-02 0.  1.
<mgrwt>
<rscale>  0 0.83267485E+02</rscale>
<asrwt>0</asrwt>
<pdfrwt beam="1">  1       11 0.10000000E+01 0.20086624E+03</pdfrwt>
<pdfrwt beam="2">  1        2 0.10030684E-01 0.83267485E+02</pdfrwt>
<totfact> 0.73574742E+02</totfact>
</mgrwt>
</event>
<event>
 5    1  0.9955701E-004  0.4824474E+02  0.7818608E-02  0.1476124E+00
         11   -1    0    0    0    0  0.00000000000E+00  0.00000000000E+00  0.10001547910E+04  0.10001547910E+04  0.51100000000E-03 0.  1.
          2   -1    0    0  501    0 -0.00000000000E+00 -0.00000000000E+00 -0.36342255621E+01  0.36342264567E+01  0.25500000000E-02 0.  1.
         11    1    1    2    0    0  0.28277693499E+02 -0.89991594972E+01  0.96495818416E+02  0.10095571204E+03  0.51100000000E-03 0.  1.
         22    1    1    2    0    0  0.10122270699E+02 -0.13912568772E+02  0.93492456398E+02  0.95062397073E+02  0.00000000000E+00 0.  1.
          2    1    1    2  501    0 -0.38399964197E+02  0.22911728269E+02  0.80653229065E+03  0.80777090837E+03  0.25500000000E-02 0.  1.
<mgrwt>
<rscale>  0 0.44715820E+02</rscale>
<asrwt>0</asrwt>
<pdfrwt beam="1">  1       11 0.10000000E+01 0.48244736E+02</pdfrwt>
<pdfrwt beam="2">  1        2 0.55919822E-03 0.44715820E+02</pdfrwt>
<totfact> 0.29464214E+04</totfact>
</mgrwt>
</event>
<event>
 5    1  0.9955701E-004  0.2136606E+03  0.7818608E-02  0.1363637E+00
         11   -1    0    0    0    0  0.00000000000E+00  0.00000000000E+00  0.99985986865E+03  0.99985986865E+03  0.51100000000E-03 0. -1.
         -2   -1    0    0    0  501 -0.00000000000E+00 -0.00000000000E+00 -0.95981023287E+02  0.95981023321E+02  0.25500000000E-02 0.  1.
         11    1    1    2    0    0 -0.96378160361E+02 -0.18770888237E+03  0.76840097863E+03  0.79684593132E+03  0.51100000000E-03 0. -1.
         22    1    1    2    0    0 -0.21861373645E+02 -0.42071430408E+01 -0.15995824220E+02  0.27413246847E+02  0.00000000000E+00 0.  1.
         -2    1    1    2    0  501  0.11823953401E+03  0.19191602541E+03  0.15147369096E+03  0.27158171380E+03  0.25500000000E-02 0.  1.
<mgrwt>
<rscale>  0 0.68968278E+02</rscale>
<asrwt>0</asrwt>
<pdfrwt beam="1">  1       11 0.10000000E+01 0.21366062E+03</pdfrwt>
<pdfrwt beam="2">  1       -2 0.14764242E-01 0.68968278E+02</pdfrwt>
<totfact> 0.26438427E+02</totfact>
</mgrwt>
</event>
<event>
 5    1  0.9955701E-004  0.2726433E+02  0.7818608E-02  0.1630458E+00
         11   -1    0    0    0    0  0.00000000000E+00  0.00000000000E+00  0.10001466932E+04  0.10001466932E+04  0.51100000000E-03 0.  1.
          2   -1    0    0  501    0 -0.00000000000E+00 -0.00000000000E+00 -0.30390530419E+01  0.30390541118E+01  0.25500000000E-02 0.  1.
         11    1    1    2    0    0  0.16998501341E+02 -0.15637091485E+02  0.13480924981E+03  0.13677354098E+03  0.51100000000E-03 0.  1.
         22    1    1    2    0    0  0.19950115192E+02  0.17917262585E+02  0.11065068469E+03  0.11385345589E+03  0.00000000000E+00 0.  1.
          2    1    1    2  501    0 -0.36948616533E+02 -0.22801710998E+01  0.75164770566E+03  0.75255875045E+03  0.25500000000E-02 0.  1.
<mgrwt>
<rscale>  0 0.27264329E+02</rscale>
<asrwt>0</asrwt>
<pdfrwt beam="1">  1       11 0.10000000E+01 0.23096931E+02</pdfrwt>
<pdfrwt beam="2">  1        2 0.46761528E-03 0.27264329E+02</pdfrwt>
<totfact> 0.33290526E+04</totfact>
</mgrwt>
</event>
<event>
 5    1  0.9955701E-004  0.2460330E+03  0.7818608E-02  0.1412298E+00
         11   -1    0    0    0    0  0.00000000000E+00  0.00000000000E+00  0.99995881748E+03  0.99995881748E+03  0.51100000000E-03 0. -1.
          2   -1    0    0  501    0 -0.00000000000E+00 -0.00000000000E+00 -0.76407994414E+02  0.76407994457E+02  0.25500000000E-02 0. -1.
         11    1    1    2    0    0 -0.19516333211E+03  0.16035509654E+03  0.45903640200E+03  0.52394360531E+03  0.51100000000E-03 0. -1.
         22    1    1    2    0    0  0.68369553200E+01 -0.11127003854E+02 -0.12645395178E+02  0.18178564080E+02  0.00000000000E+00 0. -1.
          2    1    1    2  501    0  0.18832637679E+03 -0.14922809269E+03  0.47715981625E+03  0.53424464254E+03  0.25500000000E-02 0. -1.
<mgrwt>
<rscale>  0 0.56684223E+02</rscale>
<asrwt>0</asrwt>
<pdfrwt beam="1">  1       11 0.10000000E+01 0.24603305E+03</pdfrwt>
<pdfrwt beam="2">  1        2 0.11754592E-01 0.56684223E+02</pdfrwt>
<totfact> 0.59414613E+02</totfact>
</mgrwt>
</event>
<event>
 5    1  0.9955701E-004  0.2571938E+03  0.7818608E-02  0.1338429E+00
         11   -1    0    0    0    0  0.00000000000E+00  0.00000000000E+00  0.99999277675E+03  0.99999277675E+03  0.51100000000E-03 0. -1.
          2   -1    0    0  501    0 -0.00000000000E+00 -0.00000000000E+00 -0.12529497628E+03  0.12529497630E+03  0.25500000000E-02 0. -1.
         11    1    1    2    0    0 -0.93977587823E+02 -0.23916003837E+03  0.78217234029E+03  0.82329999446E+03  0.51100000000E-03 0. -1.
         22    1    1    2    0    0  0.20933266026E+02 -0.93451322409E+01 -0.78056248736E+01  0.24216954862E+02  0.00000000000E+00 0.  1.
          2    1    1    2  501    0  0.73044321797E+02  0.24850517061E+03  0.10033108505E+03  0.27777080373E+03  0.25500000000E-02 0. -1.
<mgrwt>
<rscale>  0 0.76785693E+02</rscale>
<asrwt>0</asrwt>
<pdfrwt beam="1">  1       11 0.10000000E+01 0.25719384E+03</pdfrwt>
<pdfrwt beam="2">  1        2 0.19276010E-01 0.76785693E+02</pdfrwt>
<totfact> 0.34294232E+02</totfact>
</mgrwt>
</event>
<event>
 5    1  0.9955701E-004  0.1742368E+03  0.7818608E-02  0.1173500E+00
         11   -1    0    0    0    0  0.00000000000E+00  0.00000000000E+00  0.99996201023E+03  0.99996201023E+03  0.51100000000E-03 0.  1.
          2   -1    0    0  501    0 -0.00000000000E+00 -0.00000000000E+00 -0.38655614135E+02  0.38655614219E+02  0.25500000000E-02 0.  1.
         11    1    1    2    0    0  0.57364818074E+02 -0.16242175715E+03  0.72403507881E+03  0.74424347152E+03  0.51100000000E-03 0.  1.
         22    1    1    2    0    0 -0.11313990599E+02  0.10773619339E+02  0.18207270399E+02  0.23991289092E+02  0.00000000000E+00 0.  1.
          2    1    1    2  501    0 -0.46050827476E+02  0.15164813781E+03  0.21906404688E+03  0.27038286383E+03  0.25500000000E-02 0.  1.
<mgrwt>
<rscale>  0 0.17423680E+03</rscale>
<asrwt>0</asrwt>
<pdfrwt beam="1">  1       11 0.10000000E+01 0.17225432E+03</pdfrwt>
<pdfrwt beam="2">  1        2 0.59467915E-02 0.17423680E+03</pdfrwt>
<totfact> 0.14904612E+03</totfact>
</mgrwt>
</event>
<event>
 5    1  0.9955701E-004  0.2140222E+03  0.7818608E-02  0.1232229E+00
         11   -1    0    0    0    0  0.00000000000E+00  0.00000000000E+00  0.10002356947E+04  0.10002356947E+04  0.51100000000E-03 0. -1.
          2   -1    0    0  501    0 -0.00000000000E+00 -0.00000000000E+00 -0.41014804615E+03  0.41014804615E+03  0.25500000000E-02 0. -1.
         11    1    1    2    0    0 -0.27856057804E+02 -0.20932052092E+03  0.88812223727E+03  0.91288123476E+03  0.51100000000E-03 0. -1.
         22    1    1    2    0    0 -0.65401242618E+02 -0.37047395049E+02 -0.20464212400E+03  0.21800970375E+03  0.00000000000E+00 0. -1.
          2    1    1    2  501    0  0.93257300422E+02  0.24636791597E+03 -0.93392464705E+02  0.27949280236E+03  0.25500000000E-02 0. -1.
<mgrwt>
<rscale>  0 0.12683476E+03</rscale>
<asrwt>0</asrwt>
<pdfrwt beam="1">  1       11 0.10000000E+01 0.21402220E+03</pdfrwt>
<pdfrwt beam="2">  1        2 0.63114570E-01 0.12683476E+03</pdfrwt>
<totfact> 0.97145037E+01</totfact>
</mgrwt>
</event>
<event>
 5    1  0.9955701E-004  0.2800817E+03  0.7818608E-02  0.1228070E+00
         11   -1    0    0    0    0  0.00000000000E+00  0.00000000000E+00  0.10004989687E+04  0.10004989687E+04  0.51100000000E-03 0.  1.
          2   -1    0    0  501    0 -0.00000000000E+00 -0.00000000000E+00 -0.41644257590E+03  0.41644257591E+03  0.25500000000E-02 0.  1.
         11    1    1    2    0    0  0.22998647358E+03 -0.17078724091E+03  0.90489459350E+03  0.94915556419E+03  0.51100000000E-03 0.  1.
         22    1    1    2    0    0 -0.49619346249E+02  0.33656027918E+02 -0.20445697355E+03  0.21306680119E+03  0.00000000000E+00 0.  1.
          2    1    1    2  501    0 -0.18036712733E+03  0.13713121299E+03 -0.11638122719E+03  0.25471917919E+03  0.25500000000E-02 0.  1.
<mgrwt>
<rscale>  0 0.12958696E+03</rscale>
<asrwt>0</asrwt>
<pdfrwt beam="1">  1       11 0.10000000E+01 0.28008173E+03</pdfrwt>
<pdfrwt beam="2">  1        2 0.64100055E-01 0.12958696E+03</pdfrwt>
<totfact> 0.95534570E+01</totfact>
</mgrwt>
</event>
<event>
 5    1  0.9955701E-004  0.1641278E+03  0.7818608E-02  0.1340222E+00
         11   -1    0    0    0    0  0.00000000000E+00  0.00000000000E+00  0.10007767287E+04  0.10007767287E+04  0.51100000000E-03 0. -1.
          2   -1    0    0  501    0 -0.00000000000E+00 -0.00000000000E+00 -0.39148687879E+03  0.39148687879E+03  0.25500000000E-02 0. -1.
         11    1    1    2    0    0  0.37158810527E+02  0.16016456167E+03  0.96127849250E+03  0.97523833198E+03  0.51100000000E-03 0. -1.
         22    1    1    2    0    0  0.31294300124E+02 -0.16482011120E+02 -0.17693869983E+03  0.18043916817E+03  0.00000000000E+00 0. -1.
          2    1    1    2  501    0 -0.68453110651E+02 -0.14368255055E+03 -0.17504994280E+03  0.23658610731E+03  0.25500000000E-02 0. -1.
<mgrwt>
<rscale>  0 0.76191138E+02</rscale>
<asrwt>0</asrwt>
<pdfrwt beam="1">  1       11 0.10000000E+01 0.16412775E+03</pdfrwt>
<pdfrwt beam="2">  1        2 0.60275530E-01 0.76191138E+02</pdfrwt>
<totfact> 0.10222716E+02</totfact>
</mgrwt>
</event>
<event>
 5    1  0.9955701E-004  0.6231341E+02  0.7818608E-02  0.1388372E+00
         11   -1    0    0    0    0  0.00000000000E+00  0.00000000000E+00  0.10001875954E+04  0.10001875954E+04  0.51100000000E-03 0. -1.
          2   -1    0    0  501    0 -0.00000000000E+00 -0.00000000000E+00 -0.75621951688E+01  0.75621955987E+01  0.25500000000E-02 0. -1.
         11    1    1    2    0    0  0.26532199475E+02 -0.16521590888E+02  0.15116508311E+03  0.15436256970E+03  0.51100000000E-03 0. -1.
         22    1    1    2    0    0  0.64281992080E+01  0.65384966830E+02  0.23321169989E+03  0.24228952226E+03  0.00000000000E+00 0. -1.
          2    1    1    2  501    0 -0.32960398683E+02 -0.48863375941E+02  0.60824861723E+03  0.61109769903E+03  0.25500000000E-02 0. -1.
<mgrwt>
<rscale>  0 0.62313407E+02</rscale>
<asrwt>0</asrwt>
<pdfrwt beam="1">  1       11 0.10000000E+01 0.31255744E+02</pdfrwt>
<pdfrwt beam="2">  1        2 0.11636329E-02 0.62313407E+02</pdfrwt>
<totfact> 0.11686221E+04</totfact>
</mgrwt>
</event>
<event>
 5    1  0.9955701E-004  0.9321438E+02  0.7818608E-02  0.1517547E+00
         11   -1    0    0    0    0  0.00000000000E+00  0.00000000000E+00  0.99983070787E+03  0.99983070787E+03  0.51100000000E-03 0.  1.
          2   -1    0    0  501    0 -0.00000000000E+00 -0.00000000000E+00 -0.10349956037E+02  0.10349956351E+02  0.25500000000E-02 0.  1.
         11    1    1    2    0    0 -0.18159337111E+02  0.87287049810E+02  0.43415802818E+03  0.44321776140E+03  0.51100000000E-03 0.  1.
         22    1    1    2    0    0  0.12056739938E+02  0.10694387524E+02  0.75926333354E+02  0.77617929623E+02  0.00000000000E+00 0. -1.
          2    1    1    2  501    0  0.61025971728E+01 -0.97981437334E+02  0.47939639030E+03  0.48934497320E+03  0.25500000000E-02 0.  1.
<mgrwt>
<rscale>  0 0.38759131E+02</rscale>
<asrwt>0</asrwt>
<pdfrwt beam="1">  1       11 0.10000000E+01 0.93214377E+02</pdfrwt>
<pdfrwt beam="2">  1        2 0.15920313E-02 0.38759131E+02</pdfrwt>
<totfact> 0.70968755E+03</totfact>
</mgrwt>
</event>
<event>
 5    1  0.9955701E-004  0.1106042E+03  0.7818608E-02  0.1503922E+00
         11   -1    0    0    0    0  0.00000000000E+00  0.00000000000E+00  0.10003377147E+04  0.10003377147E+04  0.51100000000E-03 0. -1.
          2   -1    0    0  501    0 -0.00000000000E+00 -0.00000000000E+00 -0.28730128551E+02  0.28730128665E+02  0.25500000000E-02 0. -1.
         11    1    1    2    0    0  0.10092332318E+03  0.51188898806E+02  0.22191118616E+03  0.24909916713E+03  0.51100000000E-03 0. -1.
         22    1    1    2    0    0  0.28927970159E+01 -0.14611457317E+02 -0.61754466044E+01  0.16124487597E+02  0.00000000000E+00 0. -1.
          2    1    1    2  501    0 -0.10381612019E+03 -0.36577441489E+02  0.75587184661E+03  0.76384418865E+03  0.25500000000E-02 0. -1.
<mgrwt>
<rscale>  0 0.40588865E+02</rscale>
<asrwt>0</asrwt>
<pdfrwt beam="1">  1       11 0.10000000E+01 0.11060420E+03</pdfrwt>
<pdfrwt beam="2">  1        2 0.44215124E-02 0.40588865E+02</pdfrwt>
<totfact> 0.19040067E+03</totfact>
</mgrwt>
</event>
<event>
 5    1  0.9955701E-004  0.1625924E+03  0.7818608E-02  0.1391006E+00
         11   -1    0    0    0    0  0.00000000000E+00  0.00000000000E+00  0.10001675405E+04  0.10001675405E+04  0.51100000000E-03 0. -1.
         -2   -1    0    0    0  501 -0.00000000000E+00 -0.00000000000E+00 -0.63816513089E+02  0.63816513140E+02  0.25500000000E-02 0.  1.
         11    1    1    2    0    0  0.49296704623E+02  0.15486493430E+03  0.82491763726E+03  0.84077489332E+03  0.51100000000E-03 0. -1.
         22    1    1    2    0    0 -0.22220144047E+02  0.72766310295E+01 -0.20264387522E+01  0.23468928706E+02  0.00000000000E+00 0. -1.
         -2    1    1    2    0  501 -0.27076560576E+02 -0.16214156533E+03  0.11345982887E+03  0.19974023159E+03  0.25500000000E-02 0.  1.
<mgrwt>
<rscale>  0 0.61657256E+02</rscale>
<asrwt>0</asrwt>
<pdfrwt beam="1">  1       11 0.10000000E+01 0.16259236E+03</pdfrwt>
<pdfrwt beam="2">  1       -2 0.98195697E-02 0.61657256E+02</pdfrwt>
<totfact> 0.49737292E+02</totfact>
</mgrwt>
</event>
<event>
 5    1  0.9955701E-004  0.1823949E+03  0.7818608E-02  0.1441203E+00
         11   -1    0    0    0    0  0.00000000000E+00  0.00000000000E+00  0.10001241920E+04  0.10001241920E+04  0.51100000000E-03 0. -1.
          2   -1    0    0  501    0 -0.00000000000E+00 -0.00000000000E+00 -0.26347973105E+03  0.26347973107E+03  0.25500000000E-02 0. -1.
         11    1    1    2    0    0  0.17185389398E+01  0.18299383631E+03  0.95054141551E+03  0.96799725211E+03  0.51100000000E-03 0. -1.
         22    1    1    2    0    0 -0.54096278461E+01 -0.13058852219E+02 -0.74363828225E+02  0.75695288116E+02  0.00000000000E+00 0. -1.
          2    1    1    2  501    0  0.36910889063E+01 -0.16993498409E+03 -0.13953312633E+03  0.21991138284E+03  0.25500000000E-02 0. -1.
<mgrwt>
<rscale>  0 0.50775476E+02</rscale>
<asrwt>0</asrwt>
<pdfrwt beam="1">  1       11 0.10000000E+01 0.18239493E+03</pdfrwt>
<pdfrwt beam="2">  1        2 0.40540376E-01 0.50775476E+02</pdfrwt>
<totfact> 0.15345689E+02</totfact>
</mgrwt>
</event>
<event>
 5    1  0.9955701E-004  0.2159753E+02  0.7818608E-02  0.1812403E+00
         11   -1    0    0    0    0  0.00000000000E+00  0.00000000000E+00  0.10000509483E+04  0.10000509483E+04  0.51100000000E-03 0. -1.
          2   -1    0    0  501    0 -0.00000000000E+00 -0.00000000000E+00 -0.20078728583E+01  0.20078744776E+01  0.25500000000E-02 0. -1.
         11    1    1    2    0    0  0.32125207453E+01  0.14206553735E+02  0.42961104473E+02  0.45363013088E+02  0.51100000000E-03 0. -1.
         22    1    1    2    0    0 -0.11421180666E+02  0.69884492584E+01  0.67094375342E+02  0.68417373476E+02  0.00000000000E+00 0. -1.
          2    1    1    2  501    0  0.82086599207E+01 -0.21195002994E+02  0.88798759567E+03  0.88827843626E+03  0.25500000000E-02 0. -1.
<mgrwt>
<rscale>  0 0.17005367E+02</rscale>
<asrwt>0</asrwt>
<pdfrwt beam="1">  1       11 0.10000000E+01 0.21597533E+02</pdfrwt>
<pdfrwt beam="2">  1        2 0.30891937E-03 0.17005367E+02</pdfrwt>
<totfact> 0.50103778E+04</totfact>
</mgrwt>
</event>
<event>
 5    1  0.9955701E-004  0.7509192E+02  0.7818608E-02  0.1343587E+00
         11   -1    0    0    0    0  0.00000000000E+00  0.00000000000E+00  0.10004156844E+04  0.10004156844E+04  0.51100000000E-03 0. -1.
          2   -1    0    0  501    0 -0.00000000000E+00 -0.00000000000E+00 -0.81405780423E+01  0.81405784417E+01  0.25500000000E-02 0. -1.
         11    1    1    2    0    0  0.45616540628E+02  0.54411304124E+02  0.39343028862E+03  0.39978600626E+03  0.51100000000E-03 0. -1.
         22    1    1    2    0    0  0.24633131936E+02 -0.12295521247E+02  0.15815576054E+03  0.16053415719E+03  0.00000000000E+00 0.  1.
          2    1    1    2  501    0 -0.70249672564E+02 -0.42115782877E+02  0.44068905718E+03  0.44823609938E+03  0.25500000000E-02 0. -1.
<mgrwt>
<rscale>  0 0.75091916E+02</rscale>
<asrwt>0</asrwt>
<pdfrwt beam="1">  1       11 0.10000000E+01 0.27531274E+02</pdfrwt>
<pdfrwt beam="2">  1        2 0.12529172E-02 0.75091916E+02</pdfrwt>
<totfact> 0.10897224E+04</totfact>
</mgrwt>
</event>
<event>
 5    1  0.9955701E-004  0.6140968E+02  0.7818608E-02  0.1509097E+00
         11   -1    0    0    0    0  0.00000000000E+00  0.00000000000E+00  0.10002623721E+04  0.10002623721E+04  0.51100000000E-03 0. -1.
          2   -1    0    0  501    0 -0.00000000000E+00 -0.00000000000E+00 -0.99587826607E+01  0.99587829872E+01  0.25500000000E-02 0. -1.
         11    1    1    2    0    0 -0.57178137595E+02  0.66117274433E+01  0.16132688246E+03  0.17128752834E+03  0.51100000000E-03 0. -1.
         22    1    1    2    0    0 -0.33329655340E+01 -0.25682986804E+02  0.41586458752E+02  0.48991407634E+02  0.00000000000E+00 0. -1.
          2    1    1    2  501    0  0.60511103129E+02  0.19071259361E+02  0.78739024823E+03  0.78994221912E+03  0.25500000000E-02 0. -1.
<mgrwt>
<rscale>  0 0.39879928E+02</rscale>
<asrwt>0</asrwt>
<pdfrwt beam="1">  1       11 0.10000000E+01 0.61409685E+02</pdfrwt>
<pdfrwt beam="2">  1        2 0.15325224E-02 0.39879928E+02</pdfrwt>
<totfact> 0.74994681E+03</totfact>
</mgrwt>
</event>
<event>
 5    1  0.9955701E-004  0.5604724E+02  0.7818608E-02  0.1558447E+00
         11   -1    0    0    0    0  0.00000000000E+00  0.00000000000E+00  0.10004195750E+04  0.10004195750E+04  0.51100000000E-03 0. -1.
          2   -1    0    0  501    0 -0.00000000000E+00 -0.00000000000E+00 -0.82924390641E+01  0.82924394562E+01  0.25500000000E-02 0. -1.
         11    1    1    2    0    0  0.67106668701E+02  0.51451644837E+01  0.40162404638E+03  0.40722432680E+03  0.51100000000E-03 0. -1.
         22    1    1    2    0    0 -0.17690870622E+02  0.10403568606E+02  0.20064604421E+02  0.28701733287E+02  0.00000000000E+00 0. -1.
          2    1    1    2  501    0 -0.49415798079E+02 -0.15548733090E+02  0.57043848508E+03  0.57278595432E+03  0.25500000000E-02 0. -1.
<mgrwt>
<rscale>  0 0.33915590E+02</rscale>
<asrwt>0</asrwt>
<pdfrwt beam="1">  1       11 0.10000000E+01 0.56047236E+02</pdfrwt>
<pdfrwt beam="2">  1        2 0.12762951E-02 0.33915590E+02</pdfrwt>
<totfact> 0.92697490E+03</totfact>
</mgrwt>
</event>
<event>
 5    1  0.9955701E-004  0.4986229E+02  0.7818608E-02  0.1594443E+00
         11   -1    0    0    0    0  0.00000000000E+00  0.00000000000E+00  0.10000671088E+04  0.10000671088E+04  0.51100000000E-03 0. -1.
          2   -1    0    0  501    0 -0.00000000000E+00 -0.00000000000E+00 -0.53878117990E+01  0.53878124025E+01  0.25500000000E-02 0. -1.
         11    1    1    2    0    0 -0.18202975158E+02 -0.49262087865E+02  0.29677494194E+03  0.30138591170E+03  0.51100000000E-03 0. -1.
         22    1    1    2    0    0 -0.14325097145E+02  0.11630399935E+02  0.37497917015E+02  0.41791965631E+02  0.00000000000E+00 0.  1.
          2    1    1    2  501    0  0.32528072304E+02  0.37631687930E+02  0.66040643808E+03  0.66227704391E+03  0.25500000000E-02 0. -1.
<mgrwt>
<rscale>  0 0.30332429E+02</rscale>
<asrwt>0</asrwt>
<pdfrwt beam="1">  1       11 0.10000000E+01 0.49862290E+02</pdfrwt>
<pdfrwt beam="2">  1        2 0.82894977E-03 0.30332429E+02</pdfrwt>
<totfact> 0.16014698E+04</totfact>
</mgrwt>
</event>
<event>
 5    1  0.9955701E-004  0.4299272E+02  0.7818608E-02  0.1649573E+00
         11   -1    0    0    0    0  0.00000000000E+00  0.00000000000E+00  0.10002836520E+04  0.10002836520E+04  0.51100000000E-03 0. -1.
          2   -1    0    0  501    0 -0.00000000000E+00 -0.00000000000E+00 -0.19770806439E+02  0.19770806603E+02  0.25500000000E-02 0. -1.
         11    1    1    2    0    0  0.23162704789E+02  0.32957516210E+02  0.23588311927E+03  0.23929804580E+03  0.51100000000E-03 0. -1.
         22    1    1    2    0    0 -0.11606404725E+02  0.10273205501E+02 -0.13952947781E+02  0.20855026581E+02  0.00000000000E+00 0. -1.
          2    1    1    2  501    0 -0.11556300064E+02 -0.43230721711E+02  0.75858267405E+03  0.75990138619E+03  0.25500000000E-02 0. -1.
<mgrwt>
<rscale>  0 0.25814399E+02</rscale>
<asrwt>0</asrwt>
<pdfrwt beam="1">  1       11 0.10000000E+01 0.42992719E+02</pdfrwt>
<pdfrwt beam="2">  1        2 0.30425252E-02 0.25814399E+02</pdfrwt>
<totfact> 0.28720864E+03</totfact>
</mgrwt>
</event>
<event>
 5    1  0.9955701E-004  0.2169359E+03  0.7818608E-02  0.1380663E+00
         11   -1    0    0    0    0  0.00000000000E+00  0.00000000000E+00  0.10001921391E+04  0.10001921391E+04  0.51100000000E-03 0. -1.
         -2   -1    0    0    0  501 -0.00000000000E+00 -0.00000000000E+00 -0.69349316965E+02  0.69349317012E+02  0.25500000000E-02 0.  1.
         11    1    1    2    0    0  0.21864244174E+03  0.39382824892E+02  0.68415454766E+03  0.71932118647E+03  0.51100000000E-03 0. -1.
         22    1    1    2    0    0 -0.14052021606E+02 -0.12866300786E+02 -0.95031347493E+01  0.21291091498E+02  0.00000000000E+00 0. -1.
         -2    1    1    2    0  501 -0.20459042013E+03 -0.26516524106E+02  0.25619140920E+03  0.32892917811E+03  0.25500000000E-02 0.  1.
<mgrwt>
<rscale>  0 0.64289892E+02</rscale>
<asrwt>0</asrwt>
<pdfrwt beam="1">  1       11 0.10000000E+01 0.21693593E+03</pdfrwt>
<pdfrwt beam="2">  1       -2 0.10671175E-01 0.64289892E+02</pdfrwt>
<totfact> 0.43886147E+02</totfact>
</mgrwt>
</event>
<event>
 5    1  0.9955701E-004  0.1800937E+03  0.7818608E-02  0.1204587E+00
         11   -1    0    0    0    0  0.00000000000E+00  0.00000000000E+00  0.99992470845E+03  0.99992470845E+03  0.51100000000E-03 0. -1.
          2   -1    0    0  501    0 -0.00000000000E+00 -0.00000000000E+00 -0.26786169508E+03  0.26786169510E+03  0.25500000000E-02 0. -1.
         11    1    1    2    0    0 -0.16560828553E+03  0.80239527208E+02  0.90822855265E+03  0.92668419098E+03  0.51100000000E-03 0. -1.
         22    1    1    2    0    0  0.97105175978E+02  0.69645854612E+02 -0.11344724655E+03  0.16477329279E+03  0.00000000000E+00 0. -1.
          2    1    1    2  501    0  0.68503109555E+02 -0.14988538182E+03 -0.62718292732E+02  0.17632891978E+03  0.25500000000E-02 0. -1.
<mgrwt>
<rscale>  0 0.14670029E+03</rscale>
<asrwt>0</asrwt>
<pdfrwt beam="1">  1       11 0.10000000E+01 0.18009367E+03</pdfrwt>
<pdfrwt beam="2">  1        2 0.41206388E-01 0.14670029E+03</pdfrwt>
<totfact> 0.15282665E+02</totfact>
</mgrwt>
</event>
<event>
 5    1  0.9955701E-004  0.2891659E+02  0.7818608E-02  0.1809878E+00
         11   -1    0    0    0    0  0.00000000000E+00  0.00000000000E+00  0.10004556177E+04  0.10004556177E+04  0.51100000000E-03 0.  1.
          2   -1    0    0  501    0 -0.00000000000E+00 -0.00000000000E+00 -0.31348438895E+01  0.31348449267E+01  0.25500000000E-02 0.  1.
         11    1    1    2    0    0 -0.19458582972E+02  0.45018004932E+01  0.37955599391E+02  0.42889744513E+02  0.51100000000E-03 0.  1.
         22    1    1    2    0    0 -0.10102741135E+02 -0.57127776292E+00  0.60453441301E+02  0.61294455719E+02  0.00000000000E+00 0.  1.
          2    1    1    2  501    0  0.29561324107E+02 -0.39305227302E+01  0.89891173315E+03  0.89940626243E+03  0.25500000000E-02 0.  1.
<mgrwt>
<rscale>  0 0.17105652E+02</rscale>
<asrwt>0</asrwt>
<pdfrwt beam="1">  1       11 0.10000000E+01 0.28916586E+02</pdfrwt>
<pdfrwt beam="2">  1        2 0.48250348E-03 0.17105652E+02</pdfrwt>
<totfact> 0.28148999E+04</totfact>
</mgrwt>
</event>
<event>
 5    1  0.9955701E-004  0.2938037E+03  0.7818608E-02  0.1211356E+00
         11   -1    0    0    0    0  0.00000000000E+00  0.00000000000E+00  0.10003859162E+04  0.10003859162E+04  0.51100000000E-03 0.  1.
          2   -1    0    0  501    0 -0.00000000000E+00 -0.00000000000E+00 -0.47438447622E+03  0.47438447622E+03  0.25500000000E-02 0.  1.
         11    1    1    2    0    0  0.27806505949E+03 -0.88444907213E+02  0.81507201423E+03  0.86572805621E+03  0.51100000000E-03 0.  1.
         22    1    1    2    0    0  0.32990145228E+02  0.59605450466E+02 -0.28872438371E+03  0.29665287654E+03  0.00000000000E+00 0.  1.
          2    1    1    2  501    0 -0.31105520471E+03  0.28839456746E+02 -0.34619056757E+00  0.31238945965E+03  0.25500000000E-02 0.  1.
<mgrwt>
<rscale>  0 0.14147681E+03</rscale>
<asrwt>0</asrwt>
<pdfrwt beam="1">  1       11 0.10000000E+01 0.29380370E+03</pdfrwt>
<pdfrwt beam="2">  1        2 0.73010390E-01 0.14147681E+03</pdfrwt>
<totfact> 0.82929303E+01</totfact>
</mgrwt>
</event>
<event>
 5    1  0.9955701E-004  0.1721019E+03  0.7818608E-02  0.1401366E+00
         11   -1    0    0    0    0  0.00000000000E+00  0.00000000000E+00  0.99989328421E+03  0.99989328421E+03  0.51100000000E-03 0. -1.
          2   -1    0    0  501    0 -0.00000000000E+00 -0.00000000000E+00 -0.13380289320E+03  0.13380289322E+03  0.25500000000E-02 0. -1.
         11    1    1    2    0    0 -0.10193313622E+03 -0.13907698307E+03  0.91827715068E+03  0.93432633321E+03  0.51100000000E-03 0. -1.
         22    1    1    2    0    0 -0.13208940260E+02  0.15467779442E+02 -0.17685728586E+02  0.26953910649E+02  0.00000000000E+00 0.  1.
          2    1    1    2  501    0  0.11514207648E+03  0.12360920362E+03 -0.34501031078E+02  0.17241593357E+03  0.25500000000E-02 0. -1.
<mgrwt>
<rscale>  0 0.59165919E+02</rscale>
<asrwt>0</asrwt>
<pdfrwt beam="1">  1       11 0.10000000E+01 0.17210188E+03</pdfrwt>
<pdfrwt beam="2">  1        2 0.20582863E-01 0.59165919E+02</pdfrwt>
<totfact> 0.31550057E+02</totfact>
</mgrwt>
</event>
<event>
 5    1  0.9955701E-004  0.6190352E+02  0.7818608E-02  0.1404728E+00
         11   -1    0    0    0    0  0.00000000000E+00  0.00000000000E+00  0.99985544293E+03  0.99985544293E+03  0.51100000000E-03 0.  1.
          2   -1    0    0  501    0 -0.00000000000E+00 -0.00000000000E+00 -0.64549542572E+01  0.64549547609E+01  0.25500000000E-02 0.  1.
         11    1    1    2    0    0  0.45556625705E+02 -0.20925770155E+02  0.14224264777E+03  0.15081864887E+03  0.51100000000E-03 0.  1.
         22    1    1    2    0    0  0.10601562429E+02  0.49472699903E+01  0.29108945234E+02  0.31371950831E+02  0.00000000000E+00 0.  1.
          2    1    1    2  501    0 -0.56158188134E+02  0.15978500165E+02  0.82204889567E+03  0.82411979799E+03  0.25500000000E-02 0.  1.
<mgrwt>
<rscale>  0 0.58387110E+02</rscale>
<asrwt>0</asrwt>
<pdfrwt beam="1">  1       11 0.10000000E+01 0.61903523E+02</pdfrwt>
<pdfrwt beam="2">  1        2 0.99292634E-03 0.58387110E+02</pdfrwt>
<totfact> 0.14315187E+04</totfact>
</mgrwt>
</event>
<event>
 5    1  0.9955701E-004  0.4658352E+02  0.7818608E-02  0.1636880E+00
         11   -1    0    0    0    0  0.00000000000E+00  0.00000000000E+00  0.99998075797E+03  0.99998075797E+03  0.51100000000E-03 0. -1.
          2   -1    0    0  501    0 -0.00000000000E+00 -0.00000000000E+00 -0.26732970728E+02  0.26732970850E+02  0.25500000000E-02 0. -1.
         11    1    1    2    0    0  0.38253260513E+02 -0.42619477501E+02  0.30511741619E+03  0.31044543718E+03  0.51100000000E-03 0. -1.
         22    1    1    2    0    0 -0.43139112773E+01  0.14759901838E+02 -0.20840495471E+02  0.25899629036E+02  0.00000000000E+00 0. -1.
          2    1    1    2  501    0 -0.33939349236E+02  0.27859575664E+02  0.68897086652E+03  0.69036866260E+03  0.25500000000E-02 0. -1.
<mgrwt>
<rscale>  0 0.26764402E+02</rscale>
<asrwt>0</asrwt>
<pdfrwt beam="1">  1       11 0.10000000E+01 0.46583521E+02</pdfrwt>
<pdfrwt beam="2">  1        2 0.41126855E-02 0.26764402E+02</pdfrwt>
<totfact> 0.19766563E+03</totfact>
</mgrwt>
</event>
<event>
 5    1  0.9955701E-004  0.4041162E+02  0.7818608E-02  0.1635801E+00
         11   -1    0    0    0    0  0.00000000000E+00  0.00000000000E+00  0.10001697994E+04  0.10001697994E+04  0.51100000000E-03 0. -1.
         -2   -1    0    0    0  501 -0.00000000000E+00 -0.00000000000E+00 -0.10542682857E+02  0.10542683165E+02  0.25500000000E-02 0. -1.
         11    1    1    2    0    0  0.31955407852E+02  0.33226775039E+02  0.19272983255E+03  0.19816648310E+03  0.51100000000E-03 0. -1.
         22    1    1    2    0    0  0.45972968426E+01 -0.17233519123E+02  0.35375047038E+01  0.18183598630E+02  0.00000000000E+00 0.  1.
         -2    1    1    2    0  501 -0.36552704695E+02 -0.15993255916E+02  0.79335977933E+03  0.79436240087E+03  0.25500000000E-02 0. -1.
<mgrwt>
<rscale>  0 0.26847506E+02</rscale>
<asrwt>0</asrwt>
<pdfrwt beam="1">  1       11 0.10000000E+01 0.40411619E+02</pdfrwt>
<pdfrwt beam="2">  1       -2 0.16222266E-02 0.26847506E+02</pdfrwt>
<totfact> 0.59598476E+03</totfact>
</mgrwt>
</event>
<event>
 5    1  0.9955701E-004  0.7945821E+02  0.7818608E-02  0.1358098E+00
         11   -1    0    0    0    0  0.00000000000E+00  0.00000000000E+00  0.10003092741E+04  0.10003092741E+04  0.51100000000E-03 0.  1.
          2   -1    0    0  501    0 -0.00000000000E+00 -0.00000000000E+00 -0.16934472341E+02  0.16934472533E+02  0.25500000000E-02 0.  1.
         11    1    1    2    0    0 -0.12143190483E+02  0.81951933710E+02  0.23523806386E+03  0.24940032719E+03  0.51100000000E-03 0.  1.
         22    1    1    2    0    0  0.75455588710E+02 -0.50735043534E+02  0.27944776866E+03  0.29386841600E+03  0.00000000000E+00 0.  1.
          2    1    1    2  501    0 -0.63312398227E+02 -0.31216890176E+02  0.46868896923E+03  0.47397500344E+03  0.25500000000E-02 0.  1.
<mgrwt>
<rscale>  0 0.70590042E+02</rscale>
<asrwt>0</asrwt>
<pdfrwt beam="1">  1       11 0.10000000E+01 0.79458210E+02</pdfrwt>
<pdfrwt beam="2">  1        2 0.26061091E-02 0.70590042E+02</pdfrwt>
<totfact> 0.40423695E+03</totfact>
</mgrwt>
</event>
<event>
 5    1  0.9955701E-004  0.2744217E+03  0.7818608E-02  0.1236952E+00
         11   -1    0    0    0    0  0.00000000000E+00  0.00000000000E+00  0.10002024868E+04  0.10002024868E+04  0.51100000000E-03 0. -1.
          2   -1    0    0  501    0 -0.00000000000E+00 -0.00000000000E+00 -0.22113712598E+03  0.22113712599E+03  0.25500000000E-02 0. -1.
         11    1    1    2    0    0  0.25920987787E+03  0.49883829438E+02  0.65114255901E+03  0.70261283036E+03  0.51100000000E-03 0. -1.
         22    1    1    2    0    0  0.46487956975E+02 -0.30958046829E+02 -0.11497237901E+03  0.12782088539E+03  0.00000000000E+00 0. -1.
          2    1    1    2  501    0 -0.30569783485E+03 -0.18925782610E+02  0.24289518086E+03  0.39090589708E+03  0.25500000000E-02 0. -1.
<mgrwt>
<rscale>  0 0.12380312E+03</rscale>
<asrwt>0</asrwt>
<pdfrwt beam="1">  1       11 0.10000000E+01 0.27442173E+03</pdfrwt>
<pdfrwt beam="2">  1        2 0.34027984E-01 0.12380312E+03</pdfrwt>
<totfact> 0.18706753E+02</totfact>
</mgrwt>
</event>
<event>
 5    1  0.9955701E-004  0.6913695E+02  0.7818608E-02  0.1584866E+00
         11   -1    0    0    0    0  0.00000000000E+00  0.00000000000E+00  0.10000083336E+04  0.10000083336E+04  0.51100000000E-03 0. -1.
         -2   -1    0    0    0  501 -0.00000000000E+00 -0.00000000000E+00 -0.73083027032E+01  0.73083031480E+01  0.25500000000E-02 0. -1.
         11    1    1    2    0    0  0.42071807334E+02 -0.56999486058E+02  0.42134005392E+03  0.42725451363E+03  0.51100000000E-03 0. -1.
         22    1    1    2    0    0 -0.13156307716E+02 -0.50937085232E+01  0.20065088446E+02  0.24528393212E+02  0.00000000000E+00 0.  1.
         -2    1    1    2    0  501 -0.28915499618E+02  0.62093194582E+02  0.55129488854E+03  0.55553372991E+03  0.25500000000E-02 0. -1.
<mgrwt>
<rscale>  0 0.31231079E+02</rscale>
<asrwt>0</asrwt>
<pdfrwt beam="1">  1       11 0.10000000E+01 0.69136951E+02</pdfrwt>
<pdfrwt beam="2">  1       -2 0.11243636E-02 0.31231079E+02</pdfrwt>
<totfact> 0.10160041E+04</totfact>
</mgrwt>
</event>
<event>
 5    1  0.9955701E-004  0.2123154E+03  0.7818608E-02  0.1299747E+00
         11   -1    0    0    0    0  0.00000000000E+00  0.00000000000E+00  0.10001050271E+04  0.10001050271E+04  0.51100000000E-03 0.  1.
          2   -1    0    0  501    0 -0.00000000000E+00 -0.00000000000E+00 -0.40281614875E+03  0.40281614876E+03  0.25500000000E-02 0.  1.
         11    1    1    2    0    0 -0.20668993918E+03 -0.44253694991E+02  0.93828414413E+03  0.96179844853E+03  0.51100000000E-03 0.  1.
         22    1    1    2    0    0 -0.20825656340E+02 -0.33276786560E+02 -0.54186589286E+02  0.66912173363E+02  0.00000000000E+00 0.  1.
          2    1    1    2  501    0  0.22751559552E+03  0.77530481551E+02 -0.28680867650E+03  0.37421055396E+03  0.25500000000E-02 0.  1.
<mgrwt>
<rscale>  0 0.91294606E+02</rscale>
<asrwt>0</asrwt>
<pdfrwt beam="1">  1       11 0.10000000E+01 0.21231541E+03</pdfrwt>
<pdfrwt beam="2">  1        2 0.61978222E-01 0.91294606E+02</pdfrwt>
<totfact> 0.99220005E+01</totfact>
</mgrwt>
</event>
<event>
 5    1  0.9955701E-004  0.6487272E+02  0.7818608E-02  0.1395269E+00
         11   -1    0    0    0    0  0.00000000000E+00  0.00000000000E+00  0.10002785314E+04  0.10002785314E+04  0.51100000000E-03 0.  1.
         -2   -1    0    0    0  501 -0.00000000000E+00 -0.00000000000E+00 -0.68544789421E+01  0.68544794164E+01  0.25500000000E-02 0.  1.
         11    1    1    2    0    0  0.10366042281E+02 -0.30397023496E+02  0.11913828953E+03  0.12339110950E+03  0.51100000000E-03 0.  1.
         22    1    1    2    0    0 -0.32709422191E+01 -0.29801159989E+02  0.58756622124E+02  0.65963238573E+02  0.00000000000E+00 0.  1.
         -2    1    1    2    0  501 -0.70951000618E+01  0.60198183484E+02  0.81552914082E+03  0.81777866276E+03  0.25500000000E-02 0.  1.
<mgrwt>
<rscale>  0 0.60614864E+02</rscale>
<asrwt>0</asrwt>
<pdfrwt beam="1">  1       11 0.10000000E+01 0.64872718E+02</pdfrwt>
<pdfrwt beam="2">  1       -2 0.10548289E-02 0.60614864E+02</pdfrwt>
<totfact> 0.12598767E+04</totfact>
</mgrwt>
</event>
<event>
 5    1  0.9955701E-004  0.1643145E+03  0.7818608E-02  0.1241375E+00
         11   -1    0    0    0    0  0.00000000000E+00  0.00000000000E+00  0.10002554548E+04  0.10002554548E+04  0.51100000000E-03 0.  1.
          2   -1    0    0  501    0 -0.00000000000E+00 -0.00000000000E+00 -0.11188539761E+03  0.11188539764E+03  0.25500000000E-02 0.  1.
         11    1    1    2    0    0  0.49760787271E+02  0.16436441351E+03  0.88336332201E+03  0.89990141407E+03  0.51100000000E-03 0.  1.
         22    1    1    2    0    0 -0.77094290983E+02 -0.44821321604E+02  0.83411738007E+01  0.89565929644E+02  0.00000000000E+00 0.  1.
          2    1    1    2  501    0  0.27333503712E+02 -0.11954309190E+03 -0.33344386549E+01  0.12267350869E+03  0.25500000000E-02 0.  1.
<mgrwt>
<rscale>  0 0.12104965E+03</rscale>
<asrwt>0</asrwt>
<pdfrwt beam="1">  1       11 0.10000000E+01 0.16431446E+03</pdfrwt>
<pdfrwt beam="2">  1        2 0.17217535E-01 0.12104965E+03</pdfrwt>
<totfact> 0.39684608E+02</totfact>
</mgrwt>
</event>
<event>
 5    1  0.9955701E-004  0.1129066E+03  0.7818608E-02  0.1326221E+00
         11   -1    0    0    0    0  0.00000000000E+00  0.00000000000E+00  0.10006211356E+04  0.10006211356E+04  0.51100000000E-03 0. -1.
          2   -1    0    0  501    0 -0.00000000000E+00 -0.00000000000E+00 -0.28453681526E+02  0.28453681640E+02  0.25500000000E-02 0. -1.
         11    1    1    2    0    0 -0.76687162621E+02 -0.92454713092E+02  0.70283787344E+03  0.71302866087E+03  0.51100000000E-03 0. -1.
         22    1    1    2    0    0 -0.20623107157E+02  0.54336427775E+02  0.70015054211E+02  0.90993778624E+02  0.00000000000E+00 0. -1.
          2    1    1    2  501    0  0.97310269778E+02  0.38118285318E+02  0.19931452645E+03  0.22505237777E+03  0.25500000000E-02 0. -1.
<mgrwt>
<rscale>  0 0.81005923E+02</rscale>
<asrwt>0</asrwt>
<pdfrwt beam="1">  1       11 0.10000000E+01 0.11290656E+03</pdfrwt>
<pdfrwt beam="2">  1        2 0.43802084E-02 0.81005923E+02</pdfrwt>
<totfact> 0.20775382E+03</totfact>
</mgrwt>
</event>
<event>
 5    1  0.9955701E-004  0.1640409E+03  0.7818608E-02  0.1295758E+00
         11   -1    0    0    0    0  0.00000000000E+00  0.00000000000E+00  0.10002650561E+04  0.10002650561E+04  0.51100000000E-03 0.  1.
         -2   -1    0    0    0  501 -0.00000000000E+00 -0.00000000000E+00 -0.12261212819E+03  0.12261212822E+03  0.25500000000E-02 0. -1.
         11    1    1    2    0    0  0.16728004146E+02 -0.16561451307E+03  0.89876731851E+03  0.91405179606E+03  0.51100000000E-03 0.  1.
         22    1    1    2    0    0  0.43452962847E+02  0.29850700356E+02 -0.28894107696E+02  0.60117333203E+02  0.00000000000E+00 0. -1.
         -2    1    1    2    0  501 -0.60180966993E+02  0.13576381272E+03  0.77797170832E+01  0.14870805505E+03  0.25500000000E-02 0. -1.
<mgrwt>
<rscale>  0 0.92994438E+02</rscale>
<asrwt>0</asrwt>
<pdfrwt beam="1">  1       11 0.10000000E+01 0.16404090E+03</pdfrwt>
<pdfrwt beam="2">  1       -2 0.18868404E-01 0.92994438E+02</pdfrwt>
<totfact> 0.17977182E+02</totfact>
</mgrwt>
</event>
<event>
 5    1  0.9955701E-004  0.5561086E+03  0.7818608E-02  0.1343859E+00
         11   -1    0    0    0    0  0.00000000000E+00  0.00000000000E+00  0.10004750921E+04  0.10004750921E+04  0.51100000000E-03 0. -1.
          2   -1    0    0  501    0 -0.00000000000E+00 -0.00000000000E+00 -0.64513270347E+03  0.64513270348E+03  0.25500000000E-02 0. -1.
         11    1    1    2    0    0 -0.15002914509E+03 -0.53394947827E+03  0.75740116072E+03  0.93875838637E+03  0.51100000000E-03 0. -1.
         22    1    1    2    0    0 -0.35189406237E+01 -0.94841663511E+01 -0.27269445004E+02  0.29085305316E+02  0.00000000000E+00 0. -1.
          2    1    1    2  501    0  0.15354808572E+03  0.54343364462E+03 -0.37478932713E+03  0.67776410385E+03  0.25500000000E-02 0. -1.
<mgrwt>
<rscale>  0 0.75003764E+02</rscale>
<asrwt>0</asrwt>
<pdfrwt beam="1">  1       11 0.10000000E+01 0.55610862E+03</pdfrwt>
<pdfrwt beam="2">  1        2 0.99298336E-01 0.75003764E+02</pdfrwt>
<totfact> 0.59707546E+01</totfact>
</mgrwt>
</event>
<event>
 5    1  0.9955701E-004  0.1320013E+03  0.7818608E-02  0.1229394E+00
         11   -1    0    0    0    0  0.00000000000E+00  0.00000000000E+00  0.10001780549E+04  0.10001780549E+04  0.51100000000E-03 0.  1.
         -2   -1    0    0    0  501 -0.00000000000E+00 -0.00000000000E+00 -0.19859017534E+02  0.19859017698E+02  0.25500000000E-02 0. -1.
         11    1    1    2    0    0  0.38560142923E+02  0.92469042241E+02  0.59079599343E+03  0.59923060190E+03  0.51100000000E-03 0.  1.
         22    1    1    2    0    0  0.14220027501E+02  0.24913301053E+02  0.98556353328E+02  0.10264617154E+03  0.00000000000E+00 0.  1.
         -2    1    1    2    0  501 -0.52780170424E+02 -0.11738234329E+03  0.29096669056E+03  0.31816029911E+03  0.25500000000E-02 0. -1.
<mgrwt>
<rscale>  0 0.12870261E+03</rscale>
<asrwt>0</asrwt>
<pdfrwt beam="1">  1       11 0.10000000E+01 0.13200131E+03</pdfrwt>
<pdfrwt beam="2">  1       -2 0.30557774E-02 0.12870261E+03</pdfrwt>
<totfact> 0.30519569E+03</totfact>
</mgrwt>
</event>
<event>
 5    1  0.9955701E-004  0.1832867E+03  0.7818608E-02  0.1278162E+00
         11   -1    0    0    0    0  0.00000000000E+00  0.00000000000E+00  0.10008331946E+04  0.10008331946E+04  0.51100000000E-03 0.  1.
          2   -1    0    0  501    0 -0.00000000000E+00 -0.00000000000E+00 -0.19165153530E+04  0.19165153530E+04  0.25500000000E-02 0. -1.
         11    1    1    2    0    0 -0.12844332373E+03  0.13047904386E+03  0.98035335861E+03  0.99730395368E+03  0.51100000000E-03 0.  1.
         22    1    1    2    0    0 -0.85652313717E+00  0.55673481606E+02 -0.16293259205E+03  0.17218391254E+03  0.00000000000E+00 0.  1.
          2    1    1    2  501    0  0.12929984687E+03 -0.18615252547E+03 -0.17331029249E+04  0.17478606813E+04  0.25500000000E-02 0. -1.
<mgrwt>
<rscale>  0 0.10102186E+03</rscale>
<asrwt>0</asrwt>
<pdfrwt beam="1">  1       11 0.10000000E+01 0.18328669E+03</pdfrwt>
<pdfrwt beam="2">  1        2 0.29509417E+00 0.10102186E+03</pdfrwt>
<totfact> 0.11338755E+01</totfact>
</mgrwt>
</event>
<event>
 5    1  0.9955701E-004  0.2300151E+03  0.7818608E-02  0.1323826E+00
         11   -1    0    0    0    0  0.00000000000E+00  0.00000000000E+00  0.99996525747E+03  0.99996525747E+03  0.51100000000E-03 0. -1.
          2   -1    0    0  501    0 -0.00000000000E+00 -0.00000000000E+00 -0.77139469446E+02  0.77139469488E+02  0.25500000000E-02 0. -1.
         11    1    1    2    0    0 -0.22636710441E+03 -0.75050092400E+02  0.61526915079E+03  0.65987173772E+03  0.51100000000E-03 0. -1.
         22    1    1    2    0    0  0.14320992766E+02  0.25378570120E+02 -0.11167707048E+02  0.31207055866E+02  0.00000000000E+00 0. -1.
          2    1    1    2  501    0  0.21204611165E+03  0.49671522280E+02  0.31872434428E+03  0.38602593336E+03  0.25500000000E-02 0. -1.
<mgrwt>
<rscale>  0 0.81870208E+02</rscale>
<asrwt>0</asrwt>
<pdfrwt beam="1">  1       11 0.10000000E+01 0.23001510E+03</pdfrwt>
<pdfrwt beam="2">  1        2 0.11867198E-01 0.81870208E+02</pdfrwt>
<totfact> 0.60103893E+02</totfact>
</mgrwt>
</event>
<event>
 5    1  0.9955701E-004  0.3013287E+03  0.7818608E-02  0.1271448E+00
         11   -1    0    0    0    0  0.00000000000E+00  0.00000000000E+00  0.10001670135E+04  0.10001670135E+04  0.51100000000E-03 0. -1.
          2   -1    0    0  501    0 -0.00000000000E+00 -0.00000000000E+00 -0.23796927201E+03  0.23796927202E+03  0.25500000000E-02 0. -1.
         11    1    1    2    0    0 -0.28850813896E+03  0.34607072979E+02  0.59740574839E+03  0.66432539012E+03  0.51100000000E-03 0. -1.
         22    1    1    2    0    0 -0.31956531409E+02  0.16838709984E+02 -0.13026070566E+03  0.13517623124E+03  0.00000000000E+00 0. -1.
          2    1    1    2  501    0  0.32046467037E+03 -0.51445782963E+02  0.29505269871E+03  0.43863466411E+03  0.25500000000E-02 0. -1.
<mgrwt>
<rscale>  0 0.10432852E+03</rscale>
<asrwt>0</asrwt>
<pdfrwt beam="1">  1       11 0.10000000E+01 0.30132868E+03</pdfrwt>
<pdfrwt beam="2">  1        2 0.36616771E-01 0.10432852E+03</pdfrwt>
<totfact> 0.17257262E+02</totfact>
</mgrwt>
</event>
<event>
 5    1  0.9955701E-004  0.1432207E+03  0.7818608E-02  0.1456791E+00
         11   -1    0    0    0    0  0.00000000000E+00  0.00000000000E+00  0.99997507162E+03  0.99997507162E+03  0.51100000000E-03 0. -1.
          2   -1    0    0  501    0 -0.00000000000E+00 -0.00000000000E+00 -0.41828039271E+02  0.41828039349E+02  0.25500000000E-02 0. -1.
         11    1    1    2    0    0 -0.74927869098E+02 -0.11922511850E+03  0.75082043897E+03  0.76391108515E+03  0.51100000000E-03 0. -1.
         22    1    1    2    0    0 -0.15640550153E+02 -0.35825273933E+01 -0.46496681222E+01  0.16705709361E+02  0.00000000000E+00 0. -1.
          2    1    1    2  501    0  0.90568419251E+02  0.12280764589E+03  0.21197626150E+03  0.26118631645E+03  0.25500000000E-02 0. -1.
<mgrwt>
<rscale>  0 0.47938105E+02</rscale>
<asrwt>0</asrwt>
<pdfrwt beam="1">  1       11 0.10000000E+01 0.14322068E+03</pdfrwt>
<pdfrwt beam="2">  1        2 0.64349224E-02 0.47938105E+02</pdfrwt>
<totfact> 0.12120932E+03</totfact>
</mgrwt>
</event>
<event>
 5    1  0.9955701E-004  0.4235406E+02  0.7818608E-02  0.1689126E+00
         11   -1    0    0    0    0  0.00000000000E+00  0.00000000000E+00  0.10001538795E+04  0.10001538795E+04  0.51100000000E-03 0. -1.
          2   -1    0    0  501    0 -0.00000000000E+00 -0.00000000000E+00 -0.67691376368E+01  0.67691381171E+01  0.25500000000E-02 0. -1.
         11    1    1    2    0    0  0.33679400301E+02  0.67147338543E+01  0.85941558459E+02  0.92549128175E+02  0.51100000000E-03 0. -1.
         22    1    1    2    0    0  0.10075662779E+02 -0.76503215104E+01  0.10716340055E+02  0.16579696735E+02  0.00000000000E+00 0.  1.
          2    1    1    2  501    0 -0.43755063079E+02  0.93558765608E+00  0.89672684335E+03  0.89779419271E+03  0.25500000000E-02 0. -1.
<mgrwt>
<rscale>  0 0.23147755E+02</rscale>
<asrwt>0</asrwt>
<pdfrwt beam="1">  1       11 0.10000000E+01 0.42354058E+02</pdfrwt>
<pdfrwt beam="2">  1        2 0.10415660E-02 0.23147755E+02</pdfrwt>
<totfact> 0.11181845E+04</totfact>
</mgrwt>
</event>
<event>
 5    1  0.9955701E-004  0.1117572E+03  0.7818608E-02  0.1500966E+00
         11   -1    0    0    0    0  0.00000000000E+00  0.00000000000E+00  0.10002491106E+04  0.10002491106E+04  0.51100000000E-03 0.  1.
          2   -1    0    0  501    0 -0.00000000000E+00 -0.00000000000E+00 -0.20432112091E+02  0.20432112250E+02  0.25500000000E-02 0.  1.
         11    1    1    2    0    0  0.29657957982E+02 -0.10331811209E+03  0.46103574871E+03  0.47340066365E+03  0.51100000000E-03 0.  1.
         22    1    1    2    0    0  0.14318998589E+02 -0.46101110138E+01 -0.53038358902E+00  0.15052180935E+02  0.00000000000E+00 0. -1.
          2    1    1    2  501    0 -0.43976956571E+02  0.10792822310E+03  0.51931163336E+03  0.53222837823E+03  0.25500000000E-02 0.  1.
<mgrwt>
<rscale>  0 0.41001767E+02</rscale>
<asrwt>0</asrwt>
<pdfrwt beam="1">  1       11 0.10000000E+01 0.11175719E+03</pdfrwt>
<pdfrwt beam="2">  1        2 0.31441848E-02 0.41001767E+02</pdfrwt>
<totfact> 0.29461235E+03</totfact>
</mgrwt>
</event>
<event>
 5    1  0.9955701E-004  0.9311356E+02  0.7818608E-02  0.1463266E+00
         11   -1    0    0    0    0  0.00000000000E+00  0.00000000000E+00  0.10002214438E+04  0.10002214438E+04  0.51100000000E-03 0.  1.
          2   -1    0    0  501    0 -0.00000000000E+00 -0.00000000000E+00 -0.15607240273E+02  0.15607240481E+02  0.25500000000E-02 0.  1.
         11    1    1    2    0    0  0.25764194329E+02 -0.80431768557E+02  0.46447365610E+03  0.47208986466E+03  0.51100000000E-03 0.  1.
         22    1    1    2    0    0 -0.39570398486E+01 -0.23211458108E+02  0.15702528987E+02  0.28301932238E+02  0.00000000000E+00 0.  1.
          2    1    1    2  501    0 -0.21807154481E+02  0.10364322667E+03  0.50443801840E+03  0.51543688734E+03  0.25500000000E-02 0.  1.
<mgrwt>
<rscale>  0 0.46823959E+02</rscale>
<asrwt>0</asrwt>
<pdfrwt beam="1">  1       11 0.10000000E+01 0.93113559E+02</pdfrwt>
<pdfrwt beam="2">  1        2 0.24016455E-02 0.46823959E+02</pdfrwt>
<totfact> 0.42594734E+03</totfact>
</mgrwt>
</event>
<event>
 5    1  0.9955701E-004  0.8001663E+02  0.7818608E-02  0.1373499E+00
         11   -1    0    0    0    0  0.00000000000E+00  0.00000000000E+00  0.10002207754E+04  0.10002207754E+04  0.51100000000E-03 0. -1.
         -2   -1    0    0    0  501 -0.00000000000E+00 -0.00000000000E+00 -0.13085784858E+02  0.13085785106E+02  0.25500000000E-02 0. -1.
         11    1    1    2    0    0  0.75005986613E+02  0.10870543157E+02  0.38848791103E+03  0.39581172766E+03  0.51100000000E-03 0. -1.
         22    1    1    2    0    0 -0.39859735854E+01  0.54630396033E+02  0.21333001268E+03  0.22024999992E+03  0.00000000000E+00 0.  1.
         -2    1    1    2    0  501 -0.71020013028E+02 -0.65500939190E+02  0.38531706681E+03  0.39724483290E+03  0.25500000000E-02 0. -1.
<mgrwt>
<rscale>  0 0.66203931E+02</rscale>
<asrwt>0</asrwt>
<pdfrwt beam="1">  1       11 0.10000000E+01 0.80016634E+02</pdfrwt>
<pdfrwt beam="2">  1       -2 0.20136421E-02 0.66203931E+02</pdfrwt>
<totfact> 0.51315955E+03</totfact>
</mgrwt>
</event>
<event>
 5    1  0.9955701E-004  0.2818345E+03  0.7818608E-02  0.1094691E+00
         11   -1    0    0    0    0  0.00000000000E+00  0.00000000000E+00  0.10002582844E+04  0.10002582844E+04  0.51100000000E-03 0. -1.
          2   -1    0    0  501    0 -0.00000000000E+00 -0.00000000000E+00 -0.23201867421E+03  0.23201867422E+03  0.25500000000E-02 0. -1.
         11    1    1    2    0    0  0.16113920808E+03  0.22858290625E+03  0.88430735113E+03  0.92747802167E+03  0.51100000000E-03 0. -1.
         22    1    1    2    0    0 -0.97275771529E+01 -0.32900287092E+01 -0.26013707329E+01  0.10593260870E+02  0.00000000000E+00 0.  1.
          2    1    1    2  501    0 -0.15141163093E+03 -0.22529287754E+03 -0.11346637022E+03  0.29420567607E+03  0.25500000000E-02 0. -1.
<mgrwt>
<rscale>  0 0.28183448E+03</rscale>
<asrwt>0</asrwt>
<pdfrwt beam="1">  1       11 0.10000000E+01 0.27967122E+03</pdfrwt>
<pdfrwt beam="2">  1        2 0.35704399E-01 0.28183448E+03</pdfrwt>
<totfact> 0.17939126E+02</totfact>
</mgrwt>
</event>
<event>
 5    1  0.9955701E-004  0.1775604E+03  0.7818608E-02  0.1483396E+00
         11   -1    0    0    0    0  0.00000000000E+00  0.00000000000E+00  0.10002014607E+04  0.10002014607E+04  0.51100000000E-03 0.  1.
         -2   -1    0    0    0  501 -0.00000000000E+00 -0.00000000000E+00 -0.41265501102E+02  0.41265501181E+02  0.25500000000E-02 0. -1.
         11    1    1    2    0    0 -0.87164042326E+02 -0.15733256402E+03  0.69818960438E+03  0.72098531860E+03  0.51100000000E-03 0.  1.
         22    1    1    2    0    0  0.10242302999E+02  0.30853569539E+01  0.43786115675E+01  0.11558392514E+02  0.00000000000E+00 0. -1.
         -2    1    1    2    0  501  0.76921739327E+02  0.15424720706E+03  0.25636774361E+03  0.30892325073E+03  0.25500000000E-02 0. -1.
<mgrwt>
<rscale>  0 0.43581538E+02</rscale>
<asrwt>0</asrwt>
<pdfrwt beam="1">  1       11 0.10000000E+01 0.17756042E+03</pdfrwt>
<pdfrwt beam="2">  1       -2 0.63498174E-02 0.43581538E+02</pdfrwt>
<totfact> 0.92761331E+02</totfact>
</mgrwt>
</event>
<event>
 5    1  0.9955701E-004  0.1492596E+03  0.7818608E-02  0.1459708E+00
         11   -1    0    0    0    0  0.00000000000E+00  0.00000000000E+00  0.10002310326E+04  0.10002310326E+04  0.51100000000E-03 0. -1.
         -2   -1    0    0    0  501 -0.00000000000E+00 -0.00000000000E+00 -0.10253653360E+03  0.10253653363E+03  0.25500000000E-02 0. -1.
         11    1    1    2    0    0  0.14613095158E+03  0.38287224427E+02  0.88084364153E+03  0.89370335536E+03  0.51100000000E-03 0. -1.
         22    1    1    2    0    0 -0.11624334111E+02 -0.95950748641E+01 -0.52793635917E+02  0.54903174758E+02  0.00000000000E+00 0. -1.
         -2    1    1    2    0  501 -0.13450661747E+03 -0.28692149563E+02  0.69644493407E+02  0.15416103612E+03  0.25500000000E-02 0. -1.
<mgrwt>
<rscale>  0 0.47431709E+02</rscale>
<asrwt>0</asrwt>
<pdfrwt beam="1">  1       11 0.10000000E+01 0.14925963E+03</pdfrwt>
<pdfrwt beam="2">  1       -2 0.15778495E-01 0.47431709E+02</pdfrwt>
<totfact> 0.23247703E+02</totfact>
</mgrwt>
</event>
<event>
 5    1  0.9955701E-004  0.3023100E+03  0.7818608E-02  0.1325080E+00
         11   -1    0    0    0    0  0.00000000000E+00  0.00000000000E+00  0.10002106116E+04  0.10002106116E+04  0.51100000000E-03 0. -1.
          2   -1    0    0  501    0 -0.00000000000E+00 -0.00000000000E+00 -0.10167054126E+03  0.10167054129E+03  0.25500000000E-02 0. -1.
         11    1    1    2    0    0  0.30650291860E+03 -0.63007696480E+02  0.45689018676E+03  0.55377129908E+03  0.51100000000E-03 0. -1.
         22    1    1    2    0    0 -0.18359028118E+02  0.11988272333E+02  0.50252433068E+01  0.22495014054E+02  0.00000000000E+00 0.  1.
          2    1    1    2  501    0 -0.28814389049E+03  0.51019424146E+02  0.43662464028E+03  0.52561483976E+03  0.25500000000E-02 0. -1.
<mgrwt>
<rscale>  0 0.81416239E+02</rscale>
<asrwt>0</asrwt>
<pdfrwt beam="1">  1       11 0.10000000E+01 0.30230995E+03</pdfrwt>
<pdfrwt beam="2">  1        2 0.15644916E-01 0.81416239E+02</pdfrwt>
<totfact> 0.43537239E+02</totfact>
</mgrwt>
</event>
<event>
 5    1  0.9955701E-004  0.1499624E+03  0.7818608E-02  0.1208890E+00
         11   -1    0    0    0    0  0.00000000000E+00  0.00000000000E+00  0.10001747812E+04  0.10001747812E+04  0.51100000000E-03 0. -1.
          2   -1    0    0  501    0 -0.00000000000E+00 -0.00000000000E+00 -0.26385678773E+02  0.26385678896E+02  0.25500000000E-02 0. -1.
         11    1    1    2    0    0 -0.36760458319E+02  0.11383209517E+03  0.19763859893E+03  0.23101968092E+03  0.51100000000E-03 0. -1.
         22    1    1    2    0    0  0.80351934059E+01  0.26611188741E+02  0.77477767546E+02  0.82313572169E+02  0.00000000000E+00 0. -1.
          2    1    1    2  501    0  0.28725264913E+02 -0.14044328392E+03  0.69867273600E+03  0.71322720705E+03  0.25500000000E-02 0. -1.
<mgrwt>
<rscale>  0 0.14335082E+03</rscale>
<asrwt>0</asrwt>
<pdfrwt beam="1">  1       11 0.10000000E+01 0.14996237E+03</pdfrwt>
<pdfrwt beam="2">  1        2 0.40600446E-02 0.14335082E+03</pdfrwt>
<totfact> 0.24213819E+03</totfact>
</mgrwt>
</event>
<event>
 5    1  0.9955701E-004  0.1172088E+03  0.7818608E-02  0.1493428E+00
         11   -1    0    0    0    0  0.00000000000E+00  0.00000000000E+00  0.99997190564E+03  0.99997190564E+03  0.51100000000E-03 0.  1.
          2   -1    0    0  501    0 -0.00000000000E+00 -0.00000000000E+00 -0.21511802781E+02  0.21511802932E+02  0.25500000000E-02 0.  1.
         11    1    1    2    0    0 -0.10208715027E+03  0.53254862588E+02  0.56618086571E+03  0.57777040365E+03  0.51100000000E-03 0.  1.
         22    1    1    2    0    0 -0.10891930159E+02 -0.10470847835E+02  0.10940550599E+01  0.15148259089E+02  0.00000000000E+00 0.  1.
          2    1    1    2  501    0  0.11297908042E+03 -0.42784014753E+02  0.41118518209E+03  0.42856504583E+03  0.25500000000E-02 0.  1.
<mgrwt>
<rscale>  0 0.42081743E+02</rscale>
<asrwt>0</asrwt>
<pdfrwt beam="1">  1       11 0.10000000E+01 0.11720884E+03</pdfrwt>
<pdfrwt beam="2">  1        2 0.33094151E-02 0.42081743E+02</pdfrwt>
<totfact> 0.27678211E+03</totfact>
</mgrwt>
</event>
<event>
 5    1  0.9955701E-004  0.5871351E+02  0.7818608E-02  0.1623161E+00
         11   -1    0    0    0    0  0.00000000000E+00  0.00000000000E+00  0.10001702923E+04  0.10001702923E+04  0.51100000000E-03 0.  1.
          2   -1    0    0  501    0 -0.00000000000E+00 -0.00000000000E+00 -0.36089492122E+02  0.36089492212E+02  0.25500000000E-02 0.  1.
         11    1    1    2    0    0 -0.48760164695E+02  0.12705023971E+02  0.93097806969E+02  0.10585921291E+03  0.51100000000E-03 0.  1.
         22    1    1    2    0    0 -0.61951664495E+01  0.11666324077E+02 -0.27184283042E+02  0.30223640570E+02  0.00000000000E+00 0.  1.
          2    1    1    2  501    0  0.54955331145E+02 -0.24371348048E+02  0.89816727621E+03  0.90017693099E+03  0.25500000000E-02 0.  1.
<mgrwt>
<rscale>  0 0.27848855E+02</rscale>
<asrwt>0</asrwt>
<pdfrwt beam="1">  1       11 0.10000000E+01 0.58713515E+02</pdfrwt>
<pdfrwt beam="2">  1        2 0.55531749E-02 0.27848855E+02</pdfrwt>
<totfact> 0.13705341E+03</totfact>
</mgrwt>
</event>
<event>
 5    1  0.9955701E-004  0.1623803E+03  0.7818608E-02  0.1496639E+00
         11   -1    0    0    0    0  0.00000000000E+00  0.00000000000E+00  0.10002161056E+04  0.10002161056E+04  0.51100000000E-03 0. -1.
          2   -1    0    0  501    0 -0.00000000000E+00 -0.00000000000E+00 -0.92631452872E+02  0.92631452907E+02  0.25500000000E-02 0. -1.
         11    1    1    2    0    0  0.45191885494E+02  0.15504934971E+03  0.89022994425E+03  0.90476072030E+03  0.51100000000E-03 0. -1.
         22    1    1    2    0    0  0.69529869181E+01  0.80884185064E+01 -0.10031422553E+02  0.14642266882E+02  0.00000000000E+00 0. -1.
          2    1    1    2  501    0 -0.52144872412E+02 -0.16313776822E+03  0.27386131015E+02  0.17344457131E+03  0.25500000000E-02 0. -1.
<mgrwt>
<rscale>  0 0.41616953E+02</rscale>
<asrwt>0</asrwt>
<pdfrwt beam="1">  1       11 0.10000000E+01 0.16238028E+03</pdfrwt>
<pdfrwt beam="2">  1        2 0.14254072E-01 0.41616953E+02</pdfrwt>
<totfact> 0.46644297E+02</totfact>
</mgrwt>
</event>
<event>
 5    1  0.9955701E-004  0.7292382E+02  0.7818608E-02  0.1545810E+00
         11   -1    0    0    0    0  0.00000000000E+00  0.00000000000E+00  0.10003817488E+04  0.10003817488E+04  0.51100000000E-03 0. -1.
          2   -1    0    0  501    0 -0.00000000000E+00 -0.00000000000E+00 -0.10264989862E+02  0.10264990178E+02  0.25500000000E-02 0. -1.
         11    1    1    2    0    0  0.20170441286E+02 -0.66519401968E+02  0.21825909264E+03  0.22906049214E+03  0.51100000000E-03 0. -1.
         22    1    1    2    0    0  0.16998726896E+02  0.18887011641E+01  0.21217924349E+02  0.27252967212E+02  0.00000000000E+00 0.  1.
          2    1    1    2  501    0 -0.37169168182E+02  0.64630700804E+02  0.75063974191E+03  0.75433327958E+03  0.25500000000E-02 0. -1.
<mgrwt>
<rscale>  0 0.35316279E+02</rscale>
<asrwt>0</asrwt>
<pdfrwt beam="1">  1       11 0.10000000E+01 0.72923822E+02</pdfrwt>
<pdfrwt beam="2">  1        2 0.15798321E-02 0.35316279E+02</pdfrwt>
<totfact> 0.70538311E+03</totfact>
</mgrwt>
</event>
<event>
 5    1  0.9955701E-004  0.2415271E+03  0.7818608E-02  0.1118780E+00
         11   -1    0    0    0    0  0.00000000000E+00  0.00000000000E+00  0.99999818934E+03  0.99999818934E+03  0.51100000000E-03 0.  1.
          2   -1    0    0  501    0 -0.00000000000E+00 -0.00000000000E+00 -0.60236240617E+02  0.60236240671E+02  0.25500000000E-02 0. -1.
         11    1    1    2    0    0 -0.20825481634E+03 -0.10813773989E+03  0.59215205881E+03  0.63695203907E+03  0.51100000000E-03 0.  1.
         22    1    1    2    0    0  0.16667744129E+02  0.36717321457E+01  0.63343347712E+01  0.18204919893E+02  0.00000000000E+00 0.  1.
          2    1    1    2  501    0  0.19158707221E+03  0.10446600775E+03  0.34127555514E+03  0.40507747106E+03  0.25500000000E-02 0. -1.
<mgrwt>
<rscale>  0 0.24152711E+03</rscale>
<asrwt>0</asrwt>
<pdfrwt beam="1">  1       11 0.10000000E+01 0.23465685E+03</pdfrwt>
<pdfrwt beam="2">  1        2 0.92670969E-02 0.24152711E+03</pdfrwt>
<totfact> 0.86239288E+02</totfact>
</mgrwt>
</event>
<event>
 5    1  0.9955701E-004  0.3700836E+03  0.7818608E-02  0.1133125E+00
         11   -1    0    0    0    0  0.00000000000E+00  0.00000000000E+00  0.10002021332E+04  0.10002021332E+04  0.51100000000E-03 0.  1.
          2   -1    0    0  501    0 -0.00000000000E+00 -0.00000000000E+00 -0.19948271161E+03  0.19948271163E+03  0.25500000000E-02 0.  1.
         11    1    1    2    0    0 -0.30886447229E+03  0.20323763825E+03  0.41304182108E+03  0.55435218571E+03  0.51100000000E-03 0.  1.
         22    1    1    2    0    0  0.80113193641E+02  0.10490435988E+03  0.92662965939E+02  0.16127452922E+03  0.00000000000E+00 0.  1.
          2    1    1    2  501    0  0.22875127865E+03 -0.30814199813E+03  0.29501463456E+03  0.48405812988E+03  0.25500000000E-02 0.  1.
<mgrwt>
<rscale>  0 0.22101967E+03</rscale>
<asrwt>0</asrwt>
<pdfrwt beam="1">  1       11 0.10000000E+01 0.37008356E+03</pdfrwt>
<pdfrwt beam="2">  1        2 0.30695850E-01 0.22101967E+03</pdfrwt>
<totfact> 0.21103953E+02</totfact>
</mgrwt>
</event>
<event>
 5    1  0.9955701E-004  0.1875717E+03  0.7818608E-02  0.1203987E+00
         11   -1    0    0    0    0  0.00000000000E+00  0.00000000000E+00  0.10003439713E+04  0.10003439713E+04  0.51100000000E-03 0. -1.
          2   -1    0    0  501    0 -0.00000000000E+00 -0.00000000000E+00 -0.71023670389E+03  0.71023670389E+03  0.25500000000E-02 0. -1.
         11    1    1    2    0    0 -0.28991583802E+02  0.18867724782E+03  0.97048154174E+03  0.98907736737E+03  0.51100000000E-03 0. -1.
         22    1    1    2    0    0 -0.50025832037E+02 -0.10408202090E+03 -0.43701463398E+03  0.45201486840E+03  0.00000000000E+00 0. -1.
          2    1    1    2  501    0  0.79017415839E+02 -0.84595226921E+02 -0.24335964035E+03  0.26948843942E+03  0.25500000000E-02 0. -1.
<mgrwt>
<rscale>  0 0.14717607E+03</rscale>
<asrwt>0</asrwt>
<pdfrwt beam="1">  1       11 0.10000000E+01 0.18757168E+03</pdfrwt>
<pdfrwt beam="2">  1        2 0.10930477E+00 0.14717607E+03</pdfrwt>
<totfact> 0.52388397E+01</totfact>
</mgrwt>
</event>
<event>
 5    1  0.9955701E-004  0.2199013E+03  0.7818608E-02  0.1400585E+00
         11   -1    0    0    0    0  0.00000000000E+00  0.00000000000E+00  0.10001247480E+04  0.10001247480E+04  0.51100000000E-03 0. -1.
          2   -1    0    0  501    0 -0.00000000000E+00 -0.00000000000E+00 -0.60918790338E+02  0.60918790392E+02  0.25500000000E-02 0. -1.
         11    1    1    2    0    0  0.22694785772E+03  0.18721667929E+02  0.28215778658E+03  0.36258633110E+03  0.51100000000E-03 0. -1.
         22    1    1    2    0    0 -0.10535983408E+02 -0.12064699434E+02  0.20016072327E+02  0.25636050207E+02  0.00000000000E+00 0. -1.
          2    1    1    2  501    0 -0.21641187431E+03 -0.66569684951E+01  0.63703209878E+03  0.67282115711E+03  0.25500000000E-02 0. -1.
<mgrwt>
<rscale>  0 0.59348899E+02</rscale>
<asrwt>0</asrwt>
<pdfrwt beam="1">  1       11 0.10000000E+01 0.21990128E+03</pdfrwt>
<pdfrwt beam="2">  1        2 0.93732905E-02 0.59348899E+02</pdfrwt>
<totfact> 0.77987397E+02</totfact>
</mgrwt>
</event>
<event>
 5    1  0.9955701E-004  0.4606564E+02  0.7818608E-02  0.1499556E+00
         11   -1    0    0    0    0  0.00000000000E+00  0.00000000000E+00  0.10002284653E+04  0.10002284653E+04  0.51100000000E-03 0. -1.
          2   -1    0    0  501    0 -0.00000000000E+00 -0.00000000000E+00 -0.55554163870E+01  0.55554169722E+01  0.25500000000E-02 0. -1.
         11    1    1    2    0    0 -0.14272077376E+01  0.30053881960E+02  0.71801482505E+02  0.77850662380E+02  0.51100000000E-03 0. -1.
         22    1    1    2    0    0  0.12206423188E+02  0.97118864472E+01  0.27513306989E+02  0.31627512815E+02  0.00000000000E+00 0.  1.
          2    1    1    2  501    0 -0.10779215450E+02 -0.39765768407E+02  0.89535825945E+03  0.89630570711E+03  0.25500000000E-02 0. -1.
<mgrwt>
<rscale>  0 0.41200823E+02</rscale>
<asrwt>0</asrwt>
<pdfrwt beam="1">  1       11 0.10000000E+01 0.46065643E+02</pdfrwt>
<pdfrwt beam="2">  1        2 0.85487473E-03 0.41200823E+02</pdfrwt>
<totfact> 0.16391376E+04</totfact>
</mgrwt>
</event>
<event>
 5    1  0.9955701E-004  0.1141420E+03  0.7818608E-02  0.1486978E+00
         11   -1    0    0    0    0  0.00000000000E+00  0.00000000000E+00  0.10002078063E+04  0.10002078063E+04  0.51100000000E-03 0. -1.
         -2   -1    0    0    0  501 -0.00000000000E+00 -0.00000000000E+00 -0.24573498496E+02  0.24573498628E+02  0.25500000000E-02 0. -1.
         11    1    1    2    0    0  0.10312820144E+02  0.11167804281E+03  0.63076851167E+03  0.64066157589E+03  0.51100000000E-03 0. -1.
         22    1    1    2    0    0 -0.14646205203E+02  0.69869702138E+01 -0.30382146539E+01  0.16509386054E+02  0.00000000000E+00 0. -1.
         -2    1    1    2    0  501  0.43333850584E+01 -0.11866501302E+03  0.34790401076E+03  0.36761034296E+03  0.25500000000E-02 0. -1.
<mgrwt>
<rscale>  0 0.43037532E+02</rscale>
<asrwt>0</asrwt>
<pdfrwt beam="1">  1       11 0.10000000E+01 0.11414195E+03</pdfrwt>
<pdfrwt beam="2">  1       -2 0.37813238E-02 0.43037532E+02</pdfrwt>
<totfact> 0.19659686E+03</totfact>
</mgrwt>
</event>
<event>
 5    1  0.9955701E-004  0.5322168E+03  0.7818608E-02  0.1295860E+00
         11   -1    0    0    0    0  0.00000000000E+00  0.00000000000E+00  0.10001501397E+04  0.10001501397E+04  0.51100000000E-03 0. -1.
          2   -1    0    0  501    0 -0.00000000000E+00 -0.00000000000E+00 -0.10019361221E+04  0.10019361221E+04  0.25500000000E-02 0. -1.
         11    1    1    2    0    0 -0.12321278198E+03 -0.51894190473E+03  0.84024111799E+03  0.99523224751E+03  0.51100000000E-03 0. -1.
         22    1    1    2    0    0 -0.57364010292E+01  0.15186332389E+02 -0.96729644845E+02  0.98082389755E+02  0.00000000000E+00 0. -1.
          2    1    1    2  501    0  0.12894918301E+03  0.50375557234E+03 -0.74529745554E+03  0.90877162461E+03  0.25500000000E-02 0. -1.
<mgrwt>
<rscale>  0 0.92950606E+02</rscale>
<asrwt>0</asrwt>
<pdfrwt beam="1">  1       11 0.10000000E+01 0.53221683E+03</pdfrwt>
<pdfrwt beam="2">  1        2 0.15416716E+00 0.92950606E+02</pdfrwt>
<totfact> 0.34526965E+01</totfact>
</mgrwt>
</event>
<event>
 5    1  0.9955701E-004  0.3246834E+02  0.7818608E-02  0.1780266E+00
         11   -1    0    0    0    0  0.00000000000E+00  0.00000000000E+00  0.10001777232E+04  0.10001777232E+04  0.51100000000E-03 0.  1.
          2   -1    0    0  501    0 -0.00000000000E+00 -0.00000000000E+00 -0.24834911840E+01  0.24834924932E+01  0.25500000000E-02 0.  1.
         11    1    1    2    0    0  0.25749897180E+02  0.11578620902E+02  0.13366180964E+03  0.13661113067E+03  0.51100000000E-03 0.  1.
         22    1    1    2    0    0 -0.20054622116E+00  0.10369669672E+02  0.39782676937E+02  0.41112426980E+02  0.00000000000E+00 0. -1.
          2    1    1    2  501    0 -0.25549350959E+02 -0.21948290575E+02  0.82424974540E+03  0.82493765800E+03  0.25500000000E-02 0.  1.
<mgrwt>
<rscale>  0 0.18350714E+02</rscale>
<asrwt>0</asrwt>
<pdfrwt beam="1">  1       11 0.10000000E+01 0.32468336E+02</pdfrwt>
<pdfrwt beam="2">  1        2 0.38214356E-03 0.18350714E+02</pdfrwt>
<totfact> 0.38899344E+04</totfact>
</mgrwt>
</event>
<event>
 5    1  0.9955701E-004  0.4660328E+02  0.7818608E-02  0.1464574E+00
         11   -1    0    0    0    0  0.00000000000E+00  0.00000000000E+00  0.10003800719E+04  0.10003800719E+04  0.51100000000E-03 0. -1.
          2   -1    0    0  501    0 -0.00000000000E+00 -0.00000000000E+00 -0.92302884312E+01  0.92302887834E+01  0.25500000000E-02 0. -1.
         11    1    1    2    0    0 -0.50182965044E+02 -0.19818011164E+01  0.25889806218E+03  0.26372421982E+03  0.51100000000E-03 0. -1.
         22    1    1    2    0    0  0.28146054870E+02 -0.39082060661E+02  0.91141672958E+02  0.10308449166E+03  0.00000000000E+00 0. -1.
          2    1    1    2  501    0  0.22036910174E+02  0.41063861777E+02  0.64111004836E+03  0.64280164924E+03  0.25500000000E-02 0. -1.
<mgrwt>
<rscale>  0 0.46603285E+02</rscale>
<asrwt>0</asrwt>
<pdfrwt beam="1">  1       11 0.10000000E+01 0.44930657E+02</pdfrwt>
<pdfrwt beam="2">  1        2 0.14205841E-02 0.46603285E+02</pdfrwt>
<totfact> 0.85171172E+03</totfact>
</mgrwt>
</event>
<event>
 5    1  0.9955701E-004  0.2803801E+03  0.7818608E-02  0.1291287E+00
         11   -1    0    0    0    0  0.00000000000E+00  0.00000000000E+00  0.10002557127E+04  0.10002557127E+04  0.51100000000E-03 0. -1.
          2   -1    0    0  501    0 -0.00000000000E+00 -0.00000000000E+00 -0.10184033616E+03  0.10184033619E+03  0.25500000000E-02 0. -1.
         11    1    1    2    0    0  0.85157404869E+02  0.28143236664E+03  0.56735252290E+03  0.63901865844E+03  0.51100000000E-03 0. -1.
         22    1    1    2    0    0 -0.37301728473E+00 -0.32152920041E+02 -0.86241480357E+01  0.33291520518E+02  0.00000000000E+00 0. -1.
          2    1    1    2  501    0 -0.84784387585E+02 -0.24927944660E+03  0.33968700168E+03  0.42978586993E+03  0.25500000000E-02 0. -1.
<mgrwt>
<rscale>  0 0.94950746E+02</rscale>
<asrwt>0</asrwt>
<pdfrwt beam="1">  1       11 0.10000000E+01 0.28038006E+03</pdfrwt>
<pdfrwt beam="2">  1        2 0.15671750E-01 0.94950746E+02</pdfrwt>
<totfact> 0.43766000E+02</totfact>
</mgrwt>
</event>
<event>
 5    1  0.9955701E-004  0.2501958E+02  0.7818608E-02  0.1660721E+00
         11   -1    0    0    0    0  0.00000000000E+00  0.00000000000E+00  0.10001553401E+04  0.10001553401E+04  0.51100000000E-03 0.  1.
          2   -1    0    0  501    0 -0.00000000000E+00 -0.00000000000E+00 -0.32010264070E+01  0.32010274227E+01  0.25500000000E-02 0.  1.
         11    1    1    2    0    0  0.16277281604E+02 -0.17381975340E+02  0.11791335092E+03  0.12029397861E+03  0.51100000000E-03 0.  1.
         22    1    1    2    0    0  0.17846189178E+02  0.17423840479E+02  0.93161094134E+02  0.96442035158E+02  0.00000000000E+00 0.  1.
          2    1    1    2  501    0 -0.34123470781E+02 -0.41865139793E-01  0.78587986859E+03  0.78662035371E+03  0.25500000000E-02 0.  1.
<mgrwt>
<rscale>  0 0.25019583E+02</rscale>
<asrwt>0</asrwt>
<pdfrwt beam="1">  1       11 0.10000000E+01 0.23813516E+02</pdfrwt>
<pdfrwt beam="2">  1        2 0.49254217E-03 0.25019583E+02</pdfrwt>
<totfact> 0.30404854E+04</totfact>
</mgrwt>
</event>
<event>
 5    1  0.9955701E-004  0.6826684E+02  0.7818608E-02  0.1595152E+00
         11   -1    0    0    0    0  0.00000000000E+00  0.00000000000E+00  0.10002966522E+04  0.10002966522E+04  0.51100000000E-03 0.  1.
         -2   -1    0    0    0  501 -0.00000000000E+00 -0.00000000000E+00 -0.90682178298E+01  0.90682181884E+01  0.25500000000E-02 0. -1.
         11    1    1    2    0    0 -0.68862202973E+02  0.63975785226E+00  0.36536263446E+03  0.37179600179E+03  0.51100000000E-03 0.  1.
         22    1    1    2    0    0  0.18928208153E+01  0.13285448819E+02  0.73857476924E+01  0.15317806303E+02  0.00000000000E+00 0. -1.
         -2    1    1    2    0  501  0.66969382158E+02 -0.13925206672E+02  0.61848005220E+03  0.62225106228E+03  0.25500000000E-02 0. -1.
<mgrwt>
<rscale>  0 0.30267374E+02</rscale>
<asrwt>0</asrwt>
<pdfrwt beam="1">  1       11 0.10000000E+01 0.68266841E+02</pdfrwt>
<pdfrwt beam="2">  1       -2 0.13955243E-02 0.30267374E+02</pdfrwt>
<totfact> 0.75047787E+03</totfact>
</mgrwt>
</event>
<event>
 5    1  0.9955701E-004  0.1088854E+03  0.7818608E-02  0.1416959E+00
         11   -1    0    0    0    0  0.00000000000E+00  0.00000000000E+00  0.10000736382E+04  0.10000736382E+04  0.51100000000E-03 0. -1.
         -2   -1    0    0    0  501 -0.00000000000E+00 -0.00000000000E+00 -0.20421369172E+02  0.20421369331E+02  0.25500000000E-02 0. -1.
         11    1    1    2    0    0 -0.73351470824E+02 -0.71738513759E+02  0.59450013131E+03  0.60328870266E+03  0.51100000000E-03 0. -1.
         22    1    1    2    0    0 -0.28424967004E+02 -0.14495070376E+01  0.33952887611E+02  0.44304383496E+02  0.00000000000E+00 0. -1.
         -2    1    1    2    0  501  0.10177643783E+03  0.73188020797E+02  0.35119925015E+03  0.37290192141E+03  0.25500000000E-02 0. -1.
<mgrwt>
<rscale>  0 0.55669435E+02</rscale>
<asrwt>0</asrwt>
<pdfrwt beam="1">  1       11 0.10000000E+01 0.10888542E+03</pdfrwt>
<pdfrwt beam="2">  1       -2 0.31419804E-02 0.55669435E+02</pdfrwt>
<totfact> 0.26528938E+03</totfact>
</mgrwt>
</event>
<event>
 5    1  0.9955701E-004  0.2625001E+02  0.7818608E-02  0.1650224E+00
         11   -1    0    0    0    0  0.00000000000E+00  0.00000000000E+00  0.10002932873E+04  0.10002932873E+04  0.51100000000E-03 0.  1.
          2   -1    0    0  501    0 -0.00000000000E+00 -0.00000000000E+00 -0.59367898324E+01  0.59367903801E+01  0.25500000000E-02 0.  1.
         11    1    1    2    0    0  0.16552753106E+02 -0.40330635424E+02  0.13413848341E+03  0.14104498049E+03  0.51100000000E-03 0.  1.
         22    1    1    2    0    0 -0.20320783430E+02  0.15059722064E+02  0.67942063035E+02  0.72497264757E+02  0.00000000000E+00 0.  1.
          2    1    1    2  501    0  0.37680303236E+01  0.25270913361E+02  0.79227595101E+03  0.79268783243E+03  0.25500000000E-02 0.  1.
<mgrwt>
<rscale>  0 0.25766992E+02</rscale>
<asrwt>0</asrwt>
<pdfrwt beam="1">  1       11 0.10000000E+01 0.26250010E+02</pdfrwt>
<pdfrwt beam="2">  1        2 0.91362017E-03 0.25766992E+02</pdfrwt>
<totfact> 0.13591173E+04</totfact>
</mgrwt>
</event>
<event>
 5    1  0.9955701E-004  0.3295127E+03  0.7818608E-02  0.1218012E+00
         11   -1    0    0    0    0  0.00000000000E+00  0.00000000000E+00  0.10002578474E+04  0.10002578474E+04  0.51100000000E-03 0. -1.
          2   -1    0    0  501    0 -0.00000000000E+00 -0.00000000000E+00 -0.34780138721E+03  0.34780138722E+03  0.25500000000E-02 0. -1.
         11    1    1    2    0    0  0.19319725452E+03 -0.27088172602E+03  0.72657202532E+03  0.79913014999E+03  0.51100000000E-03 0. -1.
         22    1    1    2    0    0 -0.52862837844E+02 -0.20247138366E+02 -0.19562822720E+03  0.20365369997E+03  0.00000000000E+00 0. -1.
          2    1    1    2  501    0 -0.14033441667E+03  0.29112886439E+03  0.12151266201E+03  0.34527538461E+03  0.25500000000E-02 0. -1.
<mgrwt>
<rscale>  0 0.13657576E+03</rscale>
<asrwt>0</asrwt>
<pdfrwt beam="1">  1       11 0.10000000E+01 0.32951268E+03</pdfrwt>
<pdfrwt beam="2">  1        2 0.53521701E-01 0.13657576E+03</pdfrwt>
<totfact> 0.11575088E+02</totfact>
</mgrwt>
</event>
<event>
 5    1  0.9955701E-004  0.6293486E+02  0.7818608E-02  0.1427116E+00
         11   -1    0    0    0    0  0.00000000000E+00  0.00000000000E+00  0.10002898020E+04  0.10002898020E+04  0.51100000000E-03 0.  1.
          2   -1    0    0  501    0 -0.00000000000E+00 -0.00000000000E+00 -0.95303015635E+01  0.95303019046E+01  0.25500000000E-02 0.  1.
         11    1    1    2    0    0  0.31588158450E+02  0.45206595150E+02  0.33326538421E+03  0.33779766771E+03  0.51100000000E-03 0.  1.
         22    1    1    2    0    0 -0.30224518687E+02  0.34081855712E+02  0.11385026782E+03  0.12262535587E+03  0.00000000000E+00 0.  1.
          2    1    1    2  501    0 -0.13636397628E+01 -0.79288450862E+02  0.54364384841E+03  0.54939708033E+03  0.25500000000E-02 0.  1.
<mgrwt>
<rscale>  0 0.53543296E+02</rscale>
<asrwt>0</asrwt>
<pdfrwt beam="1">  1       11 0.10000000E+01 0.62934861E+02</pdfrwt>
<pdfrwt beam="2">  1        2 0.14666251E-02 0.53543296E+02</pdfrwt>
<totfact> 0.83531274E+03</totfact>
</mgrwt>
</event>
<event>
 5    1  0.9955701E-004  0.1336309E+03  0.7818608E-02  0.1256456E+00
         11   -1    0    0    0    0  0.00000000000E+00  0.00000000000E+00  0.10002676527E+04  0.10002676527E+04  0.51100000000E-03 0. -1.
          2   -1    0    0  501    0 -0.00000000000E+00 -0.00000000000E+00 -0.33548868600E+03  0.33548868601E+03  0.25500000000E-02 0.  1.
         11    1    1    2    0    0 -0.84376185477E+02 -0.12516833778E+03  0.76833516919E+03  0.78302323444E+03  0.51100000000E-03 0. -1.
         22    1    1    2    0    0  0.93820602949E+02  0.94260976551E+01 -0.30553292683E+03  0.31975228886E+03  0.00000000000E+00 0.  1.
          2    1    1    2  501    0 -0.94444174720E+01  0.11574224012E+03  0.20197672437E+03  0.23298081545E+03  0.25500000000E-02 0.  1.
<mgrwt>
<rscale>  0 0.11225173E+03</rscale>
<asrwt>0</asrwt>
<pdfrwt beam="1">  1       11 0.10000000E+01 0.13363092E+03</pdfrwt>
<pdfrwt beam="2">  1        2 0.51627457E-01 0.11225173E+03</pdfrwt>
<totfact> 0.12023935E+02</totfact>
</mgrwt>
</event>
<event>
 5    1  0.9955701E-004  0.3650056E+02  0.7818608E-02  0.1535665E+00
         11   -1    0    0    0    0  0.00000000000E+00  0.00000000000E+00  0.99987819413E+03  0.99987819413E+03  0.51100000000E-03 0.  1.
          2   -1    0    0  501    0 -0.00000000000E+00 -0.00000000000E+00 -0.61196748155E+01  0.61196753468E+01  0.25500000000E-02 0.  1.
         11    1    1    2    0    0  0.39996963527E+01 -0.12902899315E+02  0.36485117546E+02  0.38905606077E+02  0.51100000000E-03 0.  1.
         22    1    1    2    0    0  0.22709241045E+02  0.29323373674E+02  0.69599350383E+02  0.78864690745E+02  0.00000000000E+00 0.  1.
          2    1    1    2  501    0 -0.26708937398E+02 -0.16420474360E+02  0.88767405138E+03  0.88822757265E+03  0.25500000000E-02 0.  1.
<mgrwt>
<rscale>  0 0.36500561E+02</rscale>
<asrwt>0</asrwt>
<pdfrwt beam="1">  1       11 0.10000000E+01 0.13508611E+02</pdfrwt>
<pdfrwt beam="2">  1        2 0.94137377E-03 0.36500561E+02</pdfrwt>
<totfact> 0.14068707E+04</totfact>
</mgrwt>
</event>
<event>
 5    1  0.9955701E-004  0.6272672E+02  0.7818608E-02  0.1452659E+00
         11   -1    0    0    0    0  0.00000000000E+00  0.00000000000E+00  0.10002595620E+04  0.10002595620E+04  0.51100000000E-03 0.  1.
          2   -1    0    0  501    0 -0.00000000000E+00 -0.00000000000E+00 -0.93991373114E+01  0.93991376573E+01  0.25500000000E-02 0.  1.
         11    1    1    2    0    0  0.51053869980E+02  0.21765535169E+02  0.16127618080E+03  0.17055861941E+03  0.51100000000E-03 0.  1.
         22    1    1    2    0    0 -0.14100345407E+02  0.35029548461E+02  0.10936454517E+03  0.11570001187E+03  0.00000000000E+00 0.  1.
          2    1    1    2  501    0 -0.36953524573E+02 -0.56795083630E+02  0.72021969868E+03  0.72340006835E+03  0.25500000000E-02 0.  1.
<mgrwt>
<rscale>  0 0.48668459E+02</rscale>
<asrwt>0</asrwt>
<pdfrwt beam="1">  1       11 0.10000000E+01 0.62726715E+02</pdfrwt>
<pdfrwt beam="2">  1        2 0.14463964E-02 0.48668459E+02</pdfrwt>
<totfact> 0.83763971E+03</totfact>
</mgrwt>
</event>
<event>
 5    1  0.9955701E-004  0.1881951E+03  0.7818608E-02  0.1160099E+00
         11   -1    0    0    0    0  0.00000000000E+00  0.00000000000E+00  0.10003028592E+04  0.10003028592E+04  0.51100000000E-03 0. -1.
          2   -1    0    0  501    0 -0.00000000000E+00 -0.00000000000E+00 -0.36486570190E+02  0.36486570279E+02  0.25500000000E-02 0. -1.
         11    1    1    2    0    0  0.17215791178E+03  0.52753566746E+02  0.33382557759E+03  0.37928986495E+03  0.51100000000E-03 0. -1.
         22    1    1    2    0    0 -0.21820760603E+02 -0.61538124477E+00  0.32260840942E+02  0.38952357382E+02  0.00000000000E+00 0. -1.
          2    1    1    2  501    0 -0.15033715118E+03 -0.52138185501E+02  0.59772987050E+03  0.61854720717E+03  0.25500000000E-02 0. -1.
<mgrwt>
<rscale>  0 0.18819506E+03</rscale>
<asrwt>0</asrwt>
<pdfrwt beam="1">  1       11 0.10000000E+01 0.18005921E+03</pdfrwt>
<pdfrwt beam="2">  1        2 0.56150184E-02 0.18819506E+03</pdfrwt>
<totfact> 0.16150480E+03</totfact>
</mgrwt>
</event>
<event>
 5    1  0.9955701E-004  0.1212190E+03  0.7818608E-02  0.1460825E+00
         11   -1    0    0    0    0  0.00000000000E+00  0.00000000000E+00  0.10001122398E+04  0.10001122398E+04  0.51100000000E-03 0. -1.
          2   -1    0    0  501    0 -0.00000000000E+00 -0.00000000000E+00 -0.33059383896E+02  0.33059383994E+02  0.25500000000E-02 0. -1.
         11    1    1    2    0    0  0.63323887725E+02  0.10199364214E+03  0.66306117587E+03  0.67384177723E+03  0.51100000000E-03 0. -1.
         22    1    1    2    0    0  0.17136156283E+02 -0.67278385026E+01 -0.10377214797E+02  0.21132871315E+02  0.00000000000E+00 0. -1.
          2    1    1    2  501    0 -0.80460044008E+02 -0.95265803638E+02  0.31436889485E+03  0.33819697527E+03  0.25500000000E-02 0. -1.
<mgrwt>
<rscale>  0 0.47239676E+02</rscale>
<asrwt>0</asrwt>
<pdfrwt beam="1">  1       11 0.10000000E+01 0.12121896E+03</pdfrwt>
<pdfrwt beam="2">  1        2 0.50866298E-02 0.47239676E+02</pdfrwt>
<totfact> 0.16231321E+03</totfact>
</mgrwt>
</event>
<event>
 5    1  0.9955701E-004  0.3195898E+03  0.7818608E-02  0.1367596E+00
         11   -1    0    0    0    0  0.00000000000E+00  0.00000000000E+00  0.10003640958E+04  0.10003640958E+04  0.51100000000E-03 0. -1.
          2   -1    0    0  501    0 -0.00000000000E+00 -0.00000000000E+00 -0.20883810822E+03  0.20883810823E+03  0.25500000000E-02 0. -1.
         11    1    1    2    0    0  0.32249631269E+03  0.16786999896E+02  0.71868440157E+03  0.78790414654E+03  0.51100000000E-03 0. -1.
         22    1    1    2    0    0 -0.13118967781E+02  0.59388917789E+01 -0.75911724700E+02  0.77265566057E+02  0.00000000000E+00 0. -1.
          2    1    1    2  501    0 -0.30937734491E+03 -0.22725891674E+02  0.14875331067E+03  0.34403249139E+03  0.25500000000E-02 0. -1.
<mgrwt>
<rscale>  0 0.67840180E+02</rscale>
<asrwt>0</asrwt>
<pdfrwt beam="1">  1       11 0.10000000E+01 0.31958979E+03</pdfrwt>
<pdfrwt beam="2">  1        2 0.32140637E-01 0.67840180E+02</pdfrwt>
<totfact> 0.19644524E+02</totfact>
</mgrwt>
</event>
<event>
 5    1  0.9955701E-004  0.6238927E+02  0.7818608E-02  0.1603136E+00
         11   -1    0    0    0    0  0.00000000000E+00  0.00000000000E+00  0.10003353137E+04  0.10003353137E+04  0.51100000000E-03 0. -1.
          2   -1    0    0  501    0 -0.00000000000E+00 -0.00000000000E+00 -0.87953286559E+01  0.87953290255E+01  0.25500000000E-02 0. -1.
         11    1    1    2    0    0  0.46926172704E+01  0.65726357432E+02  0.15355177454E+03  0.16709315421E+03  0.51100000000E-03 0. -1.
         22    1    1    2    0    0  0.12546464123E+02 -0.61991590370E+01  0.61136024579E+02  0.62717277014E+02  0.00000000000E+00 0. -1.
          2    1    1    2  501    0 -0.17239081393E+02 -0.59527198395E+02  0.77685218589E+03  0.77932021147E+03  0.25500000000E-02 0. -1.
<mgrwt>
<rscale>  0 0.29548269E+02</rscale>
<asrwt>0</asrwt>
<pdfrwt beam="1">  1       11 0.10000000E+01 0.62389272E+02</pdfrwt>
<pdfrwt beam="2">  1        2 0.13535812E-02 0.29548269E+02</pdfrwt>
<totfact> 0.83570152E+03</totfact>
</mgrwt>
</event>
<event>
 5    1  0.9955701E-004  0.8034136E+02  0.7818608E-02  0.1616393E+00
         11   -1    0    0    0    0  0.00000000000E+00  0.00000000000E+00  0.10002355795E+04  0.10002355795E+04  0.51100000000E-03 0. -1.
          2   -1    0    0  501    0 -0.00000000000E+00 -0.00000000000E+00 -0.19862031724E+02  0.19862031888E+02  0.25500000000E-02 0. -1.
         11    1    1    2    0    0 -0.39161109082E+02 -0.64679069085E+02  0.38036884699E+03  0.38781108055E+03  0.51100000000E-03 0. -1.
         22    1    1    2    0    0  0.58494132381E+00 -0.10027219986E+02 -0.11362178092E+02  0.15165302107E+02  0.00000000000E+00 0. -1.
          2    1    1    2  501    0  0.38576167758E+02  0.74706289070E+02  0.61136687886E+03  0.61712122871E+03  0.25500000000E-02 0. -1.
<mgrwt>
<rscale>  0 0.28407211E+02</rscale>
<asrwt>0</asrwt>
<pdfrwt beam="1">  1       11 0.10000000E+01 0.80341355E+02</pdfrwt>
<pdfrwt beam="2">  1        2 0.30564170E-02 0.28407211E+02</pdfrwt>
<totfact> 0.28980122E+03</totfact>
</mgrwt>
</event>
<event>
 5    1  0.9955701E-004  0.8085002E+02  0.7818608E-02  0.1442268E+00
         11   -1    0    0    0    0  0.00000000000E+00  0.00000000000E+00  0.10003133372E+04  0.10003133372E+04  0.51100000000E-03 0.  1.
          2   -1    0    0  501    0 -0.00000000000E+00 -0.00000000000E+00 -0.11990767878E+02  0.11990768149E+02  0.25500000000E-02 0.  1.
         11    1    1    2    0    0 -0.11354853478E+02 -0.96369845894E+02  0.31102275266E+03  0.32580858271E+03  0.51100000000E-03 0.  1.
         22    1    1    2    0    0 -0.17831721427E+02  0.26131522275E+02  0.12307913591E+03  0.12707989787E+03  0.00000000000E+00 0.  1.
          2    1    1    2  501    0  0.29186574905E+02  0.70238323619E+02  0.55422068071E+03  0.55941562473E+03  0.25500000000E-02 0.  1.
<mgrwt>
<rscale>  0 0.50574276E+02</rscale>
<asrwt>0</asrwt>
<pdfrwt beam="1">  1       11 0.10000000E+01 0.80850016E+02</pdfrwt>
<pdfrwt beam="2">  1        2 0.18453115E-02 0.50574276E+02</pdfrwt>
<totfact> 0.60979025E+03</totfact>
</mgrwt>
</event>
<event>
 5    1  0.9955701E-004  0.1745489E+03  0.7818608E-02  0.1341349E+00
         11   -1    0    0    0    0  0.00000000000E+00  0.00000000000E+00  0.10001752800E+04  0.10001752800E+04  0.51100000000E-03 0. -1.
          2   -1    0    0  501    0 -0.00000000000E+00 -0.00000000000E+00 -0.65748346380E+02  0.65748346430E+02  0.25500000000E-02 0. -1.
         11    1    1    2    0    0 -0.45018338926E+02  0.17755083973E+03  0.78732861700E+03  0.80835468866E+03  0.51100000000E-03 0. -1.
         22    1    1    2    0    0  0.10934709326E+02 -0.31066630924E+02 -0.15223035407E+02  0.36282836603E+02  0.00000000000E+00 0.  1.
          2    1    1    2  501    0  0.34083629599E+02 -0.14648420881E+03  0.16232135200E+03  0.22128610115E+03  0.25500000000E-02 0. -1.
<mgrwt>
<rscale>  0 0.75820449E+02</rscale>
<asrwt>0</asrwt>
<pdfrwt beam="1">  1       11 0.10000000E+01 0.17454893E+03</pdfrwt>
<pdfrwt beam="2">  1        2 0.10116903E-01 0.75820449E+02</pdfrwt>
<totfact> 0.72378817E+02</totfact>
</mgrwt>
</event>
<event>
 5    1  0.9955701E-004  0.3603982E+02  0.7818608E-02  0.1576387E+00
         11   -1    0    0    0    0  0.00000000000E+00  0.00000000000E+00  0.10003320321E+04  0.10003320321E+04  0.51100000000E-03 0. -1.
         -2   -1    0    0    0  501 -0.00000000000E+00 -0.00000000000E+00 -0.60583572174E+01  0.60583577540E+01  0.25500000000E-02 0. -1.
         11    1    1    2    0    0 -0.25678363593E+02 -0.13925841373E+02  0.17629972908E+03  0.17870339081E+03  0.51100000000E-03 0. -1.
         22    1    1    2    0    0  0.11966824549E+02 -0.25885066284E+02  0.43163197007E+02  0.51732998388E+02  0.00000000000E+00 0. -1.
         -2    1    1    2    0  501  0.13711539044E+02  0.39810907657E+02  0.77481074880E+03  0.77595400065E+03  0.25500000000E-02 0. -1.
<mgrwt>
<rscale>  0 0.32058711E+02</rscale>
<asrwt>0</asrwt>
<pdfrwt beam="1">  1       11 0.10000000E+01 0.36039816E+02</pdfrwt>
<pdfrwt beam="2">  1       -2 0.93236444E-03 0.32058711E+02</pdfrwt>
<totfact> 0.13202126E+04</totfact>
</mgrwt>
</event>
<event>
 5    1  0.9955701E-004  0.5757334E+03  0.7818608E-02  0.1194952E+00
         11   -1    0    0    0    0  0.00000000000E+00  0.00000000000E+00  0.10012559493E+04  0.10012559493E+04  0.51100000000E-03 0. -1.
          2   -1    0    0  501    0 -0.00000000000E+00 -0.00000000000E+00 -0.16017837566E+04  0.16017837566E+04  0.25500000000E-02 0. -1.
         11    1    1    2    0    0 -0.49312568595E+03 -0.29308082673E+03  0.84106660222E+03  0.10180679459E+04  0.51100000000E-03 0. -1.
         22    1    1    2    0    0 -0.41310973460E+02  0.40095094123E+01 -0.17946812167E+03  0.18420499285E+03  0.00000000000E+00 0. -1.
          2    1    1    2  501    0  0.53443665941E+03  0.28907131732E+03 -0.12621262878E+04  0.14007667671E+04  0.25500000000E-02 0. -1.
<mgrwt>
<rscale>  0 0.15458288E+03</rscale>
<asrwt>0</asrwt>
<pdfrwt beam="1">  1       11 0.10000000E+01 0.57573336E+03</pdfrwt>
<pdfrwt beam="2">  1        2 0.24673776E+00 0.15458288E+03</pdfrwt>
<totfact> 0.15760421E+01</totfact>
</mgrwt>
</event>
<event>
 5    1  0.9955701E-004  0.1056564E+03  0.7818608E-02  0.1532843E+00
         11   -1    0    0    0    0  0.00000000000E+00  0.00000000000E+00  0.10004336066E+04  0.10004336066E+04  0.51100000000E-03 0. -1.
          2   -1    0    0  501    0 -0.00000000000E+00 -0.00000000000E+00 -0.18635378616E+02  0.18635378790E+02  0.25500000000E-02 0. -1.
         11    1    1    2    0    0 -0.73034879525E+02  0.75374179289E+02  0.43097640861E+03  0.44357189418E+03  0.51100000000E-03 0. -1.
         22    1    1    2    0    0 -0.97897252967E+01 -0.83163965895E+01 -0.15507490656E+01  0.12938546915E+02  0.00000000000E+00 0. -1.
          2    1    1    2  501    0  0.82824604822E+02 -0.67057782699E+02  0.55237256844E+03  0.56255854430E+03  0.25500000000E-02 0. -1.
<mgrwt>
<rscale>  0 0.36840000E+02</rscale>
<asrwt>0</asrwt>
<pdfrwt beam="1">  1       11 0.10000000E+01 0.10565644E+03</pdfrwt>
<pdfrwt beam="2">  1        2 0.28682244E-02 0.36840000E+02</pdfrwt>
<totfact> 0.32670068E+03</totfact>
</mgrwt>
</event>
<event>
 5    1  0.9955701E-004  0.2003962E+03  0.7818608E-02  0.1387450E+00
         11   -1    0    0    0    0  0.00000000000E+00  0.00000000000E+00  0.10001913319E+04  0.10001913319E+04  0.51100000000E-03 0. -1.
         -2   -1    0    0    0  501 -0.00000000000E+00 -0.00000000000E+00 -0.21513939714E+03  0.21513939715E+03  0.25500000000E-02 0.  1.
         11    1    1    2    0    0  0.19790633145E+03 -0.33303000747E+02  0.93184454335E+03  0.95321050082E+03  0.51100000000E-03 0. -1.
         22    1    1    2    0    0 -0.24175384418E+01  0.19370661396E+02 -0.47955856601E+01  0.20101359577E+02  0.00000000000E+00 0.  1.
         -2    1    1    2    0  501 -0.19548879301E+03  0.13932339351E+02 -0.14199702292E+03  0.24201886867E+03  0.25500000000E-02 0.  1.
<mgrwt>
<rscale>  0 0.62545355E+02</rscale>
<asrwt>0</asrwt>
<pdfrwt beam="1">  1       11 0.10000000E+01 0.20039618E+03</pdfrwt>
<pdfrwt beam="2">  1       -2 0.33104701E-01 0.62545355E+02</pdfrwt>
<totfact> 0.67272460E+01</totfact>
</mgrwt>
</event>
<event>
 5    1  0.9955701E-004  0.1214330E+02  0.7818608E-02  0.1970256E+00
         11   -1    0    0    0    0  0.00000000000E+00  0.00000000000E+00  0.10002131676E+04  0.10002131676E+04  0.51100000000E-03 0.  1.
          2   -1    0    0  501    0 -0.00000000000E+00 -0.00000000000E+00 -0.17341064357E+01  0.17341083106E+01  0.25500000000E-02 0.  1.
         11    1    1    2    0    0  0.10066418640E+02  0.29346735211E+01  0.60977278180E+02  0.61872235675E+02  0.51100000000E-03 0.  1.
         22    1    1    2    0    0  0.10077900624E+02 -0.63590534088E+01  0.29125572678E+02  0.31469042328E+02  0.00000000000E+00 0.  1.
          2    1    1    2  501    0 -0.20144319264E+02  0.34243798877E+01  0.90837621034E+03  0.90860599794E+03  0.25500000000E-02 0.  1.
<mgrwt>
<rscale>  0 0.12143297E+02</rscale>
<asrwt>0</asrwt>
<pdfrwt beam="1">  1       11 0.10000000E+01 0.10485476E+02</pdfrwt>
<pdfrwt beam="2">  1        2 0.26684261E-03 0.12143297E+02</pdfrwt>
<totfact> 0.54042036E+04</totfact>
</mgrwt>
</event>
<event>
 5    1  0.9955701E-004  0.4014111E+03  0.7818608E-02  0.1277168E+00
         11   -1    0    0    0    0  0.00000000000E+00  0.00000000000E+00  0.10001566146E+04  0.10001566146E+04  0.51100000000E-03 0.  1.
          2   -1    0    0  501    0 -0.00000000000E+00 -0.00000000000E+00 -0.27053511674E+03  0.27053511675E+03  0.25500000000E-02 0.  1.
         11    1    1    2    0    0  0.38232493487E+03  0.13194319763E+03  0.74098861865E+03  0.84418333091E+03  0.51100000000E-03 0.  1.
         22    1    1    2    0    0 -0.65565279683E+01 -0.24814840702E+02 -0.24588793512E+02  0.35543960731E+02  0.00000000000E+00 0. -1.
          2    1    1    2  501    0 -0.37576840690E+03 -0.10712835693E+03  0.13221672741E+02  0.39096443972E+03  0.25500000000E-02 0.  1.
<mgrwt>
<rscale>  0 0.10150261E+03</rscale>
<asrwt>0</asrwt>
<pdfrwt beam="1">  1       11 0.10000000E+01 0.40141112E+03</pdfrwt>
<pdfrwt beam="2">  1        2 0.41627304E-01 0.10150261E+03</pdfrwt>
<totfact> 0.15068557E+02</totfact>
</mgrwt>
</event>
<event>
 5    1  0.9955701E-004  0.7384621E+02  0.7818608E-02  0.1624578E+00
         11   -1    0    0    0    0  0.00000000000E+00  0.00000000000E+00  0.10003933635E+04  0.10003933635E+04  0.51100000000E-03 0. -1.
          2   -1    0    0  501    0 -0.00000000000E+00 -0.00000000000E+00 -0.15852959508E+02  0.15852959713E+02  0.25500000000E-02 0. -1.
         11    1    1    2    0    0 -0.31386575580E+02 -0.74251751639E+02  0.20853351784E+03  0.22357251131E+03  0.51100000000E-03 0. -1.
         22    1    1    2    0    0  0.88724010516E+01  0.54562559679E+01 -0.25789017161E+01  0.10730375747E+02  0.00000000000E+00 0. -1.
          2    1    1    2  501    0  0.22514174529E+02  0.68795495671E+02  0.77858578782E+03  0.78194343611E+03  0.25500000000E-02 0. -1.
<mgrwt>
<rscale>  0 0.27733946E+02</rscale>
<asrwt>0</asrwt>
<pdfrwt beam="1">  1       11 0.10000000E+01 0.73846212E+02</pdfrwt>
<pdfrwt beam="2">  1        2 0.24398762E-02 0.27733946E+02</pdfrwt>
<totfact> 0.38491213E+03</totfact>
</mgrwt>
</event>
<event>
 5    1  0.9955701E-004  0.1762079E+03  0.7818608E-02  0.1435084E+00
         11   -1    0    0    0    0  0.00000000000E+00  0.00000000000E+00  0.10000041410E+04  0.10000041410E+04  0.51100000000E-03 0. -1.
         -2   -1    0    0    0  501 -0.00000000000E+00 -0.00000000000E+00 -0.48998525183E+02  0.48998525250E+02  0.25500000000E-02 0. -1.
         11    1    1    2    0    0  0.30931785180E+02  0.16828217698E+03  0.51860482570E+03  0.54610130165E+03  0.51100000000E-03 0. -1.
         22    1    1    2    0    0 -0.76229684429E+01  0.13286200062E+02 -0.13795061238E+02  0.20613987352E+02  0.00000000000E+00 0.  1.
         -2    1    1    2    0  501 -0.23308816737E+02 -0.18156837704E+03  0.44619585134E+03  0.48228737724E+03  0.25500000000E-02 0. -1.
<mgrwt>
<rscale>  0 0.51952912E+02</rscale>
<asrwt>0</asrwt>
<pdfrwt beam="1">  1       11 0.10000000E+01 0.17620794E+03</pdfrwt>
<pdfrwt beam="2">  1       -2 0.75382656E-02 0.51952912E+02</pdfrwt>
<totfact> 0.73182683E+02</totfact>
</mgrwt>
</event>
<event>
 5    1  0.9955701E-004  0.4407860E+03  0.7818608E-02  0.1340659E+00
         11   -1    0    0    0    0  0.00000000000E+00  0.00000000000E+00  0.10004156441E+04  0.10004156441E+04  0.51100000000E-03 0. -1.
          2   -1    0    0  501    0 -0.00000000000E+00 -0.00000000000E+00 -0.27996530295E+03  0.27996530296E+03  0.25500000000E-02 0. -1.
         11    1    1    2    0    0 -0.43607194634E+03  0.67931034554E+02  0.69626888145E+03  0.82435655097E+03  0.51100000000E-03 0. -1.
         22    1    1    2    0    0  0.42865475317E+01  0.12400045573E+02 -0.84722892226E+01  0.15617788084E+02  0.00000000000E+00 0. -1.
          2    1    1    2  501    0  0.43178539881E+03 -0.80331080127E+02  0.32653748928E+02  0.44040660802E+03  0.25500000000E-02 0. -1.
<mgrwt>
<rscale>  0 0.76046909E+02</rscale>
<asrwt>0</asrwt>
<pdfrwt beam="1">  1       11 0.10000000E+01 0.44078596E+03</pdfrwt>
<pdfrwt beam="2">  1        2 0.43089486E-01 0.76046909E+02</pdfrwt>
<totfact> 0.14490975E+02</totfact>
</mgrwt>
</event>
<event>
 5    1  0.9955701E-004  0.1174740E+03  0.7818608E-02  0.1414077E+00
         11   -1    0    0    0    0  0.00000000000E+00  0.00000000000E+00  0.99998639516E+03  0.99998639516E+03  0.51100000000E-03 0.  1.
          2   -1    0    0  501    0 -0.00000000000E+00 -0.00000000000E+00 -0.24278089970E+02  0.24278090104E+02  0.25500000000E-02 0.  1.
         11    1    1    2    0    0 -0.12343244225E+03 -0.28037087304E+02  0.63418833917E+03  0.64669660244E+03  0.51100000000E-03 0.  1.
         22    1    1    2    0    0  0.24654714008E+02 -0.10948225928E+02  0.88983348710E+01  0.28405966578E+02  0.00000000000E+00 0.  1.
          2    1    1    2  501    0  0.98777728240E+02  0.38985313232E+02  0.33262163115E+03  0.34916191625E+03  0.25500000000E-02 0.  1.
<mgrwt>
<rscale>  0 0.56293950E+02</rscale>
<asrwt>0</asrwt>
<pdfrwt beam="1">  1       11 0.10000000E+01 0.11747399E+03</pdfrwt>
<pdfrwt beam="2">  1        2 0.37350399E-02 0.56293950E+02</pdfrwt>
<totfact> 0.24551309E+03</totfact>
</mgrwt>
</event>
<event>
 5    1  0.9955701E-004  0.2367714E+03  0.7818608E-02  0.1121962E+00
         11   -1    0    0    0    0  0.00000000000E+00  0.00000000000E+00  0.10001144771E+04  0.10001144771E+04  0.51100000000E-03 0.  1.
          2   -1    0    0  501    0 -0.00000000000E+00 -0.00000000000E+00 -0.22516331012E+03  0.22516331014E+03  0.25500000000E-02 0.  1.
         11    1    1    2    0    0  0.15500636927E+03 -0.16804123768E+03  0.91975196250E+03  0.94773862674E+03  0.51100000000E-03 0.  1.
         22    1    1    2    0    0 -0.17165908606E+02  0.19815359763E+02 -0.44475825578E+02  0.51627666630E+02  0.00000000000E+00 0.  1.
          2    1    1    2  501    0 -0.13784046067E+03  0.14822587792E+03 -0.10032496992E+03  0.22591149390E+03  0.25500000000E-02 0.  1.
<mgrwt>
<rscale>  0 0.23677144E+03</rscale>
<asrwt>0</asrwt>
<pdfrwt beam="1">  1       11 0.10000000E+01 0.22861503E+03</pdfrwt>
<pdfrwt beam="2">  1        2 0.34644474E-01 0.23677144E+03</pdfrwt>
<totfact> 0.18506528E+02</totfact>
</mgrwt>
</event>
<event>
 5    1  0.9955701E-004  0.9028021E+02  0.7818608E-02  0.1408167E+00
         11   -1    0    0    0    0  0.00000000000E+00  0.00000000000E+00  0.10003007728E+04  0.10003007728E+04  0.51100000000E-03 0. -1.
          2   -1    0    0  501    0 -0.00000000000E+00 -0.00000000000E+00 -0.24233303398E+02  0.24233303532E+02  0.25500000000E-02 0. -1.
         11    1    1    2    0    0  0.63085730607E+02 -0.85972574263E+02  0.41127204920E+03  0.42487149985E+03  0.51100000000E-03 0. -1.
         22    1    1    2    0    0 -0.36222432107E+02  0.62382366147E+01  0.94114027195E+01  0.37941463928E+02  0.00000000000E+00 0. -1.
          2    1    1    2  501    0 -0.26863298500E+02  0.79734337648E+02  0.55538401743E+03  0.56172111250E+03  0.25500000000E-02 0. -1.
<mgrwt>
<rscale>  0 0.57604766E+02</rscale>
<asrwt>0</asrwt>
<pdfrwt beam="1">  1       11 0.10000000E+01 0.90280209E+02</pdfrwt>
<pdfrwt beam="2">  1        2 0.37293218E-02 0.57604766E+02</pdfrwt>
<totfact> 0.24666000E+03</totfact>
</mgrwt>
</event>
<event>
 5    1  0.9955701E-004  0.6116271E+02  0.7818608E-02  0.1505255E+00
         11   -1    0    0    0    0  0.00000000000E+00  0.00000000000E+00  0.10001858030E+04  0.10001858030E+04  0.51100000000E-03 0. -1.
          2   -1    0    0  501    0 -0.00000000000E+00 -0.00000000000E+00 -0.95910119448E+02  0.95910119482E+02  0.25500000000E-02 0. -1.
         11    1    1    2    0    0  0.51575860840E+02  0.25140984263E+02  0.19481465234E+03  0.20308837307E+03  0.51100000000E-03 0. -1.
         22    1    1    2    0    0 -0.11378016299E+02  0.24144988618E+02 -0.88540153946E+02  0.92475935200E+02  0.00000000000E+00 0. -1.
          2    1    1    2  501    0 -0.40197844541E+02 -0.49285972881E+02  0.79800118521E+03  0.80053161426E+03  0.25500000000E-02 0. -1.
<mgrwt>
<rscale>  0 0.40404551E+02</rscale>
<asrwt>0</asrwt>
<pdfrwt beam="1">  1       11 0.10000000E+01 0.61162710E+02</pdfrwt>
<pdfrwt beam="2">  1        2 0.14758144E-01 0.40404551E+02</pdfrwt>
<totfact> 0.44765136E+02</totfact>
</mgrwt>
</event>
<event>
 5    1  0.9955701E-004  0.6822906E+02  0.7818608E-02  0.1532188E+00
         11   -1    0    0    0    0  0.00000000000E+00  0.00000000000E+00  0.10003330556E+04  0.10003330556E+04  0.51100000000E-03 0. -1.
          2   -1    0    0  501    0 -0.00000000000E+00 -0.00000000000E+00 -0.80783562399E+01  0.80783566424E+01  0.25500000000E-02 0. -1.
         11    1    1    2    0    0 -0.25316238065E+02 -0.62637458448E+02  0.36409868935E+03  0.37031367608E+03  0.51100000000E-03 0. -1.
         22    1    1    2    0    0 -0.18258993158E+02  0.81061166431E+01  0.31024205674E+02  0.36899882058E+02  0.00000000000E+00 0. -1.
          2    1    1    2  501    0  0.43575231223E+02  0.54531341805E+02  0.59713180434E+03  0.60119785410E+03  0.25500000000E-02 0. -1.
<mgrwt>
<rscale>  0 0.36919431E+02</rscale>
<asrwt>0</asrwt>
<pdfrwt beam="1">  1       11 0.10000000E+01 0.68229057E+02</pdfrwt>
<pdfrwt beam="2">  1        2 0.12432380E-02 0.36919431E+02</pdfrwt>
<totfact> 0.97515678E+03</totfact>
</mgrwt>
</event>
<event>
 5    1  0.9955701E-004  0.3289928E+02  0.7818608E-02  0.1649689E+00
         11   -1    0    0    0    0  0.00000000000E+00  0.00000000000E+00  0.99990808235E+03  0.99990808235E+03  0.51100000000E-03 0.  1.
          2   -1    0    0  501    0 -0.00000000000E+00 -0.00000000000E+00 -0.82087128554E+01  0.82087132515E+01  0.25500000000E-02 0.  1.
         11    1    1    2    0    0 -0.54861662319E+01  0.28927687348E+02  0.97649995820E+02  0.10199230755E+03  0.51100000000E-03 0.  1.
         22    1    1    2    0    0  0.30623517454E+02 -0.34763776444E+02  0.86182088616E+02  0.97845144857E+02  0.00000000000E+00 0.  1.
          2    1    1    2  501    0 -0.25137351222E+02  0.58360890963E+01  0.80786728506E+03  0.80827934320E+03  0.25500000000E-02 0.  1.
<mgrwt>
<rscale>  0 0.25805937E+02</rscale>
<asrwt>0</asrwt>
<pdfrwt beam="1">  1       11 0.10000000E+01 0.32899280E+02</pdfrwt>
<pdfrwt beam="2">  1        2 0.12627628E-02 0.25805937E+02</pdfrwt>
<totfact> 0.89056794E+03</totfact>
</mgrwt>
</event>
<event>
 5    1  0.9955701E-004  0.6521549E+03  0.7818608E-02  0.1211642E+00
         11   -1    0    0    0    0  0.00000000000E+00  0.00000000000E+00  0.10002298998E+04  0.10002298998E+04  0.51100000000E-03 0.  1.
          2   -1    0    0  501    0 -0.00000000000E+00 -0.00000000000E+00 -0.45514220705E+03  0.45514220706E+03  0.25500000000E-02 0.  1.
         11    1    1    2    0    0  0.41280759240E+03  0.51491303494E+03  0.21542654916E+03  0.69422916964E+03  0.51100000000E-03 0.  1.
         22    1    1    2    0    0 -0.30088573990E+02  0.55605250187E+01 -0.87653800209E+01  0.31828817291E+02  0.00000000000E+00 0.  1.
          2    1    1    2  501    0 -0.38271901841E+03 -0.52047355996E+03  0.33842652365E+03  0.72931411997E+03  0.25500000000E-02 0.  1.
<mgrwt>
<rscale>  0 0.14126100E+03</rscale>
<asrwt>0</asrwt>
<pdfrwt beam="1">  1       11 0.10000000E+01 0.65215487E+03</pdfrwt>
<pdfrwt beam="2">  1        2 0.70037974E-01 0.14126100E+03</pdfrwt>
<totfact> 0.86766936E+01</totfact>
</mgrwt>
</event>
<event>
 5    1  0.9955701E-004  0.3247731E+03  0.7818608E-02  0.1146810E+00
         11   -1    0    0    0    0  0.00000000000E+00  0.00000000000E+00  0.10003501412E+04  0.10003501412E+04  0.51100000000E-03 0.  1.
          2   -1    0    0  501    0 -0.00000000000E+00 -0.00000000000E+00 -0.21685331134E+03  0.21685331136E+03  0.25500000000E-02 0.  1.
         11    1    1    2    0    0  0.20716750078E+03  0.24570139087E+03  0.28186567400E+03  0.42747608709E+03  0.51100000000E-03 0.  1.
         22    1    1    2    0    0  0.90897615324E+02 -0.89444853340E+02 -0.55309550394E+02  0.13900325401E+03  0.00000000000E+00 0. -1.
          2    1    1    2  501    0 -0.29806511611E+03 -0.15625653753E+03  0.55694070630E+03  0.65072411151E+03  0.25500000000E-02 0.  1.
<mgrwt>
<rscale>  0 0.20351127E+03</rscale>
<asrwt>0</asrwt>
<pdfrwt beam="1">  1       11 0.10000000E+01 0.32477310E+03</pdfrwt>
<pdfrwt beam="2">  1        2 0.33373728E-01 0.20351127E+03</pdfrwt>
<totfact> 0.19239668E+02</totfact>
</mgrwt>
</event>
<event>
 5    1  0.9955701E-004  0.1681488E+03  0.7818608E-02  0.1434984E+00
         11   -1    0    0    0    0  0.00000000000E+00  0.00000000000E+00  0.10000165852E+04  0.10000165852E+04  0.51100000000E-03 0. -1.
          2   -1    0    0  501    0 -0.00000000000E+00 -0.00000000000E+00 -0.88048030340E+02  0.88048030377E+02  0.25500000000E-02 0. -1.
         11    1    1    2    0    0 -0.99347248753E+02 -0.13369982777E+03  0.83970203697E+03  0.85606368377E+03  0.51100000000E-03 0. -1.
         22    1    1    2    0    0 -0.15779245824E+02 -0.30110965366E+01 -0.24088442857E+02  0.28953486498E+02  0.00000000000E+00 0. -1.
          2    1    1    2  501    0  0.11512649458E+03  0.13671092431E+03  0.96354960750E+02  0.20304744531E+03  0.25500000000E-02 0. -1.
<mgrwt>
<rscale>  0 0.51972472E+02</rscale>
<asrwt>0</asrwt>
<pdfrwt beam="1">  1       11 0.10000000E+01 0.16814878E+03</pdfrwt>
<pdfrwt beam="2">  1        2 0.13546075E-01 0.51972472E+02</pdfrwt>
<totfact> 0.50126355E+02</totfact>
</mgrwt>
</event>
<event>
 5    1  0.9955701E-004  0.6611204E+02  0.7818608E-02  0.1518587E+00
         11   -1    0    0    0    0  0.00000000000E+00  0.00000000000E+00  0.10000942247E+04  0.10000942247E+04  0.51100000000E-03 0. -1.
          2   -1    0    0  501    0 -0.00000000000E+00 -0.00000000000E+00 -0.15922961718E+02  0.15922961922E+02  0.25500000000E-02 0. -1.
         11    1    1    2    0    0  0.20122727645E+02  0.80300220278E+02  0.38496041242E+03  0.39376080134E+03  0.51100000000E-03 0. -1.
         22    1    1    2    0    0 -0.34100654250E+01 -0.22305977993E+02  0.27297838896E+01  0.22729648491E+02  0.00000000000E+00 0. -1.
          2    1    1    2  501    0 -0.16712662220E+02 -0.57994242285E+02  0.59648106664E+03  0.59952673676E+03  0.25500000000E-02 0. -1.
<mgrwt>
<rscale>  0 0.38624167E+02</rscale>
<asrwt>0</asrwt>
<pdfrwt beam="1">  1       11 0.10000000E+01 0.66112045E+02</pdfrwt>
<pdfrwt beam="2">  1        2 0.24499172E-02 0.38624167E+02</pdfrwt>
<totfact> 0.40342152E+03</totfact>
</mgrwt>
</event>
<event>
 5    1  0.9955701E-004  0.5816314E+02  0.7818608E-02  0.1650266E+00
         11   -1    0    0    0    0  0.00000000000E+00  0.00000000000E+00  0.10002573363E+04  0.10002573363E+04  0.51100000000E-03 0.  1.
          2   -1    0    0  501    0 -0.00000000000E+00 -0.00000000000E+00 -0.92164456814E+01  0.92164460342E+01  0.25500000000E-02 0.  1.
         11    1    1    2    0    0  0.51270507353E+02  0.33343757713E+02  0.13752342537E+03  0.15050967951E+03  0.51100000000E-03 0.  1.
         22    1    1    2    0    0 -0.93652661641E+01  0.65218533601E+01  0.17156139773E+02  0.20605239952E+02  0.00000000000E+00 0.  1.
          2    1    1    2  501    0 -0.41905241189E+02 -0.39865611073E+02  0.83636132552E+03  0.83835886291E+03  0.25500000000E-02 0.  1.
<mgrwt>
<rscale>  0 0.25763937E+02</rscale>
<asrwt>0</asrwt>
<pdfrwt beam="1">  1       11 0.10000000E+01 0.58163138E+02</pdfrwt>
<pdfrwt beam="2">  1        2 0.14182796E-02 0.25763937E+02</pdfrwt>
<totfact> 0.76538571E+03</totfact>
</mgrwt>
</event>
<event>
 5    1  0.9955701E-004  0.2625462E+02  0.7818608E-02  0.1751648E+00
         11   -1    0    0    0    0  0.00000000000E+00  0.00000000000E+00  0.10000640124E+04  0.10000640124E+04  0.51100000000E-03 0.  1.
          2   -1    0    0  501    0 -0.00000000000E+00 -0.00000000000E+00 -0.26866117708E+01  0.26866129809E+01  0.25500000000E-02 0.  1.
         11    1    1    2    0    0 -0.17829061731E+02 -0.10162502412E+02  0.97713502433E+02  0.99845282590E+02  0.51100000000E-03 0.  1.
         22    1    1    2    0    0  0.40067936528E+01 -0.14206342633E+02  0.37704796951E+02  0.40491064193E+02  0.00000000000E+00 0.  1.
          2    1    1    2  501    0  0.13822268078E+02  0.24368845045E+02  0.86195910128E+03  0.86241427863E+03  0.25500000000E-02 0.  1.
<mgrwt>
<rscale>  0 0.19685861E+02</rscale>
<asrwt>0</asrwt>
<pdfrwt beam="1">  1       11 0.10000000E+01 0.26254624E+02</pdfrwt>
<pdfrwt beam="2">  1        2 0.41335143E-03 0.19685861E+02</pdfrwt>
<totfact> 0.35842072E+04</totfact>
</mgrwt>
</event>
<event>
 5    1  0.9955701E-004  0.5280132E+02  0.7818608E-02  0.1473636E+00
         11   -1    0    0    0    0  0.00000000000E+00  0.00000000000E+00  0.10001289297E+04  0.10001289297E+04  0.51100000000E-03 0. -1.
          2   -1    0    0  501    0 -0.00000000000E+00 -0.00000000000E+00 -0.71404135324E+01  0.71404139877E+01  0.25500000000E-02 0. -1.
         11    1    1    2    0    0  0.43838208333E+02  0.36972331039E+02  0.20391017514E+03  0.21182091799E+03  0.51100000000E-03 0. -1.
         22    1    1    2    0    0  0.10803668724E+02 -0.36999440689E+02  0.18918053913E+03  0.19306722729E+03  0.00000000000E+00 0.  1.
          2    1    1    2  501    0 -0.54641877057E+02  0.27109650095E-01  0.59989780194E+03  0.60238119845E+03  0.25500000000E-02 0. -1.
<mgrwt>
<rscale>  0 0.45113181E+02</rscale>
<asrwt>0</asrwt>
<pdfrwt beam="1">  1       11 0.10000000E+01 0.52801323E+02</pdfrwt>
<pdfrwt beam="2">  1        2 0.10986668E-02 0.45113181E+02</pdfrwt>
<totfact> 0.11928613E+04</totfact>
</mgrwt>
</event>
<event>
 5    1  0.9955701E-004  0.1704548E+03  0.7818608E-02  0.1473089E+00
         11   -1    0    0    0    0  0.00000000000E+00  0.00000000000E+00  0.10003258137E+04  0.10003258137E+04  0.51100000000E-03 0. -1.
          2   -1    0    0  501    0 -0.00000000000E+00 -0.00000000000E+00 -0.22020145554E+03  0.22020145555E+03  0.25500000000E-02 0. -1.
         11    1    1    2    0    0 -0.11768096990E+03 -0.12407405445E+03  0.95138268911E+03  0.96662929957E+03  0.51100000000E-03 0. -1.
         22    1    1    2    0    0  0.66838442263E+01  0.99500335569E+01 -0.56220839100E+02  0.57484429983E+02  0.00000000000E+00 0.  1.
          2    1    1    2  501    0  0.11099712567E+03  0.11412402089E+03 -0.11503749182E+03  0.19641353971E+03  0.25500000000E-02 0. -1.
<mgrwt>
<rscale>  0 0.45201352E+02</rscale>
<asrwt>0</asrwt>
<pdfrwt beam="1">  1       11 0.10000000E+01 0.17045483E+03</pdfrwt>
<pdfrwt beam="2">  1        2 0.33888184E-01 0.45201352E+02</pdfrwt>
<totfact> 0.18406604E+02</totfact>
</mgrwt>
</event>
<event>
 5    1  0.9955701E-004  0.4772204E+02  0.7818608E-02  0.1640743E+00
         11   -1    0    0    0    0  0.00000000000E+00  0.00000000000E+00  0.99995960429E+03  0.99995960429E+03  0.51100000000E-03 0. -1.
          2   -1    0    0  501    0 -0.00000000000E+00 -0.00000000000E+00 -0.65921058458E+01  0.65921063390E+01  0.25500000000E-02 0. -1.
         11    1    1    2    0    0 -0.32528613758E+02  0.50707763683E+02  0.20184819315E+03  0.21064681600E+03  0.51100000000E-03 0. -1.
         22    1    1    2    0    0  0.60671547935E+01 -0.13369914892E+02  0.34380154667E+02  0.37383954131E+02  0.00000000000E+00 0.  1.
          2    1    1    2  501    0  0.26461458965E+02 -0.37337848791E+02  0.75713915063E+03  0.75852094050E+03  0.25500000000E-02 0. -1.
<mgrwt>
<rscale>  0 0.26470001E+02</rscale>
<asrwt>0</asrwt>
<pdfrwt beam="1">  1       11 0.10000000E+01 0.47722042E+02</pdfrwt>
<pdfrwt beam="2">  1        2 0.10141292E-02 0.26470001E+02</pdfrwt>
<totfact> 0.11924073E+04</totfact>
</mgrwt>
</event>
<event>
 5    1  0.9955701E-004  0.1048866E+03  0.7818608E-02  0.1278135E+00
         11   -1    0    0    0    0  0.00000000000E+00  0.00000000000E+00  0.10002096437E+04  0.10002096437E+04  0.51100000000E-03 0. -1.
          2   -1    0    0  501    0 -0.00000000000E+00 -0.00000000000E+00 -0.34999202985E+02  0.34999203078E+02  0.25500000000E-02 0. -1.
         11    1    1    2    0    0 -0.64381366283E+02  0.90166768943E+02  0.37390495005E+03  0.38997425328E+03  0.51100000000E-03 0. -1.
         22    1    1    2    0    0  0.93819171345E+02  0.25883466334E+02  0.99962790861E+02  0.13951541240E+03  0.00000000000E+00 0. -1.
          2    1    1    2  501    0 -0.29437805062E+02 -0.11605023528E+03  0.49134269979E+03  0.50571918109E+03  0.25500000000E-02 0. -1.
<mgrwt>
<rscale>  0 0.10103464E+03</rscale>
<asrwt>0</asrwt>
<pdfrwt beam="1">  1       11 0.10000000E+01 0.10488663E+03</pdfrwt>
<pdfrwt beam="2">  1        2 0.53856214E-02 0.10103464E+03</pdfrwt>
<totfact> 0.16235957E+03</totfact>
</mgrwt>
</event>
<event>
 5    1  0.9955701E-004  0.3616622E+03  0.7818608E-02  0.1372545E+00
         11   -1    0    0    0    0  0.00000000000E+00  0.00000000000E+00  0.99977591858E+03  0.99977591858E+03  0.51100000000E-03 0. -1.
          2   -1    0    0  501    0 -0.00000000000E+00 -0.00000000000E+00 -0.61951027095E+03  0.61951027095E+03  0.25500000000E-02 0.  1.
         11    1    1    2    0    0  0.36132268900E+03 -0.28423504242E+02  0.90452903927E+03  0.97444074426E+03  0.51100000000E-03 0. -1.
         22    1    1    2    0    0 -0.12068061728E+02  0.18863979845E+01 -0.70873705068E+02  0.71918555890E+02  0.00000000000E+00 0. -1.
          2    1    1    2  501    0 -0.34925462727E+03  0.26537106257E+02 -0.45338968658E+03  0.57292688938E+03  0.25500000000E-02 0.  1.
<mgrwt>
<rscale>  0 0.66464742E+02</rscale>
<asrwt>0</asrwt>
<pdfrwt beam="1">  1       11 0.10000000E+01 0.36166224E+03</pdfrwt>
<pdfrwt beam="2">  1        2 0.95287913E-01 0.66464742E+02</pdfrwt>
<totfact> 0.62717031E+01</totfact>
</mgrwt>
</event>
<event>
 5    1  0.9955701E-004  0.1916257E+03  0.7818608E-02  0.1157003E+00
         11   -1    0    0    0    0  0.00000000000E+00  0.00000000000E+00  0.10001140856E+04  0.10001140856E+04  0.51100000000E-03 0. -1.
          2   -1    0    0  501    0 -0.00000000000E+00 -0.00000000000E+00 -0.19533170256E+03  0.19533170258E+03  0.25500000000E-02 0. -1.
         11    1    1    2    0    0 -0.29711398687E+02  0.18516686327E+03  0.94153345969E+03  0.96002853612E+03  0.51100000000E-03 0. -1.
         22    1    1    2    0    0  0.23031261787E+02 -0.51025102327E+02 -0.53283669573E+02  0.77286153547E+02  0.00000000000E+00 0. -1.
          2    1    1    2  501    0  0.66801369001E+01 -0.13414176094E+03 -0.83467407085E+02  0.15813109849E+03  0.25500000000E-02 0. -1.
<mgrwt>
<rscale>  0 0.19162574E+03</rscale>
<asrwt>0</asrwt>
<pdfrwt beam="1">  1       11 0.10000000E+01 0.18753542E+03</pdfrwt>
<pdfrwt beam="2">  1        2 0.30054459E-01 0.19162574E+03</pdfrwt>
<totfact> 0.21549293E+02</totfact>
</mgrwt>
</event>
<event>
 5    1  0.9955701E-004  0.2633247E+03  0.7818608E-02  0.1406018E+00
         11   -1    0    0    0    0  0.00000000000E+00  0.00000000000E+00  0.10003067001E+04  0.10003067001E+04  0.51100000000E-03 0. -1.
          2   -1    0    0  501    0 -0.00000000000E+00 -0.00000000000E+00 -0.14579644735E+03  0.14579644737E+03  0.25500000000E-02 0. -1.
         11    1    1    2    0    0  0.48331190899E+01  0.26330005470E+03  0.82132093490E+03  0.86250701792E+03  0.51100000000E-03 0. -1.
         22    1    1    2    0    0  0.12809045896E+02 -0.41014552355E+00 -0.10436631467E+02  0.16527648123E+02  0.00000000000E+00 0.  1.
          2    1    1    2  501    0 -0.17642164986E+02 -0.26288990917E+03  0.43625949357E+02  0.26706848147E+03  0.25500000000E-02 0. -1.
<mgrwt>
<rscale>  0 0.58091886E+02</rscale>
<asrwt>0</asrwt>
<pdfrwt beam="1">  1       11 0.10000000E+01 0.26332473E+03</pdfrwt>
<pdfrwt beam="2">  1        2 0.22437101E-01 0.58091886E+02</pdfrwt>
<totfact> 0.28695045E+02</totfact>
</mgrwt>
</event>
<event>
 5    1  0.9955701E-004  0.6810421E+02  0.7818608E-02  0.1366661E+00
         11   -1    0    0    0    0  0.00000000000E+00  0.00000000000E+00  0.10000139823E+04  0.10000139823E+04  0.51100000000E-03 0. -1.
          2   -1    0    0  501    0 -0.00000000000E+00 -0.00000000000E+00 -0.10698789054E+02  0.10698789358E+02  0.25500000000E-02 0. -1.
         11    1    1    2    0    0 -0.11090961105E+02 -0.37616194558E+02  0.12288945720E+03  0.12899537279E+03  0.51100000000E-03 0. -1.
         22    1    1    2    0    0  0.70150695261E+02  0.18551314693E+02  0.20646032256E+03  0.21884043528E+03  0.00000000000E+00 0. -1.
          2    1    1    2  501    0 -0.59059734157E+02  0.19064879864E+02  0.65996541349E+03  0.66287696358E+03  0.25500000000E-02 0. -1.
<mgrwt>
<rscale>  0 0.68104207E+02</rscale>
<asrwt>0</asrwt>
<pdfrwt beam="1">  1       11 0.10000000E+01 0.39217203E+02</pdfrwt>
<pdfrwt beam="2">  1        2 0.16459905E-02 0.68104207E+02</pdfrwt>
<totfact> 0.74282953E+03</totfact>
</mgrwt>
</event>
<event>
 5    1  0.9955701E-004  0.4188630E+02  0.7818608E-02  0.1513249E+00
         11   -1    0    0    0    0  0.00000000000E+00  0.00000000000E+00  0.10004111741E+04  0.10004111741E+04  0.51100000000E-03 0. -1.
          2   -1    0    0  501    0 -0.00000000000E+00 -0.00000000000E+00 -0.34675381980E+01  0.34675391356E+01  0.25500000000E-02 0. -1.
         11    1    1    2    0    0  0.64054271656E+01 -0.21892608685E+02  0.63879650467E+02  0.67830122779E+02  0.51100000000E-03 0. -1.
         22    1    1    2    0    0 -0.52839352444E+01 -0.17414915804E+02  0.78565075439E+02  0.80645336771E+02  0.00000000000E+00 0. -1.
          2    1    1    2  501    0 -0.11214919212E+01  0.39307524488E+02  0.85449891004E+03  0.85540325373E+03  0.25500000000E-02 0. -1.
<mgrwt>
<rscale>  0 0.39323520E+02</rscale>
<asrwt>0</asrwt>
<pdfrwt beam="1">  1       11 0.10000000E+01 0.41886300E+02</pdfrwt>
<pdfrwt beam="2">  1        2 0.53368682E-03 0.39323520E+02</pdfrwt>
<totfact> 0.30491263E+04</totfact>
</mgrwt>
</event>
<event>
 5    1  0.9955701E-004  0.1016460E+03  0.7818608E-02  0.1557976E+00
         11   -1    0    0    0    0  0.00000000000E+00  0.00000000000E+00  0.99995320745E+03  0.99995320745E+03  0.51100000000E-03 0.  1.
          2   -1    0    0  501    0 -0.00000000000E+00 -0.00000000000E+00 -0.13075115097E+02  0.13075115346E+02  0.25500000000E-02 0.  1.
         11    1    1    2    0    0 -0.44191516900E+02  0.99558883643E+02  0.38044159546E+03  0.39572802407E+03  0.51100000000E-03 0.  1.
         22    1    1    2    0    0  0.64038577046E+01 -0.93712714083E+01  0.22159162777E+02  0.24896959981E+02  0.00000000000E+00 0.  1.
          2    1    1    2  501    0  0.37787659196E+02 -0.90187612234E+02  0.58427733412E+03  0.59240333875E+03  0.25500000000E-02 0.  1.
<mgrwt>
<rscale>  0 0.33966388E+02</rscale>
<asrwt>0</asrwt>
<pdfrwt beam="1">  1       11 0.10000000E+01 0.10164599E+03</pdfrwt>
<pdfrwt beam="2">  1        2 0.20114620E-02 0.33966388E+02</pdfrwt>
<totfact> 0.51088818E+03</totfact>
</mgrwt>
</event>
<event>
 5    1  0.9955701E-004  0.1054620E+03  0.7818608E-02  0.1472990E+00
         11   -1    0    0    0    0  0.00000000000E+00  0.00000000000E+00  0.10003805327E+04  0.10003805327E+04  0.51100000000E-03 0.  1.
          2   -1    0    0  501    0 -0.00000000000E+00 -0.00000000000E+00 -0.14106470074E+02  0.14106470304E+02  0.25500000000E-02 0.  1.
         11    1    1    2    0    0 -0.92309817338E+02  0.62069862523E+02  0.43321922216E+03  0.44727247251E+03  0.51100000000E-03 0.  1.
         22    1    1    2    0    0 -0.19958992869E+00 -0.19386112364E+02  0.44266011836E+02  0.48325365934E+02  0.00000000000E+00 0.  1.
          2    1    1    2  501    0  0.92509407267E+02 -0.42683750159E+02  0.50878882868E+03  0.51888916461E+03  0.25500000000E-02 0.  1.
<mgrwt>
<rscale>  0 0.45217319E+02</rscale>
<asrwt>0</asrwt>
<pdfrwt beam="1">  1       11 0.10000000E+01 0.10546202E+03</pdfrwt>
<pdfrwt beam="2">  1        2 0.21710520E-02 0.45217319E+02</pdfrwt>
<totfact> 0.48375810E+03</totfact>
</mgrwt>
</event>
<event>
 5    1  0.9955701E-004  0.1268876E+03  0.7818608E-02  0.1481465E+00
         11   -1    0    0    0    0  0.00000000000E+00  0.00000000000E+00  0.10002280576E+04  0.10002280576E+04  0.51100000000E-03 0. -1.
          2   -1    0    0  501    0 -0.00000000000E+00 -0.00000000000E+00 -0.21399439159E+02  0.21399439311E+02  0.25500000000E-02 0. -1.
         11    1    1    2    0    0  0.12458923349E+03  0.44588283096E+02  0.66976171400E+03  0.68270882931E+03  0.51100000000E-03 0. -1.
         22    1    1    2    0    0 -0.12943894074E+02 -0.79181321713E+01  0.11657399302E+02  0.19134684982E+02  0.00000000000E+00 0. -1.
          2    1    1    2  501    0 -0.11164533941E+03 -0.36670150925E+02  0.29740950515E+03  0.31978398262E+03  0.25500000000E-02 0. -1.
<mgrwt>
<rscale>  0 0.43878857E+02</rscale>
<asrwt>0</asrwt>
<pdfrwt beam="1">  1       11 0.10000000E+01 0.12688757E+03</pdfrwt>
<pdfrwt beam="2">  1        2 0.32929721E-02 0.43878857E+02</pdfrwt>
<totfact> 0.28010012E+03</totfact>
</mgrwt>
</event>
<event>
 5    1  0.9955701E-004  0.2253991E+03  0.7818608E-02  0.1129921E+00
         11   -1    0    0    0    0  0.00000000000E+00  0.00000000000E+00  0.10001113975E+04  0.10001113975E+04  0.51100000000E-03 0. -1.
          2   -1    0    0  501    0 -0.00000000000E+00 -0.00000000000E+00 -0.44954200294E+03  0.44954200294E+03  0.25500000000E-02 0. -1.
         11    1    1    2    0    0  0.13808635077E+03  0.17127214768E+03  0.95859103562E+03  0.98351347851E+03  0.51100000000E-03 0. -1.
         22    1    1    2    0    0 -0.13546119459E+01 -0.15720751477E+02 -0.14413030385E+02  0.21370831650E+02  0.00000000000E+00 0.  1.
          2    1    1    2  501    0 -0.13673173882E+03 -0.15555139621E+03 -0.39360861068E+03  0.44476909028E+03  0.25500000000E-02 0. -1.
<mgrwt>
<rscale>  0 0.22539913E+03</rscale>
<asrwt>0</asrwt>
<pdfrwt beam="1">  1       11 0.10000000E+01 0.22000452E+03</pdfrwt>
<pdfrwt beam="2">  1        2 0.69168010E-01 0.22539913E+03</pdfrwt>
<totfact> 0.87493504E+01</totfact>
</mgrwt>
</event>
<event>
 5    1  0.9955701E-004  0.1524783E+03  0.7818608E-02  0.1500852E+00
         11   -1    0    0    0    0  0.00000000000E+00  0.00000000000E+00  0.99996292628E+03  0.99996292628E+03  0.51100000000E-03 0.  1.
          2   -1    0    0  501    0 -0.00000000000E+00 -0.00000000000E+00 -0.13790879429E+03  0.13790879432E+03  0.25500000000E-02 0.  1.
         11    1    1    2    0    0 -0.93061323713E+02  0.12119985396E+03  0.90990408397E+03  0.92264579151E+03  0.51100000000E-03 0.  1.
         22    1    1    2    0    0  0.10534144042E+02  0.32839142408E+01 -0.64051211120E+02  0.64994691547E+02  0.00000000000E+00 0.  1.
          2    1    1    2  501    0  0.82527179671E+02 -0.12448376820E+03  0.16201259145E+02  0.15023123755E+03  0.25500000000E-02 0.  1.
<mgrwt>
<rscale>  0 0.41017887E+02</rscale>
<asrwt>0</asrwt>
<pdfrwt beam="1">  1       11 0.10000000E+01 0.15247829E+03</pdfrwt>
<pdfrwt beam="2">  1        2 0.21215950E-01 0.41017887E+02</pdfrwt>
<totfact> 0.30035746E+02</totfact>
</mgrwt>
</event>
<event>
 5    1  0.9955701E-004  0.1323202E+03  0.7818608E-02  0.1505440E+00
         11   -1    0    0    0    0  0.00000000000E+00  0.00000000000E+00  0.99993003060E+03  0.99993003060E+03  0.51100000000E-03 0. -1.
          2   -1    0    0  501    0 -0.00000000000E+00 -0.00000000000E+00 -0.49833541092E+02  0.49833541158E+02  0.25500000000E-02 0. -1.
         11    1    1    2    0    0  0.12915723241E+03  0.26098141992E+02  0.30240630038E+03  0.32986705535E+03  0.51100000000E-03 0. -1.
         22    1    1    2    0    0  0.28529285206E+01 -0.11987385312E+02 -0.28366577992E+02  0.30927323757E+02  0.00000000000E+00 0. -1.
          2    1    1    2  501    0 -0.13201016093E+03 -0.14110756680E+02  0.67605676712E+03  0.68896919265E+03  0.25500000000E-02 0. -1.
<mgrwt>
<rscale>  0 0.40379145E+02</rscale>
<asrwt>0</asrwt>
<pdfrwt beam="1">  1       11 0.10000000E+01 0.13232022E+03</pdfrwt>
<pdfrwt beam="2">  1        2 0.76661620E-02 0.40379145E+02</pdfrwt>
<totfact> 0.96265545E+02</totfact>
</mgrwt>
</event>
<event>
 5    1  0.9955701E-004  0.3137462E+02  0.7818608E-02  0.1610307E+00
         11   -1    0    0    0    0  0.00000000000E+00  0.00000000000E+00  0.99985252763E+03  0.99985252763E+03  0.51100000000E-03 0. -1.
          2   -1    0    0  501    0 -0.00000000000E+00 -0.00000000000E+00 -0.47347126065E+01  0.47347132932E+01  0.25500000000E-02 0. -1.
         11    1    1    2    0    0 -0.45010354774E+02 -0.86594375755E+01  0.23919511326E+03  0.24354716197E+03  0.51100000000E-03 0. -1.
         22    1    1    2    0    0  0.23557288151E+02 -0.12489118581E+02  0.77678013291E+02  0.82126717071E+02  0.00000000000E+00 0. -1.
          2    1    1    2  501    0  0.21453066623E+02  0.21148556156E+02  0.67824468847E+03  0.67891336188E+03  0.25500000000E-02 0. -1.
<mgrwt>
<rscale>  0 0.28923107E+02</rscale>
<asrwt>0</asrwt>
<pdfrwt beam="1">  1       11 0.10000000E+01 0.31374624E+02</pdfrwt>
<pdfrwt beam="2">  1        2 0.72830993E-03 0.28923107E+02</pdfrwt>
<totfact> 0.18800119E+04</totfact>
</mgrwt>
</event>
<event>
 5    1  0.9955701E-004  0.2179852E+03  0.7818608E-02  0.1393865E+00
         11   -1    0    0    0    0  0.00000000000E+00  0.00000000000E+00  0.10000539961E+04  0.10000539961E+04  0.51100000000E-03 0.  1.
          2   -1    0    0  501    0 -0.00000000000E+00 -0.00000000000E+00 -0.15676044986E+03  0.15676044988E+03  0.25500000000E-02 0.  1.
         11    1    1    2    0    0  0.22006661516E+03  0.16605252984E+02  0.83499436196E+03  0.86366696941E+03  0.51100000000E-03 0.  1.
         22    1    1    2    0    0 -0.16356628701E+02  0.47952925131E+01 -0.71363287828E+02  0.73370654777E+02  0.00000000000E+00 0.  1.
          2    1    1    2  501    0 -0.20370998646E+03 -0.21400545497E+02  0.79662472089E+02  0.21977682179E+03  0.25500000000E-02 0.  1.
<mgrwt>
<rscale>  0 0.60955484E+02</rscale>
<asrwt>0</asrwt>
<pdfrwt beam="1">  1       11 0.10000000E+01 0.21798519E+03</pdfrwt>
<pdfrwt beam="2">  1        2 0.24118294E-01 0.60955484E+02</pdfrwt>
<totfact> 0.26585638E+02</totfact>
</mgrwt>
</event>
<event>
 5    1  0.9955701E-004  0.1993963E+03  0.7818608E-02  0.1300902E+00
         11   -1    0    0    0    0  0.00000000000E+00  0.00000000000E+00  0.10001262156E+04  0.10001262156E+04  0.51100000000E-03 0. -1.
          2   -1    0    0  501    0 -0.00000000000E+00 -0.00000000000E+00 -0.84000780463E+02  0.84000780502E+02  0.25500000000E-02 0. -1.
         11    1    1    2    0    0 -0.19440793834E+03  0.38811997293E+02  0.74846735657E+03  0.77427656653E+03  0.51100000000E-03 0. -1.
         22    1    1    2    0    0 -0.12576218692E+02 -0.39398410646E+02 -0.31663701568E+01  0.41477969309E+02  0.00000000000E+00 0.  1.
          2    1    1    2  501    0  0.20698415703E+03  0.58641335328E+00  0.17082444873E+03  0.26837246027E+03  0.25500000000E-02 0. -1.
<mgrwt>
<rscale>  0 0.90809807E+02</rscale>
<asrwt>0</asrwt>
<pdfrwt beam="1">  1       11 0.10000000E+01 0.19939633E+03</pdfrwt>
<pdfrwt beam="2">  1        2 0.12924828E-01 0.90809807E+02</pdfrwt>
<totfact> 0.54657198E+02</totfact>
</mgrwt>
</event>
<event>
 5    1  0.9955701E-004  0.2174710E+03  0.7818608E-02  0.1146801E+00
         11   -1    0    0    0    0  0.00000000000E+00  0.00000000000E+00  0.10002020473E+04  0.10002020473E+04  0.51100000000E-03 0. -1.
          2   -1    0    0  501    0 -0.00000000000E+00 -0.00000000000E+00 -0.44592596304E+02  0.44592596377E+02  0.25500000000E-02 0. -1.
         11    1    1    2    0    0  0.16312598595E+03  0.74339554245E+02  0.36508271993E+03  0.40672084900E+03  0.51100000000E-03 0. -1.
         22    1    1    2    0    0  0.32810020053E+02 -0.19290051378E+02  0.86149284800E+02  0.94182284797E+02  0.00000000000E+00 0. -1.
          2    1    1    2  501    0 -0.19593600601E+03 -0.55049502868E+02  0.50437744631E+03  0.54389150993E+03  0.25500000000E-02 0. -1.
<mgrwt>
<rscale>  0 0.20352240E+03</rscale>
<asrwt>0</asrwt>
<pdfrwt beam="1">  1       11 0.10000000E+01 0.21747098E+03</pdfrwt>
<pdfrwt beam="2">  1        2 0.68617854E-02 0.20352240E+03</pdfrwt>
<totfact> 0.12517396E+03</totfact>
</mgrwt>
</event>
<event>
 5    1  0.9955701E-004  0.2308829E+02  0.7818608E-02  0.1707120E+00
         11   -1    0    0    0    0  0.00000000000E+00  0.00000000000E+00  0.10002507697E+04  0.10002507697E+04  0.51100000000E-03 0. -1.
          2   -1    0    0  501    0 -0.00000000000E+00 -0.00000000000E+00 -0.28286488757E+01  0.28286500251E+01  0.25500000000E-02 0. -1.
         11    1    1    2    0    0 -0.24044266945E+02  0.11593149652E+02  0.10049018896E+03  0.10397502570E+03  0.51100000000E-03 0. -1.
         22    1    1    2    0    0  0.17886692024E+02  0.11170347514E+02  0.12167754710E+03  0.12349144052E+03  0.00000000000E+00 0. -1.
          2    1    1    2  501    0  0.61575749218E+01 -0.22763497166E+02  0.77525438474E+03  0.77561295348E+03  0.25500000000E-02 0. -1.
<mgrwt>
<rscale>  0 0.22065569E+02</rscale>
<asrwt>0</asrwt>
<pdfrwt beam="1">  1       11 0.10000000E+01 0.23088293E+02</pdfrwt>
<pdfrwt beam="2">  1        2 0.43528596E-03 0.22065569E+02</pdfrwt>
<totfact> 0.34587964E+04</totfact>
</mgrwt>
</event>
<event>
 5    1  0.9955701E-004  0.5636324E+02  0.7818608E-02  0.1413760E+00
         11   -1    0    0    0    0  0.00000000000E+00  0.00000000000E+00  0.10004816216E+04  0.10004816216E+04  0.51100000000E-03 0. -1.
          2   -1    0    0  501    0 -0.00000000000E+00 -0.00000000000E+00 -0.19191298089E+02  0.19191298259E+02  0.25500000000E-02 0. -1.
         11    1    1    2    0    0  0.33073458438E+02  0.35777699230E+01  0.15330771375E+03  0.15687545756E+03  0.51100000000E-03 0. -1.
         22    1    1    2    0    0  0.33775522626E+02 -0.43818495712E+02  0.33887956835E+02  0.64878656842E+02  0.00000000000E+00 0. -1.
          2    1    1    2  501    0 -0.66848981064E+02  0.40240725790E+02  0.79409465295E+03  0.79791880548E+03  0.25500000000E-02 0. -1.
<mgrwt>
<rscale>  0 0.56363236E+02</rscale>
<asrwt>0</asrwt>
<pdfrwt beam="1">  1       11 0.10000000E+01 0.33266411E+02</pdfrwt>
<pdfrwt beam="2">  1        2 0.29539293E-02 0.56363236E+02</pdfrwt>
<totfact> 0.33313743E+03</totfact>
</mgrwt>
</event>
<event>
 5    1  0.9955701E-004  0.1400249E+03  0.7818608E-02  0.1213296E+00
         11   -1    0    0    0    0  0.00000000000E+00  0.00000000000E+00  0.10003993608E+04  0.10003993608E+04  0.51100000000E-03 0. -1.
          2   -1    0    0  501    0 -0.00000000000E+00 -0.00000000000E+00 -0.21149817798E+02  0.21149817952E+02  0.25500000000E-02 0. -1.
         11    1    1    2    0    0  0.11583354136E+03  0.55260832855E+02  0.66850942980E+03  0.68071728837E+03  0.51100000000E-03 0. -1.
         22    1    1    2    0    0 -0.36687317128E+02 -0.47344119821E+00  0.44207933152E+02  0.57450193544E+02  0.00000000000E+00 0.  1.
          2    1    1    2  501    0 -0.79146224232E+02 -0.54787391657E+02  0.26653218002E+03  0.28338169681E+03  0.25500000000E-02 0. -1.
<mgrwt>
<rscale>  0 0.14002485E+03</rscale>
<asrwt>0</asrwt>
<pdfrwt beam="1">  1       11 0.10000000E+01 0.12834005E+03</pdfrwt>
<pdfrwt beam="2">  1        2 0.32551175E-02 0.14002485E+03</pdfrwt>
<totfact> 0.32435748E+03</totfact>
</mgrwt>
</event>
<event>
 5    1  0.9955701E-004  0.1804402E+03  0.7818608E-02  0.1367226E+00
         11   -1    0    0    0    0  0.00000000000E+00  0.00000000000E+00  0.10001922095E+04  0.10001922095E+04  0.51100000000E-03 0.  1.
          2   -1    0    0  501    0 -0.00000000000E+00 -0.00000000000E+00 -0.84925044989E+02  0.84925045028E+02  0.25500000000E-02 0.  1.
         11    1    1    2    0    0  0.10398718441E+03 -0.14764302591E+03  0.60286716313E+03  0.62933346805E+03  0.51100000000E-03 0.  1.
         22    1    1    2    0    0 -0.21518090973E+02 -0.13839527665E+02 -0.46843005245E+02  0.53374412460E+02  0.00000000000E+00 0.  1.
          2    1    1    2  501    0 -0.82469093438E+02  0.16148255358E+03  0.35924300660E+03  0.40240937400E+03  0.25500000000E-02 0.  1.
<mgrwt>
<rscale>  0 0.67944471E+02</rscale>
<asrwt>0</asrwt>
<pdfrwt beam="1">  1       11 0.10000000E+01 0.18044019E+03</pdfrwt>
<pdfrwt beam="2">  1        2 0.13067902E-01 0.67944471E+02</pdfrwt>
<totfact> 0.53090866E+02</totfact>
</mgrwt>
</event>
<event>
 5    1  0.9955701E-004  0.1632279E+03  0.7818608E-02  0.1385458E+00
         11   -1    0    0    0    0  0.00000000000E+00  0.00000000000E+00  0.10003468249E+04  0.10003468249E+04  0.51100000000E-03 0. -1.
          2   -1    0    0  501    0 -0.00000000000E+00 -0.00000000000E+00 -0.46270212558E+03  0.46270212558E+03  0.25500000000E-02 0. -1.
         11    1    1    2    0    0 -0.10902785655E+03 -0.12109878104E+03  0.96940829614E+03  0.98300784987E+03  0.51100000000E-03 0. -1.
         22    1    1    2    0    0  0.45442139088E+01 -0.23927100630E+02 -0.10287910110E+03  0.10572258731E+03  0.00000000000E+00 0.  1.
          2    1    1    2  501    0  0.10448364264E+03  0.14502588167E+03 -0.32888449567E+03  0.37431851335E+03  0.25500000000E-02 0. -1.
<mgrwt>
<rscale>  0 0.63050632E+02</rscale>
<asrwt>0</asrwt>
<pdfrwt beam="1">  1       11 0.10000000E+01 0.16322791E+03</pdfrwt>
<pdfrwt beam="2">  1        2 0.71209629E-01 0.63050632E+02</pdfrwt>
<totfact> 0.85941202E+01</totfact>
</mgrwt>
</event>
<event>
 5    1  0.9955701E-004  0.2952178E+02  0.7818608E-02  0.1637888E+00
         11   -1    0    0    0    0  0.00000000000E+00  0.00000000000E+00  0.10002552395E+04  0.10002552395E+04  0.51100000000E-03 0. -1.
          2   -1    0    0  501    0 -0.00000000000E+00 -0.00000000000E+00 -0.71430645876E+01  0.71430650428E+01  0.25500000000E-02 0. -1.
         11    1    1    2    0    0  0.46981495194E+02 -0.10512292762E+02  0.10990748913E+03  0.11998927184E+03  0.51100000000E-03 0. -1.
         22    1    1    2    0    0 -0.18641616406E+02  0.15313085233E+02  0.76970290283E+02  0.80662420171E+02  0.00000000000E+00 0.  1.
          2    1    1    2  501    0 -0.28339878788E+02 -0.48007924711E+01  0.80623439554E+03  0.80674661257E+03  0.25500000000E-02 0. -1.
<mgrwt>
<rscale>  0 0.26687136E+02</rscale>
<asrwt>0</asrwt>
<pdfrwt beam="1">  1       11 0.10000000E+01 0.29521777E+02</pdfrwt>
<pdfrwt beam="2">  1        2 0.10992135E-02 0.26687136E+02</pdfrwt>
<totfact> 0.10749033E+04</totfact>
</mgrwt>
</event>
<event>
 5    1  0.9955701E-004  0.1463871E+03  0.7818608E-02  0.1204984E+00
         11   -1    0    0    0    0  0.00000000000E+00  0.00000000000E+00  0.10005860553E+04  0.10005860553E+04  0.51100000000E-03 0. -1.
          2   -1    0    0  501    0 -0.00000000000E+00 -0.00000000000E+00 -0.24461561794E+02  0.24461561927E+02  0.25500000000E-02 0. -1.
         11    1    1    2    0    0 -0.98089081862E+02 -0.10288067217E+03  0.68021452127E+03  0.69490840809E+03  0.51100000000E-03 0. -1.
         22    1    1    2    0    0 -0.10819779820E+01  0.10316504957E+02  0.27589772045E+02  0.29475353643E+02  0.00000000000E+00 0. -1.
          2    1    1    2  501    0  0.99171059844E+02  0.92564167215E+02  0.26832020017E+03  0.30066385548E+03  0.25500000000E-02 0. -1.
<mgrwt>
<rscale>  0 0.14638711E+03</rscale>
<asrwt>0</asrwt>
<pdfrwt beam="1">  1       11 0.10000000E+01 0.14214746E+03</pdfrwt>
<pdfrwt beam="2">  1        2 0.37655226E-02 0.14638711E+03</pdfrwt>
<totfact> 0.26812068E+03</totfact>
</mgrwt>
</event>
<event>
 5    1  0.9955701E-004  0.1964433E+03  0.7818608E-02  0.1152775E+00
         11   -1    0    0    0    0  0.00000000000E+00  0.00000000000E+00  0.99993081808E+03  0.99993081808E+03  0.51100000000E-03 0.  1.
          2   -1    0    0  501    0 -0.00000000000E+00 -0.00000000000E+00 -0.86295758117E+02  0.86295758155E+02  0.25500000000E-02 0.  1.
         11    1    1    2    0    0 -0.28129025885E+02 -0.18324592776E+03  0.86392257927E+03  0.88359070564E+03  0.51100000000E-03 0.  1.
         22    1    1    2    0    0 -0.19685361718E+02  0.42493985032E+02  0.34827651780E+01  0.46961493621E+02  0.00000000000E+00 0.  1.
          2    1    1    2  501    0  0.47814387603E+02  0.14075194272E+03  0.46229715523E+02  0.15567437697E+03  0.25500000000E-02 0.  1.
<mgrwt>
<rscale>  0 0.19644329E+03</rscale>
<asrwt>0</asrwt>
<pdfrwt beam="1">  1       11 0.10000000E+01 0.18539232E+03</pdfrwt>
<pdfrwt beam="2">  1        2 0.13275352E-01 0.19644329E+03</pdfrwt>
<totfact> 0.54920292E+02</totfact>
</mgrwt>
</event>
<event>
 5    1  0.9955701E-004  0.1723508E+03  0.7818608E-02  0.1449235E+00
         11   -1    0    0    0    0  0.00000000000E+00  0.00000000000E+00  0.10001132689E+04  0.10001132689E+04  0.51100000000E-03 0.  1.
          2   -1    0    0  501    0 -0.00000000000E+00 -0.00000000000E+00 -0.40895484156E+02  0.40895484236E+02  0.25500000000E-02 0.  1.
         11    1    1    2    0    0 -0.15812930618E+03 -0.70612266164E+02  0.71029483360E+03  0.73110171676E+03  0.51100000000E-03 0.  1.
         22    1    1    2    0    0  0.85340839472E+01 -0.11215999398E+02  0.19221989467E+02  0.23835144438E+02  0.00000000000E+00 0.  1.
          2    1    1    2  501    0  0.14959522223E+03  0.81828265562E+02  0.22970096170E+03  0.28607189197E+03  0.25500000000E-02 0.  1.
<mgrwt>
<rscale>  0 0.49285307E+02</rscale>
<asrwt>0</asrwt>
<pdfrwt beam="1">  1       11 0.10000000E+01 0.17235082E+03</pdfrwt>
<pdfrwt beam="2">  1        2 0.62923254E-02 0.49285307E+02</pdfrwt>
<totfact> 0.12495611E+03</totfact>
</mgrwt>
</event>
<event>
 5    1  0.9955701E-004  0.4636333E+03  0.7818608E-02  0.1201776E+00
         11   -1    0    0    0    0  0.00000000000E+00  0.00000000000E+00  0.10000472064E+04  0.10000472064E+04  0.51100000000E-03 0. -1.
          2   -1    0    0  501    0 -0.00000000000E+00 -0.00000000000E+00 -0.54736994901E+03  0.54736994902E+03  0.25500000000E-02 0. -1.
         11    1    1    2    0    0  0.45635365855E+03 -0.26195645948E+02  0.76629062695E+03  0.89227024969E+03  0.51100000000E-03 0. -1.
         22    1    1    2    0    0  0.45545311085E+02 -0.14669310107E+02 -0.94616302838E+02  0.10602739638E+03  0.00000000000E+00 0.  1.
          2    1    1    2  501    0 -0.50189896963E+03  0.40864956055E+02 -0.21899706669E+03  0.54911950938E+03  0.25500000000E-02 0. -1.
<mgrwt>
<rscale>  0 0.14894486E+03</rscale>
<asrwt>0</asrwt>
<pdfrwt beam="1">  1       11 0.10000000E+01 0.46363330E+03</pdfrwt>
<pdfrwt beam="2">  1        2 0.84214734E-01 0.14894486E+03</pdfrwt>
<totfact> 0.70772278E+01</totfact>
</mgrwt>
</event>
<event>
 5    1  0.9955701E-004  0.2630198E+03  0.7818608E-02  0.1243958E+00
         11   -1    0    0    0    0  0.00000000000E+00  0.00000000000E+00  0.10003607886E+04  0.10003607886E+04  0.51100000000E-03 0.  1.
          2   -1    0    0  501    0 -0.00000000000E+00 -0.00000000000E+00 -0.66448383778E+03  0.66448383778E+03  0.25500000000E-02 0.  1.
         11    1    1    2    0    0  0.66144803124E+02  0.25205426406E+03  0.91343655510E+03  0.94988042785E+03  0.51100000000E-03 0.  1.
         22    1    1    2    0    0  0.28692233360E+02  0.46070890902E+02 -0.27303610977E+03  0.27837831898E+03  0.00000000000E+00 0.  1.
          2    1    1    2  501    0 -0.94837036484E+02 -0.29812515496E+03 -0.30452349451E+03  0.43658587955E+03  0.25500000000E-02 0.  1.
<mgrwt>
<rscale>  0 0.11947965E+03</rscale>
<asrwt>0</asrwt>
<pdfrwt beam="1">  1       11 0.10000000E+01 0.26301978E+03</pdfrwt>
<pdfrwt beam="2">  1        2 0.10226516E+00 0.11947965E+03</pdfrwt>
<totfact> 0.57013317E+01</totfact>
</mgrwt>
</event>
<event>
 5    1  0.9955701E-004  0.1338698E+03  0.7818608E-02  0.1231000E+00
         11   -1    0    0    0    0  0.00000000000E+00  0.00000000000E+00  0.10001893176E+04  0.10001893176E+04  0.51100000000E-03 0. -1.
          2   -1    0    0  501    0 -0.00000000000E+00 -0.00000000000E+00 -0.17102861062E+02  0.17102861252E+02  0.25500000000E-02 0. -1.
         11    1    1    2    0    0 -0.11440822084E+03  0.30058618996E+02  0.47573137595E+03  0.49021740446E+03  0.51100000000E-03 0. -1.
         22    1    1    2    0    0 -0.11487650030E+02 -0.90278003034E+01  0.39308735167E+02  0.41936188930E+02  0.00000000000E+00 0. -1.
          2    1    1    2  501    0  0.12589587087E+03 -0.21030818692E+02  0.46804634543E+03  0.48513858547E+03  0.25500000000E-02 0. -1.
<mgrwt>
<rscale>  0 0.12764038E+03</rscale>
<asrwt>0</asrwt>
<pdfrwt beam="1">  1       11 0.10000000E+01 0.13386983E+03</pdfrwt>
<pdfrwt beam="2">  1        2 0.26317075E-02 0.12764038E+03</pdfrwt>
<totfact> 0.42760966E+03</totfact>
</mgrwt>
</event>
<event>
 5    1  0.9955701E-004  0.1232822E+03  0.7818608E-02  0.1544639E+00
         11   -1    0    0    0    0  0.00000000000E+00  0.00000000000E+00  0.10005517883E+04  0.10005517883E+04  0.51100000000E-03 0. -1.
         -2   -1    0    0    0  501 -0.00000000000E+00 -0.00000000000E+00 -0.22745931088E+02  0.22745931231E+02  0.25500000000E-02 0.  1.
         11    1    1    2    0    0 -0.10796507386E+03 -0.54614740816E+02  0.71131936721E+03  0.72153618707E+03  0.51100000000E-03 0. -1.
         22    1    1    2    0    0 -0.64232344691E+01 -0.79155305172E+01  0.11394880277E+02  0.15289109227E+02  0.00000000000E+00 0.  1.
         -2    1    1    2    0  501  0.11438830833E+03  0.62530271333E+02  0.25509160975E+03  0.28647242325E+03  0.25500000000E-02 0.  1.
<mgrwt>
<rscale>  0 0.35450168E+02</rscale>
<asrwt>0</asrwt>
<pdfrwt beam="1">  1       11 0.10000000E+01 0.12328223E+03</pdfrwt>
<pdfrwt beam="2">  1       -2 0.35013048E-02 0.35450168E+02</pdfrwt>
<totfact> 0.21360740E+03</totfact>
</mgrwt>
</event>
<event>
 5    1  0.9955701E-004  0.1734705E+03  0.7818608E-02  0.1285816E+00
         11   -1    0    0    0    0  0.00000000000E+00  0.00000000000E+00  0.10001523510E+04  0.10001523510E+04  0.51100000000E-03 0. -1.
         -2   -1    0    0    0  501 -0.00000000000E+00 -0.00000000000E+00 -0.46072393408E+03  0.46072393409E+03  0.25500000000E-02 0.  1.
         11    1    1    2    0    0 -0.16927562432E+03  0.48908464147E+02  0.96489533460E+03  0.98085130453E+03  0.51100000000E-03 0. -1.
         22    1    1    2    0    0  0.50061962512E+02 -0.22070587345E+02 -0.29976281245E+03  0.30471471025E+03  0.00000000000E+00 0. -1.
         -2    1    1    2    0  501  0.11921366181E+03 -0.26837876803E+02 -0.12570410524E+03  0.17531027030E+03  0.25500000000E-02 0.  1.
<mgrwt>
<rscale>  0 0.97420592E+02</rscale>
<asrwt>0</asrwt>
<pdfrwt beam="1">  1       11 0.10000000E+01 0.17347049E+03</pdfrwt>
<pdfrwt beam="2">  1       -2 0.70891402E-01 0.97420592E+02</pdfrwt>
<totfact> 0.15301145E+01</totfact>
</mgrwt>
</event>
<event>
 5    1  0.9955701E-004  0.8509750E+02  0.7818608E-02  0.1559304E+00
         11   -1    0    0    0    0  0.00000000000E+00  0.00000000000E+00  0.10001865019E+04  0.10001865019E+04  0.51100000000E-03 0. -1.
          2   -1    0    0  501    0 -0.00000000000E+00 -0.00000000000E+00 -0.10994400300E+02  0.10994400596E+02  0.25500000000E-02 0. -1.
         11    1    1    2    0    0  0.23700365026E+02  0.81174222541E+02  0.22705937666E+03  0.24229511393E+03  0.51100000000E-03 0. -1.
         22    1    1    2    0    0  0.12882009599E+02 -0.38453006162E+01  0.56044748202E+02  0.57634592991E+02  0.00000000000E+00 0. -1.
          2    1    1    2  501    0 -0.36582374626E+02 -0.77328921925E+02  0.70608797671E+03  0.71125119554E+03  0.25500000000E-02 0. -1.
<mgrwt>
<rscale>  0 0.33823409E+02</rscale>
<asrwt>0</asrwt>
<pdfrwt beam="1">  1       11 0.10000000E+01 0.85097504E+02</pdfrwt>
<pdfrwt beam="2">  1        2 0.16917616E-02 0.33823409E+02</pdfrwt>
<totfact> 0.63992341E+03</totfact>
</mgrwt>
</event>
<event>
 5    1  0.9955701E-004  0.1498825E+03  0.7818608E-02  0.1293762E+00
         11   -1    0    0    0    0  0.00000000000E+00  0.00000000000E+00  0.10000524504E+04  0.10000524504E+04  0.51100000000E-03 0. -1.
          2   -1    0    0  501    0 -0.00000000000E+00 -0.00000000000E+00 -0.38531722204E+02  0.38531722288E+02  0.25500000000E-02 0. -1.
         11    1    1    2    0    0 -0.76671348453E+02  0.14083968119E+03  0.61614292499E+03  0.63666821460E+03  0.51100000000E-03 0. -1.
         22    1    1    2    0    0 -0.29839925725E+02 -0.50640894104E+02  0.58714982928E+02  0.83080506397E+02  0.00000000000E+00 0. -1.
          2    1    1    2  501    0  0.10651127418E+03 -0.90198787084E+02  0.28666282030E+03  0.31883545171E+03  0.25500000000E-02 0. -1.
<mgrwt>
<rscale>  0 0.93860958E+02</rscale>
<asrwt>0</asrwt>
<pdfrwt beam="1">  1       11 0.10000000E+01 0.14988249E+03</pdfrwt>
<pdfrwt beam="2">  1        2 0.59282680E-02 0.93860958E+02</pdfrwt>
<totfact> 0.14268980E+03</totfact>
</mgrwt>
</event>
<event>
 5    1  0.9955701E-004  0.8984033E+02  0.7818608E-02  0.1422294E+00
         11   -1    0    0    0    0  0.00000000000E+00  0.00000000000E+00  0.10004288645E+04  0.10004288645E+04  0.51100000000E-03 0. -1.
          2   -1    0    0  501    0 -0.00000000000E+00 -0.00000000000E+00 -0.20062287272E+02  0.20062287434E+02  0.25500000000E-02 0. -1.
         11    1    1    2    0    0  0.79263994974E+02  0.76950410315E+02  0.47497933796E+03  0.48765717264E+03  0.51100000000E-03 0. -1.
         22    1    1    2    0    0 -0.29718610428E+02 -0.14593014596E+02  0.15574705995E+02  0.36588568537E+02  0.00000000000E+00 0. -1.
          2    1    1    2  501    0 -0.49545384546E+02 -0.62357395719E+02  0.48981253333E+03  0.49624541080E+03  0.25500000000E-02 0. -1.
<mgrwt>
<rscale>  0 0.54538508E+02</rscale>
<asrwt>0</asrwt>
<pdfrwt beam="1">  1       11 0.10000000E+01 0.89840335E+02</pdfrwt>
<pdfrwt beam="2">  1        2 0.30878294E-02 0.54538508E+02</pdfrwt>
<totfact> 0.31309499E+03</totfact>
</mgrwt>
</event>
<event>
 5    1  0.9955701E-004  0.1672954E+03  0.7818608E-02  0.1180698E+00
         11   -1    0    0    0    0  0.00000000000E+00  0.00000000000E+00  0.10000380944E+04  0.10000380944E+04  0.51100000000E-03 0. -1.
         -2   -1    0    0    0  501 -0.00000000000E+00 -0.00000000000E+00 -0.37057521447E+02  0.37057521535E+02  0.25500000000E-02 0. -1.
         11    1    1    2    0    0  0.12481226327E+03  0.10115939869E+03  0.74603169989E+03  0.76313473400E+03  0.51100000000E-03 0. -1.
         22    1    1    2    0    0 -0.15519260451E+02 -0.28107786040E+02  0.22351980647E+02  0.39121683499E+02  0.00000000000E+00 0.  1.
         -2    1    1    2    0  501 -0.10929300281E+03 -0.73051612650E+02  0.19459689242E+03  0.23483919843E+03  0.25500000000E-02 0. -1.
<mgrwt>
<rscale>  0 0.16729540E+03</rscale>
<asrwt>0</asrwt>
<pdfrwt beam="1">  1       11 0.10000000E+01 0.16065903E+03</pdfrwt>
<pdfrwt beam="2">  1       -2 0.57013742E-02 0.16729540E+03</pdfrwt>
<totfact> 0.12326499E+03</totfact>
</mgrwt>
</event>
<event>
 5    1  0.9955701E-004  0.2000867E+03  0.7818608E-02  0.1296378E+00
         11   -1    0    0    0    0  0.00000000000E+00  0.00000000000E+00  0.10001478612E+04  0.10001478612E+04  0.51100000000E-03 0.  1.
         -2   -1    0    0    0  501 -0.00000000000E+00 -0.00000000000E+00 -0.59494413556E+02  0.59494413611E+02  0.25500000000E-02 0. -1.
         11    1    1    2    0    0 -0.46519980794E+02 -0.18487979558E+03  0.55917453640E+03  0.59077983173E+03  0.51100000000E-03 0.  1.
         22    1    1    2    0    0  0.25601582359E+02 -0.34514886642E+02  0.24881602969E+02  0.49656949015E+02  0.00000000000E+00 0.  1.
         -2    1    1    2    0  501  0.20918398434E+02  0.21939468222E+03  0.35659730831E+03  0.41920549409E+03  0.25500000000E-02 0. -1.
<mgrwt>
<rscale>  0 0.92727648E+02</rscale>
<asrwt>0</asrwt>
<pdfrwt beam="1">  1       11 0.10000000E+01 0.20008667E+03</pdfrwt>
<pdfrwt beam="2">  1       -2 0.91543398E-02 0.92727648E+02</pdfrwt>
<totfact> 0.57124254E+02</totfact>
</mgrwt>
</event>
<event>
 5    1  0.9955701E-004  0.2300778E+03  0.7818608E-02  0.1408248E+00
         11   -1    0    0    0    0  0.00000000000E+00  0.00000000000E+00  0.10001170304E+04  0.10001170304E+04  0.51100000000E-03 0.  1.
          2   -1    0    0  501    0 -0.00000000000E+00 -0.00000000000E+00 -0.95890284736E+02  0.95890284769E+02  0.25500000000E-02 0.  1.
         11    1    1    2    0    0  0.18380673299E+03  0.13796399050E+03  0.79258509774E+03  0.82523336998E+03  0.51100000000E-03 0.  1.
         22    1    1    2    0    0 -0.75270370946E+01  0.12291996185E+02  0.11439826905E+02  0.18401605833E+02  0.00000000000E+00 0. -1.
          2    1    1    2  501    0 -0.17627969590E+03 -0.15025598669E+03  0.10020182099E+03  0.25237233933E+03  0.25500000000E-02 0.  1.
<mgrwt>
<rscale>  0 0.57586722E+02</rscale>
<asrwt>0</asrwt>
<pdfrwt beam="1">  1       11 0.10000000E+01 0.23007783E+03</pdfrwt>
<pdfrwt beam="2">  1        2 0.14754078E-01 0.57586722E+02</pdfrwt>
<totfact> 0.45728491E+02</totfact>
</mgrwt>
</event>
<event>
 5    1  0.9955701E-004  0.2765888E+03  0.7818608E-02  0.1427725E+00
         11   -1    0    0    0    0  0.00000000000E+00  0.00000000000E+00  0.10002134101E+04  0.10002134101E+04  0.51100000000E-03 0. -1.
          2   -1    0    0  501    0 -0.00000000000E+00 -0.00000000000E+00 -0.19644578732E+03  0.19644578733E+03  0.25500000000E-02 0. -1.
         11    1    1    2    0    0  0.25890775388E+03 -0.97851838816E+02  0.84495228258E+03  0.88913023074E+03  0.51100000000E-03 0. -1.
         22    1    1    2    0    0  0.22332554697E+01  0.10072594809E+02 -0.30086471068E+02  0.31806293992E+02  0.00000000000E+00 0.  1.
          2    1    1    2  501    0 -0.26114100935E+03  0.87779244007E+02 -0.11098188727E+02  0.27572267270E+03  0.25500000000E-02 0. -1.
<mgrwt>
<rscale>  0 0.53419298E+02</rscale>
<asrwt>0</asrwt>
<pdfrwt beam="1">  1       11 0.10000000E+01 0.27658877E+03</pdfrwt>
<pdfrwt beam="2">  1        2 0.30228878E-01 0.53419298E+02</pdfrwt>
<totfact> 0.20823594E+02</totfact>
</mgrwt>
</event>
<event>
 5    1  0.9955701E-004  0.9639681E+02  0.7818608E-02  0.1495677E+00
         11   -1    0    0    0    0  0.00000000000E+00  0.00000000000E+00  0.10002246331E+04  0.10002246331E+04  0.51100000000E-03 0. -1.
          2   -1    0    0  501    0 -0.00000000000E+00 -0.00000000000E+00 -0.12480854187E+02  0.12480854448E+02  0.25500000000E-02 0. -1.
         11    1    1    2    0    0 -0.10330357087E+03 -0.14184341665E+02  0.60717805881E+03  0.61606656979E+03  0.51100000000E-03 0. -1.
         22    1    1    2    0    0  0.17863232392E+02 -0.28356573766E+01  0.27000213189E+02  0.32498423600E+02  0.00000000000E+00 0. -1.
          2    1    1    2  501    0  0.85440338475E+02  0.17019999042E+02  0.35356550695E+03  0.36414049420E+03  0.25500000000E-02 0. -1.
<mgrwt>
<rscale>  0 0.41755474E+02</rscale>
<asrwt>0</asrwt>
<pdfrwt beam="1">  1       11 0.10000000E+01 0.96396807E+02</pdfrwt>
<pdfrwt beam="2">  1        2 0.19205627E-02 0.41755474E+02</pdfrwt>
<totfact> 0.56133632E+03</totfact>
</mgrwt>
</event>
<event>
 5    1  0.1281139E-003  0.2349281E+03  0.7818608E-02  0.1123218E+00
         11   -1    0    0    0    0  0.00000000000E+00  0.00000000000E+00  0.10005410815E+04  0.10005410815E+04  0.51100000000E-03 0.  1.
          2   -1    0    0  501    0 -0.00000000000E+00 -0.00000000000E+00 -0.60615708827E+03  0.60615708827E+03  0.25500000000E-02 0.  1.
         11    1    1    2    0    0  0.13362635663E+03 -0.19023516037E+03  0.96342107118E+03  0.99107294374E+03  0.51100000000E-03 0.  1.
         22    1    1    2    0    0 -0.69510271292E+01  0.12454635857E+02 -0.61532862833E+02  0.63164293243E+02  0.00000000000E+00 0. -1.
          2    1    1    2  501    0 -0.12667532950E+03  0.17778052451E+03 -0.50750421506E+03  0.55246093284E+03  0.25500000000E-02 0.  1.
<mgrwt>
<rscale>  0 0.23492812E+03</rscale>
<asrwt>0</asrwt>
<pdfrwt beam="1">  1       11 0.10000000E+01 0.23247671E+03</pdfrwt>
<pdfrwt beam="2">  1        2 0.93305393E-01 0.23492812E+03</pdfrwt>
<totfact> 0.62350326E+01</totfact>
</mgrwt>
</event>
<event>
 5    1  0.9955701E-004  0.1162204E+03  0.7818608E-02  0.1395816E+00
         11   -1    0    0    0    0  0.00000000000E+00  0.00000000000E+00  0.10002594791E+04  0.10002594791E+04  0.51100000000E-03 0.  1.
          2   -1    0    0  501    0 -0.00000000000E+00 -0.00000000000E+00 -0.24090961159E+02  0.24090961294E+02  0.25500000000E-02 0.  1.
         11    1    1    2    0    0  0.11467954758E+03  0.52975789977E+02  0.62280009001E+03  0.63548232475E+03  0.51100000000E-03 0.  1.
         22    1    1    2    0    0 -0.30154882031E+02  0.90246482125E+01  0.15449393419E+02  0.35063441683E+02  0.00000000000E+00 0.  1.
          2    1    1    2  501    0 -0.84524665552E+02 -0.62000438190E+02  0.33791903453E+03  0.35380467398E+03  0.25500000000E-02 0.  1.
<mgrwt>
<rscale>  0 0.60483027E+02</rscale>
<asrwt>0</asrwt>
<pdfrwt beam="1">  1       11 0.10000000E+01 0.11622045E+03</pdfrwt>
<pdfrwt beam="2">  1        2 0.37072633E-02 0.60483027E+02</pdfrwt>
<totfact> 0.24997302E+03</totfact>
</mgrwt>
</event>
<event>
 5    1  0.9955701E-004  0.7127053E+02  0.7818608E-02  0.1420682E+00
         11   -1    0    0    0    0  0.00000000000E+00  0.00000000000E+00  0.99983448423E+03  0.99983448423E+03  0.51100000000E-03 0. -1.
          2   -1    0    0  501    0 -0.00000000000E+00 -0.00000000000E+00 -0.11088151613E+02  0.11088151906E+02  0.25500000000E-02 0. -1.
         11    1    1    2    0    0  0.19634108323E+02 -0.56812245849E+02  0.29369883041E+03  0.29978681171E+03  0.51100000000E-03 0. -1.
         22    1    1    2    0    0 -0.31116676120E+02 -0.28586269193E+02  0.83856125203E+02  0.93900330421E+02  0.00000000000E+00 0. -1.
          2    1    1    2  501    0  0.11482567797E+02  0.85398515043E+02  0.61119137701E+03  0.61723549401E+03  0.25500000000E-02 0. -1.
<mgrwt>
<rscale>  0 0.54876970E+02</rscale>
<asrwt>0</asrwt>
<pdfrwt beam="1">  1       11 0.10000000E+01 0.71270531E+02</pdfrwt>
<pdfrwt beam="2">  1        2 0.17055871E-02 0.54876970E+02</pdfrwt>
<totfact> 0.68559789E+03</totfact>
</mgrwt>
</event>
<event>
 5    1  0.9955701E-004  0.1733195E+03  0.7818608E-02  0.1174430E+00
         11   -1    0    0    0    0  0.00000000000E+00  0.00000000000E+00  0.10001573575E+04  0.10001573575E+04  0.51100000000E-03 0.  1.
          2   -1    0    0  501    0 -0.00000000000E+00 -0.00000000000E+00 -0.12444934241E+03  0.12444934243E+03  0.25500000000E-02 0.  1.
         11    1    1    2    0    0  0.15447783484E+03  0.61138216080E+02  0.92864041393E+03  0.94338449283E+03  0.51100000000E-03 0.  1.
         22    1    1    2    0    0 -0.39728960531E+02 -0.49109779276E+01  0.60435618436E+01  0.40484968184E+02  0.00000000000E+00 0. -1.
          2    1    1    2  501    0 -0.11474887431E+03 -0.56227238152E+02 -0.58975960706E+02  0.14073723890E+03  0.25500000000E-02 0.  1.
<mgrwt>
<rscale>  0 0.17331950E+03</rscale>
<asrwt>0</asrwt>
<pdfrwt beam="1">  1       11 0.10000000E+01 0.16613634E+03</pdfrwt>
<pdfrwt beam="2">  1        2 0.19149065E-01 0.17331950E+03</pdfrwt>
<totfact> 0.35579615E+02</totfact>
</mgrwt>
</event>
<event>
 5    1  0.9955701E-004  0.4747226E+02  0.7818608E-02  0.1688543E+00
         11   -1    0    0    0    0  0.00000000000E+00  0.00000000000E+00  0.99997824677E+03  0.99997824677E+03  0.51100000000E-03 0. -1.
          2   -1    0    0  501    0 -0.00000000000E+00 -0.00000000000E+00 -0.60693146806E+01  0.60693152163E+01  0.25500000000E-02 0.  1.
         11    1    1    2    0    0  0.30056904399E+02  0.42464828765E+02  0.23410417211E+03  0.23981543441E+03  0.51100000000E-03 0. -1.
         22    1    1    2    0    0 -0.11321754560E+02  0.12615975254E+00  0.10367911460E+02  0.15352251648E+02  0.00000000000E+00 0.  1.
          2    1    1    2  501    0 -0.18735149838E+02 -0.42590988518E+02  0.74943684852E+03  0.75087987592E+03  0.25500000000E-02 0.  1.
<mgrwt>
<rscale>  0 0.23184098E+02</rscale>
<asrwt>0</asrwt>
<pdfrwt beam="1">  1       11 0.10000000E+01 0.47472264E+02</pdfrwt>
<pdfrwt beam="2">  1        2 0.93372042E-03 0.23184098E+02</pdfrwt>
<totfact> 0.12898251E+04</totfact>
</mgrwt>
</event>
<event>
 5    1  0.9955701E-004  0.1567224E+03  0.7818608E-02  0.1475580E+00
         11   -1    0    0    0    0  0.00000000000E+00  0.00000000000E+00  0.10002017565E+04  0.10002017565E+04  0.51100000000E-03 0.  1.
          2   -1    0    0  501    0 -0.00000000000E+00 -0.00000000000E+00 -0.43793386721E+02  0.43793386795E+02  0.25500000000E-02 0.  1.
         11    1    1    2    0    0  0.33204865116E+00  0.16081684367E+03  0.42840987111E+03  0.45759937187E+03  0.51100000000E-03 0.  1.
         22    1    1    2    0    0 -0.10543969258E+02 -0.72705048013E+01 -0.16318373202E+02  0.20744272263E+02  0.00000000000E+00 0. -1.
          2    1    1    2  501    0  0.10211920606E+02 -0.15354633887E+03  0.54431687182E+03  0.56565149912E+03  0.25500000000E-02 0.  1.
<mgrwt>
<rscale>  0 0.44802255E+02</rscale>
<asrwt>0</asrwt>
<pdfrwt beam="1">  1       11 0.10000000E+01 0.15672237E+03</pdfrwt>
<pdfrwt beam="2">  1        2 0.67388032E-02 0.44802255E+02</pdfrwt>
<totfact> 0.11376707E+03</totfact>
</mgrwt>
</event>
<event>
 5    1  0.1436976E-003  0.2100414E+03  0.7818608E-02  0.1466397E+00
         11   -1    0    0    0    0  0.00000000000E+00  0.00000000000E+00  0.10000246105E+04  0.10000246105E+04  0.51100000000E-03 0.  1.
         -2   -1    0    0    0  501 -0.00000000000E+00 -0.00000000000E+00 -0.11299543777E+03  0.11299543780E+03  0.25500000000E-02 0. -1.
         11    1    1    2    0    0 -0.12077043223E+03  0.17031351622E+03  0.84854243819E+03  0.87385150942E+03  0.51100000000E-03 0.  1.
         22    1    1    2    0    0 -0.37619134380E+01  0.94864794716E+01 -0.10915887662E+02  0.14943289094E+02  0.00000000000E+00 0.  1.
         -2    1    1    2    0  501  0.12453234566E+03 -0.17979999570E+03  0.49402622239E+02  0.22422524983E+03  0.25500000000E-02 0. -1.
<mgrwt>
<rscale>  0 0.46298019E+02</rscale>
<asrwt>0</asrwt>
<pdfrwt beam="1">  1       11 0.10000000E+01 0.21004145E+03</pdfrwt>
<pdfrwt beam="2">  1       -2 0.17384341E-01 0.46298019E+02</pdfrwt>
<totfact> 0.19866334E+02</totfact>
</mgrwt>
</event>
<event>
 5    1  0.9955701E-004  0.5159709E+02  0.7818608E-02  0.1448457E+00
         11   -1    0    0    0    0  0.00000000000E+00  0.00000000000E+00  0.10001878473E+04  0.10001878473E+04  0.51100000000E-03 0. -1.
          2   -1    0    0  501    0 -0.00000000000E+00 -0.00000000000E+00 -0.59606973589E+01  0.59606979043E+01  0.25500000000E-02 0. -1.
         11    1    1    2    0    0  0.20377806326E+02  0.12656737304E+02  0.64635081978E+02  0.68943033096E+02  0.51100000000E-03 0. -1.
         22    1    1    2    0    0  0.12616763908E+02  0.24145103521E+02  0.56596847303E+02  0.62812195314E+02  0.00000000000E+00 0. -1.
          2    1    1    2  501    0 -0.32994570234E+02 -0.36801840826E+02  0.87299522067E+03  0.87439331680E+03  0.25500000000E-02 0. -1.
<mgrwt>
<rscale>  0 0.49426887E+02</rscale>
<asrwt>0</asrwt>
<pdfrwt beam="1">  1       11 0.10000000E+01 0.51597088E+02</pdfrwt>
<pdfrwt beam="2">  1        2 0.91720264E-03 0.49426887E+02</pdfrwt>
<totfact> 0.15452980E+04</totfact>
</mgrwt>
</event>
<event>
 5    1  0.9955701E-004  0.4823014E+02  0.7818608E-02  0.1479138E+00
         11   -1    0    0    0    0  0.00000000000E+00  0.00000000000E+00  0.10002926778E+04  0.10002926778E+04  0.51100000000E-03 0.  1.
         -2   -1    0    0    0  501 -0.00000000000E+00 -0.00000000000E+00 -0.31364375223E+01  0.31364385589E+01  0.25500000000E-02 0.  1.
         11    1    1    2    0    0 -0.31561566991E+02  0.15731164524E+02  0.19484761932E+03  0.19801312281E+03  0.51100000000E-03 0.  1.
         22    1    1    2    0    0 -0.10969933789E+02 -0.35528667496E+01  0.35364021430E+02  0.37196455761E+02  0.00000000000E+00 0. -1.
         -2    1    1    2    0  501  0.42531500780E+02 -0.12178297774E+02  0.76694459953E+03  0.76821953779E+03  0.25500000000E-02 0.  1.
<mgrwt>
<rscale>  0 0.44240700E+02</rscale>
<asrwt>0</asrwt>
<pdfrwt beam="1">  1       11 0.10000000E+01 0.48230139E+02</pdfrwt>
<pdfrwt beam="2">  1       -2 0.48267014E-03 0.44240700E+02</pdfrwt>
<totfact> 0.34918800E+04</totfact>
</mgrwt>
</event>
<event>
 5    1  0.9955701E-004  0.3601611E+02  0.7818608E-02  0.1539758E+00
         11   -1    0    0    0    0  0.00000000000E+00  0.00000000000E+00  0.99996622809E+03  0.99996622809E+03  0.51100000000E-03 0. -1.
          2   -1    0    0  501    0 -0.00000000000E+00 -0.00000000000E+00 -0.35731137720E+02  0.35731137811E+02  0.25500000000E-02 0. -1.
         11    1    1    2    0    0 -0.41787960859E+02  0.48607325896E+01  0.15883626570E+03  0.16431317566E+03  0.51100000000E-03 0. -1.
         22    1    1    2    0    0  0.23563237678E+02  0.27523251544E+02 -0.22501328209E+02  0.42650501950E+02  0.00000000000E+00 0. -1.
          2    1    1    2  501    0  0.18224723181E+02 -0.32383984134E+02  0.82790015288E+03  0.82873368829E+03  0.25500000000E-02 0. -1.
<mgrwt>
<rscale>  0 0.36016106E+02</rscale>
<asrwt>0</asrwt>
<pdfrwt beam="1">  1       11 0.10000000E+01 0.35801546E+02</pdfrwt>
<pdfrwt beam="2">  1        2 0.54969123E-02 0.36016106E+02</pdfrwt>
<totfact> 0.14300621E+03</totfact>
</mgrwt>
</event>
<event>
 5    1  0.9955701E-004  0.3627358E+03  0.7818608E-02  0.1162753E+00
         11   -1    0    0    0    0  0.00000000000E+00  0.00000000000E+00  0.10001501629E+04  0.10001501629E+04  0.51100000000E-03 0.  1.
          2   -1    0    0  501    0 -0.00000000000E+00 -0.00000000000E+00 -0.20767035076E+03  0.20767035077E+03  0.25500000000E-02 0.  1.
         11    1    1    2    0    0  0.36742942705E+03  0.30457845601E+02  0.36113479826E+03  0.51609147128E+03  0.51100000000E-03 0.  1.
         22    1    1    2    0    0 -0.25026914122E+02  0.91309674074E+02 -0.34617697878E+02  0.10080767836E+03  0.00000000000E+00 0.  1.
          2    1    1    2  501    0 -0.34240251292E+03 -0.12176751968E+03  0.46596271174E+03  0.59092136401E+03  0.25500000000E-02 0.  1.
<mgrwt>
<rscale>  0 0.18531824E+03</rscale>
<asrwt>0</asrwt>
<pdfrwt beam="1">  1       11 0.10000000E+01 0.36273577E+03</pdfrwt>
<pdfrwt beam="2">  1        2 0.31954081E-01 0.18531824E+03</pdfrwt>
<totfact> 0.20144710E+02</totfact>
</mgrwt>
</event>
<event>
 5    1  0.9955701E-004  0.7636692E+02  0.7818608E-02  0.1613455E+00
         11   -1    0    0    0    0  0.00000000000E+00  0.00000000000E+00  0.10003614006E+04  0.10003614006E+04  0.51100000000E-03 0. -1.
          2   -1    0    0  501    0 -0.00000000000E+00 -0.00000000000E+00 -0.76440124013E+01  0.76440128266E+01  0.25500000000E-02 0. -1.
         11    1    1    2    0    0 -0.19053481301E+02  0.72751499096E+02  0.41720135041E+03  0.42392544457E+03  0.51100000000E-03 0. -1.
         22    1    1    2    0    0 -0.10698558231E+02 -0.10688490965E+01  0.16447543296E+02  0.19650019519E+02  0.00000000000E+00 0. -1.
          2    1    1    2  501    0  0.29752039533E+02 -0.71682650000E+02  0.55906849446E+03  0.56442994930E+03  0.25500000000E-02 0. -1.
<mgrwt>
<rscale>  0 0.28654543E+02</rscale>
<asrwt>0</asrwt>
<pdfrwt beam="1">  1       11 0.10000000E+01 0.76366922E+02</pdfrwt>
<pdfrwt beam="2">  1        2 0.11764269E-02 0.28654543E+02</pdfrwt>
<totfact> 0.99809527E+03</totfact>
</mgrwt>
</event>
<event>
 5    1  0.9955701E-004  0.5035846E+02  0.7818608E-02  0.1474809E+00
         11   -1    0    0    0    0  0.00000000000E+00  0.00000000000E+00  0.10002364526E+04  0.10002364526E+04  0.51100000000E-03 0.  1.
          2   -1    0    0  501    0 -0.00000000000E+00 -0.00000000000E+00 -0.35250590122E+01  0.35250599345E+01  0.25500000000E-02 0.  1.
         11    1    1    2    0    0 -0.29891306975E+02  0.14664249421E+02  0.16623268267E+03  0.16953417128E+03  0.51100000000E-03 0.  1.
         22    1    1    2    0    0 -0.32050793728E+01  0.15715209336E+02  0.51168216634E+02  0.53623005620E+02  0.00000000000E+00 0.  1.
          2    1    1    2  501    0  0.33096386347E+02 -0.30379458756E+02  0.77931049428E+03  0.78060433563E+03  0.25500000000E-02 0.  1.
<mgrwt>
<rscale>  0 0.44925297E+02</rscale>
<asrwt>0</asrwt>
<pdfrwt beam="1">  1       11 0.10000000E+01 0.50358461E+02</pdfrwt>
<pdfrwt beam="2">  1        2 0.54244506E-03 0.44925297E+02</pdfrwt>
<totfact> 0.30726654E+04</totfact>
</mgrwt>
</event>
<event>
 5    1  0.9955701E-004  0.1835542E+03  0.7818608E-02  0.1351287E+00
         11   -1    0    0    0    0  0.00000000000E+00  0.00000000000E+00  0.10002580525E+04  0.10002580525E+04  0.51100000000E-03 0. -1.
          2   -1    0    0  501    0 -0.00000000000E+00 -0.00000000000E+00 -0.47663793271E+02  0.47663793340E+02  0.25500000000E-02 0. -1.
         11    1    1    2    0    0 -0.17958584722E+03 -0.47329427868E+02  0.67867107531E+03  0.70362318021E+03  0.51100000000E-03 0. -1.
         22    1    1    2    0    0  0.14837495293E+02 -0.24636260356E+02  0.40284489865E+02  0.49496835400E+02  0.00000000000E+00 0. -1.
          2    1    1    2  501    0  0.16474835193E+03  0.71965688224E+02  0.23363869409E+03  0.29480183027E+03  0.25500000000E-02 0. -1.
<mgrwt>
<rscale>  0 0.72655961E+02</rscale>
<asrwt>0</asrwt>
<pdfrwt beam="1">  1       11 0.10000000E+01 0.18355423E+03</pdfrwt>
<pdfrwt beam="2">  1        2 0.73347833E-02 0.72655961E+02</pdfrwt>
<totfact> 0.10690208E+03</totfact>
</mgrwt>
</event>
<event>
 5    1  0.9955701E-004  0.2050288E+03  0.7818608E-02  0.1336957E+00
         11   -1    0    0    0    0  0.00000000000E+00  0.00000000000E+00  0.10002650056E+04  0.10002650056E+04  0.51100000000E-03 0. -1.
          2   -1    0    0  501    0 -0.00000000000E+00 -0.00000000000E+00 -0.41016006513E+03  0.41016006514E+03  0.25500000000E-02 0. -1.
         11    1    1    2    0    0  0.20248020823E+03 -0.37267426508E+02  0.95474515245E+03  0.97669104733E+03  0.51100000000E-03 0. -1.
         22    1    1    2    0    0 -0.17228521051E+02  0.23485801398E+02 -0.13628634227E+03  0.13936417006E+03  0.00000000000E+00 0.  1.
          2    1    1    2  501    0 -0.18525168718E+03  0.13781625110E+02 -0.22835386966E+03  0.29436985340E+03  0.25500000000E-02 0. -1.
<mgrwt>
<rscale>  0 0.77278426E+02</rscale>
<asrwt>0</asrwt>
<pdfrwt beam="1">  1       11 0.10000000E+01 0.20502885E+03</pdfrwt>
<pdfrwt beam="2">  1        2 0.63118269E-01 0.77278426E+02</pdfrwt>
<totfact> 0.97410875E+01</totfact>
</mgrwt>
</event>
<event>
 5    1  0.9955701E-004  0.3295579E+03  0.7818608E-02  0.1082632E+00
         11   -1    0    0    0    0  0.00000000000E+00  0.00000000000E+00  0.10003373702E+04  0.10003373702E+04  0.51100000000E-03 0. -1.
          2   -1    0    0  501    0 -0.00000000000E+00 -0.00000000000E+00 -0.10072030550E+03  0.10072030553E+03  0.25500000000E-02 0.  1.
         11    1    1    2    0    0  0.10734670472E+03  0.24769881575E+03  0.35847614137E+03  0.44875735344E+03  0.51100000000E-03 0. -1.
         22    1    1    2    0    0 -0.31740424989E+02  0.48068392168E+02  0.10781919402E+03  0.12224157846E+03  0.00000000000E+00 0.  1.
          2    1    1    2  501    0 -0.75606279728E+02 -0.29576720792E+03  0.43332172933E+03  0.53005874385E+03  0.25500000000E-02 0.  1.
<mgrwt>
<rscale>  0 0.30527783E+03</rscale>
<asrwt>0</asrwt>
<pdfrwt beam="1">  1       11 0.10000000E+01 0.32955795E+03</pdfrwt>
<pdfrwt beam="2">  1        2 0.15500659E-01 0.30527783E+03</pdfrwt>
<totfact> 0.46383219E+02</totfact>
</mgrwt>
</event>
<event>
 5    1  0.9955701E-004  0.7282638E+02  0.7818608E-02  0.1622944E+00
         11   -1    0    0    0    0  0.00000000000E+00  0.00000000000E+00  0.10000254218E+04  0.10000254218E+04  0.51100000000E-03 0. -1.
          2   -1    0    0  501    0 -0.00000000000E+00 -0.00000000000E+00 -0.72231871256E+01  0.72231875757E+01  0.25500000000E-02 0. -1.
         11    1    1    2    0    0 -0.72176232428E+02 -0.27834909877E+02  0.42454331481E+03  0.43153356403E+03  0.51100000000E-03 0. -1.
         22    1    1    2    0    0  0.44565745139E+01  0.96869296688E+01  0.17362288499E+02  0.20375149686E+02  0.00000000000E+00 0. -1.
          2    1    1    2  501    0  0.67719657914E+02  0.18147980208E+02  0.55089663135E+03  0.55533989564E+03  0.25500000000E-02 0. -1.
<mgrwt>
<rscale>  0 0.27866482E+02</rscale>
<asrwt>0</asrwt>
<pdfrwt beam="1">  1       11 0.10000000E+01 0.72826382E+02</pdfrwt>
<pdfrwt beam="2">  1        2 0.11112878E-02 0.27866482E+02</pdfrwt>
<totfact> 0.10692939E+04</totfact>
</mgrwt>
</event>
<event>
 5    1  0.9955701E-004  0.1967042E+03  0.7818608E-02  0.1446998E+00
         11   -1    0    0    0    0  0.00000000000E+00  0.00000000000E+00  0.10002277361E+04  0.10002277361E+04  0.51100000000E-03 0. -1.
          2   -1    0    0  501    0 -0.00000000000E+00 -0.00000000000E+00 -0.75722762336E+02  0.75722762379E+02  0.25500000000E-02 0. -1.
         11    1    1    2    0    0 -0.17191215422E+02  0.20583100358E+03  0.19238988902E+03  0.28226903712E+03  0.51100000000E-03 0. -1.
         22    1    1    2    0    0  0.82818809098E+00 -0.12527115440E+02 -0.16276226379E+02  0.20555536040E+02  0.00000000000E+00 0. -1.
          2    1    1    2  501    0  0.16363027331E+02 -0.19330388814E+03  0.74839131117E+03  0.77312592537E+03  0.25500000000E-02 0. -1.
<mgrwt>
<rscale>  0 0.49694208E+02</rscale>
<asrwt>0</asrwt>
<pdfrwt beam="1">  1       11 0.10000000E+01 0.19670421E+03</pdfrwt>
<pdfrwt beam="2">  1        2 0.11652308E-01 0.49694208E+02</pdfrwt>
<totfact> 0.59498148E+02</totfact>
</mgrwt>
</event>
<event>
 5    1  0.9955701E-004  0.1285118E+03  0.7818608E-02  0.1234320E+00
         11   -1    0    0    0    0  0.00000000000E+00  0.00000000000E+00  0.10002792096E+04  0.10002792096E+04  0.51100000000E-03 0. -1.
         -2   -1    0    0    0  501 -0.00000000000E+00 -0.00000000000E+00 -0.19801605606E+02  0.19801605770E+02  0.25500000000E-02 0. -1.
         11    1    1    2    0    0  0.82359968480E+02 -0.62699827956E+02  0.23975230278E+03  0.26114287186E+03  0.51100000000E-03 0. -1.
         22    1    1    2    0    0  0.22936373047E+02 -0.55504586114E+01  0.35444950752E+02  0.42582030637E+02  0.00000000000E+00 0. -1.
         -2    1    1    2    0  501 -0.10529634153E+03  0.68250286568E+02  0.70528035044E+03  0.71635591286E+03  0.25500000000E-02 0. -1.
<mgrwt>
<rscale>  0 0.12548076E+03</rscale>
<asrwt>0</asrwt>
<pdfrwt beam="1">  1       11 0.10000000E+01 0.12851182E+03</pdfrwt>
<pdfrwt beam="2">  1       -2 0.30472514E-02 0.12548076E+03</pdfrwt>
<totfact> 0.30560858E+03</totfact>
</mgrwt>
</event>
<event>
 5    1  0.9955701E-004  0.1766037E+03  0.7818608E-02  0.1240046E+00
         11   -1    0    0    0    0  0.00000000000E+00  0.00000000000E+00  0.10001977651E+04  0.10001977651E+04  0.51100000000E-03 0.  1.
         -2   -1    0    0    0  501 -0.00000000000E+00 -0.00000000000E+00 -0.74246243992E+02  0.74246244035E+02  0.25500000000E-02 0. -1.
         11    1    1    2    0    0 -0.56442678670E+02 -0.16577992368E+03  0.63132458460E+03  0.65516371251E+03  0.51100000000E-03 0.  1.
         22    1    1    2    0    0 -0.79561586205E+02  0.27246588269E+02  0.26350207670E+02  0.88129200700E+02  0.00000000000E+00 0.  1.
         -2    1    1    2    0  501  0.13600426487E+03  0.13853333542E+03  0.26827672881E+03  0.33115109590E+03  0.25500000000E-02 0. -1.
<mgrwt>
<rscale>  0 0.12186862E+03</rscale>
<asrwt>0</asrwt>
<pdfrwt beam="1">  1       11 0.10000000E+01 0.17660365E+03</pdfrwt>
<pdfrwt beam="2">  1       -2 0.11424758E-01 0.12186862E+03</pdfrwt>
<totfact> 0.41104078E+02</totfact>
</mgrwt>
</event>
<event>
 5    1  0.9955701E-004  0.1470963E+03  0.7818608E-02  0.1504613E+00
         11   -1    0    0    0    0  0.00000000000E+00  0.00000000000E+00  0.10003374653E+04  0.10003374653E+04  0.51100000000E-03 0. -1.
          2   -1    0    0  501    0 -0.00000000000E+00 -0.00000000000E+00 -0.44188037416E+02  0.44188037489E+02  0.25500000000E-02 0. -1.
         11    1    1    2    0    0  0.80533920479E+02  0.12422613412E+03  0.77049125817E+03  0.78458563820E+03  0.51100000000E-03 0. -1.
         22    1    1    2    0    0 -0.10951600046E+02  0.20785201218E+01 -0.11275197026E+02  0.15855215465E+02  0.00000000000E+00 0. -1.
          2    1    1    2  501    0 -0.69582320433E+02 -0.12630465425E+03  0.19693336677E+03  0.24408464916E+03  0.25500000000E-02 0. -1.
<mgrwt>
<rscale>  0 0.40493175E+02</rscale>
<asrwt>0</asrwt>
<pdfrwt beam="1">  1       11 0.10000000E+01 0.14709633E+03</pdfrwt>
<pdfrwt beam="2">  1        2 0.68004536E-02 0.40493175E+02</pdfrwt>
<totfact> 0.11140324E+03</totfact>
</mgrwt>
</event>
<event>
 5    1  0.9955701E-004  0.4459955E+02  0.7818608E-02  0.1501825E+00
         11   -1    0    0    0    0  0.00000000000E+00  0.00000000000E+00  0.10000762603E+04  0.10000762603E+04  0.51100000000E-03 0. -1.
          2   -1    0    0  501    0 -0.00000000000E+00 -0.00000000000E+00 -0.28927584753E+01  0.28927595992E+01  0.25500000000E-02 0. -1.
         11    1    1    2    0    0 -0.68512412043E+00  0.19889522731E+02  0.11687216065E+03  0.11855447880E+03  0.51100000000E-03 0. -1.
         22    1    1    2    0    0 -0.16271499417E+02  0.17309289473E+02  0.91149151617E+02  0.94194166677E+02  0.00000000000E+00 0.  1.
          2    1    1    2  501    0  0.16956623537E+02 -0.37198812204E+02  0.78916218959E+03  0.79022037445E+03  0.25500000000E-02 0. -1.
<mgrwt>
<rscale>  0 0.40881276E+02</rscale>
<asrwt>0</asrwt>
<pdfrwt beam="1">  1       11 0.10000000E+01 0.44599549E+02</pdfrwt>
<pdfrwt beam="2">  1        2 0.44507378E-03 0.40881276E+02</pdfrwt>
<totfact> 0.39249898E+04</totfact>
</mgrwt>
</event>
<event>
 5    1  0.9955701E-004  0.7416055E+03  0.7818608E-02  0.9648613E-01
         11   -1    0    0    0    0  0.00000000000E+00  0.00000000000E+00  0.10006038133E+04  0.10006038133E+04  0.51100000000E-03 0. -1.
          2   -1    0    0  501    0 -0.00000000000E+00 -0.00000000000E+00 -0.71224319589E+03  0.71224319590E+03  0.25500000000E-02 0. -1.
         11    1    1    2    0    0 -0.60359226671E+03 -0.38924380213E+03  0.57270397386E+03  0.91859904398E+03  0.51100000000E-03 0. -1.
         22    1    1    2    0    0  0.67224602200E+02  0.17938069296E+02 -0.89619830509E+02  0.11345763743E+03  0.00000000000E+00 0.  1.
          2    1    1    2  501    0  0.53636766451E+03  0.37130573284E+03 -0.19472352599E+03  0.68079032774E+03  0.25500000000E-02 0. -1.
<mgrwt>
<rscale>  0 0.74160548E+03</rscale>
<asrwt>0</asrwt>
<pdfrwt beam="1">  1       11 0.10000000E+01 0.71821610E+03</pdfrwt>
<pdfrwt beam="2">  1        2 0.10964204E+00 0.74160548E+03</pdfrwt>
<totfact> 0.49672813E+01</totfact>
</mgrwt>
</event>
<event>
 5    1  0.9955701E-004  0.1137911E+03  0.7818608E-02  0.1520251E+00
         11   -1    0    0    0    0  0.00000000000E+00  0.00000000000E+00  0.10002894160E+04  0.10002894160E+04  0.51100000000E-03 0.  1.
         -2   -1    0    0    0  501 -0.00000000000E+00 -0.00000000000E+00 -0.23404568280E+02  0.23404568419E+02  0.25500000000E-02 0.  1.
         11    1    1    2    0    0 -0.91428522176E+02  0.61451785954E+02  0.50650593990E+03  0.51834714605E+03  0.51100000000E-03 0.  1.
         22    1    1    2    0    0 -0.78115646006E+00  0.12941523980E+02 -0.61218426714E+01  0.14337719694E+02  0.00000000000E+00 0. -1.
         -2    1    1    2    0  501  0.92209678636E+02 -0.74393309934E+02  0.47650075052E+03  0.49100911870E+03  0.25500000000E-02 0.  1.
<mgrwt>
<rscale>  0 0.38409770E+02</rscale>
<asrwt>0</asrwt>
<pdfrwt beam="1">  1       11 0.10000000E+01 0.11379110E+03</pdfrwt>
<pdfrwt beam="2">  1       -2 0.36017448E-02 0.38409770E+02</pdfrwt>
<totfact> 0.20750889E+03</totfact>
</mgrwt>
</event>
<event>
 5    1  0.9955701E-004  0.1194535E+03  0.7818608E-02  0.1444382E+00
         11   -1    0    0    0    0  0.00000000000E+00  0.00000000000E+00  0.10000928232E+04  0.10000928232E+04  0.51100000000E-03 0. -1.
          2   -1    0    0  501    0 -0.00000000000E+00 -0.00000000000E+00 -0.51710583417E+02  0.51710583480E+02  0.25500000000E-02 0. -1.
         11    1    1    2    0    0  0.10697903211E+03  0.68548303327E+02  0.71027614118E+03  0.72155081591E+03  0.51100000000E-03 0. -1.
         22    1    1    2    0    0 -0.17914685104E+02 -0.11106362839E+02 -0.33005778557E+02  0.39162081865E+02  0.00000000000E+00 0. -1.
          2    1    1    2  501    0 -0.89064347007E+02 -0.57441940488E+02  0.27111187715E+03  0.29109050890E+03  0.25500000000E-02 0. -1.
<mgrwt>
<rscale>  0 0.50178247E+02</rscale>
<asrwt>0</asrwt>
<pdfrwt beam="1">  1       11 0.10000000E+01 0.11945355E+03</pdfrwt>
<pdfrwt beam="2">  1        2 0.79562126E-02 0.50178247E+02</pdfrwt>
<totfact> 0.93823975E+02</totfact>
</mgrwt>
</event>
<event>
 5    1  0.9955701E-004  0.8848467E+02  0.7818608E-02  0.1591058E+00
         11   -1    0    0    0    0  0.00000000000E+00  0.00000000000E+00  0.10006339893E+04  0.10006339893E+04  0.51100000000E-03 0.  1.
         -2   -1    0    0    0  501 -0.00000000000E+00 -0.00000000000E+00 -0.98587901932E+01  0.98587905230E+01  0.25500000000E-02 0.  1.
         11    1    1    2    0    0  0.84388291855E+02  0.11881667844E+02  0.48675746695E+03  0.49416129903E+03  0.51100000000E-03 0.  1.
         22    1    1    2    0    0  0.79605427746E+01 -0.70202119315E+01  0.13500795170E+02  0.17173383099E+02  0.00000000000E+00 0. -1.
         -2    1    1    2    0  501 -0.92348834630E+02 -0.48614559126E+01  0.49051693700E+03  0.49915809771E+03  0.25500000000E-02 0.  1.
<mgrwt>
<rscale>  0 0.30645754E+02</rscale>
<asrwt>0</asrwt>
<pdfrwt beam="1">  1       11 0.10000000E+01 0.88484673E+02</pdfrwt>
<pdfrwt beam="2">  1       -2 0.15176985E-02 0.30645754E+02</pdfrwt>
<totfact> 0.67021376E+03</totfact>
</mgrwt>
</event>
<event>
 5    1  0.9955701E-004  0.1376320E+03  0.7818608E-02  0.1216551E+00
         11   -1    0    0    0    0  0.00000000000E+00  0.00000000000E+00  0.10003546434E+04  0.10003546434E+04  0.51100000000E-03 0. -1.
          2   -1    0    0  501    0 -0.00000000000E+00 -0.00000000000E+00 -0.21799814725E+02  0.21799814875E+02  0.25500000000E-02 0. -1.
         11    1    1    2    0    0 -0.12993894827E+03  0.33630021410E+02  0.68382301628E+03  0.69687088202E+03  0.51100000000E-03 0. -1.
         22    1    1    2    0    0  0.12745621071E+02  0.57718235603E+01  0.30269165491E+02  0.33346471826E+02  0.00000000000E+00 0.  1.
          2    1    1    2  501    0  0.11719332720E+03 -0.39401844970E+02  0.26446264693E+03  0.29193710445E+03  0.25500000000E-02 0. -1.
<mgrwt>
<rscale>  0 0.13763199E+03</rscale>
<asrwt>0</asrwt>
<pdfrwt beam="1">  1       11 0.10000000E+01 0.13422037E+03</pdfrwt>
<pdfrwt beam="2">  1        2 0.33550070E-02 0.13763199E+03</pdfrwt>
<totfact> 0.31097363E+03</totfact>
</mgrwt>
</event>
<event>
 5    1  0.9955701E-004  0.2703186E+03  0.7818608E-02  0.1307632E+00
         11   -1    0    0    0    0  0.00000000000E+00  0.00000000000E+00  0.99979065687E+03  0.99979065687E+03  0.51100000000E-03 0.  1.
          2   -1    0    0  501    0 -0.00000000000E+00 -0.00000000000E+00 -0.13419789678E+03  0.13419789680E+03  0.25500000000E-02 0. -1.
         11    1    1    2    0    0  0.26869203133E+03  0.61948173829E+02  0.78607215163E+03  0.83303205912E+03  0.51100000000E-03 0.  1.
         22    1    1    2    0    0 -0.27768435957E+02  0.71865653797E+01 -0.15858835490E+02  0.32775530820E+02  0.00000000000E+00 0. -1.
          2    1    1    2  501    0 -0.24092359538E+03 -0.69134739208E+02  0.95379443942E+02  0.26818096373E+03  0.25500000000E-02 0. -1.
<mgrwt>
<rscale>  0 0.88054719E+02</rscale>
<asrwt>0</asrwt>
<pdfrwt beam="1">  1       11 0.10000000E+01 0.27031857E+03</pdfrwt>
<pdfrwt beam="2">  1        2 0.20641508E-01 0.88054719E+02</pdfrwt>
<totfact> 0.31946954E+02</totfact>
</mgrwt>
</event>
<event>
 5    1  0.9955701E-004  0.4001874E+03  0.7818608E-02  0.1277700E+00
         11   -1    0    0    0    0  0.00000000000E+00  0.00000000000E+00  0.10004998388E+04  0.10004998388E+04  0.51100000000E-03 0. -1.
          2   -1    0    0  501    0 -0.00000000000E+00 -0.00000000000E+00 -0.28042344950E+03  0.28042344951E+03  0.25500000000E-02 0. -1.
         11    1    1    2    0    0  0.22400013987E+03  0.33844405381E+03  0.69807109969E+03  0.80747984522E+03  0.51100000000E-03 0. -1.
         22    1    1    2    0    0 -0.89520869747E-03 -0.25614188653E+02 -0.72802909639E+02  0.77177395091E+02  0.00000000000E+00 0. -1.
          2    1    1    2  501    0 -0.22399924466E+03 -0.31282986515E+03  0.94808199244E+02  0.39626604799E+03  0.25500000000E-02 0. -1.
<mgrwt>
<rscale>  0 0.10124464E+03</rscale>
<asrwt>0</asrwt>
<pdfrwt beam="1">  1       11 0.10000000E+01 0.40018742E+03</pdfrwt>
<pdfrwt beam="2">  1        2 0.43163632E-01 0.10124464E+03</pdfrwt>
<totfact> 0.14505558E+02</totfact>
</mgrwt>
</event>
<event>
 5    1  0.9955701E-004  0.1897798E+03  0.7818608E-02  0.1299756E+00
         11   -1    0    0    0    0  0.00000000000E+00  0.00000000000E+00  0.99994078396E+03  0.99994078396E+03  0.51100000000E-03 0. -1.
          2   -1    0    0  501    0 -0.00000000000E+00 -0.00000000000E+00 -0.58487102432E+02  0.58487102487E+02  0.25500000000E-02 0. -1.
         11    1    1    2    0    0  0.38166584666E+02  0.17610577793E+03  0.34233194215E+03  0.38686055863E+03  0.51100000000E-03 0. -1.
         22    1    1    2    0    0 -0.37790851911E+02  0.22367076945E+02  0.38525089907E+01  0.44082609324E+02  0.00000000000E+00 0.  1.
          2    1    1    2  501    0 -0.37573275477E+00 -0.19847285487E+03  0.59526923039E+03  0.62748471850E+03  0.25500000000E-02 0. -1.
<mgrwt>
<rscale>  0 0.91290618E+02</rscale>
<asrwt>0</asrwt>
<pdfrwt beam="1">  1       11 0.10000000E+01 0.18977983E+03</pdfrwt>
<pdfrwt beam="2">  1        2 0.89974827E-02 0.91290618E+02</pdfrwt>
<totfact> 0.84496062E+02</totfact>
</mgrwt>
</event>
<event>
 5    1  0.9955701E-004  0.4473086E+02  0.7818608E-02  0.1600282E+00
         11   -1    0    0    0    0  0.00000000000E+00  0.00000000000E+00  0.10003223141E+04  0.10003223141E+04  0.51100000000E-03 0. -1.
          2   -1    0    0  501    0 -0.00000000000E+00 -0.00000000000E+00 -0.54659265046E+01  0.54659270994E+01  0.25500000000E-02 0. -1.
         11    1    1    2    0    0  0.58611917262E+02  0.18700118061E+02  0.25678656606E+03  0.26405376681E+03  0.51100000000E-03 0. -1.
         22    1    1    2    0    0 -0.19024016578E+02 -0.56885127208E+01  0.83060353161E+02  0.85400788351E+02  0.00000000000E+00 0. -1.
          2    1    1    2  501    0 -0.39587900684E+02 -0.13011605340E+02  0.65500946838E+03  0.65633368604E+03  0.25500000000E-02 0. -1.
<mgrwt>
<rscale>  0 0.29802495E+02</rscale>
<asrwt>0</asrwt>
<pdfrwt beam="1">  1       11 0.10000000E+01 0.44730864E+02</pdfrwt>
<pdfrwt beam="2">  1        2 0.84118283E-03 0.29802495E+02</pdfrwt>
<totfact> 0.15647510E+04</totfact>
</mgrwt>
</event>
<event>
 5    1  0.9955701E-004  0.5665833E+02  0.7818608E-02  0.1416993E+00
         11   -1    0    0    0    0  0.00000000000E+00  0.00000000000E+00  0.10001180564E+04  0.10001180564E+04  0.51100000000E-03 0. -1.
          2   -1    0    0  501    0 -0.00000000000E+00 -0.00000000000E+00 -0.96781548391E+01  0.96781551750E+01  0.25500000000E-02 0. -1.
         11    1    1    2    0    0 -0.46037473323E+02 -0.49262147051E+02  0.29272952362E+03  0.30039437758E+03  0.51100000000E-03 0. -1.
         22    1    1    2    0    0  0.53817886848E+02 -0.96913019812E+01  0.17563689028E+03  0.18395272085E+03  0.00000000000E+00 0. -1.
          2    1    1    2  501    0 -0.77804135256E+01  0.58953449032E+02  0.52207348769E+03  0.52544911318E+03  0.25500000000E-02 0. -1.
<mgrwt>
<rscale>  0 0.55662147E+02</rscale>
<asrwt>0</asrwt>
<pdfrwt beam="1">  1       11 0.10000000E+01 0.56658327E+02</pdfrwt>
<pdfrwt beam="2">  1        2 0.14891227E-02 0.55662147E+02</pdfrwt>
<totfact> 0.82360412E+03</totfact>
</mgrwt>
</event>
<event>
 5    1  0.9955701E-004  0.1556835E+03  0.7818608E-02  0.1300459E+00
         11   -1    0    0    0    0  0.00000000000E+00  0.00000000000E+00  0.10004051291E+04  0.10004051291E+04  0.51100000000E-03 0. -1.
          2   -1    0    0  501    0 -0.00000000000E+00 -0.00000000000E+00 -0.10360902900E+03  0.10360902903E+03  0.25500000000E-02 0. -1.
         11    1    1    2    0    0 -0.13633360292E+03 -0.76907778461E+02  0.87701339047E+03  0.89087268717E+03  0.51100000000E-03 0. -1.
         22    1    1    2    0    0 -0.17381863386E+02  0.50265375385E+02 -0.10525662075E+02  0.54217402183E+02  0.00000000000E+00 0.  1.
          2    1    1    2  501    0  0.15371546631E+03  0.26642403076E+02  0.30308371663E+02  0.15892406874E+03  0.25500000000E-02 0. -1.
<mgrwt>
<rscale>  0 0.90995412E+02</rscale>
<asrwt>0</asrwt>
<pdfrwt beam="1">  1       11 0.10000000E+01 0.15568354E+03</pdfrwt>
<pdfrwt beam="2">  1        2 0.15946308E-01 0.90995412E+02</pdfrwt>
<totfact> 0.42818912E+02</totfact>
</mgrwt>
</event>
