<event>
 5    1  0.1461556E+002  0.1565944E+01  0.7818608E-02  0.3391176E+00
         11   -1    0    0    0    0  0.00000000000E+00  0.00000000000E+00  0.39999999674E+01  0.40000000000E+01  0.51100000000E-03 0. -1.
    9000002   -1    0    0    0    0 -0.00000000000E+00 -0.00000000000E+00  0.00000000000E+00  0.93800000000E+00  0.93800000000E+00 0.  1.
         11    1    1    2    0    0 -0.46981504470E-01  0.17928441310E+00  0.25044240263E+01  0.25112726111E+01  0.51100000000E-03 0. -1.
    9000002    1    1    2    0    0 -0.21578629009E+00 -0.11392792105E+00  0.65705391726E-01  0.97144453917E+00  0.93800000000E+00 0.  1.
         22    1    1    2    0    0  0.26276779456E+00 -0.65356492046E-01  0.14298705493E+01  0.14552828497E+01  0.00000000000E+00 0.  1.
</event>
<event>
 5    1  0.1461556E+002  0.1599432E+01  0.7818608E-02  0.3353980E+00
         11   -1    0    0    0    0  0.00000000000E+00  0.00000000000E+00  0.39999999674E+01  0.40000000000E+01  0.51100000000E-03 0. -1.
    9000002   -1    0    0    0    0 -0.00000000000E+00 -0.00000000000E+00  0.00000000000E+00  0.93800000000E+00  0.93800000000E+00 0. -1.
         11    1    1    2    0    0  0.80098164464E-01  0.11414856424E+00  0.96085189829E+00  0.97091824694E+00  0.51100000000E-03 0. -1.
    9000002    1    1    2    0    0 -0.32298740820E+00 -0.38912376695E+00  0.17545798217E+00  0.10799850348E+01  0.93800000000E+00 0. -1.
         22    1    1    2    0    0  0.24288924374E+00  0.27497520271E+00  0.28636900869E+01  0.28870967183E+01  0.00000000000E+00 0. -1.
</event>
<event>
 5    1  0.1461556E+002  0.1528277E+01  0.7818608E-02  0.3435088E+00
         11   -1    0    0    0    0  0.00000000000E+00  0.00000000000E+00  0.39999999674E+01  0.40000000000E+01  0.51100000000E-03 0.  1.
    9000002   -1    0    0    0    0 -0.00000000000E+00 -0.00000000000E+00  0.00000000000E+00  0.93800000000E+00  0.93800000000E+00 0.  1.
         11    1    1    2    0    0 -0.23559832871E+00  0.17334313167E+00  0.16267976803E+01  0.16528839546E+01  0.51100000000E-03 0.  1.
    9000002    1    1    2    0    0 -0.20780410467E-01  0.68283414070E-01  0.57175063411E-01  0.94244757837E+00  0.93800000000E+00 0.  1.
         22    1    1    2    0    0  0.25637873918E+00 -0.24162654574E+00  0.23160272236E+01  0.23426684670E+01  0.00000000000E+00 0.  1.
</event>
<event>
 5    1  0.1461556E+002  0.1569833E+01  0.7818608E-02  0.3386771E+00
         11   -1    0    0    0    0  0.00000000000E+00  0.00000000000E+00  0.39999999674E+01  0.40000000000E+01  0.51100000000E-03 0.  1.
    9000002   -1    0    0    0    0 -0.00000000000E+00 -0.00000000000E+00  0.00000000000E+00  0.93800000000E+00  0.93800000000E+00 0.  1.
         11    1    1    2    0    0 -0.80851237529E-01  0.17073500279E+00  0.95734146341E+00  0.97580238905E+00  0.51100000000E-03 0.  1.
    9000002    1    1    2    0    0  0.17755341763E+00  0.15127966441E-01  0.43538837234E-01  0.95576864451E+00  0.93800000000E+00 0.  1.
         22    1    1    2    0    0 -0.96702180106E-01 -0.18586296924E+00  0.29991196667E+01  0.30064289664E+01  0.00000000000E+00 0.  1.
</event>
<event>
 5    1  0.1461556E+002  0.1599675E+01  0.7818608E-02  0.3353716E+00
         11   -1    0    0    0    0  0.00000000000E+00  0.00000000000E+00  0.39999999674E+01  0.40000000000E+01  0.51100000000E-03 0. -1.
    9000002   -1    0    0    0    0 -0.00000000000E+00 -0.00000000000E+00  0.00000000000E+00  0.93800000000E+00  0.93800000000E+00 0.  1.
         11    1    1    2    0    0 -0.44505309004E-02 -0.19606913355E+00  0.19165973462E+01  0.19266054503E+01  0.51100000000E-03 0. -1.
    9000002    1    1    2    0    0  0.12180290656E-01  0.39945787396E+00  0.10772757893E+00  0.10252629828E+01  0.93800000000E+00 0.  1.
         22    1    1    2    0    0 -0.77297597556E-02 -0.20338874040E+00  0.19756750422E+01  0.19861315670E+01  0.00000000000E+00 0.  1.
</event>
<event>
 5    1  0.1461556E+002  0.1599672E+01  0.7818608E-02  0.3353719E+00
         11   -1    0    0    0    0  0.00000000000E+00  0.00000000000E+00  0.39999999674E+01  0.40000000000E+01  0.51100000000E-03 0.  1.
    9000002   -1    0    0    0    0 -0.00000000000E+00 -0.00000000000E+00  0.00000000000E+00  0.93800000000E+00  0.93800000000E+00 0. -1.
         11    1    1    2    0    0 -0.32801637902E-01  0.13308138267E+00  0.16160562399E+01  0.16218583889E+01  0.51100000000E-03 0.  1.
    9000002    1    1    2    0    0  0.81461324308E-01 -0.32915834864E+00  0.77008837389E-01  0.10003776921E+01  0.93800000000E+00 0. -1.
         22    1    1    2    0    0 -0.48659686405E-01  0.19607696597E+00  0.23069348900E+01  0.23157639190E+01  0.00000000000E+00 0.  1.
</event>
<event>
 5    1  0.1461556E+002  0.1599676E+01  0.7818608E-02  0.3353715E+00
         11   -1    0    0    0    0  0.00000000000E+00  0.00000000000E+00  0.39999999674E+01  0.40000000000E+01  0.51100000000E-03 0. -1.
    9000002   -1    0    0    0    0 -0.00000000000E+00 -0.00000000000E+00  0.00000000000E+00  0.93800000000E+00  0.93800000000E+00 0. -1.
         11    1    1    2    0    0 -0.85813834319E-01  0.90922132607E-01  0.12114936520E+01  0.12179277393E+01  0.51100000000E-03 0. -1.
    9000002    1    1    2    0    0  0.27306314525E+00 -0.29079411027E+00  0.10731831522E+00  0.10249321522E+01  0.93800000000E+00 0. -1.
         22    1    1    2    0    0 -0.18724931093E+00  0.19987197767E+00  0.26811880002E+01  0.26951401085E+01  0.00000000000E+00 0.  1.
</event>
<event>
 5    1  0.1461556E+002  0.1599598E+01  0.7818608E-02  0.3353799E+00
         11   -1    0    0    0    0  0.00000000000E+00  0.00000000000E+00  0.39999999674E+01  0.40000000000E+01  0.51100000000E-03 0.  1.
    9000002   -1    0    0    0    0 -0.00000000000E+00 -0.00000000000E+00  0.00000000000E+00  0.93800000000E+00  0.93800000000E+00 0.  1.
         11    1    1    2    0    0  0.32143912142E-01 -0.95059395735E-01  0.12659832617E+01  0.12699540936E+01  0.51100000000E-03 0.  1.
    9000002    1    1    2    0    0 -0.69126937307E-01  0.29882494356E+00  0.62860009021E-01  0.98887322802E+00  0.93800000000E+00 0.  1.
         22    1    1    2    0    0  0.36983025165E-01 -0.20376554783E+00  0.26711566967E+01  0.26791726784E+01  0.00000000000E+00 0.  1.
</event>
<event>
 5    1  0.1461556E+002  0.1579948E+01  0.7818608E-02  0.3375419E+00
         11   -1    0    0    0    0  0.00000000000E+00  0.00000000000E+00  0.39999999674E+01  0.40000000000E+01  0.51100000000E-03 0.  1.
    9000002   -1    0    0    0    0 -0.00000000000E+00 -0.00000000000E+00  0.00000000000E+00  0.93800000000E+00  0.93800000000E+00 0. -1.
         11    1    1    2    0    0  0.12414490395E+00  0.13107562224E+00  0.14839272234E+01  0.14948689045E+01  0.51100000000E-03 0.  1.
    9000002    1    1    2    0    0 -0.23503059880E+00  0.76409547960E-01  0.55777401906E-01  0.97161356514E+00  0.93800000000E+00 0. -1.
         22    1    1    2    0    0  0.11088569485E+00 -0.20748517020E+00  0.24602953420E+01  0.24715175304E+01  0.00000000000E+00 0.  1.
</event>
<event>
 5    1  0.1461556E+002  0.1599643E+01  0.7818608E-02  0.3353751E+00
         11   -1    0    0    0    0  0.00000000000E+00  0.00000000000E+00  0.39999999674E+01  0.40000000000E+01  0.51100000000E-03 0. -1.
    9000002   -1    0    0    0    0 -0.00000000000E+00 -0.00000000000E+00  0.00000000000E+00  0.93800000000E+00  0.93800000000E+00 0.  1.
         11    1    1    2    0    0 -0.12206580787E-02 -0.67199774058E-01  0.75901070599E+00  0.76198084790E+00  0.51100000000E-03 0. -1.
    9000002    1    1    2    0    0  0.11299905678E-01  0.31983688916E+00  0.68486829835E-01  0.99345748243E+00  0.93800000000E+00 0.  1.
         22    1    1    2    0    0 -0.10079247600E-01 -0.25263711510E+00  0.31725024315E+01  0.31825616697E+01  0.00000000000E+00 0. -1.
</event>
<event>
 5    1  0.1461556E+002  0.1559632E+01  0.7818608E-02  0.3398378E+00
         11   -1    0    0    0    0  0.00000000000E+00  0.00000000000E+00  0.39999999674E+01  0.40000000000E+01  0.51100000000E-03 0. -1.
    9000002   -1    0    0    0    0 -0.00000000000E+00 -0.00000000000E+00  0.00000000000E+00  0.93800000000E+00  0.93800000000E+00 0.  1.
         11    1    1    2    0    0 -0.25129669243E+00  0.80759192839E-01  0.22121452995E+01  0.22278373284E+01  0.51100000000E-03 0. -1.
    9000002    1    1    2    0    0  0.22136263991E-01 -0.16010530447E+00  0.47515619373E-01  0.95300863416E+00  0.93800000000E+00 0.  1.
         22    1    1    2    0    0  0.22916042844E+00  0.79346111628E-01  0.17403390485E+01  0.17571540374E+01  0.00000000000E+00 0. -1.
</event>
<event>
 5    1  0.1461556E+002  0.1597755E+01  0.7818608E-02  0.3355803E+00
         11   -1    0    0    0    0  0.00000000000E+00  0.00000000000E+00  0.39999999674E+01  0.40000000000E+01  0.51100000000E-03 0. -1.
    9000002   -1    0    0    0    0 -0.00000000000E+00 -0.00000000000E+00  0.00000000000E+00  0.93800000000E+00  0.93800000000E+00 0.  1.
         11    1    1    2    0    0  0.93792785649E-03  0.13067439708E-01  0.36620064755E-01  0.38896374546E-01  0.51100000000E-03 0. -1.
    9000002    1    1    2    0    0 -0.67914706041E-01 -0.29368969554E+00  0.62132831128E-01  0.98720339002E+00  0.93800000000E+00 0.  1.
         22    1    1    2    0    0  0.66976778185E-01  0.28062225583E+00  0.39012470715E+01  0.39119002354E+01  0.00000000000E+00 0. -1.
</event>
<event>
 5    1  0.1461556E+002  0.1599663E+01  0.7818608E-02  0.3353729E+00
         11   -1    0    0    0    0  0.00000000000E+00  0.00000000000E+00  0.39999999674E+01  0.40000000000E+01  0.51100000000E-03 0. -1.
    9000002   -1    0    0    0    0 -0.00000000000E+00 -0.00000000000E+00  0.00000000000E+00  0.93800000000E+00  0.93800000000E+00 0.  1.
         11    1    1    2    0    0  0.56858598508E-02  0.35773884080E-01  0.42577663854E+00  0.42731499720E+00  0.51100000000E-03 0. -1.
    9000002    1    1    2    0    0 -0.75937446124E-01 -0.32006787470E+00  0.72404351416E-01  0.99664252881E+00  0.93800000000E+00 0.  1.
         22    1    1    2    0    0  0.70251586274E-01  0.28429399062E+00  0.35018189774E+01  0.35140424740E+01  0.00000000000E+00 0. -1.
</event>
<event>
 5    1  0.1461556E+002  0.1599527E+01  0.7818608E-02  0.3353877E+00
         11   -1    0    0    0    0  0.00000000000E+00  0.00000000000E+00  0.39999999674E+01  0.40000000000E+01  0.51100000000E-03 0.  1.
    9000002   -1    0    0    0    0 -0.00000000000E+00 -0.00000000000E+00  0.00000000000E+00  0.93800000000E+00  0.93800000000E+00 0.  1.
         11    1    1    2    0    0 -0.13580156858E-01  0.77625272408E-02  0.13017726211E+00  0.13111467569E+00  0.51100000000E-03 0. -1.
    9000002    1    1    2    0    0  0.25072038691E+00 -0.22456126577E+00  0.75970791209E-01  0.99945186758E+00  0.93800000000E+00 0.  1.
         22    1    1    2    0    0 -0.23714023005E+00  0.21679873853E+00  0.37938519140E+01  0.38074334567E+01  0.00000000000E+00 0.  1.
</event>
<event>
 5    1  0.1461556E+002  0.1599431E+01  0.7818608E-02  0.3353982E+00
         11   -1    0    0    0    0  0.00000000000E+00  0.00000000000E+00  0.39999999674E+01  0.40000000000E+01  0.51100000000E-03 0. -1.
    9000002   -1    0    0    0    0 -0.00000000000E+00 -0.00000000000E+00  0.00000000000E+00  0.93800000000E+00  0.93800000000E+00 0. -1.
         11    1    1    2    0    0  0.34723050783E-02  0.32309206054E-01  0.27374098945E+00  0.27566343995E+00  0.51100000000E-03 0. -1.
    9000002    1    1    2    0    0 -0.10391825188E+00 -0.33527261030E+00  0.82819121330E-01  0.10049426517E+01  0.93800000000E+00 0. -1.
         22    1    1    2    0    0  0.10044594680E+00  0.30296340425E+00  0.36434398566E+01  0.36573939084E+01  0.00000000000E+00 0. -1.
</event>
<event>
 5    1  0.1461556E+002  0.1599676E+01  0.7818608E-02  0.3353715E+00
         11   -1    0    0    0    0  0.00000000000E+00  0.00000000000E+00  0.39999999674E+01  0.40000000000E+01  0.51100000000E-03 0.  1.
    9000002   -1    0    0    0    0 -0.00000000000E+00 -0.00000000000E+00  0.00000000000E+00  0.93800000000E+00  0.93800000000E+00 0.  1.
         11    1    1    2    0    0 -0.43185154202E-01 -0.10916833864E+00  0.91558556949E+00  0.92308172980E+00  0.51100000000E-03 0.  1.
    9000002    1    1    2    0    0  0.18317033871E+00  0.45350484065E+00  0.16346385815E+00  0.10704122787E+01  0.93800000000E+00 0.  1.
         22    1    1    2    0    0 -0.13998518451E+00 -0.34433650202E+00  0.29209505397E+01  0.29445059915E+01  0.00000000000E+00 0.  1.
</event>
<event>
 5    1  0.1461556E+002  0.1599672E+01  0.7818608E-02  0.3353719E+00
         11   -1    0    0    0    0  0.00000000000E+00  0.00000000000E+00  0.39999999674E+01  0.40000000000E+01  0.51100000000E-03 0.  1.
    9000002   -1    0    0    0    0 -0.00000000000E+00 -0.00000000000E+00  0.00000000000E+00  0.93800000000E+00  0.93800000000E+00 0.  1.
         11    1    1    2    0    0 -0.62305150841E-02 -0.15584286633E-01  0.25693911069E+00  0.25748719780E+00  0.51100000000E-03 0.  1.
    9000002    1    1    2    0    0  0.77763833698E-01  0.23683312043E+00  0.41278370816E-01  0.97143452927E+00  0.93800000000E+00 0.  1.
         22    1    1    2    0    0 -0.71533318614E-01 -0.22124883380E+00  0.37017824859E+01  0.37090782729E+01  0.00000000000E+00 0.  1.
</event>
<event>
 5    1  0.1461556E+002  0.1599604E+01  0.7818608E-02  0.3353793E+00
         11   -1    0    0    0    0  0.00000000000E+00  0.00000000000E+00  0.39999999674E+01  0.40000000000E+01  0.51100000000E-03 0.  1.
    9000002   -1    0    0    0    0 -0.00000000000E+00 -0.00000000000E+00  0.00000000000E+00  0.93800000000E+00  0.93800000000E+00 0.  1.
         11    1    1    2    0    0  0.37156489287E+00 -0.44870309369E-01  0.24698865635E+01  0.24980820066E+01  0.51100000000E-03 0.  1.
    9000002    1    1    2    0    0 -0.57323677541E+00  0.81897753132E-01  0.23299511934E+00  0.11266935556E+01  0.93800000000E+00 0.  1.
         22    1    1    2    0    0  0.20167188255E+00 -0.37027443763E-01  0.12971182845E+01  0.13132244378E+01  0.00000000000E+00 0.  1.
</event>
<event>
 5    1  0.1461556E+002  0.1593350E+01  0.7818608E-02  0.3360613E+00
         11   -1    0    0    0    0  0.00000000000E+00  0.00000000000E+00  0.39999999674E+01  0.40000000000E+01  0.51100000000E-03 0. -1.
    9000002   -1    0    0    0    0 -0.00000000000E+00 -0.00000000000E+00  0.00000000000E+00  0.93800000000E+00  0.93800000000E+00 0. -1.
         11    1    1    2    0    0 -0.27788321741E-01 -0.11510609273E-01  0.19800632510E+01  0.19802917522E+01  0.51100000000E-03 0. -1.
    9000002    1    1    2    0    0  0.18949381064E+00  0.15981560413E+00  0.45659985144E-01  0.97127635915E+00  0.93800000000E+00 0. -1.
         22    1    1    2    0    0 -0.16170548890E+00 -0.14830499486E+00  0.19742767313E+01  0.19864318886E+01  0.00000000000E+00 0. -1.
</event>
<event>
 5    1  0.1461556E+002  0.1575173E+01  0.7818608E-02  0.3380758E+00
         11   -1    0    0    0    0  0.00000000000E+00  0.00000000000E+00  0.39999999674E+01  0.40000000000E+01  0.51100000000E-03 0. -1.
    9000002   -1    0    0    0    0 -0.00000000000E+00 -0.00000000000E+00  0.00000000000E+00  0.93800000000E+00  0.93800000000E+00 0. -1.
         11    1    1    2    0    0 -0.24082283424E+00 -0.34668673061E-01  0.19634824944E+01  0.19784997653E+01  0.51100000000E-03 0. -1.
    9000002    1    1    2    0    0  0.23989519222E+00 -0.21946582923E+00  0.90401188286E-01  0.99686073666E+00  0.93800000000E+00 0. -1.
         22    1    1    2    0    0  0.92764201923E-03  0.25413450229E+00  0.19461162847E+01  0.19626394981E+01  0.00000000000E+00 0. -1.
</event>
<event>
 5    1  0.1461556E+002  0.1599612E+01  0.7818608E-02  0.3353785E+00
         11   -1    0    0    0    0  0.00000000000E+00  0.00000000000E+00  0.39999999674E+01  0.40000000000E+01  0.51100000000E-03 0. -1.
    9000002   -1    0    0    0    0 -0.00000000000E+00 -0.00000000000E+00  0.00000000000E+00  0.93800000000E+00  0.93800000000E+00 0.  1.
         11    1    1    2    0    0 -0.44102702755E-01  0.29117331759E-01  0.66415632240E+00  0.66625576853E+00  0.51100000000E-03 0. -1.
    9000002    1    1    2    0    0  0.25721139909E+00 -0.13010441558E+00  0.55418093731E-01  0.98285300421E+00  0.93800000000E+00 0.  1.
         22    1    1    2    0    0 -0.21310869634E+00  0.10098708383E+00  0.32804255512E+01  0.32888912273E+01  0.00000000000E+00 0. -1.
</event>
<event>
 5    1  0.1461556E+002  0.1599465E+01  0.7818608E-02  0.3353945E+00
         11   -1    0    0    0    0  0.00000000000E+00  0.00000000000E+00  0.39999999674E+01  0.40000000000E+01  0.51100000000E-03 0. -1.
    9000002   -1    0    0    0    0 -0.00000000000E+00 -0.00000000000E+00  0.00000000000E+00  0.93800000000E+00  0.93800000000E+00 0. -1.
         11    1    1    2    0    0  0.74565216155E-02  0.50141540399E-01  0.29325537686E+00  0.29760502511E+00  0.51100000000E-03 0. -1.
    9000002    1    1    2    0    0 -0.28529067322E-01 -0.54691264429E+00  0.20726823177E+00  0.11057718879E+01  0.93800000000E+00 0. -1.
         22    1    1    2    0    0  0.21072545706E-01  0.49677110389E+00  0.34994763587E+01  0.35346230870E+01  0.00000000000E+00 0. -1.
</event>
<event>
 5    1  0.1461556E+002  0.1599660E+01  0.7818608E-02  0.3353732E+00
         11   -1    0    0    0    0  0.00000000000E+00  0.00000000000E+00  0.39999999674E+01  0.40000000000E+01  0.51100000000E-03 0.  1.
    9000002   -1    0    0    0    0 -0.00000000000E+00 -0.00000000000E+00  0.00000000000E+00  0.93800000000E+00  0.93800000000E+00 0.  1.
         11    1    1    2    0    0  0.25805112550E-01 -0.31145943636E-01  0.58206545983E+00  0.58346930878E+00  0.51100000000E-03 0.  1.
    9000002    1    1    2    0    0 -0.17206268928E+00  0.18823463008E+00  0.43233747872E-01  0.97301130618E+00  0.93800000000E+00 0.  1.
         22    1    1    2    0    0  0.14625757673E+00 -0.15708868645E+00  0.33747007597E+01  0.33815193850E+01  0.00000000000E+00 0.  1.
</event>
<event>
 5    1  0.1461556E+002  0.1599677E+01  0.7818608E-02  0.3353714E+00
         11   -1    0    0    0    0  0.00000000000E+00  0.00000000000E+00  0.39999999674E+01  0.40000000000E+01  0.51100000000E-03 0. -1.
    9000002   -1    0    0    0    0 -0.00000000000E+00 -0.00000000000E+00  0.00000000000E+00  0.93800000000E+00  0.93800000000E+00 0.  1.
         11    1    1    2    0    0  0.36214591629E-01  0.61334428324E-02  0.52744633168E+00  0.52872394469E+00  0.51100000000E-03 0. -1.
    9000002    1    1    2    0    0 -0.27256920922E+00 -0.45218278087E-01  0.50819183201E-01  0.97916559165E+00  0.93800000000E+00 0.  1.
         22    1    1    2    0    0  0.23635461760E+00  0.39084835255E-01  0.34217344525E+01  0.34301104637E+01  0.00000000000E+00 0. -1.
</event>
<event>
 5    1  0.1461556E+002  0.1553046E+01  0.7818608E-02  0.3405957E+00
         11   -1    0    0    0    0  0.00000000000E+00  0.00000000000E+00  0.39999999674E+01  0.40000000000E+01  0.51100000000E-03 0. -1.
    9000002   -1    0    0    0    0 -0.00000000000E+00 -0.00000000000E+00  0.00000000000E+00  0.93800000000E+00  0.93800000000E+00 0. -1.
         11    1    1    2    0    0  0.16885730756E+00  0.45844878596E-01  0.11265990131E+01  0.11401053200E+01  0.51100000000E-03 0. -1.
    9000002    1    1    2    0    0  0.17846670045E+00  0.12802447225E+00  0.68038344072E-01  0.96577111415E+00  0.93800000000E+00 0. -1.
         22    1    1    2    0    0 -0.34732400801E+00 -0.17386935084E+00  0.28053626102E+01  0.28321235659E+01  0.00000000000E+00 0. -1.
</event>
<event>
 5    1  0.1461556E+002  0.1566717E+01  0.7818608E-02  0.3390299E+00
         11   -1    0    0    0    0  0.00000000000E+00  0.00000000000E+00  0.39999999674E+01  0.40000000000E+01  0.51100000000E-03 0. -1.
    9000002   -1    0    0    0    0 -0.00000000000E+00 -0.00000000000E+00  0.00000000000E+00  0.93800000000E+00  0.93800000000E+00 0. -1.
         11    1    1    2    0    0 -0.11740065908E+00 -0.13274956660E+00  0.27029521536E+01  0.27087554278E+01  0.51100000000E-03 0. -1.
    9000002    1    1    2    0    0 -0.10489896781E+00  0.82514493639E-01  0.36383821146E-01  0.94814567317E+00  0.93800000000E+00 0. -1.
         22    1    1    2    0    0  0.22229962690E+00  0.50235072960E-01  0.12606639926E+01  0.12810988990E+01  0.00000000000E+00 0.  1.
</event>
<event>
 5    1  0.1484761E+002  0.1575487E+01  0.7818608E-02  0.3380406E+00
         11   -1    0    0    0    0  0.00000000000E+00  0.00000000000E+00  0.39999999674E+01  0.40000000000E+01  0.51100000000E-03 0. -1.
    9000002   -1    0    0    0    0 -0.00000000000E+00 -0.00000000000E+00  0.00000000000E+00  0.93800000000E+00  0.93800000000E+00 0.  1.
         11    1    1    2    0    0 -0.82988545846E-01  0.12807193760E+00  0.20684145280E+01  0.20740367501E+01  0.51100000000E-03 0. -1.
    9000002    1    1    2    0    0  0.47145691676E-01  0.95290552411E-01  0.25344394170E-01  0.94434598741E+00  0.93800000000E+00 0.  1.
         22    1    1    2    0    0  0.35842854171E-01 -0.22336249001E+00  0.19062410452E+01  0.19196172625E+01  0.00000000000E+00 0. -1.
</event>
<event>
 5    1  0.1461556E+002  0.1599411E+01  0.7818608E-02  0.3354003E+00
         11   -1    0    0    0    0  0.00000000000E+00  0.00000000000E+00  0.39999999674E+01  0.40000000000E+01  0.51100000000E-03 0. -1.
    9000002   -1    0    0    0    0 -0.00000000000E+00 -0.00000000000E+00  0.00000000000E+00  0.93800000000E+00  0.93800000000E+00 0. -1.
         11    1    1    2    0    0  0.33974353177E-01  0.33952362244E+00  0.23086509474E+01  0.23337309196E+01  0.51100000000E-03 0. -1.
    9000002    1    1    2    0    0 -0.28089314939E-01 -0.54314805260E+00  0.20432247874E+00  0.11033542006E+01  0.93800000000E+00 0. -1.
         22    1    1    2    0    0 -0.58850382380E-02  0.20362443016E+00  0.14870265412E+01  0.15009148798E+01  0.00000000000E+00 0. -1.
</event>
<event>
 5    1  0.1743393E+002  0.1583278E+01  0.7818608E-02  0.3371716E+00
         11   -1    0    0    0    0  0.00000000000E+00  0.00000000000E+00  0.39999999674E+01  0.40000000000E+01  0.51100000000E-03 0.  1.
    9000002   -1    0    0    0    0 -0.00000000000E+00 -0.00000000000E+00  0.00000000000E+00  0.93800000000E+00  0.93800000000E+00 0. -1.
         11    1    1    2    0    0  0.71553017291E-01  0.44941085104E-01  0.43305989250E+00  0.44122632177E+00  0.51100000000E-03 0.  1.
    9000002    1    1    2    0    0  0.12660050272E+00 -0.44814319123E-02  0.22720161772E-01  0.94678824257E+00  0.93800000000E+00 0. -1.
         22    1    1    2    0    0 -0.19815352001E+00 -0.40459653192E-01  0.35442199131E+01  0.35499854357E+01  0.00000000000E+00 0.  1.
</event>
<event>
 5    1  0.1461556E+002  0.1599330E+01  0.7818608E-02  0.3354091E+00
         11   -1    0    0    0    0  0.00000000000E+00  0.00000000000E+00  0.39999999674E+01  0.40000000000E+01  0.51100000000E-03 0.  1.
    9000002   -1    0    0    0    0 -0.00000000000E+00 -0.00000000000E+00  0.00000000000E+00  0.93800000000E+00  0.93800000000E+00 0. -1.
         11    1    1    2    0    0 -0.13340600937E+00  0.86912366111E-01  0.14992237582E+01  0.15076548216E+01  0.51100000000E-03 0.  1.
    9000002    1    1    2    0    0  0.37830351795E+00 -0.17911083925E+00  0.11875390796E+00  0.10339926185E+01  0.93800000000E+00 0. -1.
         22    1    1    2    0    0 -0.24489750859E+00  0.92198473136E-01  0.23820223012E+01  0.23963525599E+01  0.00000000000E+00 0.  1.
</event>
<event>
 5    1  0.1461556E+002  0.1599674E+01  0.7818608E-02  0.3353717E+00
         11   -1    0    0    0    0  0.00000000000E+00  0.00000000000E+00  0.39999999674E+01  0.40000000000E+01  0.51100000000E-03 0. -1.
    9000002   -1    0    0    0    0 -0.00000000000E+00 -0.00000000000E+00  0.00000000000E+00  0.93800000000E+00  0.93800000000E+00 0.  1.
         11    1    1    2    0    0 -0.23644679326E-01 -0.30379452727E+00  0.20415917075E+01  0.20642061784E+01  0.51100000000E-03 0. -1.
    9000002    1    1    2    0    0  0.40634649457E-01  0.56023527388E+00  0.21842114191E+00  0.11149289359E+01  0.93800000000E+00 0.  1.
         22    1    1    2    0    0 -0.16989970131E-01 -0.25644074661E+00  0.17399871180E+01  0.17588648857E+01  0.00000000000E+00 0. -1.
</event>
<event>
 5    1  0.1461556E+002  0.1505247E+01  0.7818608E-02  0.3463095E+00
         11   -1    0    0    0    0  0.00000000000E+00  0.00000000000E+00  0.39999999674E+01  0.40000000000E+01  0.51100000000E-03 0.  1.
    9000002   -1    0    0    0    0 -0.00000000000E+00 -0.00000000000E+00  0.00000000000E+00  0.93800000000E+00  0.93800000000E+00 0. -1.
         11    1    1    2    0    0 -0.95122084812E-01  0.61288309814E-01  0.44792481474E-01  0.12170084411E+00  0.51100000000E-03 0.  1.
    9000002    1    1    2    0    0  0.33190524195E+00 -0.18359591473E-01  0.15343510396E+00  0.10069183161E+01  0.93800000000E+00 0. -1.
         22    1    1    2    0    0 -0.23678315714E+00 -0.42928718341E-01  0.38017723819E+01  0.38093808398E+01  0.00000000000E+00 0.  1.
</event>
<event>
 5    1  0.1461556E+002  0.1599677E+01  0.7818608E-02  0.3353714E+00
         11   -1    0    0    0    0  0.00000000000E+00  0.00000000000E+00  0.39999999674E+01  0.40000000000E+01  0.51100000000E-03 0. -1.
    9000002   -1    0    0    0    0 -0.00000000000E+00 -0.00000000000E+00  0.00000000000E+00  0.93800000000E+00  0.93800000000E+00 0.  1.
         11    1    1    2    0    0  0.21283224200E+00  0.11179518809E+00  0.19749359735E+01  0.19895145357E+01  0.51100000000E-03 0. -1.
    9000002    1    1    2    0    0 -0.41424611859E+00 -0.21827148365E+00  0.14931678628E+00  0.10589531576E+01  0.93800000000E+00 0.  1.
         22    1    1    2    0    0  0.20141387659E+00  0.10647629556E+00  0.18757472076E+01  0.18895323066E+01  0.00000000000E+00 0. -1.
</event>
<event>
 5    1  0.1461556E+002  0.1599554E+01  0.7818608E-02  0.3353848E+00
         11   -1    0    0    0    0  0.00000000000E+00  0.00000000000E+00  0.39999999674E+01  0.40000000000E+01  0.51100000000E-03 0.  1.
    9000002   -1    0    0    0    0 -0.00000000000E+00 -0.00000000000E+00  0.00000000000E+00  0.93800000000E+00  0.93800000000E+00 0. -1.
         11    1    1    2    0    0 -0.77038379107E-01  0.44516714650E-01  0.63576406490E+00  0.64196016783E+00  0.51100000000E-03 0.  1.
    9000002    1    1    2    0    0  0.43901739098E+00 -0.21430282965E+00  0.16317751421E+00  0.10701088139E+01  0.93800000000E+00 0. -1.
         22    1    1    2    0    0 -0.36197901187E+00  0.16978611500E+00  0.32010583882E+01  0.32259310183E+01  0.00000000000E+00 0.  1.
</event>
<event>
 5    1  0.1461556E+002  0.1599673E+01  0.7818608E-02  0.3353718E+00
         11   -1    0    0    0    0  0.00000000000E+00  0.00000000000E+00  0.39999999674E+01  0.40000000000E+01  0.51100000000E-03 0.  1.
    9000002   -1    0    0    0    0 -0.00000000000E+00 -0.00000000000E+00  0.00000000000E+00  0.93800000000E+00  0.93800000000E+00 0.  1.
         11    1    1    2    0    0  0.45999595974E-03  0.23203552226E-01  0.39729190298E+00  0.39796951357E+00  0.51100000000E-03 0.  1.
    9000002    1    1    2    0    0 -0.17642319010E-01 -0.22653216450E+00  0.34242207116E-01  0.96573526482E+00  0.93800000000E+00 0.  1.
         22    1    1    2    0    0  0.17182323050E-01  0.20332861227E+00  0.35684658573E+01  0.35742952216E+01  0.00000000000E+00 0.  1.
</event>
<event>
 5    1  0.1461556E+002  0.1593267E+01  0.7818608E-02  0.3360704E+00
         11   -1    0    0    0    0  0.00000000000E+00  0.00000000000E+00  0.39999999674E+01  0.40000000000E+01  0.51100000000E-03 0.  1.
    9000002   -1    0    0    0    0 -0.00000000000E+00 -0.00000000000E+00  0.00000000000E+00  0.93800000000E+00  0.93800000000E+00 0.  1.
         11    1    1    2    0    0 -0.25162131831E+00  0.53859390222E+00  0.21257680876E+01  0.22073257356E+01  0.51100000000E-03 0.  1.
    9000002    1    1    2    0    0  0.39592856487E+00 -0.72609217937E+00  0.51734575010E+00  0.13533144153E+01  0.93800000000E+00 0.  1.
         22    1    1    2    0    0 -0.14430724655E+00  0.18749827715E+00  0.13568861296E+01  0.13773598492E+01  0.00000000000E+00 0.  1.
</event>
<event>
 5    1  0.1461556E+002  0.1598577E+01  0.7818608E-02  0.3354909E+00
         11   -1    0    0    0    0  0.00000000000E+00  0.00000000000E+00  0.39999999674E+01  0.40000000000E+01  0.51100000000E-03 0.  1.
    9000002   -1    0    0    0    0 -0.00000000000E+00 -0.00000000000E+00  0.00000000000E+00  0.93800000000E+00  0.93800000000E+00 0.  1.
         11    1    1    2    0    0  0.28860453220E+00 -0.44067018441E+00  0.25307099507E+01  0.25849518183E+01  0.51100000000E-03 0.  1.
    9000002    1    1    2    0    0 -0.36384024746E+00  0.64946677267E+00  0.40238974870E+00  0.12633084834E+01  0.93800000000E+00 0.  1.
         22    1    1    2    0    0  0.75235715260E-01 -0.20879658825E+00  0.10669002680E+01  0.10897396982E+01  0.00000000000E+00 0.  1.
</event>
<event>
 5    1  0.1461556E+002  0.1581863E+01  0.7818608E-02  0.3373287E+00
         11   -1    0    0    0    0  0.00000000000E+00  0.00000000000E+00  0.39999999674E+01  0.40000000000E+01  0.51100000000E-03 0.  1.
    9000002   -1    0    0    0    0 -0.00000000000E+00 -0.00000000000E+00  0.00000000000E+00  0.93800000000E+00  0.93800000000E+00 0.  1.
         11    1    1    2    0    0  0.34506309911E-02 -0.43669582420E-01  0.82036983862E-01  0.93001436145E-01  0.51100000000E-03 0.  1.
    9000002    1    1    2    0    0 -0.13385987053E+00 -0.15869836732E+00  0.42055816055E-01  0.96162171793E+00  0.93800000000E+00 0.  1.
         22    1    1    2    0    0  0.13040923954E+00  0.20236794974E+00  0.38759071674E+01  0.38833768459E+01  0.00000000000E+00 0.  1.
</event>
<event>
 5    1  0.1461556E+002  0.1523333E+01  0.7818608E-02  0.3441023E+00
         11   -1    0    0    0    0  0.00000000000E+00  0.00000000000E+00  0.39999999674E+01  0.40000000000E+01  0.51100000000E-03 0. -1.
    9000002   -1    0    0    0    0 -0.00000000000E+00 -0.00000000000E+00  0.00000000000E+00  0.93800000000E+00  0.93800000000E+00 0. -1.
         11    1    1    2    0    0  0.44993799263E-01 -0.28236394843E+00  0.15451172944E+01  0.15713502334E+01  0.51100000000E-03 0. -1.
    9000002    1    1    2    0    0 -0.34607693304E-01 -0.10401715852E+00  0.65986799370E-01  0.94668660041E+00  0.93800000000E+00 0. -1.
         22    1    1    2    0    0 -0.10386105959E-01  0.38638110695E+00  0.23888958736E+01  0.24199631662E+01  0.00000000000E+00 0. -1.
</event>
<event>
 5    1  0.1461556E+002  0.1527064E+01  0.7818608E-02  0.3436540E+00
         11   -1    0    0    0    0  0.00000000000E+00  0.00000000000E+00  0.39999999674E+01  0.40000000000E+01  0.51100000000E-03 0.  1.
    9000002   -1    0    0    0    0 -0.00000000000E+00 -0.00000000000E+00  0.00000000000E+00  0.93800000000E+00  0.93800000000E+00 0. -1.
         11    1    1    2    0    0 -0.13779483202E-01  0.72689755963E-01  0.24949625644E-01  0.78079573001E-01  0.51100000000E-03 0.  1.
    9000002    1    1    2    0    0 -0.18668081331E+00 -0.68779300430E-01  0.82717877881E-01  0.96242743391E+00  0.93800000000E+00 0. -1.
         22    1    1    2    0    0  0.20046029651E+00 -0.39104555324E-02  0.38923324638E+01  0.38974929931E+01  0.00000000000E+00 0.  1.
</event>
<event>
 5    1  0.1461556E+002  0.1599677E+01  0.7818608E-02  0.3353714E+00
         11   -1    0    0    0    0  0.00000000000E+00  0.00000000000E+00  0.39999999674E+01  0.40000000000E+01  0.51100000000E-03 0.  1.
    9000002   -1    0    0    0    0 -0.00000000000E+00 -0.00000000000E+00  0.00000000000E+00  0.93800000000E+00  0.93800000000E+00 0.  1.
         11    1    1    2    0    0  0.10550692916E-01  0.63595411123E-01  0.91830804076E+00  0.92056809215E+00  0.51100000000E-03 0. -1.
    9000002    1    1    2    0    0 -0.46765606055E-01 -0.27503350450E+00  0.51824212018E-01  0.97997969339E+00  0.93800000000E+00 0.  1.
         22    1    1    2    0    0  0.36214913138E-01  0.21143809338E+00  0.30298677146E+01  0.30374522145E+01  0.00000000000E+00 0.  1.
</event>
<event>
 5    1  0.1461556E+002  0.1599505E+01  0.7818608E-02  0.3353901E+00
         11   -1    0    0    0    0  0.00000000000E+00  0.00000000000E+00  0.39999999674E+01  0.40000000000E+01  0.51100000000E-03 0.  1.
    9000002   -1    0    0    0    0 -0.00000000000E+00 -0.00000000000E+00  0.00000000000E+00  0.93800000000E+00  0.93800000000E+00 0.  1.
         11    1    1    2    0    0 -0.13929828485E-02  0.42037581790E-02  0.28992839972E-01  0.29333562257E-01  0.51100000000E-03 0.  1.
    9000002    1    1    2    0    0  0.74355835256E-01 -0.22985321076E+00  0.38875499449E-01  0.96938980456E+00  0.93800000000E+00 0.  1.
         22    1    1    2    0    0 -0.72962852407E-01  0.22564945258E+00  0.39321316279E+01  0.39392766332E+01  0.00000000000E+00 0.  1.
</event>
<event>
 5    1  0.1461556E+002  0.1599386E+01  0.7818608E-02  0.3354030E+00
         11   -1    0    0    0    0  0.00000000000E+00  0.00000000000E+00  0.39999999674E+01  0.40000000000E+01  0.51100000000E-03 0.  1.
    9000002   -1    0    0    0    0 -0.00000000000E+00 -0.00000000000E+00  0.00000000000E+00  0.93800000000E+00  0.93800000000E+00 0. -1.
         11    1    1    2    0    0  0.13941065366E+00  0.16990722809E+00  0.21372257939E+01  0.21484967190E+01  0.51100000000E-03 0.  1.
    9000002    1    1    2    0    0 -0.26114544421E+00 -0.34413344904E+00  0.12667237606E+00  0.10404396497E+01  0.93800000000E+00 0. -1.
         22    1    1    2    0    0  0.12173479055E+00  0.17422622096E+00  0.17361017974E+01  0.17490636313E+01  0.00000000000E+00 0.  1.
</event>
<event>
 5    1  0.1461556E+002  0.1565295E+01  0.7818608E-02  0.3391915E+00
         11   -1    0    0    0    0  0.00000000000E+00  0.00000000000E+00  0.39999999674E+01  0.40000000000E+01  0.51100000000E-03 0. -1.
    9000002   -1    0    0    0    0 -0.00000000000E+00 -0.00000000000E+00  0.00000000000E+00  0.93800000000E+00  0.93800000000E+00 0. -1.
         11    1    1    2    0    0  0.54386776442E-01  0.46804421133E+00  0.18031344082E+01  0.18636837876E+01  0.51100000000E-03 0. -1.
    9000002    1    1    2    0    0  0.28250592173E+00 -0.71740112363E+00  0.47771620592E+00  0.13048106151E+01  0.93800000000E+00 0. -1.
         22    1    1    2    0    0 -0.33689269817E+00  0.24935691230E+00  0.17191493533E+01  0.17695055972E+01  0.00000000000E+00 0. -1.
</event>
<event>
 5    1  0.1461556E+002  0.1593465E+01  0.7818608E-02  0.3360487E+00
         11   -1    0    0    0    0  0.00000000000E+00  0.00000000000E+00  0.39999999674E+01  0.40000000000E+01  0.51100000000E-03 0. -1.
    9000002   -1    0    0    0    0 -0.00000000000E+00 -0.00000000000E+00  0.00000000000E+00  0.93800000000E+00  0.93800000000E+00 0. -1.
         11    1    1    2    0    0 -0.95059098464E-01 -0.20779462266E+00  0.11654685482E+01  0.11876582149E+01  0.51100000000E-03 0. -1.
    9000002    1    1    2    0    0  0.25009914815E+00  0.40184098747E+00  0.15818339739E+00  0.10624931766E+01  0.93800000000E+00 0. -1.
         22    1    1    2    0    0 -0.15504004969E+00 -0.19404636480E+00  0.26763480218E+01  0.26878486085E+01  0.00000000000E+00 0. -1.
</event>
<event>
 5    1  0.1461556E+002  0.1599119E+01  0.7818608E-02  0.3354320E+00
         11   -1    0    0    0    0  0.00000000000E+00  0.00000000000E+00  0.39999999674E+01  0.40000000000E+01  0.51100000000E-03 0. -1.
    9000002   -1    0    0    0    0 -0.00000000000E+00 -0.00000000000E+00  0.00000000000E+00  0.93800000000E+00  0.93800000000E+00 0.  1.
         11    1    1    2    0    0 -0.20904821730E+00  0.29613235773E-01  0.17106585133E+01  0.17236388575E+01  0.51100000000E-03 0. -1.
    9000002    1    1    2    0    0  0.43523504673E+00 -0.15350873330E-01  0.12902410740E+00  0.10421882822E+01  0.93800000000E+00 0.  1.
         22    1    1    2    0    0 -0.22618682943E+00 -0.14262362444E-01  0.21603173467E+01  0.21721728603E+01  0.00000000000E+00 0. -1.
</event>
<event>
 5    1  0.1461556E+002  0.1599676E+01  0.7818608E-02  0.3353715E+00
         11   -1    0    0    0    0  0.00000000000E+00  0.00000000000E+00  0.39999999674E+01  0.40000000000E+01  0.51100000000E-03 0. -1.
    9000002   -1    0    0    0    0 -0.00000000000E+00 -0.00000000000E+00  0.00000000000E+00  0.93800000000E+00  0.93800000000E+00 0.  1.
         11    1    1    2    0    0 -0.55222495178E-01  0.11330215190E+00  0.14391551164E+01  0.14446641865E+01  0.51100000000E-03 0. -1.
    9000002    1    1    2    0    0  0.14919137599E+00 -0.30675054579E+00  0.77941599093E-01  0.10011357834E+01  0.93800000000E+00 0.  1.
         22    1    1    2    0    0 -0.93968880814E-01  0.19344839389E+00  0.24829032519E+01  0.24922000301E+01  0.00000000000E+00 0. -1.
</event>
<event>
 5    1  0.1461556E+002  0.1599648E+01  0.7818608E-02  0.3353745E+00
         11   -1    0    0    0    0  0.00000000000E+00  0.00000000000E+00  0.39999999674E+01  0.40000000000E+01  0.51100000000E-03 0. -1.
    9000002   -1    0    0    0    0 -0.00000000000E+00 -0.00000000000E+00  0.00000000000E+00  0.93800000000E+00  0.93800000000E+00 0. -1.
         11    1    1    2    0    0 -0.15308920839E+00  0.14397767905E+00  0.14585019153E+01  0.14735650565E+01  0.51100000000E-03 0. -1.
    9000002    1    1    2    0    0  0.41332898389E+00 -0.36967292860E+00  0.21260054745E+00  0.11101990433E+01  0.93800000000E+00 0. -1.
         22    1    1    2    0    0 -0.26023977551E+00  0.22569524955E+00  0.23288975046E+01  0.23542359002E+01  0.00000000000E+00 0. -1.
</event>
<event>
 5    1  0.1461556E+002  0.1599677E+01  0.7818608E-02  0.3353714E+00
         11   -1    0    0    0    0  0.00000000000E+00  0.00000000000E+00  0.39999999674E+01  0.40000000000E+01  0.51100000000E-03 0.  1.
    9000002   -1    0    0    0    0 -0.00000000000E+00 -0.00000000000E+00  0.00000000000E+00  0.93800000000E+00  0.93800000000E+00 0.  1.
         11    1    1    2    0    0  0.16165957819E+00 -0.35781308261E-01  0.15857379884E+01  0.15943586015E+01  0.51100000000E-03 0.  1.
    9000002    1    1    2    0    0 -0.39601413901E+00  0.87311459126E-01  0.11100449783E+00  0.10279185219E+01  0.93800000000E+00 0.  1.
         22    1    1    2    0    0  0.23435456083E+00 -0.51530150865E-01  0.23032574811E+01  0.23157228765E+01  0.00000000000E+00 0.  1.
</event>
<event>
 5    1  0.1461556E+002  0.1598044E+01  0.7818608E-02  0.3355489E+00
         11   -1    0    0    0    0  0.00000000000E+00  0.00000000000E+00  0.39999999674E+01  0.40000000000E+01  0.51100000000E-03 0. -1.
    9000002   -1    0    0    0    0 -0.00000000000E+00 -0.00000000000E+00  0.00000000000E+00  0.93800000000E+00  0.93800000000E+00 0.  1.
         11    1    1    2    0    0  0.35667000333E+00  0.11239722385E-01  0.17575321672E+01  0.17933932649E+01  0.51100000000E-03 0. -1.
    9000002    1    1    2    0    0 -0.65166809077E+00 -0.55676527494E-01  0.30387934948E+00  0.11831981386E+01  0.93800000000E+00 0.  1.
         22    1    1    2    0    0  0.29499808745E+00  0.44436805109E-01  0.19385884507E+01  0.19614085965E+01  0.00000000000E+00 0. -1.
</event>
<event>
 5    1  0.1461556E+002  0.1479412E+01  0.7818608E-02  0.3495632E+00
         11   -1    0    0    0    0  0.00000000000E+00  0.00000000000E+00  0.39999999674E+01  0.40000000000E+01  0.51100000000E-03 0.  1.
    9000002   -1    0    0    0    0 -0.00000000000E+00 -0.00000000000E+00  0.00000000000E+00  0.93800000000E+00  0.93800000000E+00 0.  1.
         11    1    1    2    0    0  0.40470381655E+00 -0.18076119258E+00  0.12056031740E+01  0.12844995376E+01  0.51100000000E-03 0.  1.
    9000002    1    1    2    0    0 -0.15396469468E+00  0.81248728214E-01  0.11541876783E+00  0.96097449238E+00  0.93800000000E+00 0.  1.
         22    1    1    2    0    0 -0.25073912187E+00  0.99512464362E-01  0.26789780255E+01  0.26925259700E+01  0.00000000000E+00 0.  1.
</event>
<event>
 5    1  0.1461556E+002  0.1599599E+01  0.7818608E-02  0.3353799E+00
         11   -1    0    0    0    0  0.00000000000E+00  0.00000000000E+00  0.39999999674E+01  0.40000000000E+01  0.51100000000E-03 0. -1.
    9000002   -1    0    0    0    0 -0.00000000000E+00 -0.00000000000E+00  0.00000000000E+00  0.93800000000E+00  0.93800000000E+00 0. -1.
         11    1    1    2    0    0 -0.23330753579E+00  0.19582338774E-01  0.19027324736E+01  0.19170829407E+01  0.51100000000E-03 0. -1.
    9000002    1    1    2    0    0  0.45282055207E+00 -0.32361269826E-01  0.14012603022E+00  0.10514623191E+01  0.93800000000E+00 0. -1.
         22    1    1    2    0    0 -0.21951301628E+00  0.12778931052E-01  0.19571414635E+01  0.19694547402E+01  0.00000000000E+00 0. -1.
</event>
<event>
 5    1  0.1461556E+002  0.1594702E+01  0.7818608E-02  0.3359134E+00
         11   -1    0    0    0    0  0.00000000000E+00  0.00000000000E+00  0.39999999674E+01  0.40000000000E+01  0.51100000000E-03 0.  1.
    9000002   -1    0    0    0    0 -0.00000000000E+00 -0.00000000000E+00  0.00000000000E+00  0.93800000000E+00  0.93800000000E+00 0.  1.
         11    1    1    2    0    0 -0.80656527243E-01  0.12716649323E-02  0.83522183269E+00  0.83910837407E+00  0.51100000000E-03 0.  1.
    9000002    1    1    2    0    0  0.14862095027E+00 -0.23691884855E+00  0.55949938652E-01  0.98040457123E+00  0.93800000000E+00 0.  1.
         22    1    1    2    0    0 -0.67964423025E-01  0.23564718362E+00  0.31088281960E+01  0.31184870547E+01  0.00000000000E+00 0.  1.
</event>
<event>
 5    1  0.1461556E+002  0.1523893E+01  0.7818608E-02  0.3440350E+00
         11   -1    0    0    0    0  0.00000000000E+00  0.00000000000E+00  0.39999999674E+01  0.40000000000E+01  0.51100000000E-03 0.  1.
    9000002   -1    0    0    0    0 -0.00000000000E+00 -0.00000000000E+00  0.00000000000E+00  0.93800000000E+00  0.93800000000E+00 0. -1.
         11    1    1    2    0    0  0.15597321746E+00 -0.17233683305E+00  0.60825701757E+00  0.65115627091E+00  0.51100000000E-03 0.  1.
    9000002    1    1    2    0    0  0.67422200352E-01 -0.20280953316E-01  0.60516356671E-01  0.94258331175E+00  0.93800000000E+00 0. -1.
         22    1    1    2    0    0 -0.22339541781E+00  0.19261778637E+00  0.33312265931E+01  0.33442604173E+01  0.00000000000E+00 0.  1.
</event>
<event>
 5    1  0.1461556E+002  0.1595060E+01  0.7818608E-02  0.3358742E+00
         11   -1    0    0    0    0  0.00000000000E+00  0.00000000000E+00  0.39999999674E+01  0.40000000000E+01  0.51100000000E-03 0.  1.
    9000002   -1    0    0    0    0 -0.00000000000E+00 -0.00000000000E+00  0.00000000000E+00  0.93800000000E+00  0.93800000000E+00 0.  1.
         11    1    1    2    0    0  0.17639061243E-01  0.13940636762E-01  0.55090684818E+00  0.55136566299E+00  0.51100000000E-03 0.  1.
    9000002    1    1    2    0    0 -0.24823518716E+00 -0.47425685163E+00  0.20167965333E+00  0.10986623467E+01  0.93800000000E+00 0.  1.
         22    1    1    2    0    0  0.23059612591E+00  0.46031621487E+00  0.32474134659E+01  0.32879719903E+01  0.00000000000E+00 0.  1.
</event>
<event>
 5    1  0.1461556E+002  0.1599202E+01  0.7818608E-02  0.3354230E+00
         11   -1    0    0    0    0  0.00000000000E+00  0.00000000000E+00  0.39999999674E+01  0.40000000000E+01  0.51100000000E-03 0.  1.
    9000002   -1    0    0    0    0 -0.00000000000E+00 -0.00000000000E+00  0.00000000000E+00  0.93800000000E+00  0.93800000000E+00 0.  1.
         11    1    1    2    0    0 -0.20878935769E-01 -0.23418843590E+00  0.15978026922E+01  0.16150089342E+01  0.51100000000E-03 0.  1.
    9000002    1    1    2    0    0  0.27467196105E-02  0.51875953406E+00  0.18525748806E+00  0.10877882770E+01  0.93800000000E+00 0.  1.
         22    1    1    2    0    0  0.18132216158E-01 -0.28457109816E+00  0.22169397871E+01  0.22352027888E+01  0.00000000000E+00 0.  1.
</event>
<event>
 5    1  0.1461556E+002  0.1597425E+01  0.7818608E-02  0.3356163E+00
         11   -1    0    0    0    0  0.00000000000E+00  0.00000000000E+00  0.39999999674E+01  0.40000000000E+01  0.51100000000E-03 0. -1.
    9000002   -1    0    0    0    0 -0.00000000000E+00 -0.00000000000E+00  0.00000000000E+00  0.93800000000E+00  0.93800000000E+00 0. -1.
         11    1    1    2    0    0  0.13318589452E-01 -0.43741289551E-01  0.15510660616E+00  0.16170654171E+00  0.51100000000E-03 0. -1.
    9000002    1    1    2    0    0 -0.38930908600E+00  0.49608151379E+00  0.28165300638E+00  0.11648308241E+01  0.93800000000E+00 0. -1.
         22    1    1    2    0    0  0.37599049654E+00 -0.45234022424E+00  0.35632403548E+01  0.36114626342E+01  0.00000000000E+00 0. -1.
</event>
<event>
 5    1  0.1461556E+002  0.1521308E+01  0.7818608E-02  0.3443466E+00
         11   -1    0    0    0    0  0.00000000000E+00  0.00000000000E+00  0.39999999674E+01  0.40000000000E+01  0.51100000000E-03 0.  1.
    9000002   -1    0    0    0    0 -0.00000000000E+00 -0.00000000000E+00  0.00000000000E+00  0.93800000000E+00  0.93800000000E+00 0. -1.
         11    1    1    2    0    0 -0.41459447095E-01 -0.21514715987E+00  0.44611468779E+00  0.49701686283E+00  0.51100000000E-03 0.  1.
    9000002    1    1    2    0    0  0.16264501588E+00 -0.17708622950E-01  0.78164980808E-01  0.95536420319E+00  0.93800000000E+00 0. -1.
         22    1    1    2    0    0 -0.12118556878E+00  0.23285578282E+00  0.34757202988E+01  0.34856189340E+01  0.00000000000E+00 0.  1.
</event>
<event>
 5    1  0.1461556E+002  0.1599562E+01  0.7818608E-02  0.3353839E+00
         11   -1    0    0    0    0  0.00000000000E+00  0.00000000000E+00  0.39999999674E+01  0.40000000000E+01  0.51100000000E-03 0. -1.
    9000002   -1    0    0    0    0 -0.00000000000E+00 -0.00000000000E+00  0.00000000000E+00  0.93800000000E+00  0.93800000000E+00 0. -1.
         11    1    1    2    0    0 -0.30033999250E+00 -0.58921337763E-01  0.22133514614E+01  0.22344128508E+01  0.51100000000E-03 0. -1.
    9000002    1    1    2    0    0  0.50385569374E+00  0.11865550190E+00  0.18408842946E+00  0.10870520862E+01  0.93800000000E+00 0. -1.
         22    1    1    2    0    0 -0.20351570124E+00 -0.59734164137E-01  0.16025600765E+01  0.16165350630E+01  0.00000000000E+00 0. -1.
</event>
<event>
 5    1  0.1461556E+002  0.1565931E+01  0.7818608E-02  0.3391192E+00
         11   -1    0    0    0    0  0.00000000000E+00  0.00000000000E+00  0.39999999674E+01  0.40000000000E+01  0.51100000000E-03 0. -1.
    9000002   -1    0    0    0    0 -0.00000000000E+00 -0.00000000000E+00  0.00000000000E+00  0.93800000000E+00  0.93800000000E+00 0.  1.
         11    1    1    2    0    0 -0.13110334574E+00 -0.31310429308E+00  0.25670231805E+01  0.25893687756E+01  0.51100000000E-03 0. -1.
    9000002    1    1    2    0    0  0.43373811308E+00  0.57628152431E+00  0.41402441351E+00  0.12535905875E+01  0.93800000000E+00 0.  1.
         22    1    1    2    0    0 -0.30263476733E+00 -0.26317723122E+00  0.10189523734E+01  0.10950406370E+01  0.00000000000E+00 0. -1.
</event>
<event>
 5    1  0.1461556E+002  0.1599643E+01  0.7818608E-02  0.3353751E+00
         11   -1    0    0    0    0  0.00000000000E+00  0.00000000000E+00  0.39999999674E+01  0.40000000000E+01  0.51100000000E-03 0. -1.
    9000002   -1    0    0    0    0 -0.00000000000E+00 -0.00000000000E+00  0.00000000000E+00  0.93800000000E+00  0.93800000000E+00 0. -1.
         11    1    1    2    0    0 -0.13726673137E-01 -0.35089984258E-01  0.54482804955E+00  0.54612964876E+00  0.51100000000E-03 0. -1.
    9000002    1    1    2    0    0  0.13435765586E+00  0.25372361904E+00  0.54950471154E-01  0.98249234543E+00  0.93800000000E+00 0. -1.
         22    1    1    2    0    0 -0.12063098272E+00 -0.21863363478E+00  0.34002214467E+01  0.34093780058E+01  0.00000000000E+00 0. -1.
</event>
<event>
 5    1  0.1461556E+002  0.1599677E+01  0.7818608E-02  0.3353714E+00
         11   -1    0    0    0    0  0.00000000000E+00  0.00000000000E+00  0.39999999674E+01  0.40000000000E+01  0.51100000000E-03 0.  1.
    9000002   -1    0    0    0    0 -0.00000000000E+00 -0.00000000000E+00  0.00000000000E+00  0.93800000000E+00  0.93800000000E+00 0. -1.
         11    1    1    2    0    0 -0.99525936430E-01  0.60188219351E-01  0.11633736835E+01  0.11691734783E+01  0.51100000000E-03 0.  1.
    9000002    1    1    2    0    0  0.33482527661E+00 -0.20188694200E+00  0.10299378747E+00  0.10214294021E+01  0.93800000000E+00 0. -1.
         22    1    1    2    0    0 -0.23529934018E+00  0.14169872265E+00  0.27336324964E+01  0.27473971196E+01  0.00000000000E+00 0.  1.
</event>
<event>
 5    1  0.1461556E+002  0.1596792E+01  0.7818608E-02  0.3356852E+00
         11   -1    0    0    0    0  0.00000000000E+00  0.00000000000E+00  0.39999999674E+01  0.40000000000E+01  0.51100000000E-03 0. -1.
    9000002   -1    0    0    0    0 -0.00000000000E+00 -0.00000000000E+00  0.00000000000E+00  0.93800000000E+00  0.93800000000E+00 0.  1.
         11    1    1    2    0    0 -0.21336586291E-01 -0.19338873088E-02  0.22615141387E+00  0.22716450636E+00  0.51100000000E-03 0. -1.
    9000002    1    1    2    0    0 -0.14266398593E+00  0.12889138418E+00  0.26620093898E-01  0.95787192839E+00  0.93800000000E+00 0.  1.
         22    1    1    2    0    0  0.16400057222E+00 -0.12695749687E+00  0.37472284596E+01  0.37529635653E+01  0.00000000000E+00 0. -1.
</event>
<event>
 5    1  0.1461556E+002  0.1593181E+01  0.7818608E-02  0.3360798E+00
         11   -1    0    0    0    0  0.00000000000E+00  0.00000000000E+00  0.39999999674E+01  0.40000000000E+01  0.51100000000E-03 0. -1.
    9000002   -1    0    0    0    0 -0.00000000000E+00 -0.00000000000E+00  0.00000000000E+00  0.93800000000E+00  0.93800000000E+00 0. -1.
         11    1    1    2    0    0 -0.15276622287E+00  0.34455588611E+00  0.24197855724E+01  0.24489627917E+01  0.51100000000E-03 0. -1.
    9000002    1    1    2    0    0  0.35092533059E+00 -0.59360084074E+00  0.34611123388E+00  0.12145565166E+01  0.93800000000E+00 0. -1.
         22    1    1    2    0    0 -0.19815910772E+00  0.24904495463E+00  0.12341031610E+01  0.12744806917E+01  0.00000000000E+00 0.  1.
</event>
<event>
 5    1  0.1461556E+002  0.1569051E+01  0.7818608E-02  0.3387655E+00
         11   -1    0    0    0    0  0.00000000000E+00  0.00000000000E+00  0.39999999674E+01  0.40000000000E+01  0.51100000000E-03 0. -1.
    9000002   -1    0    0    0    0 -0.00000000000E+00 -0.00000000000E+00  0.00000000000E+00  0.93800000000E+00  0.93800000000E+00 0.  1.
         11    1    1    2    0    0 -0.17331522086E-01 -0.14272983473E+00  0.59070568338E+00  0.60795201527E+00  0.51100000000E-03 0. -1.
    9000002    1    1    2    0    0 -0.14483699363E+00 -0.18427676276E-01  0.37003495451E-01  0.95001610126E+00  0.93800000000E+00 0.  1.
         22    1    1    2    0    0  0.16216851572E+00  0.16115751100E+00  0.33722907885E+01  0.33800318835E+01  0.00000000000E+00 0. -1.
</event>
<event>
 5    1  0.1461556E+002  0.1595192E+01  0.7818608E-02  0.3358598E+00
         11   -1    0    0    0    0  0.00000000000E+00  0.00000000000E+00  0.39999999674E+01  0.40000000000E+01  0.51100000000E-03 0.  1.
    9000002   -1    0    0    0    0 -0.00000000000E+00 -0.00000000000E+00  0.00000000000E+00  0.93800000000E+00  0.93800000000E+00 0.  1.
         11    1    1    2    0    0  0.41399264791E-02 -0.32195347065E-01  0.10510276372E+01  0.10515289034E+01  0.51100000000E-03 0.  1.
    9000002    1    1    2    0    0  0.24356098214E+00  0.18610514061E+00  0.66249217084E-01  0.98903490037E+00  0.93800000000E+00 0.  1.
         22    1    1    2    0    0 -0.24770090862E+00 -0.15390979355E+00  0.28827231131E+01  0.28974361963E+01  0.00000000000E+00 0.  1.
</event>
<event>
 5    1  0.1461556E+002  0.1569689E+01  0.7818608E-02  0.3386934E+00
         11   -1    0    0    0    0  0.00000000000E+00  0.00000000000E+00  0.39999999674E+01  0.40000000000E+01  0.51100000000E-03 0.  1.
    9000002   -1    0    0    0    0 -0.00000000000E+00 -0.00000000000E+00  0.00000000000E+00  0.93800000000E+00  0.93800000000E+00 0.  1.
         11    1    1    2    0    0 -0.21616895297E-01  0.26074821596E-01  0.17706236060E-01  0.38222485528E-01  0.51100000000E-03 0.  1.
    9000002    1    1    2    0    0 -0.26185806475E+00 -0.24762727543E-01  0.69421945535E-01  0.97665052361E+00  0.93800000000E+00 0.  1.
         22    1    1    2    0    0  0.28347496005E+00 -0.13120940529E-02  0.39128717858E+01  0.39231269909E+01  0.00000000000E+00 0.  1.
</event>
<event>
 5    1  0.1461556E+002  0.1599675E+01  0.7818608E-02  0.3353716E+00
         11   -1    0    0    0    0  0.00000000000E+00  0.00000000000E+00  0.39999999674E+01  0.40000000000E+01  0.51100000000E-03 0.  1.
    9000002   -1    0    0    0    0 -0.00000000000E+00 -0.00000000000E+00  0.00000000000E+00  0.93800000000E+00  0.93800000000E+00 0.  1.
         11    1    1    2    0    0  0.12651877924E+00  0.31623346685E-01  0.12877321820E+01  0.12943189218E+01  0.51100000000E-03 0.  1.
    9000002    1    1    2    0    0 -0.38232200053E+00 -0.90689431668E-01  0.10405059253E+00  0.10222843102E+01  0.93800000000E+00 0.  1.
         22    1    1    2    0    0  0.25580322129E+00  0.59066084983E-01  0.26082171928E+01  0.26213967680E+01  0.00000000000E+00 0.  1.
</event>
<event>
 5    1  0.1461556E+002  0.1599677E+01  0.7818608E-02  0.3353714E+00
         11   -1    0    0    0    0  0.00000000000E+00  0.00000000000E+00  0.39999999674E+01  0.40000000000E+01  0.51100000000E-03 0. -1.
    9000002   -1    0    0    0    0 -0.00000000000E+00 -0.00000000000E+00  0.00000000000E+00  0.93800000000E+00  0.93800000000E+00 0. -1.
         11    1    1    2    0    0  0.44898472127E+00  0.19804707071E+00  0.22474125646E+01  0.23003637579E+01  0.51100000000E-03 0. -1.
    9000002    1    1    2    0    0 -0.71142822188E+00 -0.31351030505E+00  0.44192444631E+00  0.12959784113E+01  0.93800000000E+00 0. -1.
         22    1    1    2    0    0  0.26244350061E+00  0.11546323434E+00  0.13106629565E+01  0.13416578308E+01  0.00000000000E+00 0.  1.
</event>
<event>
 5    1  0.1461556E+002  0.1599677E+01  0.7818608E-02  0.3353714E+00
         11   -1    0    0    0    0  0.00000000000E+00  0.00000000000E+00  0.39999999674E+01  0.40000000000E+01  0.51100000000E-03 0.  1.
    9000002   -1    0    0    0    0 -0.00000000000E+00 -0.00000000000E+00  0.00000000000E+00  0.93800000000E+00  0.93800000000E+00 0. -1.
         11    1    1    2    0    0  0.80089026634E-01 -0.93873045527E-01  0.14782747377E+01  0.14834159437E+01  0.51100000000E-03 0.  1.
    9000002    1    1    2    0    0 -0.21134159099E+00  0.24905559802E+00  0.71362334316E-01  0.99580647806E+00  0.93800000000E+00 0. -1.
         22    1    1    2    0    0  0.13125256435E+00 -0.15518255249E+00  0.24503628954E+01  0.24587775783E+01  0.00000000000E+00 0.  1.
</event>
<event>
 5    1  0.1461556E+002  0.1599675E+01  0.7818608E-02  0.3353716E+00
         11   -1    0    0    0    0  0.00000000000E+00  0.00000000000E+00  0.39999999674E+01  0.40000000000E+01  0.51100000000E-03 0.  1.
    9000002   -1    0    0    0    0 -0.00000000000E+00 -0.00000000000E+00  0.00000000000E+00  0.93800000000E+00  0.93800000000E+00 0. -1.
         11    1    1    2    0    0 -0.11559563905E+00 -0.18411931899E+00  0.19465482999E+01  0.19586507653E+01  0.51100000000E-03 0.  1.
    9000002    1    1    2    0    0  0.22795295249E+00  0.36377244577E+00  0.12479945423E+00  0.10390918365E+01  0.93800000000E+00 0. -1.
         22    1    1    2    0    0 -0.11235731344E+00 -0.17965312677E+00  0.19286522132E+01  0.19402573983E+01  0.00000000000E+00 0. -1.
</event>
<event>
 5    1  0.1461556E+002  0.1599676E+01  0.7818608E-02  0.3353715E+00
         11   -1    0    0    0    0  0.00000000000E+00  0.00000000000E+00  0.39999999674E+01  0.40000000000E+01  0.51100000000E-03 0.  1.
    9000002   -1    0    0    0    0 -0.00000000000E+00 -0.00000000000E+00  0.00000000000E+00  0.93800000000E+00  0.93800000000E+00 0.  1.
         11    1    1    2    0    0  0.16993961987E-01 -0.15922152833E+00  0.16615996754E+01  0.16692974667E+01  0.51100000000E-03 0.  1.
    9000002    1    1    2    0    0 -0.37377070957E-01  0.37242082139E+00  0.94197583743E-01  0.10143034548E+01  0.93800000000E+00 0.  1.
         22    1    1    2    0    0  0.20383108969E-01 -0.21319929306E+00  0.22442027082E+01  0.22543990785E+01  0.00000000000E+00 0.  1.
</event>
<event>
 5    1  0.1461556E+002  0.1599675E+01  0.7818608E-02  0.3353717E+00
         11   -1    0    0    0    0  0.00000000000E+00  0.00000000000E+00  0.39999999674E+01  0.40000000000E+01  0.51100000000E-03 0. -1.
    9000002   -1    0    0    0    0 -0.00000000000E+00 -0.00000000000E+00  0.00000000000E+00  0.93800000000E+00  0.93800000000E+00 0. -1.
         11    1    1    2    0    0  0.71810966419E-01  0.10856168947E+00  0.54178919486E+00  0.55720575024E+00  0.51100000000E-03 0. -1.
    9000002    1    1    2    0    0 -0.45940266728E+00 -0.69068007178E+00  0.51214447485E+00  0.13528583575E+01  0.93800000000E+00 0. -1.
         22    1    1    2    0    0  0.38759170086E+00  0.58211838231E+00  0.29460662977E+01  0.30279358923E+01  0.00000000000E+00 0. -1.
</event>
<event>
 5    1  0.1461556E+002  0.1599676E+01  0.7818608E-02  0.3353715E+00
         11   -1    0    0    0    0  0.00000000000E+00  0.00000000000E+00  0.39999999674E+01  0.40000000000E+01  0.51100000000E-03 0.  1.
    9000002   -1    0    0    0    0 -0.00000000000E+00 -0.00000000000E+00  0.00000000000E+00  0.93800000000E+00  0.93800000000E+00 0. -1.
         11    1    1    2    0    0 -0.21284600328E+00  0.73658025669E-01  0.17714584214E+01  0.17857194980E+01  0.51100000000E-03 0.  1.
    9000002    1    1    2    0    0  0.46342372977E+00 -0.16006238241E+00  0.16429065676E+00  0.10710821348E+01  0.93800000000E+00 0. -1.
         22    1    1    2    0    0 -0.25057772649E+00  0.86404356742E-01  0.20642508892E+01  0.20811983672E+01  0.00000000000E+00 0.  1.
</event>
<event>
 5    1  0.1461556E+002  0.1572721E+01  0.7818608E-02  0.3383513E+00
         11   -1    0    0    0    0  0.00000000000E+00  0.00000000000E+00  0.39999999674E+01  0.40000000000E+01  0.51100000000E-03 0.  1.
    9000002   -1    0    0    0    0 -0.00000000000E+00 -0.00000000000E+00  0.00000000000E+00  0.93800000000E+00  0.93800000000E+00 0.  1.
         11    1    1    2    0    0  0.35626332755E-01 -0.11810977533E+00  0.87700489150E+00  0.88563931454E+00  0.51100000000E-03 0.  1.
    9000002    1    1    2    0    0 -0.25702672396E+00 -0.20161312859E+00  0.93098640338E-01  0.99760811308E+00  0.93800000000E+00 0.  1.
         22    1    1    2    0    0  0.22140039120E+00  0.31972290392E+00  0.30298964355E+01  0.30547525724E+01  0.00000000000E+00 0. -1.
</event>
<event>
 5    1  0.1461556E+002  0.1599661E+01  0.7818608E-02  0.3353731E+00
         11   -1    0    0    0    0  0.00000000000E+00  0.00000000000E+00  0.39999999674E+01  0.40000000000E+01  0.51100000000E-03 0.  1.
    9000002   -1    0    0    0    0 -0.00000000000E+00 -0.00000000000E+00  0.00000000000E+00  0.93800000000E+00  0.93800000000E+00 0.  1.
         11    1    1    2    0    0  0.15449109230E+00  0.10252079004E+00  0.17982639957E+01  0.18077974636E+01  0.51100000000E-03 0.  1.
    9000002    1    1    2    0    0 -0.32438487573E+00 -0.22288105021E+00  0.10441179847E+00  0.10225689873E+01  0.93800000000E+00 0.  1.
         22    1    1    2    0    0  0.16989378343E+00  0.12036026017E+00  0.20973241732E+01  0.21076335491E+01  0.00000000000E+00 0. -1.
</event>
<event>
 5    1  0.1461556E+002  0.1595697E+01  0.7818608E-02  0.3358048E+00
         11   -1    0    0    0    0  0.00000000000E+00  0.00000000000E+00  0.39999999674E+01  0.40000000000E+01  0.51100000000E-03 0. -1.
    9000002   -1    0    0    0    0 -0.00000000000E+00 -0.00000000000E+00  0.00000000000E+00  0.93800000000E+00  0.93800000000E+00 0.  1.
         11    1    1    2    0    0 -0.38699849787E-01 -0.81210988842E-02  0.61461675200E+00  0.61588768748E+00  0.51100000000E-03 0. -1.
    9000002    1    1    2    0    0  0.59020856354E-01 -0.24636358823E+00  0.45696599392E-01  0.97268219799E+00  0.93800000000E+00 0.  1.
         22    1    1    2    0    0 -0.20321006567E-01  0.25448468712E+00  0.33396866160E+01  0.33494301145E+01  0.00000000000E+00 0. -1.
</event>
<event>
 5    1  0.1461556E+002  0.1599279E+01  0.7818608E-02  0.3354146E+00
         11   -1    0    0    0    0  0.00000000000E+00  0.00000000000E+00  0.39999999674E+01  0.40000000000E+01  0.51100000000E-03 0.  1.
    9000002   -1    0    0    0    0 -0.00000000000E+00 -0.00000000000E+00  0.00000000000E+00  0.93800000000E+00  0.93800000000E+00 0.  1.
         11    1    1    2    0    0 -0.15883460197E-01 -0.16365935703E-01  0.69352798392E+00  0.69390305790E+00  0.51100000000E-03 0.  1.
    9000002    1    1    2    0    0  0.19356508653E+00  0.11199875226E+00  0.33459462219E-01  0.96487030156E+00  0.93800000000E+00 0.  1.
         22    1    1    2    0    0 -0.17768162633E+00 -0.95632816555E-01  0.32730125212E+01  0.32792266405E+01  0.00000000000E+00 0.  1.
</event>
<event>
 5    1  0.1461556E+002  0.1437729E+01  0.7818608E-02  0.3550806E+00
         11   -1    0    0    0    0  0.00000000000E+00  0.00000000000E+00  0.39999999674E+01  0.40000000000E+01  0.51100000000E-03 0. -1.
    9000002   -1    0    0    0    0 -0.00000000000E+00 -0.00000000000E+00  0.00000000000E+00  0.93800000000E+00  0.93800000000E+00 0. -1.
         11    1    1    2    0    0 -0.50239981761E+00  0.21478786254E+00  0.27552363835E+01  0.28088907407E+01  0.51100000000E-03 0. -1.
    9000002    1    1    2    0    0  0.14026102123E+00 -0.55730236967E-01  0.14586652644E+00  0.96119719981E+00  0.93800000000E+00 0. -1.
         22    1    1    2    0    0  0.36213879638E+00 -0.15905762557E+00  0.10988970574E+01  0.11679120595E+01  0.00000000000E+00 0. -1.
</event>
<event>
 5    1  0.1461556E+002  0.1598993E+01  0.7818608E-02  0.3354457E+00
         11   -1    0    0    0    0  0.00000000000E+00  0.00000000000E+00  0.39999999674E+01  0.40000000000E+01  0.51100000000E-03 0. -1.
    9000002   -1    0    0    0    0 -0.00000000000E+00 -0.00000000000E+00  0.00000000000E+00  0.93800000000E+00  0.93800000000E+00 0. -1.
         11    1    1    2    0    0 -0.28282733333E+00  0.14554169660E+00  0.19055142917E+01  0.19318795674E+01  0.51100000000E-03 0. -1.
    9000002    1    1    2    0    0  0.49845985304E+00 -0.27590758679E+00  0.22571281353E+00  0.11204362970E+01  0.93800000000E+00 0. -1.
         22    1    1    2    0    0 -0.21563251971E+00  0.13036589018E+00  0.18687728621E+01  0.18856841355E+01  0.00000000000E+00 0. -1.
</event>
<event>
 5    1  0.1461556E+002  0.1532437E+01  0.7818608E-02  0.3430125E+00
         11   -1    0    0    0    0  0.00000000000E+00  0.00000000000E+00  0.39999999674E+01  0.40000000000E+01  0.51100000000E-03 0. -1.
    9000002   -1    0    0    0    0 -0.00000000000E+00 -0.00000000000E+00  0.00000000000E+00  0.93800000000E+00  0.93800000000E+00 0. -1.
         11    1    1    2    0    0 -0.28249781128E+00  0.71144324602E-01  0.29154066519E+01  0.29299253806E+01  0.51100000000E-03 0. -1.
    9000002    1    1    2    0    0  0.10410830040E-01 -0.84948109773E-01  0.55499806028E-01  0.94352996519E+00  0.93800000000E+00 0. -1.
         22    1    1    2    0    0  0.27208698124E+00  0.13803785172E-01  0.10290935094E+01  0.10645446543E+01  0.00000000000E+00 0. -1.
</event>
<event>
 5    1  0.1461556E+002  0.1551135E+01  0.7818608E-02  0.3408169E+00
         11   -1    0    0    0    0  0.00000000000E+00  0.00000000000E+00  0.39999999674E+01  0.40000000000E+01  0.51100000000E-03 0.  1.
    9000002   -1    0    0    0    0 -0.00000000000E+00 -0.00000000000E+00  0.00000000000E+00  0.93800000000E+00  0.93800000000E+00 0.  1.
         11    1    1    2    0    0 -0.16438820448E-01 -0.24461542319E+00  0.23897035068E+01  0.24022468757E+01  0.51100000000E-03 0.  1.
    9000002    1    1    2    0    0 -0.12261573769E+00  0.24650853206E-02  0.46397367333E-01  0.94712058972E+00  0.93800000000E+00 0.  1.
         22    1    1    2    0    0  0.13905455813E+00  0.24215033787E+00  0.15638990932E+01  0.15886325346E+01  0.00000000000E+00 0.  1.
</event>
<event>
 5    1  0.1461556E+002  0.1564940E+01  0.7818608E-02  0.3392318E+00
         11   -1    0    0    0    0  0.00000000000E+00  0.00000000000E+00  0.39999999674E+01  0.40000000000E+01  0.51100000000E-03 0. -1.
    9000002   -1    0    0    0    0 -0.00000000000E+00 -0.00000000000E+00  0.00000000000E+00  0.93800000000E+00  0.93800000000E+00 0. -1.
         11    1    1    2    0    0 -0.29061213624E+00  0.23092545796E-01  0.22895674021E+01  0.23080528220E+01  0.51100000000E-03 0. -1.
    9000002    1    1    2    0    0  0.13594343832E+00 -0.15102032137E+00  0.53867769903E-01  0.96126660845E+00  0.93800000000E+00 0. -1.
         22    1    1    2    0    0  0.15466869792E+00  0.12792777557E+00  0.16565647954E+01  0.16686805696E+01  0.00000000000E+00 0. -1.
</event>
<event>
 5    1  0.1461556E+002  0.1585381E+01  0.7818608E-02  0.3369385E+00
         11   -1    0    0    0    0  0.00000000000E+00  0.00000000000E+00  0.39999999674E+01  0.40000000000E+01  0.51100000000E-03 0.  1.
    9000002   -1    0    0    0    0 -0.00000000000E+00 -0.00000000000E+00  0.00000000000E+00  0.93800000000E+00  0.93800000000E+00 0.  1.
         11    1    1    2    0    0  0.15088672735E+00  0.50273225874E-01  0.66070729193E+00  0.67957971458E+00  0.51100000000E-03 0.  1.
    9000002    1    1    2    0    0 -0.47146838523E+00  0.20016595457E+00  0.19310328751E+00  0.10860394686E+01  0.93800000000E+00 0.  1.
         22    1    1    2    0    0  0.32058165788E+00 -0.25043918045E+00  0.31461893879E+01  0.31723808169E+01  0.00000000000E+00 0.  1.
</event>
<event>
 5    1  0.1461556E+002  0.1569062E+01  0.7818608E-02  0.3387642E+00
         11   -1    0    0    0    0  0.00000000000E+00  0.00000000000E+00  0.39999999674E+01  0.40000000000E+01  0.51100000000E-03 0.  1.
    9000002   -1    0    0    0    0 -0.00000000000E+00 -0.00000000000E+00  0.00000000000E+00  0.93800000000E+00  0.93800000000E+00 0.  1.
         11    1    1    2    0    0  0.23249618353E+00  0.10391969599E+00  0.26777211388E+01  0.26898038102E+01  0.51100000000E-03 0.  1.
    9000002    1    1    2    0    0 -0.35059832891E+00  0.13218946018E+00  0.11988057658E+00  0.10171571138E+01  0.93800000000E+00 0.  1.
         22    1    1    2    0    0  0.11810214538E+00 -0.23610915617E+00  0.12023982519E+01  0.12310390760E+01  0.00000000000E+00 0.  1.
</event>
<event>
 5    1  0.1461556E+002  0.1595413E+01  0.7818608E-02  0.3358357E+00
         11   -1    0    0    0    0  0.00000000000E+00  0.00000000000E+00  0.39999999674E+01  0.40000000000E+01  0.51100000000E-03 0. -1.
    9000002   -1    0    0    0    0 -0.00000000000E+00 -0.00000000000E+00  0.00000000000E+00  0.93800000000E+00  0.93800000000E+00 0.  1.
         11    1    1    2    0    0 -0.31659592424E-02  0.12122764683E-01  0.75467245805E-01  0.76501967503E-01  0.51100000000E-03 0. -1.
    9000002    1    1    2    0    0  0.22419210847E+00  0.49145858880E+00  0.20516812239E+00  0.11016948781E+01  0.93800000000E+00 0.  1.
         22    1    1    2    0    0 -0.22102614922E+00 -0.50358135349E+00  0.37193645992E+01  0.37598031544E+01  0.00000000000E+00 0. -1.
</event>
<event>
 5    1  0.1461556E+002  0.1571388E+01  0.7818608E-02  0.3385016E+00
         11   -1    0    0    0    0  0.00000000000E+00  0.00000000000E+00  0.39999999674E+01  0.40000000000E+01  0.51100000000E-03 0.  1.
    9000002   -1    0    0    0    0 -0.00000000000E+00 -0.00000000000E+00  0.00000000000E+00  0.93800000000E+00  0.93800000000E+00 0.  1.
         11    1    1    2    0    0  0.26963040990E-01  0.13099471895E+00  0.75515111382E+00  0.76690291941E+00  0.51100000000E-03 0.  1.
    9000002    1    1    2    0    0 -0.10836196504E+00  0.14719240596E+00  0.43477174758E-01  0.95663064166E+00  0.93800000000E+00 0.  1.
         22    1    1    2    0    0  0.81398924054E-01 -0.27818712491E+00  0.32013716788E+01  0.32144664389E+01  0.00000000000E+00 0.  1.
</event>
<event>
 5    1  0.1461556E+002  0.1599657E+01  0.7818608E-02  0.3353736E+00
         11   -1    0    0    0    0  0.00000000000E+00  0.00000000000E+00  0.39999999674E+01  0.40000000000E+01  0.51100000000E-03 0.  1.
    9000002   -1    0    0    0    0 -0.00000000000E+00 -0.00000000000E+00  0.00000000000E+00  0.93800000000E+00  0.93800000000E+00 0. -1.
         11    1    1    2    0    0  0.12320201148E+00  0.19381031986E+00  0.19278741777E+01  0.19415046438E+01  0.51100000000E-03 0.  1.
    9000002    1    1    2    0    0 -0.25365760238E+00 -0.37963733107E+00  0.14174363408E+00  0.10528066965E+01  0.93800000000E+00 0. -1.
         22    1    1    2    0    0  0.13045559090E+00  0.18582701122E+00  0.19303821556E+01  0.19436886597E+01  0.00000000000E+00 0.  1.
</event>
<event>
 5    1  0.1461556E+002  0.1599654E+01  0.7818608E-02  0.3353739E+00
         11   -1    0    0    0    0  0.00000000000E+00  0.00000000000E+00  0.39999999674E+01  0.40000000000E+01  0.51100000000E-03 0.  1.
    9000002   -1    0    0    0    0 -0.00000000000E+00 -0.00000000000E+00  0.00000000000E+00  0.93800000000E+00  0.93800000000E+00 0.  1.
         11    1    1    2    0    0 -0.99356928145E-01 -0.14852324716E+00  0.14395401587E+01  0.14505885301E+01  0.51100000000E-03 0.  1.
    9000002    1    1    2    0    0  0.26948630089E+00  0.38281176560E+00  0.14928415642E+00  0.10589133457E+01  0.93800000000E+00 0.  1.
         22    1    1    2    0    0 -0.17012937275E+00 -0.23428851844E+00  0.24111756522E+01  0.24284981242E+01  0.00000000000E+00 0.  1.
</event>
<event>
 5    1  0.1461556E+002  0.1559388E+01  0.7818608E-02  0.3398657E+00
         11   -1    0    0    0    0  0.00000000000E+00  0.00000000000E+00  0.39999999674E+01  0.40000000000E+01  0.51100000000E-03 0.  1.
    9000002   -1    0    0    0    0 -0.00000000000E+00 -0.00000000000E+00  0.00000000000E+00  0.93800000000E+00  0.93800000000E+00 0. -1.
         11    1    1    2    0    0  0.22299253041E+00 -0.18797558555E+00  0.22789504210E+01  0.22975368923E+01  0.51100000000E-03 0.  1.
    9000002    1    1    2    0    0  0.23938743623E-01  0.27929691837E+00  0.84233138574E-01  0.98260829108E+00  0.93800000000E+00 0. -1.
         22    1    1    2    0    0 -0.24693127403E+00 -0.91321332821E-01  0.16368164078E+01  0.16578548166E+01  0.00000000000E+00 0. -1.
</event>
<event>
 5    1  0.1461556E+002  0.1598481E+01  0.7818608E-02  0.3355013E+00
         11   -1    0    0    0    0  0.00000000000E+00  0.00000000000E+00  0.39999999674E+01  0.40000000000E+01  0.51100000000E-03 0.  1.
    9000002   -1    0    0    0    0 -0.00000000000E+00 -0.00000000000E+00  0.00000000000E+00  0.93800000000E+00  0.93800000000E+00 0.  1.
         11    1    1    2    0    0  0.23940335613E+00  0.24502621421E+00  0.19001952503E+01  0.19308273001E+01  0.51100000000E-03 0.  1.
    9000002    1    1    2    0    0 -0.48348700761E+00 -0.39956056008E+00  0.27735997935E+00  0.11619728421E+01  0.93800000000E+00 0.  1.
         22    1    1    2    0    0  0.24408365148E+00  0.15453434586E+00  0.18224447377E+01  0.18451998578E+01  0.00000000000E+00 0. -1.
</event>
<event>
 5    1  0.1461556E+002  0.1599677E+01  0.7818608E-02  0.3353714E+00
         11   -1    0    0    0    0  0.00000000000E+00  0.00000000000E+00  0.39999999674E+01  0.40000000000E+01  0.51100000000E-03 0. -1.
    9000002   -1    0    0    0    0 -0.00000000000E+00 -0.00000000000E+00  0.00000000000E+00  0.93800000000E+00  0.93800000000E+00 0.  1.
         11    1    1    2    0    0  0.12840566326E+00  0.84566164642E-01  0.16372035376E+01  0.16444072291E+01  0.51100000000E-03 0.  1.
    9000002    1    1    2    0    0 -0.30624517303E+00 -0.20223533726E+00  0.90481912513E-01  0.10112943262E+01  0.93800000000E+00 0.  1.
         22    1    1    2    0    0  0.17783950977E+00  0.11766917262E+00  0.22723145173E+01  0.22822984447E+01  0.00000000000E+00 0. -1.
</event>
<event>
 5    1  0.1461556E+002  0.1599677E+01  0.7818608E-02  0.3353714E+00
         11   -1    0    0    0    0  0.00000000000E+00  0.00000000000E+00  0.39999999674E+01  0.40000000000E+01  0.51100000000E-03 0.  1.
    9000002   -1    0    0    0    0 -0.00000000000E+00 -0.00000000000E+00  0.00000000000E+00  0.93800000000E+00  0.93800000000E+00 0. -1.
         11    1    1    2    0    0  0.30555005522E+00 -0.12285854733E+00  0.22427218552E+01  0.22667722955E+01  0.51100000000E-03 0.  1.
    9000002    1    1    2    0    0 -0.51522156684E+00  0.20651175145E+00  0.21301158261E+00  0.11105486485E+01  0.93800000000E+00 0. -1.
         22    1    1    2    0    0  0.20967151162E+00 -0.83653204117E-01  0.15442665296E+01  0.15606790559E+01  0.00000000000E+00 0. -1.
</event>
<event>
 5    1  0.1461556E+002  0.1596519E+01  0.7818608E-02  0.3357150E+00
         11   -1    0    0    0    0  0.00000000000E+00  0.00000000000E+00  0.39999999674E+01  0.40000000000E+01  0.51100000000E-03 0. -1.
    9000002   -1    0    0    0    0 -0.00000000000E+00 -0.00000000000E+00  0.00000000000E+00  0.93800000000E+00  0.93800000000E+00 0. -1.
         11    1    1    2    0    0  0.19281489166E+00  0.40713603833E-01  0.12017481783E+01  0.12177988853E+01  0.51100000000E-03 0. -1.
    9000002    1    1    2    0    0 -0.42394966760E+00 -0.18659220425E+00  0.14876924669E+00  0.10566580621E+01  0.93800000000E+00 0. -1.
         22    1    1    2    0    0  0.23113477594E+00  0.14587860042E+00  0.26494825424E+01  0.26635430526E+01  0.00000000000E+00 0.  1.
</event>
<event>
 5    1  0.1461556E+002  0.1525066E+01  0.7818608E-02  0.3438938E+00
         11   -1    0    0    0    0  0.00000000000E+00  0.00000000000E+00  0.39999999674E+01  0.40000000000E+01  0.51100000000E-03 0. -1.
    9000002   -1    0    0    0    0 -0.00000000000E+00 -0.00000000000E+00  0.00000000000E+00  0.93800000000E+00  0.93800000000E+00 0.  1.
         11    1    1    2    0    0  0.31052014047E+00  0.70582247274E-01  0.19928495987E+01  0.20181314118E+01  0.51100000000E-03 0. -1.
    9000002    1    1    2    0    0  0.29203004369E-01 -0.22841318555E+00  0.94028335184E-01  0.97041781033E+00  0.93800000000E+00 0.  1.
         22    1    1    2    0    0 -0.33972314484E+00  0.15783093827E+00  0.19131220335E+01  0.19494507778E+01  0.00000000000E+00 0. -1.
</event>
<event>
 5    1  0.1461556E+002  0.1599490E+01  0.7818608E-02  0.3353917E+00
         11   -1    0    0    0    0  0.00000000000E+00  0.00000000000E+00  0.39999999674E+01  0.40000000000E+01  0.51100000000E-03 0. -1.
    9000002   -1    0    0    0    0 -0.00000000000E+00 -0.00000000000E+00  0.00000000000E+00  0.93800000000E+00  0.93800000000E+00 0. -1.
         11    1    1    2    0    0  0.27720071397E-01  0.13428682385E-01  0.69726664325E+00  0.69794682088E+00  0.51100000000E-03 0. -1.
    9000002    1    1    2    0    0 -0.18057036343E+00 -0.14377081606E+00  0.35482242195E-01  0.96663265681E+00  0.93800000000E+00 0. -1.
         22    1    1    2    0    0  0.15285029204E+00  0.13034213368E+00  0.32672510819E+01  0.32734205223E+01  0.00000000000E+00 0. -1.
</event>
<event>
 5    1  0.1461556E+002  0.1599677E+01  0.7818608E-02  0.3353714E+00
         11   -1    0    0    0    0  0.00000000000E+00  0.00000000000E+00  0.39999999674E+01  0.40000000000E+01  0.51100000000E-03 0.  1.
    9000002   -1    0    0    0    0 -0.00000000000E+00 -0.00000000000E+00  0.00000000000E+00  0.93800000000E+00  0.93800000000E+00 0. -1.
         11    1    1    2    0    0 -0.31562851516E-01  0.27646448982E-01  0.46919509050E+00  0.47106775925E+00  0.51100000000E-03 0.  1.
    9000002    1    1    2    0    0  0.26388128681E+00 -0.23251736976E+00  0.82956481135E-01  0.10051982086E+01  0.93800000000E+00 0. -1.
         22    1    1    2    0    0 -0.23231843530E+00  0.20487092078E+00  0.34478483957E+01  0.34617340322E+01  0.00000000000E+00 0.  1.
</event>
<event>
 5    1  0.1461556E+002  0.1594968E+01  0.7818608E-02  0.3358843E+00
         11   -1    0    0    0    0  0.00000000000E+00  0.00000000000E+00  0.39999999674E+01  0.40000000000E+01  0.51100000000E-03 0.  1.
    9000002   -1    0    0    0    0 -0.00000000000E+00 -0.00000000000E+00  0.00000000000E+00  0.93800000000E+00  0.93800000000E+00 0. -1.
         11    1    1    2    0    0  0.37521999740E-01  0.33406101482E-01  0.18549207582E+00  0.19217554317E+00  0.51100000000E-03 0.  1.
    9000002    1    1    2    0    0 -0.26804584913E+00 -0.17042499267E+00  0.71151383072E-01  0.99287450097E+00  0.93800000000E+00 0. -1.
         22    1    1    2    0    0  0.23052384939E+00  0.13701889118E+00  0.37433565085E+01  0.37529499559E+01  0.00000000000E+00 0.  1.
</event>
<event>
 5    1  0.1461556E+002  0.1599674E+01  0.7818608E-02  0.3353717E+00
         11   -1    0    0    0    0  0.00000000000E+00  0.00000000000E+00  0.39999999674E+01  0.40000000000E+01  0.51100000000E-03 0.  1.
    9000002   -1    0    0    0    0 -0.00000000000E+00 -0.00000000000E+00  0.00000000000E+00  0.93800000000E+00  0.93800000000E+00 0. -1.
         11    1    1    2    0    0  0.33346490716E-01 -0.17508347901E+00  0.14263108509E+01  0.14374036029E+01  0.51100000000E-03 0.  1.
    9000002    1    1    2    0    0 -0.86690060671E-01  0.47572652634E+00  0.15964077353E+00  0.10673144200E+01  0.93800000000E+00 0. -1.
         22    1    1    2    0    0  0.53343569955E-01 -0.30064304733E+00  0.24140483430E+01  0.24332819772E+01  0.00000000000E+00 0.  1.
</event>
<event>
 5    1  0.1461556E+002  0.1599655E+01  0.7818608E-02  0.3353738E+00
         11   -1    0    0    0    0  0.00000000000E+00  0.00000000000E+00  0.39999999674E+01  0.40000000000E+01  0.51100000000E-03 0.  1.
    9000002   -1    0    0    0    0 -0.00000000000E+00 -0.00000000000E+00  0.00000000000E+00  0.93800000000E+00  0.93800000000E+00 0.  1.
         11    1    1    2    0    0  0.13837754584E-02  0.46646493787E-01  0.66777109754E+00  0.66939996269E+00  0.51100000000E-03 0.  1.
    9000002    1    1    2    0    0 -0.23958198876E-01 -0.25716965853E+00  0.44360174701E-01  0.97392096890E+00  0.93800000000E+00 0.  1.
         22    1    1    2    0    0  0.22574423417E-01  0.21052316474E+00  0.32878686951E+01  0.32946790684E+01  0.00000000000E+00 0.  1.
</event>
<event>
 5    1  0.1461556E+002  0.1599101E+01  0.7818608E-02  0.3354339E+00
         11   -1    0    0    0    0  0.00000000000E+00  0.00000000000E+00  0.39999999674E+01  0.40000000000E+01  0.51100000000E-03 0. -1.
    9000002   -1    0    0    0    0 -0.00000000000E+00 -0.00000000000E+00  0.00000000000E+00  0.93800000000E+00  0.93800000000E+00 0. -1.
         11    1    1    2    0    0 -0.32841058509E-02 -0.31320467722E-03  0.22794236192E-01  0.23037399440E-01  0.51100000000E-03 0. -1.
    9000002    1    1    2    0    0 -0.13749908365E+00 -0.20620154624E+00  0.41236905466E-01  0.97106619653E+00  0.93800000000E+00 0. -1.
         22    1    1    2    0    0  0.14078318950E+00  0.20651475092E+00  0.39359688257E+01  0.39438964040E+01  0.00000000000E+00 0. -1.
</event>
<event>
 5    1  0.1461556E+002  0.1594616E+01  0.7818608E-02  0.3359227E+00
         11   -1    0    0    0    0  0.00000000000E+00  0.00000000000E+00  0.39999999674E+01  0.40000000000E+01  0.51100000000E-03 0.  1.
    9000002   -1    0    0    0    0 -0.00000000000E+00 -0.00000000000E+00  0.00000000000E+00  0.93800000000E+00  0.93800000000E+00 0.  1.
         11    1    1    2    0    0  0.40748640858E-01  0.17814953339E+00  0.12778281514E+01  0.12908302575E+01  0.51100000000E-03 0.  1.
    9000002    1    1    2    0    0 -0.34801226552E+00 -0.56498228272E+00  0.31717231691E+00  0.11919562892E+01  0.93800000000E+00 0.  1.
         22    1    1    2    0    0  0.30726362466E+00  0.38683274933E+00  0.24049994991E+01  0.24552134534E+01  0.00000000000E+00 0.  1.
</event>
<event>
 5    1  0.1461556E+002  0.1599277E+01  0.7818608E-02  0.3354149E+00
         11   -1    0    0    0    0  0.00000000000E+00  0.00000000000E+00  0.39999999674E+01  0.40000000000E+01  0.51100000000E-03 0.  1.
    9000002   -1    0    0    0    0 -0.00000000000E+00 -0.00000000000E+00  0.00000000000E+00  0.93800000000E+00  0.93800000000E+00 0.  1.
         11    1    1    2    0    0  0.37570461590E-01  0.47204632132E-01  0.64723185102E+00  0.65003780426E+00  0.51100000000E-03 0.  1.
    9000002    1    1    2    0    0 -0.11997741315E+00 -0.28327192126E+00  0.63493818707E-01  0.98919817330E+00  0.93800000000E+00 0.  1.
         22    1    1    2    0    0  0.82406951558E-01  0.23606728913E+00  0.32892742976E+01  0.32987640224E+01  0.00000000000E+00 0.  1.
</event>
<event>
 5    1  0.1461556E+002  0.1599481E+01  0.7818608E-02  0.3353927E+00
         11   -1    0    0    0    0  0.00000000000E+00  0.00000000000E+00  0.39999999674E+01  0.40000000000E+01  0.51100000000E-03 0. -1.
    9000002   -1    0    0    0    0 -0.00000000000E+00 -0.00000000000E+00  0.00000000000E+00  0.93800000000E+00  0.93800000000E+00 0.  1.
         11    1    1    2    0    0  0.77223004476E-03 -0.17361489628E+00  0.17231546136E+01  0.17318789831E+01  0.51100000000E-03 0. -1.
    9000002    1    1    2    0    0 -0.70742027423E-02  0.42799268496E+00  0.12422128196E+00  0.10385098505E+01  0.93800000000E+00 0.  1.
         22    1    1    2    0    0  0.63019726975E-02 -0.25437778869E+00  0.21526240718E+01  0.21676111664E+01  0.00000000000E+00 0.  1.
</event>
<event>
 5    1  0.1461556E+002  0.1599676E+01  0.7818608E-02  0.3353715E+00
         11   -1    0    0    0    0  0.00000000000E+00  0.00000000000E+00  0.39999999674E+01  0.40000000000E+01  0.51100000000E-03 0.  1.
    9000002   -1    0    0    0    0 -0.00000000000E+00 -0.00000000000E+00  0.00000000000E+00  0.93800000000E+00  0.93800000000E+00 0.  1.
         11    1    1    2    0    0  0.68974499594E-02  0.60953388042E-02  0.16672396470E+00  0.16697864982E+00  0.51100000000E-03 0. -1.
    9000002    1    1    2    0    0 -0.16704529455E+00 -0.14715420239E+00  0.32857017082E-01  0.96461498707E+00  0.93800000000E+00 0.  1.
         22    1    1    2    0    0  0.16014784459E+00  0.14105886359E+00  0.38004189856E+01  0.38064063631E+01  0.00000000000E+00 0.  1.
</event>
<event>
 5    1  0.1461556E+002  0.1599514E+01  0.7818608E-02  0.3353891E+00
         11   -1    0    0    0    0  0.00000000000E+00  0.00000000000E+00  0.39999999674E+01  0.40000000000E+01  0.51100000000E-03 0.  1.
    9000002   -1    0    0    0    0 -0.00000000000E+00 -0.00000000000E+00  0.00000000000E+00  0.93800000000E+00  0.93800000000E+00 0. -1.
         11    1    1    2    0    0 -0.64162011700E-02  0.25219360411E-02  0.62736948938E-01  0.63116667228E-01  0.51100000000E-03 0.  1.
    9000002    1    1    2    0    0  0.21108123860E+00 -0.17286465821E-01  0.29838983763E-01  0.96207508862E+00  0.93800000000E+00 0. -1.
         22    1    1    2    0    0 -0.20466503743E+00  0.14764529780E-01  0.39074240347E+01  0.39128082442E+01  0.00000000000E+00 0.  1.
</event>
<event>
 5    1  0.1461556E+002  0.1565473E+01  0.7818608E-02  0.3391712E+00
         11   -1    0    0    0    0  0.00000000000E+00  0.00000000000E+00  0.39999999674E+01  0.40000000000E+01  0.51100000000E-03 0.  1.
    9000002   -1    0    0    0    0 -0.00000000000E+00 -0.00000000000E+00  0.00000000000E+00  0.93800000000E+00  0.93800000000E+00 0.  1.
         11    1    1    2    0    0  0.19075203717E+00 -0.37084057413E-01  0.14138005770E+01  0.14270928140E+01  0.51100000000E-03 0.  1.
    9000002    1    1    2    0    0  0.60993047517E-01  0.56305243888E-01  0.29869405151E-01  0.94213938125E+00  0.93800000000E+00 0.  1.
         22    1    1    2    0    0 -0.25174508469E+00 -0.19221186475E-01  0.25563299852E+01  0.25687678048E+01  0.00000000000E+00 0.  1.
</event>
<event>
 5    1  0.1461556E+002  0.1588261E+01  0.7818608E-02  0.3366204E+00
         11   -1    0    0    0    0  0.00000000000E+00  0.00000000000E+00  0.39999999674E+01  0.40000000000E+01  0.51100000000E-03 0. -1.
    9000002   -1    0    0    0    0 -0.00000000000E+00 -0.00000000000E+00  0.00000000000E+00  0.93800000000E+00  0.93800000000E+00 0. -1.
         11    1    1    2    0    0 -0.20335853594E+00 -0.66557594694E+00  0.24751086014E+01  0.25710909912E+01  0.51100000000E-03 0. -1.
    9000002    1    1    2    0    0  0.41022054659E+00  0.83247132088E+00  0.68655038861E+00  0.14874423797E+01  0.93800000000E+00 0. -1.
         22    1    1    2    0    0 -0.20686201066E+00 -0.16689537394E+00  0.83834097738E+00  0.87946662907E+00  0.00000000000E+00 0.  1.
</event>
<event>
 5    1  0.1841022E+002  0.1581552E+01  0.7818608E-02  0.3373633E+00
         11   -1    0    0    0    0  0.00000000000E+00  0.00000000000E+00  0.39999999674E+01  0.40000000000E+01  0.51100000000E-03 0. -1.
    9000002   -1    0    0    0    0 -0.00000000000E+00 -0.00000000000E+00  0.00000000000E+00  0.93800000000E+00  0.93800000000E+00 0.  1.
         11    1    1    2    0    0  0.11435090698E+00 -0.51671688886E-01  0.18821178869E+01  0.18862963963E+01  0.51100000000E-03 0. -1.
    9000002    1    1    2    0    0  0.21668047338E-01 -0.10888660924E+00  0.21505302240E-01  0.94479218666E+00  0.93800000000E+00 0.  1.
         22    1    1    2    0    0 -0.13601895431E+00  0.16055829812E+00  0.20963767782E+01  0.21069114171E+01  0.00000000000E+00 0. -1.
</event>
<event>
 5    1  0.1461556E+002  0.1590146E+01  0.7818608E-02  0.3364129E+00
         11   -1    0    0    0    0  0.00000000000E+00  0.00000000000E+00  0.39999999674E+01  0.40000000000E+01  0.51100000000E-03 0.  1.
    9000002   -1    0    0    0    0 -0.00000000000E+00 -0.00000000000E+00  0.00000000000E+00  0.93800000000E+00  0.93800000000E+00 0. -1.
         11    1    1    2    0    0  0.49814828115E-01 -0.46429428164E+00  0.19618544982E+01  0.20166616053E+01  0.51100000000E-03 0.  1.
    9000002    1    1    2    0    0  0.71161042877E-01  0.71320226019E+00  0.37983960750E+00  0.12400981757E+01  0.93800000000E+00 0. -1.
         22    1    1    2    0    0 -0.12097587099E+00 -0.24890797855E+00  0.16583058617E+01  0.16812402190E+01  0.00000000000E+00 0.  1.
</event>
<event>
 5    1  0.1461556E+002  0.1463741E+01  0.7818608E-02  0.3515974E+00
         11   -1    0    0    0    0  0.00000000000E+00  0.00000000000E+00  0.39999999674E+01  0.40000000000E+01  0.51100000000E-03 0. -1.
    9000002   -1    0    0    0    0 -0.00000000000E+00 -0.00000000000E+00  0.00000000000E+00  0.93800000000E+00  0.93800000000E+00 0. -1.
         11    1    1    2    0    0  0.15543166230E+00  0.61982988782E-01  0.98889573864E-01  0.19437155523E+00  0.51100000000E-03 0. -1.
    9000002    1    1    2    0    0  0.53390843593E-01 -0.88001132984E-01  0.11379052733E+00  0.95046676201E+00  0.93800000000E+00 0. -1.
         22    1    1    2    0    0 -0.20882250590E+00  0.26018144202E-01  0.37873198662E+01  0.37931616828E+01  0.00000000000E+00 0. -1.
</event>
<event>
 5    1  0.1586845E+002  0.1561501E+01  0.7818608E-02  0.3396239E+00
         11   -1    0    0    0    0  0.00000000000E+00  0.00000000000E+00  0.39999999674E+01  0.40000000000E+01  0.51100000000E-03 0.  1.
    9000002   -1    0    0    0    0 -0.00000000000E+00 -0.00000000000E+00  0.00000000000E+00  0.93800000000E+00  0.93800000000E+00 0. -1.
         11    1    1    2    0    0  0.98302643901E-01 -0.18744210389E+00  0.14361498584E+01  0.14516627119E+01  0.51100000000E-03 0.  1.
    9000002    1    1    2    0    0  0.19639488138E-01 -0.34432811361E-01  0.29229781188E-01  0.93929213140E+00  0.93800000000E+00 0. -1.
         22    1    1    2    0    0 -0.11794213204E+00  0.22187491525E+00  0.25346203278E+01  0.25470451567E+01  0.00000000000E+00 0.  1.
</event>
<event>
 5    1  0.1461556E+002  0.1599565E+01  0.7818608E-02  0.3353836E+00
         11   -1    0    0    0    0  0.00000000000E+00  0.00000000000E+00  0.39999999674E+01  0.40000000000E+01  0.51100000000E-03 0. -1.
    9000002   -1    0    0    0    0 -0.00000000000E+00 -0.00000000000E+00  0.00000000000E+00  0.93800000000E+00  0.93800000000E+00 0.  1.
         11    1    1    2    0    0  0.21982109262E-01 -0.45243504832E+00  0.24196870183E+01  0.24617201737E+01  0.51100000000E-03 0. -1.
    9000002    1    1    2    0    0 -0.36087773895E-01  0.66974216999E+00  0.31918180531E+00  0.11964856566E+01  0.93800000000E+00 0.  1.
         22    1    1    2    0    0  0.14105664633E-01 -0.21730712167E+00  0.12611311438E+01  0.12797941697E+01  0.00000000000E+00 0. -1.
</event>
<event>
 5    1  0.1461556E+002  0.1599192E+01  0.7818608E-02  0.3354241E+00
         11   -1    0    0    0    0  0.00000000000E+00  0.00000000000E+00  0.39999999674E+01  0.40000000000E+01  0.51100000000E-03 0.  1.
    9000002   -1    0    0    0    0 -0.00000000000E+00 -0.00000000000E+00  0.00000000000E+00  0.93800000000E+00  0.93800000000E+00 0. -1.
         11    1    1    2    0    0  0.39843268011E-04 -0.37430803981E-03  0.11198569885E+00  0.11198749735E+00  0.51100000000E-03 0.  1.
    9000002    1    1    2    0    0 -0.30982286436E+00 -0.11236997121E-01  0.64562978017E-01  0.99001457339E+00  0.93800000000E+00 0. -1.
         22    1    1    2    0    0  0.30978302110E+00  0.11611305161E-01  0.38234512905E+01  0.38359979293E+01  0.00000000000E+00 0.  1.
</event>
<event>
 5    1  0.1461556E+002  0.1599661E+01  0.7818608E-02  0.3353731E+00
         11   -1    0    0    0    0  0.00000000000E+00  0.00000000000E+00  0.39999999674E+01  0.40000000000E+01  0.51100000000E-03 0. -1.
    9000002   -1    0    0    0    0 -0.00000000000E+00 -0.00000000000E+00  0.00000000000E+00  0.93800000000E+00  0.93800000000E+00 0.  1.
         11    1    1    2    0    0 -0.20761682389E+00 -0.15686962372E+00  0.21454623173E+01  0.21611852397E+01  0.51100000000E-03 0. -1.
    9000002    1    1    2    0    0  0.37991336185E+00  0.28488631622E+00  0.15374750855E+00  0.10625331393E+01  0.93800000000E+00 0.  1.
         22    1    1    2    0    0 -0.17229653796E+00 -0.12801669251E+00  0.17007901415E+01  0.17142816210E+01  0.00000000000E+00 0. -1.
</event>
<event>
 5    1  0.1461556E+002  0.1599558E+01  0.7818608E-02  0.3353843E+00
         11   -1    0    0    0    0  0.00000000000E+00  0.00000000000E+00  0.39999999674E+01  0.40000000000E+01  0.51100000000E-03 0.  1.
    9000002   -1    0    0    0    0 -0.00000000000E+00 -0.00000000000E+00  0.00000000000E+00  0.93800000000E+00  0.93800000000E+00 0. -1.
         11    1    1    2    0    0  0.41078371254E-01 -0.20002596816E-01  0.49885659536E+00  0.50094480766E+00  0.51100000000E-03 0.  1.
    9000002    1    1    2    0    0 -0.30632659063E+00  0.90990833559E-01  0.68345059255E-01  0.99329268549E+00  0.93800000000E+00 0. -1.
         22    1    1    2    0    0  0.26524821937E+00 -0.70988236743E-01  0.34327983127E+01  0.34437625069E+01  0.00000000000E+00 0.  1.
</event>
<event>
 5    1  0.1461556E+002  0.1599677E+01  0.7818608E-02  0.3353714E+00
         11   -1    0    0    0    0  0.00000000000E+00  0.00000000000E+00  0.39999999674E+01  0.40000000000E+01  0.51100000000E-03 0.  1.
    9000002   -1    0    0    0    0 -0.00000000000E+00 -0.00000000000E+00  0.00000000000E+00  0.93800000000E+00  0.93800000000E+00 0.  1.
         11    1    1    2    0    0 -0.73041941648E-01 -0.86158249761E-01  0.87790557311E+00  0.88514226295E+00  0.51100000000E-03 0.  1.
    9000002    1    1    2    0    0  0.32049327988E+00  0.37810963170E+00  0.16806235170E+00  0.10741376961E+01  0.93800000000E+00 0.  1.
         22    1    1    2    0    0 -0.24745133823E+00 -0.29195138194E+00  0.29540320425E+01  0.29787200410E+01  0.00000000000E+00 0.  1.
</event>
<event>
 5    1  0.1461556E+002  0.1599676E+01  0.7818608E-02  0.3353715E+00
         11   -1    0    0    0    0  0.00000000000E+00  0.00000000000E+00  0.39999999674E+01  0.40000000000E+01  0.51100000000E-03 0.  1.
    9000002   -1    0    0    0    0 -0.00000000000E+00 -0.00000000000E+00  0.00000000000E+00  0.93800000000E+00  0.93800000000E+00 0. -1.
         11    1    1    2    0    0  0.57190603193E-01 -0.42477434980E-01  0.82154941999E+00  0.82463252918E+00  0.51100000000E-03 0.  1.
    9000002    1    1    2    0    0 -0.26895795265E+00  0.20153173837E+00  0.75623657210E-01  0.99925790434E+00  0.93800000000E+00 0. -1.
         22    1    1    2    0    0  0.21176734946E+00 -0.15905430339E+00  0.31028268902E+01  0.31141095665E+01  0.00000000000E+00 0.  1.
</event>
<event>
 5    1  0.1461556E+002  0.1587630E+01  0.7818608E-02  0.3366900E+00
         11   -1    0    0    0    0  0.00000000000E+00  0.00000000000E+00  0.39999999674E+01  0.40000000000E+01  0.51100000000E-03 0.  1.
    9000002   -1    0    0    0    0 -0.00000000000E+00 -0.00000000000E+00  0.00000000000E+00  0.93800000000E+00  0.93800000000E+00 0.  1.
         11    1    1    2    0    0 -0.31422706707E-01 -0.81082802571E-01  0.66855563656E+00  0.67418744253E+00  0.51100000000E-03 0.  1.
    9000002    1    1    2    0    0  0.23599270315E+00 -0.10425448468E+00  0.53540303162E-01  0.97430596713E+00  0.93800000000E+00 0.  1.
         22    1    1    2    0    0 -0.20456999645E+00  0.18533728725E+00  0.32779040276E+01  0.32895065903E+01  0.00000000000E+00 0.  1.
</event>
<event>
 5    1  0.1461556E+002  0.1599662E+01  0.7818608E-02  0.3353730E+00
         11   -1    0    0    0    0  0.00000000000E+00  0.00000000000E+00  0.39999999674E+01  0.40000000000E+01  0.51100000000E-03 0.  1.
    9000002   -1    0    0    0    0 -0.00000000000E+00 -0.00000000000E+00  0.00000000000E+00  0.93800000000E+00  0.93800000000E+00 0. -1.
         11    1    1    2    0    0 -0.15775585650E+00 -0.16349153676E+00  0.19384600958E+01  0.19517285152E+01  0.51100000000E-03 0.  1.
    9000002    1    1    2    0    0  0.31637638577E+00  0.31681372124E+00  0.13612006410E+00  0.10482545603E+01  0.93800000000E+00 0. -1.
         22    1    1    2    0    0 -0.15862052927E+00 -0.15332218448E+00  0.19254198074E+01  0.19380169244E+01  0.00000000000E+00 0.  1.
</event>
<event>
 5    1  0.1461556E+002  0.1552138E+01  0.7818608E-02  0.3407007E+00
         11   -1    0    0    0    0  0.00000000000E+00  0.00000000000E+00  0.39999999674E+01  0.40000000000E+01  0.51100000000E-03 0. -1.
    9000002   -1    0    0    0    0 -0.00000000000E+00 -0.00000000000E+00  0.00000000000E+00  0.93800000000E+00  0.93800000000E+00 0. -1.
         11    1    1    2    0    0  0.24944972108E+00  0.13781664105E+00  0.18656097623E+01  0.18872516092E+01  0.51100000000E-03 0. -1.
    9000002    1    1    2    0    0 -0.98010273586E-02 -0.94766682025E-01  0.41496260166E-01  0.94373869464E+00  0.93800000000E+00 0. -1.
         22    1    1    2    0    0 -0.23964869372E+00 -0.43049959027E-01  0.20928939449E+01  0.21070096962E+01  0.00000000000E+00 0. -1.
</event>
<event>
 5    1  0.1461556E+002  0.1599677E+01  0.7818608E-02  0.3353714E+00
         11   -1    0    0    0    0  0.00000000000E+00  0.00000000000E+00  0.39999999674E+01  0.40000000000E+01  0.51100000000E-03 0. -1.
    9000002   -1    0    0    0    0 -0.00000000000E+00 -0.00000000000E+00  0.00000000000E+00  0.93800000000E+00  0.93800000000E+00 0. -1.
         11    1    1    2    0    0  0.14256508746E+00 -0.81899160203E-01  0.14115941299E+01  0.14211370537E+01  0.51100000000E-03 0. -1.
    9000002    1    1    2    0    0 -0.38979116394E+00  0.22439322060E+00  0.13738709245E+00  0.10492896083E+01  0.93800000000E+00 0. -1.
         22    1    1    2    0    0  0.24722607648E+00 -0.14249406040E+00  0.24510187450E+01  0.24675733380E+01  0.00000000000E+00 0. -1.
</event>
<event>
 5    1  0.1461556E+002  0.1599654E+01  0.7818608E-02  0.3353739E+00
         11   -1    0    0    0    0  0.00000000000E+00  0.00000000000E+00  0.39999999674E+01  0.40000000000E+01  0.51100000000E-03 0. -1.
    9000002   -1    0    0    0    0 -0.00000000000E+00 -0.00000000000E+00  0.00000000000E+00  0.93800000000E+00  0.93800000000E+00 0. -1.
         11    1    1    2    0    0  0.16376185363E-01  0.20267932620E-02  0.27890418224E+00  0.27939236090E+00  0.51100000000E-03 0. -1.
    9000002    1    1    2    0    0 -0.23310898601E+00  0.12384619467E-01  0.36172222149E-01  0.96728775854E+00  0.93800000000E+00 0. -1.
         22    1    1    2    0    0  0.21673280065E+00 -0.14411412729E-01  0.36849235630E+01  0.36913198806E+01  0.00000000000E+00 0. -1.
</event>
<event>
 5    1  0.1461556E+002  0.1590262E+01  0.7818608E-02  0.3364001E+00
         11   -1    0    0    0    0  0.00000000000E+00  0.00000000000E+00  0.39999999674E+01  0.40000000000E+01  0.51100000000E-03 0.  1.
    9000002   -1    0    0    0    0 -0.00000000000E+00 -0.00000000000E+00  0.00000000000E+00  0.93800000000E+00  0.93800000000E+00 0.  1.
         11    1    1    2    0    0  0.11159932501E+00 -0.14947857451E+00  0.13202907250E+01  0.13334039573E+01  0.51100000000E-03 0.  1.
    9000002    1    1    2    0    0 -0.15621479035E-01  0.35271314733E+00  0.91242240859E-01  0.10063894581E+01  0.93800000000E+00 0.  1.
         22    1    1    2    0    0 -0.95977845975E-01 -0.20323457282E+00  0.25884670015E+01  0.25982065846E+01  0.00000000000E+00 0.  1.
</event>
<event>
 5    1  0.1461556E+002  0.1599107E+01  0.7818608E-02  0.3354333E+00
         11   -1    0    0    0    0  0.00000000000E+00  0.00000000000E+00  0.39999999674E+01  0.40000000000E+01  0.51100000000E-03 0.  1.
    9000002   -1    0    0    0    0 -0.00000000000E+00 -0.00000000000E+00  0.00000000000E+00  0.93800000000E+00  0.93800000000E+00 0.  1.
         11    1    1    2    0    0 -0.54762590257E-01 -0.63126825123E-01  0.11031611370E+01  0.11063221469E+01  0.51100000000E-03 0.  1.
    9000002    1    1    2    0    0  0.24639935207E+00  0.14864474642E+00  0.55624015559E-01  0.98272373150E+00  0.93800000000E+00 0.  1.
         22    1    1    2    0    0 -0.19163676181E+00 -0.85517921299E-01  0.28412148148E+01  0.28489541216E+01  0.00000000000E+00 0.  1.
</event>
<event>
 5    1  0.1461556E+002  0.1586612E+01  0.7818608E-02  0.3368024E+00
         11   -1    0    0    0    0  0.00000000000E+00  0.00000000000E+00  0.39999999674E+01  0.40000000000E+01  0.51100000000E-03 0.  1.
    9000002   -1    0    0    0    0 -0.00000000000E+00 -0.00000000000E+00  0.00000000000E+00  0.93800000000E+00  0.93800000000E+00 0. -1.
         11    1    1    2    0    0  0.35724936029E-01  0.22442169061E-01  0.42330307652E+00  0.42540060850E+00  0.51100000000E-03 0.  1.
    9000002    1    1    2    0    0 -0.35932477409E+00  0.56713865476E+00  0.33401118705E+00  0.12009030019E+01  0.93800000000E+00 0. -1.
         22    1    1    2    0    0  0.32359983806E+00 -0.58958082382E+00  0.32426857038E+01  0.33116963896E+01  0.00000000000E+00 0.  1.
</event>
<event>
 5    1  0.1461556E+002  0.1593898E+01  0.7818608E-02  0.3360013E+00
         11   -1    0    0    0    0  0.00000000000E+00  0.00000000000E+00  0.39999999674E+01  0.40000000000E+01  0.51100000000E-03 0. -1.
    9000002   -1    0    0    0    0 -0.00000000000E+00 -0.00000000000E+00  0.00000000000E+00  0.93800000000E+00  0.93800000000E+00 0.  1.
         11    1    1    2    0    0 -0.98208500479E-01 -0.12450998014E+00  0.97642536004E+00  0.98921908067E+00  0.51100000000E-03 0. -1.
    9000002    1    1    2    0    0  0.30521029615E+00  0.19226867135E+00  0.92050938572E-01  0.10091768637E+01  0.93800000000E+00 0.  1.
         22    1    1    2    0    0 -0.20700179567E+00 -0.67758691209E-01  0.29315236688E+01  0.29396040557E+01  0.00000000000E+00 0. -1.
</event>
<event>
 5    1  0.1461556E+002  0.1549406E+01  0.7818608E-02  0.3410176E+00
         11   -1    0    0    0    0  0.00000000000E+00  0.00000000000E+00  0.39999999674E+01  0.40000000000E+01  0.51100000000E-03 0. -1.
    9000002   -1    0    0    0    0 -0.00000000000E+00 -0.00000000000E+00  0.00000000000E+00  0.93800000000E+00  0.93800000000E+00 0. -1.
         11    1    1    2    0    0  0.16198540178E+00  0.19184909817E+00  0.89040357795E+00  0.92512925562E+00  0.51100000000E-03 0. -1.
    9000002    1    1    2    0    0  0.72203153179E-01 -0.22431492169E+00  0.76058794858E-01  0.97013371228E+00  0.93800000000E+00 0. -1.
         22    1    1    2    0    0 -0.23418855495E+00  0.32465823511E-01  0.30335375946E+01  0.30427370321E+01  0.00000000000E+00 0. -1.
</event>
<event>
 5    1  0.1461556E+002  0.1599459E+01  0.7818608E-02  0.3353950E+00
         11   -1    0    0    0    0  0.00000000000E+00  0.00000000000E+00  0.39999999674E+01  0.40000000000E+01  0.51100000000E-03 0. -1.
    9000002   -1    0    0    0    0 -0.00000000000E+00 -0.00000000000E+00  0.00000000000E+00  0.93800000000E+00  0.93800000000E+00 0. -1.
         11    1    1    2    0    0 -0.41425590991E-02  0.75748817126E-01  0.91513074846E+00  0.91826989061E+00  0.51100000000E-03 0. -1.
    9000002    1    1    2    0    0  0.69363810093E-01 -0.28731922116E+00  0.58427456176E-01  0.98520121835E+00  0.93800000000E+00 0. -1.
         22    1    1    2    0    0 -0.65221250994E-01  0.21157040404E+00  0.30264417627E+01  0.30345288910E+01  0.00000000000E+00 0. -1.
</event>
<event>
 5    1  0.1461556E+002  0.1599105E+01  0.7818608E-02  0.3354335E+00
         11   -1    0    0    0    0  0.00000000000E+00  0.00000000000E+00  0.39999999674E+01  0.40000000000E+01  0.51100000000E-03 0. -1.
    9000002   -1    0    0    0    0 -0.00000000000E+00 -0.00000000000E+00  0.00000000000E+00  0.93800000000E+00  0.93800000000E+00 0.  1.
         11    1    1    2    0    0  0.59258928522E-01 -0.71802407668E-01  0.14773552985E+01  0.14802858324E+01  0.51100000000E-03 0. -1.
    9000002    1    1    2    0    0 -0.19955138486E+00  0.25249318319E+00  0.69694546080E-01  0.99412016000E+00  0.93800000000E+00 0.  1.
         22    1    1    2    0    0  0.14029245633E+00 -0.18069077552E+00  0.24529501228E+01  0.24635940076E+01  0.00000000000E+00 0. -1.
</event>
<event>
 5    1  0.1461556E+002  0.1599506E+01  0.7818608E-02  0.3353899E+00
         11   -1    0    0    0    0  0.00000000000E+00  0.00000000000E+00  0.39999999674E+01  0.40000000000E+01  0.51100000000E-03 0. -1.
    9000002   -1    0    0    0    0 -0.00000000000E+00 -0.00000000000E+00  0.00000000000E+00  0.93800000000E+00  0.93800000000E+00 0. -1.
         11    1    1    2    0    0 -0.26307420053E+00 -0.14601876204E+00  0.22912428601E+01  0.23109140224E+01  0.51100000000E-03 0. -1.
    9000002    1    1    2    0    0  0.45893368434E+00  0.25705516989E+00  0.19042906956E+00  0.10921559951E+01  0.93800000000E+00 0. -1.
         22    1    1    2    0    0 -0.19585948381E+00 -0.11103640785E+00  0.15183280377E+01  0.15349299825E+01  0.00000000000E+00 0. -1.
</event>
<event>
 5    1  0.2881005E+002  0.1571780E+01  0.7818608E-02  0.3384573E+00
         11   -1    0    0    0    0  0.00000000000E+00  0.00000000000E+00  0.39999999674E+01  0.40000000000E+01  0.51100000000E-03 0.  1.
    9000002   -1    0    0    0    0 -0.00000000000E+00 -0.00000000000E+00  0.00000000000E+00  0.93800000000E+00  0.93800000000E+00 0. -1.
         11    1    1    2    0    0  0.15653762634E+00  0.90593742443E-01  0.20486819086E+01  0.20566499649E+01  0.51100000000E-03 0.  1.
    9000002    1    1    2    0    0  0.32185519482E-01  0.22018454899E-01  0.21497667941E-01  0.93905637198E+00  0.93800000000E+00 0. -1.
         22    1    1    2    0    0 -0.18872314582E+00 -0.11261219734E+00  0.19298203908E+01  0.19422936631E+01  0.00000000000E+00 0.  1.
</event>
<event>
 5    1  0.1461556E+002  0.1598508E+01  0.7818608E-02  0.3354984E+00
         11   -1    0    0    0    0  0.00000000000E+00  0.00000000000E+00  0.39999999674E+01  0.40000000000E+01  0.51100000000E-03 0.  1.
    9000002   -1    0    0    0    0 -0.00000000000E+00 -0.00000000000E+00  0.00000000000E+00  0.93800000000E+00  0.93800000000E+00 0.  1.
         11    1    1    2    0    0  0.35895033743E-01  0.95089546291E-03  0.14167428824E+00  0.14615479027E+00  0.51100000000E-03 0.  1.
    9000002    1    1    2    0    0 -0.53822140212E+00 -0.64075990304E-01  0.20371072312E+00  0.11023293831E+01  0.93800000000E+00 0.  1.
         22    1    1    2    0    0  0.50232636838E+00  0.63125094841E-01  0.36546149560E+01  0.36895158266E+01  0.00000000000E+00 0.  1.
</event>
<event>
 5    1  0.1461556E+002  0.1511909E+01  0.7818608E-02  0.3454899E+00
         11   -1    0    0    0    0  0.00000000000E+00  0.00000000000E+00  0.39999999674E+01  0.40000000000E+01  0.51100000000E-03 0. -1.
    9000002   -1    0    0    0    0 -0.00000000000E+00 -0.00000000000E+00  0.00000000000E+00  0.93800000000E+00  0.93800000000E+00 0. -1.
         11    1    1    2    0    0  0.24706440018E+00  0.37855519042E+00  0.23368010649E+01  0.23801227549E+01  0.51100000000E-03 0. -1.
    9000002    1    1    2    0    0 -0.15654209544E+00 -0.10782973048E+00  0.92586602920E-01  0.96153468864E+00  0.93800000000E+00 0. -1.
         22    1    1    2    0    0 -0.90522304742E-01 -0.27072545994E+00  0.15706122995E+01  0.15963425565E+01  0.00000000000E+00 0. -1.
</event>
<event>
 5    1  0.1461556E+002  0.1599220E+01  0.7818608E-02  0.3354210E+00
         11   -1    0    0    0    0  0.00000000000E+00  0.00000000000E+00  0.39999999674E+01  0.40000000000E+01  0.51100000000E-03 0.  1.
    9000002   -1    0    0    0    0 -0.00000000000E+00 -0.00000000000E+00  0.00000000000E+00  0.93800000000E+00  0.93800000000E+00 0.  1.
         11    1    1    2    0    0  0.32418962009E-02 -0.13860360395E+00  0.10283527524E+01  0.10376565489E+01  0.51100000000E-03 0.  1.
    9000002    1    1    2    0    0  0.38489491071E-01  0.45111269784E+00  0.13967433959E+00  0.10508744112E+01  0.93800000000E+00 0.  1.
         22    1    1    2    0    0 -0.41731387272E-01 -0.31250909389E+00  0.28319728753E+01  0.28494690399E+01  0.00000000000E+00 0.  1.
</event>
<event>
 5    1  0.1461556E+002  0.1599672E+01  0.7818608E-02  0.3353720E+00
         11   -1    0    0    0    0  0.00000000000E+00  0.00000000000E+00  0.39999999674E+01  0.40000000000E+01  0.51100000000E-03 0.  1.
    9000002   -1    0    0    0    0 -0.00000000000E+00 -0.00000000000E+00  0.00000000000E+00  0.93800000000E+00  0.93800000000E+00 0.  1.
         11    1    1    2    0    0  0.26790284034E-01 -0.28683489864E-01  0.55555794416E+00  0.55694286274E+00  0.51100000000E-03 0.  1.
    9000002    1    1    2    0    0 -0.19535979596E+00  0.19116618718E+00  0.49726484579E-01  0.97827740660E+00  0.93800000000E+00 0.  1.
         22    1    1    2    0    0  0.16856951192E+00 -0.16248269731E+00  0.33947155386E+01  0.34027797307E+01  0.00000000000E+00 0.  1.
</event>
<event>
 5    1  0.1461556E+002  0.1599676E+01  0.7818608E-02  0.3353716E+00
         11   -1    0    0    0    0  0.00000000000E+00  0.00000000000E+00  0.39999999674E+01  0.40000000000E+01  0.51100000000E-03 0. -1.
    9000002   -1    0    0    0    0 -0.00000000000E+00 -0.00000000000E+00  0.00000000000E+00  0.93800000000E+00  0.93800000000E+00 0.  1.
         11    1    1    2    0    0  0.77177293595E-01 -0.44819150806E-01  0.10715680069E+01  0.10752782642E+01  0.51100000000E-03 0. -1.
    9000002    1    1    2    0    0 -0.28552883870E+00  0.16036894616E+00  0.71738004086E-01  0.99611006312E+00  0.93800000000E+00 0.  1.
         22    1    1    2    0    0  0.20835154511E+00 -0.11554979536E+00  0.28566939564E+01  0.28666116727E+01  0.00000000000E+00 0.  1.
</event>
<event>
 5    1  0.1461556E+002  0.1576114E+01  0.7818608E-02  0.3379704E+00
         11   -1    0    0    0    0  0.00000000000E+00  0.00000000000E+00  0.39999999674E+01  0.40000000000E+01  0.51100000000E-03 0.  1.
    9000002   -1    0    0    0    0 -0.00000000000E+00 -0.00000000000E+00  0.00000000000E+00  0.93800000000E+00  0.93800000000E+00 0. -1.
         11    1    1    2    0    0  0.27263604722E-01 -0.10171970652E+00  0.39783067539E+00  0.41153336467E+00  0.51100000000E-03 0.  1.
    9000002    1    1    2    0    0  0.15860877851E+00 -0.11712963682E-01  0.34348593829E-01  0.95200722898E+00  0.93800000000E+00 0. -1.
         22    1    1    2    0    0 -0.18587238323E+00  0.11343267020E+00  0.35678206981E+01  0.35744594063E+01  0.00000000000E+00 0.  1.
</event>
<event>
 5    1  0.1461556E+002  0.1599674E+01  0.7818608E-02  0.3353717E+00
         11   -1    0    0    0    0  0.00000000000E+00  0.00000000000E+00  0.39999999674E+01  0.40000000000E+01  0.51100000000E-03 0. -1.
    9000002   -1    0    0    0    0 -0.00000000000E+00 -0.00000000000E+00  0.00000000000E+00  0.93800000000E+00  0.93800000000E+00 0.  1.
         11    1    1    2    0    0  0.96738483357E-02  0.12205719806E-01  0.22663170838E+00  0.22716680061E+00  0.51100000000E-03 0. -1.
    9000002    1    1    2    0    0 -0.17997056442E+00 -0.22080108893E+00  0.54059129681E-01  0.98178863022E+00  0.93800000000E+00 0.  1.
         22    1    1    2    0    0  0.17029671608E+00  0.20859536912E+00  0.37193091293E+01  0.37290445692E+01  0.00000000000E+00 0. -1.
</event>
<event>
 5    1  0.1461556E+002  0.1599675E+01  0.7818608E-02  0.3353716E+00
         11   -1    0    0    0    0  0.00000000000E+00  0.00000000000E+00  0.39999999674E+01  0.40000000000E+01  0.51100000000E-03 0. -1.
    9000002   -1    0    0    0    0 -0.00000000000E+00 -0.00000000000E+00  0.00000000000E+00  0.93800000000E+00  0.93800000000E+00 0.  1.
         11    1    1    2    0    0  0.37819709363E-01  0.15032755542E-01  0.60692568779E+00  0.60828888349E+00  0.51100000000E-03 0. -1.
    9000002    1    1    2    0    0 -0.24274417300E+00 -0.91989079414E-01  0.44799207224E-01  0.97428830088E+00  0.93800000000E+00 0.  1.
         22    1    1    2    0    0  0.20492446364E+00  0.76956323872E-01  0.33482750723E+01  0.33554228156E+01  0.00000000000E+00 0. -1.
</event>
<event>
 5    1  0.1461556E+002  0.1599667E+01  0.7818608E-02  0.3353725E+00
         11   -1    0    0    0    0  0.00000000000E+00  0.00000000000E+00  0.39999999674E+01  0.40000000000E+01  0.51100000000E-03 0.  1.
    9000002   -1    0    0    0    0 -0.00000000000E+00 -0.00000000000E+00  0.00000000000E+00  0.93800000000E+00  0.93800000000E+00 0. -1.
         11    1    1    2    0    0 -0.47351771578E-02 -0.14556642286E+00  0.92408596234E+00  0.93549298890E+00  0.51100000000E-03 0.  1.
    9000002    1    1    2    0    0  0.76737447066E-02  0.59805959480E+00  0.24950044409E+00  0.11401002749E+01  0.93800000000E+00 0. -1.
         22    1    1    2    0    0 -0.29385675487E-02 -0.45249317195E+00  0.28264135609E+01  0.28624067362E+01  0.00000000000E+00 0.  1.
</event>
<event>
 5    1  0.1461556E+002  0.1599673E+01  0.7818608E-02  0.3353718E+00
         11   -1    0    0    0    0  0.00000000000E+00  0.00000000000E+00  0.39999999674E+01  0.40000000000E+01  0.51100000000E-03 0. -1.
    9000002   -1    0    0    0    0 -0.00000000000E+00 -0.00000000000E+00  0.00000000000E+00  0.93800000000E+00  0.93800000000E+00 0. -1.
         11    1    1    2    0    0  0.47530962704E-01 -0.56129273078E-01  0.79700066343E+00  0.80038741016E+00  0.51100000000E-03 0. -1.
    9000002    1    1    2    0    0 -0.23829791022E+00  0.26802280829E+00  0.86328813002E-01  0.10079279655E+01  0.93800000000E+00 0. -1.
         22    1    1    2    0    0  0.19076694751E+00 -0.21189353521E+00  0.31166704909E+01  0.31296846243E+01  0.00000000000E+00 0. -1.
</event>
<event>
 5    1  0.1461556E+002  0.1597188E+01  0.7818608E-02  0.3356421E+00
         11   -1    0    0    0    0  0.00000000000E+00  0.00000000000E+00  0.39999999674E+01  0.40000000000E+01  0.51100000000E-03 0. -1.
    9000002   -1    0    0    0    0 -0.00000000000E+00 -0.00000000000E+00  0.00000000000E+00  0.93800000000E+00  0.93800000000E+00 0. -1.
         11    1    1    2    0    0  0.16539014656E-01 -0.22534015586E-01  0.84161327921E+00  0.84207748677E+00  0.51100000000E-03 0. -1.
    9000002    1    1    2    0    0 -0.30242953253E+00  0.15145646286E+00  0.78603295815E-01  0.10002125576E+01  0.93800000000E+00 0. -1.
         22    1    1    2    0    0  0.28589051787E+00 -0.12892244727E+00  0.30797833923E+01  0.30957099556E+01  0.00000000000E+00 0. -1.
</event>
<event>
 5    1  0.1461556E+002  0.1588597E+01  0.7818608E-02  0.3365833E+00
         11   -1    0    0    0    0  0.00000000000E+00  0.00000000000E+00  0.39999999674E+01  0.40000000000E+01  0.51100000000E-03 0. -1.
    9000002   -1    0    0    0    0 -0.00000000000E+00 -0.00000000000E+00  0.00000000000E+00  0.93800000000E+00  0.93800000000E+00 0. -1.
         11    1    1    2    0    0  0.26306482731E+00 -0.10597790348E+00  0.27721905896E+01  0.27866602494E+01  0.51100000000E-03 0. -1.
    9000002    1    1    2    0    0 -0.51433159518E+00  0.11921875767E+00  0.20206100995E+00  0.10951816076E+01  0.93800000000E+00 0. -1.
         22    1    1    2    0    0  0.25126676787E+00 -0.13240854190E-01  0.10257483678E+01  0.10561581429E+01  0.00000000000E+00 0. -1.
</event>
<event>
 5    1  0.1461556E+002  0.1590247E+01  0.7818608E-02  0.3364017E+00
         11   -1    0    0    0    0  0.00000000000E+00  0.00000000000E+00  0.39999999674E+01  0.40000000000E+01  0.51100000000E-03 0.  1.
    9000002   -1    0    0    0    0 -0.00000000000E+00 -0.00000000000E+00  0.00000000000E+00  0.93800000000E+00  0.93800000000E+00 0.  1.
         11    1    1    2    0    0 -0.63345720333E-01 -0.45282311356E-01  0.15744729603E+01  0.15763973267E+01  0.51100000000E-03 0.  1.
    9000002    1    1    2    0    0  0.70474893387E-01 -0.16002234519E+00  0.27253766279E-01  0.95454734264E+00  0.93800000000E+00 0.  1.
         22    1    1    2    0    0 -0.71291730538E-02  0.20530465654E+00  0.23982732408E+01  0.24070553306E+01  0.00000000000E+00 0. -1.
</event>
<event>
 5    1  0.1461556E+002  0.1599574E+01  0.7818608E-02  0.3353826E+00
         11   -1    0    0    0    0  0.00000000000E+00  0.00000000000E+00  0.39999999674E+01  0.40000000000E+01  0.51100000000E-03 0.  1.
    9000002   -1    0    0    0    0 -0.00000000000E+00 -0.00000000000E+00  0.00000000000E+00  0.93800000000E+00  0.93800000000E+00 0. -1.
         11    1    1    2    0    0  0.27990800043E-01  0.14652103622E-01  0.39962797687E+00  0.40087523002E+00  0.51100000000E-03 0.  1.
    9000002    1    1    2    0    0 -0.21281278558E+00 -0.11137237295E+00  0.38375232285E-01  0.96902515221E+00  0.93800000000E+00 0. -1.
         22    1    1    2    0    0  0.18482198554E+00  0.96720269333E-01  0.35619967582E+01  0.35680996178E+01  0.00000000000E+00 0.  1.
</event>
<event>
 5    1  0.1461556E+002  0.1599055E+01  0.7818608E-02  0.3354390E+00
         11   -1    0    0    0    0  0.00000000000E+00  0.00000000000E+00  0.39999999674E+01  0.40000000000E+01  0.51100000000E-03 0.  1.
    9000002   -1    0    0    0    0 -0.00000000000E+00 -0.00000000000E+00  0.00000000000E+00  0.93800000000E+00  0.93800000000E+00 0.  1.
         11    1    1    2    0    0  0.46990389198E-02 -0.25878109184E+00  0.20146260268E+01  0.20311838970E+01  0.51100000000E-03 0.  1.
    9000002    1    1    2    0    0 -0.63386687680E-01  0.47593839346E+00  0.15785320689E+00  0.10655031025E+01  0.93800000000E+00 0.  1.
         22    1    1    2    0    0  0.58687648760E-01 -0.21715730162E+00  0.18275207337E+01  0.18413130005E+01  0.00000000000E+00 0.  1.
</event>
<event>
 5    1  0.1461556E+002  0.1599668E+01  0.7818608E-02  0.3353723E+00
         11   -1    0    0    0    0  0.00000000000E+00  0.00000000000E+00  0.39999999674E+01  0.40000000000E+01  0.51100000000E-03 0. -1.
    9000002   -1    0    0    0    0 -0.00000000000E+00 -0.00000000000E+00  0.00000000000E+00  0.93800000000E+00  0.93800000000E+00 0.  1.
         11    1    1    2    0    0 -0.10848659799E+00 -0.11767965226E+00  0.12005574032E+01  0.12111796654E+01  0.51100000000E-03 0. -1.
    9000002    1    1    2    0    0  0.35205418111E+00  0.36665408993E+00  0.17713109928E+00  0.10814789847E+01  0.93800000000E+00 0.  1.
         22    1    1    2    0    0 -0.24356758313E+00 -0.24897443767E+00  0.26223114649E+01  0.26453413498E+01  0.00000000000E+00 0. -1.
</event>
<event>
 5    1  0.1461556E+002  0.1599675E+01  0.7818608E-02  0.3353717E+00
         11   -1    0    0    0    0  0.00000000000E+00  0.00000000000E+00  0.39999999674E+01  0.40000000000E+01  0.51100000000E-03 0.  1.
    9000002   -1    0    0    0    0 -0.00000000000E+00 -0.00000000000E+00  0.00000000000E+00  0.93800000000E+00  0.93800000000E+00 0.  1.
         11    1    1    2    0    0 -0.30853020769E-01  0.32135628525E-01  0.63807763794E+00  0.63963109733E+00  0.51100000000E-03 0.  1.
    9000002    1    1    2    0    0  0.18465682767E+00 -0.19426690033E+00  0.47791330284E-01  0.97671171991E+00  0.93800000000E+00 0.  1.
         22    1    1    2    0    0 -0.15380380690E+00  0.16213127180E+00  0.33141309991E+01  0.33216571828E+01  0.00000000000E+00 0.  1.
</event>
<event>
 5    1  0.1461556E+002  0.1557359E+01  0.7818608E-02  0.3400986E+00
         11   -1    0    0    0    0  0.00000000000E+00  0.00000000000E+00  0.39999999674E+01  0.40000000000E+01  0.51100000000E-03 0.  1.
    9000002   -1    0    0    0    0 -0.00000000000E+00 -0.00000000000E+00  0.00000000000E+00  0.93800000000E+00  0.93800000000E+00 0.  1.
         11    1    1    2    0    0 -0.73453530441E-01 -0.21895414753E+00  0.23159291826E+01  0.23274158588E+01  0.51100000000E-03 0.  1.
    9000002    1    1    2    0    0  0.44500146875E-01 -0.35093913814E-01  0.33480641571E-01  0.94030675804E+00  0.93800000000E+00 0.  1.
         22    1    1    2    0    0  0.28953383566E-01  0.25404806135E+00  0.16505901431E+01  0.16702773831E+01  0.00000000000E+00 0.  1.
</event>
<event>
 5    1  0.1461556E+002  0.1599376E+01  0.7818608E-02  0.3354041E+00
         11   -1    0    0    0    0  0.00000000000E+00  0.00000000000E+00  0.39999999674E+01  0.40000000000E+01  0.51100000000E-03 0.  1.
    9000002   -1    0    0    0    0 -0.00000000000E+00 -0.00000000000E+00  0.00000000000E+00  0.93800000000E+00  0.93800000000E+00 0.  1.
         11    1    1    2    0    0  0.90067554807E-01  0.20802545325E-01  0.81329246347E+00  0.81852904810E+00  0.51100000000E-03 0.  1.
    9000002    1    1    2    0    0 -0.35258886857E+00 -0.11631756714E+00  0.92899321058E-01  0.10130759944E+01  0.93800000000E+00 0.  1.
         22    1    1    2    0    0  0.26252131376E+00  0.95515021818E-01  0.30938081828E+01  0.31063949575E+01  0.00000000000E+00 0.  1.
</event>
<event>
 5    1  0.1461556E+002  0.1597905E+01  0.7818608E-02  0.3355640E+00
         11   -1    0    0    0    0  0.00000000000E+00  0.00000000000E+00  0.39999999674E+01  0.40000000000E+01  0.51100000000E-03 0. -1.
    9000002   -1    0    0    0    0 -0.00000000000E+00 -0.00000000000E+00  0.00000000000E+00  0.93800000000E+00  0.93800000000E+00 0.  1.
         11    1    1    2    0    0 -0.47550108211E-02 -0.12850969759E-01  0.62262325707E-01  0.63754340049E-01  0.51100000000E-03 0. -1.
    9000002    1    1    2    0    0 -0.16658396760E+00  0.16286382106E+00  0.37354329752E-01  0.96721982425E+00  0.93800000000E+00 0.  1.
         22    1    1    2    0    0  0.17133897842E+00 -0.15001285130E+00  0.39003833119E+01  0.39070258357E+01  0.00000000000E+00 0. -1.
</event>
<event>
 5    1  0.1461556E+002  0.1493620E+01  0.7818608E-02  0.3477587E+00
         11   -1    0    0    0    0  0.00000000000E+00  0.00000000000E+00  0.39999999674E+01  0.40000000000E+01  0.51100000000E-03 0.  1.
    9000002   -1    0    0    0    0 -0.00000000000E+00 -0.00000000000E+00  0.00000000000E+00  0.93800000000E+00  0.93800000000E+00 0. -1.
         11    1    1    2    0    0 -0.93916472780E-01  0.27771708534E+00  0.74286075395E+00  0.79861720758E+00  0.51100000000E-03 0.  1.
    9000002    1    1    2    0    0 -0.31411983645E-01  0.83205684636E-01  0.86901763320E-01  0.94620601094E+00  0.93800000000E+00 0. -1.
         22    1    1    2    0    0  0.12532845642E+00 -0.36092276998E+00  0.31702374501E+01  0.31931767815E+01  0.00000000000E+00 0.  1.
</event>
<event>
 5    1  0.1461556E+002  0.1599675E+01  0.7818608E-02  0.3353716E+00
         11   -1    0    0    0    0  0.00000000000E+00  0.00000000000E+00  0.39999999674E+01  0.40000000000E+01  0.51100000000E-03 0. -1.
    9000002   -1    0    0    0    0 -0.00000000000E+00 -0.00000000000E+00  0.00000000000E+00  0.93800000000E+00  0.93800000000E+00 0.  1.
         11    1    1    2    0    0 -0.33312176251E-01 -0.54356791112E-01  0.93241419672E+00  0.93459127815E+00  0.51100000000E-03 0. -1.
    9000002    1    1    2    0    0  0.13759547501E+00  0.22595935019E+00  0.46548647983E-01  0.97570534451E+00  0.93800000000E+00 0.  1.
         22    1    1    2    0    0 -0.10428329876E+00 -0.17160255907E+00  0.30210371227E+01  0.30277033773E+01  0.00000000000E+00 0. -1.
</event>
<event>
 5    1  0.1461556E+002  0.1599189E+01  0.7818608E-02  0.3354244E+00
         11   -1    0    0    0    0  0.00000000000E+00  0.00000000000E+00  0.39999999674E+01  0.40000000000E+01  0.51100000000E-03 0. -1.
    9000002   -1    0    0    0    0 -0.00000000000E+00 -0.00000000000E+00  0.00000000000E+00  0.93800000000E+00  0.93800000000E+00 0.  1.
         11    1    1    2    0    0 -0.14725903437E-01 -0.20711451264E-01  0.68039082432E+00  0.68086544293E+00  0.51100000000E-03 0. -1.
    9000002    1    1    2    0    0  0.68566091262E-01  0.23603881896E+00  0.40492847388E-01  0.97051496826E+00  0.93800000000E+00 0.  1.
         22    1    1    2    0    0 -0.53840187826E-01 -0.21532736769E+00  0.32791162957E+01  0.32866195888E+01  0.00000000000E+00 0. -1.
</event>
<event>
 5    1  0.1461556E+002  0.1599676E+01  0.7818608E-02  0.3353715E+00
         11   -1    0    0    0    0  0.00000000000E+00  0.00000000000E+00  0.39999999674E+01  0.40000000000E+01  0.51100000000E-03 0.  1.
    9000002   -1    0    0    0    0 -0.00000000000E+00 -0.00000000000E+00  0.00000000000E+00  0.93800000000E+00  0.93800000000E+00 0. -1.
         11    1    1    2    0    0 -0.63709509680E+00  0.17642635712E+00  0.25223130394E+01  0.26075045065E+01  0.51100000000E-03 0.  1.
    9000002    1    1    2    0    0  0.85769756986E+00 -0.23615641316E+00  0.60308200956E+00  0.14265226542E+01  0.93800000000E+00 0. -1.
         22    1    1    2    0    0 -0.22060247306E+00  0.59730056040E-01  0.87460491841E+00  0.90397283921E+00  0.00000000000E+00 0. -1.
</event>
<event>
 5    1  0.1461556E+002  0.1578344E+01  0.7818608E-02  0.3377208E+00
         11   -1    0    0    0    0  0.00000000000E+00  0.00000000000E+00  0.39999999674E+01  0.40000000000E+01  0.51100000000E-03 0. -1.
    9000002   -1    0    0    0    0 -0.00000000000E+00 -0.00000000000E+00  0.00000000000E+00  0.93800000000E+00  0.93800000000E+00 0.  1.
         11    1    1    2    0    0 -0.84414095491E-01  0.12171035599E+00  0.18694536711E+01  0.18753123579E+01  0.51100000000E-03 0. -1.
    9000002    1    1    2    0    0 -0.18440128587E+00 -0.18120455754E+00  0.60976802482E-01  0.97488517085E+00  0.93800000000E+00 0.  1.
         22    1    1    2    0    0  0.26881538136E+00  0.59494201549E-01  0.20695694938E+01  0.20878024712E+01  0.00000000000E+00 0. -1.
</event>
<event>
 5    1  0.1461556E+002  0.1597663E+01  0.7818608E-02  0.3355903E+00
         11   -1    0    0    0    0  0.00000000000E+00  0.00000000000E+00  0.39999999674E+01  0.40000000000E+01  0.51100000000E-03 0.  1.
    9000002   -1    0    0    0    0 -0.00000000000E+00 -0.00000000000E+00  0.00000000000E+00  0.93800000000E+00  0.93800000000E+00 0.  1.
         11    1    1    2    0    0 -0.23265798777E-01 -0.75801836623E-01  0.98546688376E+00  0.98865183757E+00  0.51100000000E-03 0.  1.
    9000002    1    1    2    0    0 -0.91733803973E-01  0.27440332666E+00  0.57360096859E-01  0.98328350804E+00  0.93800000000E+00 0.  1.
         22    1    1    2    0    0  0.11499960275E+00 -0.19860149004E+00  0.29571729867E+01  0.29660646544E+01  0.00000000000E+00 0.  1.
</event>
<event>
 5    1  0.1461556E+002  0.1561010E+01  0.7818608E-02  0.3396801E+00
         11   -1    0    0    0    0  0.00000000000E+00  0.00000000000E+00  0.39999999674E+01  0.40000000000E+01  0.51100000000E-03 0.  1.
    9000002   -1    0    0    0    0 -0.00000000000E+00 -0.00000000000E+00  0.00000000000E+00  0.93800000000E+00  0.93800000000E+00 0.  1.
         11    1    1    2    0    0 -0.48447861661E+00 -0.10180126727E+00  0.14616937450E+01  0.15432536710E+01  0.51100000000E-03 0.  1.
    9000002    1    1    2    0    0  0.70600904040E+00  0.59449826018E+00  0.72450447660E+00  0.15022076032E+01  0.93800000000E+00 0.  1.
         22    1    1    2    0    0 -0.22153042379E+00 -0.49269699291E+00  0.18138017458E+01  0.18925387258E+01  0.00000000000E+00 0.  1.
</event>
<event>
 5    1  0.1461556E+002  0.1599677E+01  0.7818608E-02  0.3353715E+00
         11   -1    0    0    0    0  0.00000000000E+00  0.00000000000E+00  0.39999999674E+01  0.40000000000E+01  0.51100000000E-03 0. -1.
    9000002   -1    0    0    0    0 -0.00000000000E+00 -0.00000000000E+00  0.00000000000E+00  0.93800000000E+00  0.93800000000E+00 0.  1.
         11    1    1    2    0    0 -0.11614138676E+00  0.52112990292E-01  0.14264908587E+01  0.14321595639E+01  0.51100000000E-03 0. -1.
    9000002    1    1    2    0    0  0.32065868792E+00 -0.14172954587E+00  0.82417628203E-01  0.10047616253E+01  0.93800000000E+00 0.  1.
         22    1    1    2    0    0 -0.20451730116E+00  0.89616555575E-01  0.24910914805E+01  0.25010788107E+01  0.00000000000E+00 0.  1.
</event>
<event>
 5    1  0.1461556E+002  0.1599061E+01  0.7818608E-02  0.3354383E+00
         11   -1    0    0    0    0  0.00000000000E+00  0.00000000000E+00  0.39999999674E+01  0.40000000000E+01  0.51100000000E-03 0. -1.
    9000002   -1    0    0    0    0 -0.00000000000E+00 -0.00000000000E+00  0.00000000000E+00  0.93800000000E+00  0.93800000000E+00 0.  1.
         11    1    1    2    0    0  0.18436592637E+00 -0.18783220992E-01  0.18376766573E+01  0.18469973909E+01  0.51100000000E-03 0. -1.
    9000002    1    1    2    0    0 -0.38669988781E+00 -0.23229635474E-01  0.10157682159E+00  0.10199207175E+01  0.93800000000E+00 0.  1.
         22    1    1    2    0    0  0.20233396144E+00  0.42012856466E-01  0.20607464885E+01  0.20710818916E+01  0.00000000000E+00 0. -1.
</event>
<event>
 5    1  0.1461556E+002  0.1592551E+01  0.7818608E-02  0.3361488E+00
         11   -1    0    0    0    0  0.00000000000E+00  0.00000000000E+00  0.39999999674E+01  0.40000000000E+01  0.51100000000E-03 0.  1.
    9000002   -1    0    0    0    0 -0.00000000000E+00 -0.00000000000E+00  0.00000000000E+00  0.93800000000E+00  0.93800000000E+00 0.  1.
         11    1    1    2    0    0  0.16282008106E+00  0.57602066976E-01  0.10662583609E+01  0.10801553269E+01  0.51100000000E-03 0.  1.
    9000002    1    1    2    0    0 -0.41318477883E+00  0.68741297375E-01  0.12467178946E+00  0.10348111337E+01  0.93800000000E+00 0.  1.
         22    1    1    2    0    0  0.25036469777E+00 -0.12634336435E+00  0.28090698170E+01  0.28230335394E+01  0.00000000000E+00 0.  1.
</event>
<event>
 5    1  0.1461556E+002  0.1599670E+01  0.7818608E-02  0.3353721E+00
         11   -1    0    0    0    0  0.00000000000E+00  0.00000000000E+00  0.39999999674E+01  0.40000000000E+01  0.51100000000E-03 0. -1.
    9000002   -1    0    0    0    0 -0.00000000000E+00 -0.00000000000E+00  0.00000000000E+00  0.93800000000E+00  0.93800000000E+00 0. -1.
         11    1    1    2    0    0 -0.21826996650E+00  0.18184083314E+00  0.16724773719E+01  0.16964341094E+01  0.51100000000E-03 0. -1.
    9000002    1    1    2    0    0  0.48505473235E+00 -0.41095487914E+00  0.28424492673E+00  0.11682470563E+01  0.93800000000E+00 0. -1.
         22    1    1    2    0    0 -0.26678476586E+00  0.22911404600E+00  0.20432776687E+01  0.20733188344E+01  0.00000000000E+00 0. -1.
</event>
<event>
 5    1  0.1461556E+002  0.1555955E+01  0.7818608E-02  0.3402601E+00
         11   -1    0    0    0    0  0.00000000000E+00  0.00000000000E+00  0.39999999674E+01  0.40000000000E+01  0.51100000000E-03 0.  1.
    9000002   -1    0    0    0    0 -0.00000000000E+00 -0.00000000000E+00  0.00000000000E+00  0.93800000000E+00  0.93800000000E+00 0.  1.
         11    1    1    2    0    0 -0.24004560108E+00 -0.94466375708E-01  0.19084059432E+01  0.19257620029E+01  0.51100000000E-03 0.  1.
    9000002    1    1    2    0    0  0.38338386636E-01 -0.50528751962E-01  0.35102338724E-01  0.94079708803E+00  0.93800000000E+00 0.  1.
         22    1    1    2    0    0  0.20170721444E+00  0.14499512767E+00  0.20564916855E+01  0.20714409091E+01  0.00000000000E+00 0.  1.
</event>
<event>
 5    1  0.1461556E+002  0.1599204E+01  0.7818608E-02  0.3354228E+00
         11   -1    0    0    0    0  0.00000000000E+00  0.00000000000E+00  0.39999999674E+01  0.40000000000E+01  0.51100000000E-03 0.  1.
    9000002   -1    0    0    0    0 -0.00000000000E+00 -0.00000000000E+00  0.00000000000E+00  0.93800000000E+00  0.93800000000E+00 0.  1.
         11    1    1    2    0    0 -0.17538362748E+00  0.31111863399E-01  0.12697057589E+01  0.12821389707E+01  0.51100000000E-03 0.  1.
    9000002    1    1    2    0    0  0.48236495132E+00 -0.36747323157E-01  0.16019716215E+00  0.10674893174E+01  0.93800000000E+00 0.  1.
         22    1    1    2    0    0 -0.30698132384E+00  0.56354597577E-02  0.25700970463E+01  0.25883717119E+01  0.00000000000E+00 0.  1.
</event>
<event>
 5    1  0.1461556E+002  0.1529553E+01  0.7818608E-02  0.3433563E+00
         11   -1    0    0    0    0  0.00000000000E+00  0.00000000000E+00  0.39999999674E+01  0.40000000000E+01  0.51100000000E-03 0.  1.
    9000002   -1    0    0    0    0 -0.00000000000E+00 -0.00000000000E+00  0.00000000000E+00  0.93800000000E+00  0.93800000000E+00 0.  1.
         11    1    1    2    0    0  0.76929107514E-01 -0.33529996647E+00  0.29450558381E+01  0.29650798143E+01  0.51100000000E-03 0.  1.
    9000002    1    1    2    0    0 -0.24989307622E+00  0.11153448380E+00  0.10612806973E+00  0.98284976360E+00  0.93800000000E+00 0.  1.
         22    1    1    2    0    0  0.17296396871E+00  0.22376548267E+00  0.94881605958E+00  0.99007042205E+00  0.00000000000E+00 0.  1.
</event>
<event>
 5    1  0.1461556E+002  0.1587463E+01  0.7818608E-02  0.3367084E+00
         11   -1    0    0    0    0  0.00000000000E+00  0.00000000000E+00  0.39999999674E+01  0.40000000000E+01  0.51100000000E-03 0.  1.
    9000002   -1    0    0    0    0 -0.00000000000E+00 -0.00000000000E+00  0.00000000000E+00  0.93800000000E+00  0.93800000000E+00 0.  1.
         11    1    1    2    0    0 -0.73595677448E-01 -0.64984993798E-01  0.17993128394E+01  0.18019895472E+01  0.51100000000E-03 0.  1.
    9000002    1    1    2    0    0 -0.12969238294E+00  0.13726200958E+00  0.32767479371E-01  0.95738115773E+00  0.93800000000E+00 0.  1.
         22    1    1    2    0    0  0.20328806039E+00 -0.72277015782E-01  0.21679196486E+01  0.21786292951E+01  0.00000000000E+00 0.  1.
</event>
<event>
 5    1  0.1461556E+002  0.1599589E+01  0.7818608E-02  0.3353809E+00
         11   -1    0    0    0    0  0.00000000000E+00  0.00000000000E+00  0.39999999674E+01  0.40000000000E+01  0.51100000000E-03 0.  1.
    9000002   -1    0    0    0    0 -0.00000000000E+00 -0.00000000000E+00  0.00000000000E+00  0.93800000000E+00  0.93800000000E+00 0. -1.
         11    1    1    2    0    0 -0.18156738375E-02  0.13668099832E-02  0.48724579603E-01  0.48780227751E-01  0.51100000000E-03 0.  1.
    9000002    1    1    2    0    0 -0.21069707694E-01 -0.21431157812E+00  0.30795675955E-01  0.96289446917E+00  0.93800000000E+00 0. -1.
         22    1    1    2    0    0  0.22885381532E-01  0.21294476813E+00  0.39204797118E+01  0.39263253031E+01  0.00000000000E+00 0.  1.
</event>
<event>
 5    1  0.1461556E+002  0.1598851E+01  0.7818608E-02  0.3354611E+00
         11   -1    0    0    0    0  0.00000000000E+00  0.00000000000E+00  0.39999999674E+01  0.40000000000E+01  0.51100000000E-03 0. -1.
    9000002   -1    0    0    0    0 -0.00000000000E+00 -0.00000000000E+00  0.00000000000E+00  0.93800000000E+00  0.93800000000E+00 0. -1.
         11    1    1    2    0    0 -0.37483190687E-01 -0.39203002309E-01  0.54590054918E+00  0.54858867623E+00  0.51100000000E-03 0. -1.
    9000002    1    1    2    0    0  0.10802306995E+00  0.22767701825E+00  0.42824499893E-01  0.97220560895E+00  0.93800000000E+00 0. -1.
         22    1    1    2    0    0 -0.70539879258E-01 -0.18847401595E+00  0.34112749183E+01  0.34172057148E+01  0.00000000000E+00 0. -1.
</event>
<event>
 5    1  0.1461556E+002  0.1599675E+01  0.7818608E-02  0.3353716E+00
         11   -1    0    0    0    0  0.00000000000E+00  0.00000000000E+00  0.39999999674E+01  0.40000000000E+01  0.51100000000E-03 0.  1.
    9000002   -1    0    0    0    0 -0.00000000000E+00 -0.00000000000E+00  0.00000000000E+00  0.93800000000E+00  0.93800000000E+00 0.  1.
         11    1    1    2    0    0  0.12238813479E-01 -0.25940216822E-01  0.42025231250E+00  0.42123028225E+00  0.51100000000E-03 0.  1.
    9000002    1    1    2    0    0 -0.10962219925E+00  0.23771716048E+00  0.45564906601E-01  0.97490852682E+00  0.93800000000E+00 0.  1.
         22    1    1    2    0    0  0.97383385774E-01 -0.21177694366E+00  0.35341827483E+01  0.35418611909E+01  0.00000000000E+00 0.  1.
</event>
<event>
 5    1  0.1461556E+002  0.1507153E+01  0.7818608E-02  0.3460742E+00
         11   -1    0    0    0    0  0.00000000000E+00  0.00000000000E+00  0.39999999674E+01  0.40000000000E+01  0.51100000000E-03 0. -1.
    9000002   -1    0    0    0    0 -0.00000000000E+00 -0.00000000000E+00  0.00000000000E+00  0.93800000000E+00  0.93800000000E+00 0.  1.
         11    1    1    2    0    0  0.14840462881E+00 -0.33824836067E+00  0.12516716917E+01  0.13050356977E+01  0.51100000000E-03 0. -1.
    9000002    1    1    2    0    0 -0.78988931004E-01  0.58084317653E-01  0.77175924134E-01  0.94626273436E+00  0.93800000000E+00 0.  1.
         22    1    1    2    0    0 -0.69415697802E-01  0.28016404302E+00  0.26711523515E+01  0.26867015679E+01  0.00000000000E+00 0. -1.
</event>
<event>
 5    1  0.1461556E+002  0.1599676E+01  0.7818608E-02  0.3353715E+00
         11   -1    0    0    0    0  0.00000000000E+00  0.00000000000E+00  0.39999999674E+01  0.40000000000E+01  0.51100000000E-03 0. -1.
    9000002   -1    0    0    0    0 -0.00000000000E+00 -0.00000000000E+00  0.00000000000E+00  0.93800000000E+00  0.93800000000E+00 0.  1.
         11    1    1    2    0    0 -0.38691399822E-01 -0.21416647821E+00  0.16859902868E+01  0.16999787684E+01  0.51100000000E-03 0. -1.
    9000002    1    1    2    0    0  0.85856291617E-01  0.48731054244E+00  0.16746436413E+00  0.10736531939E+01  0.93800000000E+00 0.  1.
         22    1    1    2    0    0 -0.47164891795E-01 -0.27314406423E+00  0.21465453165E+01  0.21643680377E+01  0.00000000000E+00 0. -1.
</event>
<event>
 5    1  0.1461556E+002  0.1599671E+01  0.7818608E-02  0.3353721E+00
         11   -1    0    0    0    0  0.00000000000E+00  0.00000000000E+00  0.39999999674E+01  0.40000000000E+01  0.51100000000E-03 0. -1.
    9000002   -1    0    0    0    0 -0.00000000000E+00 -0.00000000000E+00  0.00000000000E+00  0.93800000000E+00  0.93800000000E+00 0. -1.
         11    1    1    2    0    0  0.38382106147E-01  0.18606371841E+00  0.14282980770E+01  0.14408777017E+01  0.51100000000E-03 0. -1.
    9000002    1    1    2    0    0 -0.95227519228E-01 -0.49700603496E+00  0.17548821586E+00  0.10801497087E+01  0.93800000000E+00 0. -1.
         22    1    1    2    0    0  0.56845413080E-01  0.31094231655E+00  0.23962136745E+01  0.24169725896E+01  0.00000000000E+00 0. -1.
</event>
<event>
 5    1  0.1461556E+002  0.1590419E+01  0.7818608E-02  0.3363828E+00
         11   -1    0    0    0    0  0.00000000000E+00  0.00000000000E+00  0.39999999674E+01  0.40000000000E+01  0.51100000000E-03 0. -1.
    9000002   -1    0    0    0    0 -0.00000000000E+00 -0.00000000000E+00  0.00000000000E+00  0.93800000000E+00  0.93800000000E+00 0.  1.
         11    1    1    2    0    0  0.25371632483E-01  0.15894427652E-01  0.72918914410E-01  0.78827544456E-01  0.51100000000E-03 0. -1.
    9000002    1    1    2    0    0 -0.32761859515E-01  0.20472029007E+00  0.35457245696E-01  0.96129337503E+00  0.93800000000E+00 0.  1.
         22    1    1    2    0    0  0.73902270324E-02 -0.22061471772E+00  0.38916238073E+01  0.38978790805E+01  0.00000000000E+00 0. -1.
</event>
<event>
 5    1  0.1461556E+002  0.1599646E+01  0.7818608E-02  0.3353748E+00
         11   -1    0    0    0    0  0.00000000000E+00  0.00000000000E+00  0.39999999674E+01  0.40000000000E+01  0.51100000000E-03 0.  1.
    9000002   -1    0    0    0    0 -0.00000000000E+00 -0.00000000000E+00  0.00000000000E+00  0.93800000000E+00  0.93800000000E+00 0.  1.
         11    1    1    2    0    0 -0.56272074740E-01  0.17584040553E-01  0.89969343419E+00  0.90162313720E+00  0.51100000000E-03 0.  1.
    9000002    1    1    2    0    0  0.26969275239E+00 -0.86350262986E-01  0.53438883150E-01  0.98126971972E+00  0.93800000000E+00 0.  1.
         22    1    1    2    0    0 -0.21342067765E+00  0.68766222433E-01  0.30468676500E+01  0.30551071431E+01  0.00000000000E+00 0.  1.
</event>
<event>
 5    1  0.1461556E+002  0.1599669E+01  0.7818608E-02  0.3353723E+00
         11   -1    0    0    0    0  0.00000000000E+00  0.00000000000E+00  0.39999999674E+01  0.40000000000E+01  0.51100000000E-03 0. -1.
    9000002   -1    0    0    0    0 -0.00000000000E+00 -0.00000000000E+00  0.00000000000E+00  0.93800000000E+00  0.93800000000E+00 0. -1.
         11    1    1    2    0    0 -0.73534487773E-02  0.75092396722E-01  0.64066430300E+00  0.64509220389E+00  0.51100000000E-03 0. -1.
    9000002    1    1    2    0    0  0.42941727633E-01 -0.46654191502E+00  0.14950946387E+00  0.10591045417E+01  0.93800000000E+00 0. -1.
         22    1    1    2    0    0 -0.35588278856E-01  0.39144951829E+00  0.32098262005E+01  0.32338032544E+01  0.00000000000E+00 0. -1.
</event>
<event>
 5    1  0.1461556E+002  0.1599677E+01  0.7818608E-02  0.3353714E+00
         11   -1    0    0    0    0  0.00000000000E+00  0.00000000000E+00  0.39999999674E+01  0.40000000000E+01  0.51100000000E-03 0.  1.
    9000002   -1    0    0    0    0 -0.00000000000E+00 -0.00000000000E+00  0.00000000000E+00  0.93800000000E+00  0.93800000000E+00 0.  1.
         11    1    1    2    0    0  0.62941664130E-03  0.29480558561E-01  0.49744998479E+00  0.49832343713E+00  0.51100000000E-03 0. -1.
    9000002    1    1    2    0    0 -0.35359555172E-02 -0.23692224597E+00  0.37260409776E-01  0.96818231328E+00  0.93800000000E+00 0.  1.
         22    1    1    2    0    0  0.29065388759E-02  0.20744168741E+00  0.34652895728E+01  0.34714942496E+01  0.00000000000E+00 0.  1.
</event>
<event>
 5    1  0.1461556E+002  0.1599637E+01  0.7818608E-02  0.3353757E+00
         11   -1    0    0    0    0  0.00000000000E+00  0.00000000000E+00  0.39999999674E+01  0.40000000000E+01  0.51100000000E-03 0. -1.
    9000002   -1    0    0    0    0 -0.00000000000E+00 -0.00000000000E+00  0.00000000000E+00  0.93800000000E+00  0.93800000000E+00 0.  1.
         11    1    1    2    0    0 -0.51681220163E-01  0.13104176781E+00  0.16491963066E+01  0.16552013812E+01  0.51100000000E-03 0. -1.
    9000002    1    1    2    0    0  0.13910027791E+00 -0.31859379793E+00  0.81042592021E-01  0.10036248289E+01  0.93800000000E+00 0.  1.
         22    1    1    2    0    0 -0.87419057749E-01  0.18755203012E+00  0.22697610688E+01  0.22791737900E+01  0.00000000000E+00 0. -1.
</event>
<event>
 5    1  0.1461556E+002  0.1596946E+01  0.7818608E-02  0.3356684E+00
         11   -1    0    0    0    0  0.00000000000E+00  0.00000000000E+00  0.39999999674E+01  0.40000000000E+01  0.51100000000E-03 0. -1.
    9000002   -1    0    0    0    0 -0.00000000000E+00 -0.00000000000E+00  0.00000000000E+00  0.93800000000E+00  0.93800000000E+00 0. -1.
         11    1    1    2    0    0  0.64472400333E-02  0.31955597082E-01  0.55005305058E+00  0.55101846309E+00  0.51100000000E-03 0. -1.
    9000002    1    1    2    0    0  0.21174502099E+00 -0.52885846075E-01  0.33633111855E-01  0.96364311487E+00  0.93800000000E+00 0. -1.
         22    1    1    2    0    0 -0.21819226103E+00  0.20930248994E-01  0.34163138049E+01  0.34233384220E+01  0.00000000000E+00 0. -1.
</event>
<event>
 5    1  0.1461556E+002  0.1599675E+01  0.7818608E-02  0.3353716E+00
         11   -1    0    0    0    0  0.00000000000E+00  0.00000000000E+00  0.39999999674E+01  0.40000000000E+01  0.51100000000E-03 0. -1.
    9000002   -1    0    0    0    0 -0.00000000000E+00 -0.00000000000E+00  0.00000000000E+00  0.93800000000E+00  0.93800000000E+00 0.  1.
         11    1    1    2    0    0 -0.14887906936E-01 -0.99093770385E-01  0.54165301868E+00  0.55084433270E+00  0.51100000000E-03 0. -1.
    9000002    1    1    2    0    0  0.10660383990E+00  0.66731752560E+00  0.32431538518E+00  0.12007087606E+01  0.93800000000E+00 0.  1.
         22    1    1    2    0    0 -0.91715932967E-01 -0.56822375522E+00  0.31340315635E+01  0.31864469067E+01  0.00000000000E+00 0. -1.
</event>
<event>
 5    1  0.2964881E+002  0.1570193E+01  0.7818608E-02  0.3386364E+00
         11   -1    0    0    0    0  0.00000000000E+00  0.00000000000E+00  0.39999999674E+01  0.40000000000E+01  0.51100000000E-03 0. -1.
    9000002   -1    0    0    0    0 -0.00000000000E+00 -0.00000000000E+00  0.00000000000E+00  0.93800000000E+00  0.93800000000E+00 0.  1.
         11    1    1    2    0    0  0.87472428732E-01 -0.13626803316E+00  0.90160348394E+00  0.91602920588E+00  0.51100000000E-03 0. -1.
    9000002    1    1    2    0    0  0.86318030336E-02 -0.53594910494E-01  0.23647827427E-01  0.93986708752E+00  0.93800000000E+00 0.  1.
         22    1    1    2    0    0 -0.96104231766E-01  0.18986294365E+00  0.30747486560E+01  0.30821037066E+01  0.00000000000E+00 0. -1.
</event>
<event>
 5    1  0.1461556E+002  0.1599673E+01  0.7818608E-02  0.3353718E+00
         11   -1    0    0    0    0  0.00000000000E+00  0.00000000000E+00  0.39999999674E+01  0.40000000000E+01  0.51100000000E-03 0.  1.
    9000002   -1    0    0    0    0 -0.00000000000E+00 -0.00000000000E+00  0.00000000000E+00  0.93800000000E+00  0.93800000000E+00 0. -1.
         11    1    1    2    0    0  0.70299963884E-01  0.83872359541E-02  0.10513558283E+01  0.10537370495E+01  0.51100000000E-03 0.  1.
    9000002    1    1    2    0    0 -0.27152361681E+00 -0.34362134488E-01  0.49857172090E-01  0.97838416196E+00  0.93800000000E+00 0. -1.
         22    1    1    2    0    0  0.20122365292E+00  0.25974898534E-01  0.28987869670E+01  0.29058787886E+01  0.00000000000E+00 0.  1.
</event>
<event>
 5    1  0.1461556E+002  0.1599674E+01  0.7818608E-02  0.3353718E+00
         11   -1    0    0    0    0  0.00000000000E+00  0.00000000000E+00  0.39999999674E+01  0.40000000000E+01  0.51100000000E-03 0.  1.
    9000002   -1    0    0    0    0 -0.00000000000E+00 -0.00000000000E+00  0.00000000000E+00  0.93800000000E+00  0.93800000000E+00 0.  1.
         11    1    1    2    0    0 -0.26476461781E-01 -0.69700806638E-01  0.97013144311E+00  0.97299254032E+00  0.51100000000E-03 0.  1.
    9000002    1    1    2    0    0  0.11457468570E+00  0.28526163136E+00  0.63089768872E-01  0.98910357186E+00  0.93800000000E+00 0.  1.
         22    1    1    2    0    0 -0.88098223920E-01 -0.21556082472E+00  0.29667787554E+01  0.29759038878E+01  0.00000000000E+00 0.  1.
</event>
<event>
 5    1  0.1461556E+002  0.1599158E+01  0.7818608E-02  0.3354278E+00
         11   -1    0    0    0    0  0.00000000000E+00  0.00000000000E+00  0.39999999674E+01  0.40000000000E+01  0.51100000000E-03 0. -1.
    9000002   -1    0    0    0    0 -0.00000000000E+00 -0.00000000000E+00  0.00000000000E+00  0.93800000000E+00  0.93800000000E+00 0. -1.
         11    1    1    2    0    0  0.30232880751E-02 -0.20292708207E-02  0.36941168503E-01  0.37123702162E-01  0.51100000000E-03 0. -1.
    9000002    1    1    2    0    0  0.23467901724E+00  0.15072929980E+00  0.52201251020E-01  0.97998088428E+00  0.93800000000E+00 0. -1.
         22    1    1    2    0    0 -0.23770230531E+00 -0.14870002898E+00  0.39108575478E+01  0.39208954136E+01  0.00000000000E+00 0. -1.
</event>
<event>
 5    1  0.1461556E+002  0.1599414E+01  0.7818608E-02  0.3353999E+00
         11   -1    0    0    0    0  0.00000000000E+00  0.00000000000E+00  0.39999999674E+01  0.40000000000E+01  0.51100000000E-03 0. -1.
    9000002   -1    0    0    0    0 -0.00000000000E+00 -0.00000000000E+00  0.00000000000E+00  0.93800000000E+00  0.93800000000E+00 0.  1.
         11    1    1    2    0    0 -0.16593172445E+00  0.66862827850E-02  0.19645971242E+01  0.19716034503E+01  0.51100000000E-03 0. -1.
    9000002    1    1    2    0    0  0.36804105210E+00 -0.42209820643E-02  0.91235903533E-01  0.10117509688E+01  0.93800000000E+00 0.  1.
         22    1    1    2    0    0 -0.20210932765E+00 -0.24653007207E-02  0.19441669396E+01  0.19546455809E+01  0.00000000000E+00 0.  1.
</event>
<event>
 5    1  0.1461556E+002  0.1599676E+01  0.7818608E-02  0.3353715E+00
         11   -1    0    0    0    0  0.00000000000E+00  0.00000000000E+00  0.39999999674E+01  0.40000000000E+01  0.51100000000E-03 0.  1.
    9000002   -1    0    0    0    0 -0.00000000000E+00 -0.00000000000E+00  0.00000000000E+00  0.93800000000E+00  0.93800000000E+00 0. -1.
         11    1    1    2    0    0  0.16970293641E-01 -0.56910255779E-01  0.54623944248E+00  0.54945842220E+00  0.51100000000E-03 0.  1.
    9000002    1    1    2    0    0 -0.12248923439E+00  0.40085282492E+00  0.11880446217E+00  0.10342364817E+01  0.93800000000E+00 0. -1.
         22    1    1    2    0    0  0.10551894075E+00 -0.34394256914E+00  0.33349560627E+01  0.33543050961E+01  0.00000000000E+00 0.  1.
</event>
<event>
 5    1  0.1461556E+002  0.1597876E+01  0.7818608E-02  0.3355672E+00
         11   -1    0    0    0    0  0.00000000000E+00  0.00000000000E+00  0.39999999674E+01  0.40000000000E+01  0.51100000000E-03 0. -1.
    9000002   -1    0    0    0    0 -0.00000000000E+00 -0.00000000000E+00  0.00000000000E+00  0.93800000000E+00  0.93800000000E+00 0. -1.
         11    1    1    2    0    0 -0.15288357697E-01  0.12034941073E+00  0.11652000761E+01  0.11714986953E+01  0.51100000000E-03 0. -1.
    9000002    1    1    2    0    0 -0.69097683734E-01 -0.30495033845E+00  0.66722287061E-01  0.99099195880E+00  0.93800000000E+00 0. -1.
         22    1    1    2    0    0  0.84386041431E-01  0.18460092772E+00  0.27680776042E+01  0.27755093459E+01  0.00000000000E+00 0. -1.
</event>
<event>
 5    1  0.1461556E+002  0.1599256E+01  0.7818608E-02  0.3354171E+00
         11   -1    0    0    0    0  0.00000000000E+00  0.00000000000E+00  0.39999999674E+01  0.40000000000E+01  0.51100000000E-03 0.  1.
    9000002   -1    0    0    0    0 -0.00000000000E+00 -0.00000000000E+00  0.00000000000E+00  0.93800000000E+00  0.93800000000E+00 0.  1.
         11    1    1    2    0    0  0.18896667023E-01  0.10615530750E-01  0.30716640789E+00  0.30793057136E+00  0.51100000000E-03 0.  1.
    9000002    1    1    2    0    0 -0.99699305869E-01 -0.22759505366E+00  0.41329458293E-01  0.97123199297E+00  0.93800000000E+00 0.  1.
         22    1    1    2    0    0  0.80802638846E-01  0.21697952291E+00  0.36515041012E+01  0.36588374357E+01  0.00000000000E+00 0.  1.
</event>
<event>
 5    1  0.1461556E+002  0.1599559E+01  0.7818608E-02  0.3353842E+00
         11   -1    0    0    0    0  0.00000000000E+00  0.00000000000E+00  0.39999999674E+01  0.40000000000E+01  0.51100000000E-03 0.  1.
    9000002   -1    0    0    0    0 -0.00000000000E+00 -0.00000000000E+00  0.00000000000E+00  0.93800000000E+00  0.93800000000E+00 0.  1.
         11    1    1    2    0    0 -0.17235791630E+00  0.30441558707E-01  0.14914523301E+01  0.15016871358E+01  0.51100000000E-03 0.  1.
    9000002    1    1    2    0    0  0.46559415135E+00 -0.10367318610E+00  0.15527531102E+00  0.10637107057E+01  0.93800000000E+00 0.  1.
         22    1    1    2    0    0 -0.29323623505E+00  0.73231627391E-01  0.23532723262E+01  0.23726021584E+01  0.00000000000E+00 0.  1.
</event>
<event>
 5    1  0.1461556E+002  0.1599252E+01  0.7818608E-02  0.3354176E+00
         11   -1    0    0    0    0  0.00000000000E+00  0.00000000000E+00  0.39999999674E+01  0.40000000000E+01  0.51100000000E-03 0.  1.
    9000002   -1    0    0    0    0 -0.00000000000E+00 -0.00000000000E+00  0.00000000000E+00  0.93800000000E+00  0.93800000000E+00 0.  1.
         11    1    1    2    0    0 -0.48993062351E-02  0.38059770887E-01  0.39626429161E+00  0.39811832322E+00  0.51100000000E-03 0.  1.
    9000002    1    1    2    0    0 -0.21654071994E-01 -0.24891327172E+00  0.41793804414E-01  0.97160559784E+00  0.93800000000E+00 0.  1.
         22    1    1    2    0    0  0.26553378229E-01  0.21085350083E+00  0.35619418713E+01  0.35682760789E+01  0.00000000000E+00 0.  1.
</event>
<event>
 5    1  0.1461556E+002  0.1599676E+01  0.7818608E-02  0.3353715E+00
         11   -1    0    0    0    0  0.00000000000E+00  0.00000000000E+00  0.39999999674E+01  0.40000000000E+01  0.51100000000E-03 0. -1.
    9000002   -1    0    0    0    0 -0.00000000000E+00 -0.00000000000E+00  0.00000000000E+00  0.93800000000E+00  0.93800000000E+00 0. -1.
         11    1    1    2    0    0  0.24733624201E-01 -0.26438757414E-01  0.56322229683E+00  0.56438495447E+00  0.51100000000E-03 0. -1.
    9000002    1    1    2    0    0 -0.17120336205E+00  0.18830258536E+00  0.43040439678E-01  0.97286429387E+00  0.93800000000E+00 0. -1.
         22    1    1    2    0    0  0.14646973785E+00 -0.16186382795E+00  0.33937372309E+01  0.34007507517E+01  0.00000000000E+00 0. -1.
</event>
<event>
 5    1  0.1461556E+002  0.1599671E+01  0.7818608E-02  0.3353720E+00
         11   -1    0    0    0    0  0.00000000000E+00  0.00000000000E+00  0.39999999674E+01  0.40000000000E+01  0.51100000000E-03 0. -1.
    9000002   -1    0    0    0    0 -0.00000000000E+00 -0.00000000000E+00  0.00000000000E+00  0.93800000000E+00  0.93800000000E+00 0. -1.
         11    1    1    2    0    0  0.41895397307E-03 -0.48398237061E-01  0.70692062883E+00  0.70857575562E+00  0.51100000000E-03 0. -1.
    9000002    1    1    2    0    0 -0.24807504163E-02  0.25876130671E+00  0.44517952278E-01  0.97405822005E+00  0.93800000000E+00 0. -1.
         22    1    1    2    0    0  0.20617964432E-02 -0.21036306965E+00  0.32485613863E+01  0.32553660243E+01  0.00000000000E+00 0. -1.
</event>
<event>
 5    1  0.1461556E+002  0.1547814E+01  0.7818608E-02  0.3412027E+00
         11   -1    0    0    0    0  0.00000000000E+00  0.00000000000E+00  0.39999999674E+01  0.40000000000E+01  0.51100000000E-03 0.  1.
    9000002   -1    0    0    0    0 -0.00000000000E+00 -0.00000000000E+00  0.00000000000E+00  0.93800000000E+00  0.93800000000E+00 0.  1.
         11    1    1    2    0    0 -0.10556000721E+00 -0.15510805677E+00  0.61487223831E+00  0.64286044750E+00  0.51100000000E-03 0.  1.
    9000002    1    1    2    0    0  0.27273135751E+00 -0.22825625221E+00  0.12802465339E+00  0.10112950222E+01  0.93800000000E+00 0.  1.
         22    1    1    2    0    0 -0.16717135030E+00  0.38336430898E+00  0.32571030757E+01  0.32838445303E+01  0.00000000000E+00 0.  1.
</event>
<event>
 5    1  0.1461556E+002  0.1599677E+01  0.7818608E-02  0.3353714E+00
         11   -1    0    0    0    0  0.00000000000E+00  0.00000000000E+00  0.39999999674E+01  0.40000000000E+01  0.51100000000E-03 0.  1.
    9000002   -1    0    0    0    0 -0.00000000000E+00 -0.00000000000E+00  0.00000000000E+00  0.93800000000E+00  0.93800000000E+00 0. -1.
         11    1    1    2    0    0 -0.86601606759E-01 -0.31891040000E-01  0.93241616825E+00  0.93697227743E+00  0.51100000000E-03 0.  1.
    9000002    1    1    2    0    0  0.36389847190E+00  0.13482008578E+00  0.10142927199E+00  0.10201619727E+01  0.93800000000E+00 0. -1.
         22    1    1    2    0    0 -0.27729686514E+00 -0.10292904578E+00  0.29661545271E+01  0.29808657498E+01  0.00000000000E+00 0.  1.
</event>
<event>
 5    1  0.1461556E+002  0.1587401E+01  0.7818608E-02  0.3367152E+00
         11   -1    0    0    0    0  0.00000000000E+00  0.00000000000E+00  0.39999999674E+01  0.40000000000E+01  0.51100000000E-03 0.  1.
    9000002   -1    0    0    0    0 -0.00000000000E+00 -0.00000000000E+00  0.00000000000E+00  0.93800000000E+00  0.93800000000E+00 0. -1.
         11    1    1    2    0    0  0.10624647521E+00  0.79391383385E-01  0.15152482957E+01  0.15210420651E+01  0.51100000000E-03 0.  1.
    9000002    1    1    2    0    0  0.60532226294E-01 -0.18994638112E+00  0.35564435867E-01  0.95961065397E+00  0.93800000000E+00 0. -1.
         22    1    1    2    0    0 -0.16677870151E+00  0.11055499774E+00  0.24491872358E+01  0.24573472809E+01  0.00000000000E+00 0.  1.
</event>
<event>
 5    1  0.1461556E+002  0.1599557E+01  0.7818608E-02  0.3353845E+00
         11   -1    0    0    0    0  0.00000000000E+00  0.00000000000E+00  0.39999999674E+01  0.40000000000E+01  0.51100000000E-03 0. -1.
    9000002   -1    0    0    0    0 -0.00000000000E+00 -0.00000000000E+00  0.00000000000E+00  0.93800000000E+00  0.93800000000E+00 0.  1.
         11    1    1    2    0    0 -0.11558712327E+00  0.12874173640E+00  0.14751837373E+01  0.14852953032E+01  0.51100000000E-03 0. -1.
    9000002    1    1    2    0    0  0.32607833521E+00 -0.31301334819E+00  0.13890557821E+00  0.10504490452E+01  0.93800000000E+00 0.  1.
         22    1    1    2    0    0 -0.21049121194E+00  0.18427161179E+00  0.23859106519E+01  0.24022556517E+01  0.00000000000E+00 0. -1.
</event>
<event>
 5    1  0.1461556E+002  0.1599663E+01  0.7818608E-02  0.3353729E+00
         11   -1    0    0    0    0  0.00000000000E+00  0.00000000000E+00  0.39999999674E+01  0.40000000000E+01  0.51100000000E-03 0.  1.
    9000002   -1    0    0    0    0 -0.00000000000E+00 -0.00000000000E+00  0.00000000000E+00  0.93800000000E+00  0.93800000000E+00 0. -1.
         11    1    1    2    0    0  0.74186332268E-01 -0.16161848879E-01  0.77752977943E+00  0.78122828691E+00  0.51100000000E-03 0.  1.
    9000002    1    1    2    0    0 -0.36358338168E+00  0.96427798058E-01  0.95168016234E-01  0.10150823351E+01  0.93800000000E+00 0. -1.
         22    1    1    2    0    0  0.28939704941E+00 -0.80265949179E-01  0.31273021717E+01  0.31416893780E+01  0.00000000000E+00 0.  1.
</event>
<event>
 5    1  0.1461556E+002  0.1599675E+01  0.7818608E-02  0.3353716E+00
         11   -1    0    0    0    0  0.00000000000E+00  0.00000000000E+00  0.39999999674E+01  0.40000000000E+01  0.51100000000E-03 0. -1.
    9000002   -1    0    0    0    0 -0.00000000000E+00 -0.00000000000E+00  0.00000000000E+00  0.93800000000E+00  0.93800000000E+00 0.  1.
         11    1    1    2    0    0  0.15712248678E-01 -0.99274563038E-01  0.98592868081E+00  0.99103881780E+00  0.51100000000E-03 0. -1.
    9000002    1    1    2    0    0 -0.57569335064E-01  0.38835021027E+00  0.10386790321E+00  0.10221363194E+01  0.93800000000E+00 0.  1.
         22    1    1    2    0    0  0.41857086386E-01 -0.28907564724E+00  0.29102033833E+01  0.29248248628E+01  0.00000000000E+00 0. -1.
</event>
<event>
 5    1  0.1461556E+002  0.1591364E+01  0.7818608E-02  0.3362790E+00
         11   -1    0    0    0    0  0.00000000000E+00  0.00000000000E+00  0.39999999674E+01  0.40000000000E+01  0.51100000000E-03 0. -1.
    9000002   -1    0    0    0    0 -0.00000000000E+00 -0.00000000000E+00  0.00000000000E+00  0.93800000000E+00  0.93800000000E+00 0.  1.
         11    1    1    2    0    0  0.16264792427E+00  0.10545761948E+00  0.17325154315E+01  0.17433260276E+01  0.51100000000E-03 0. -1.
    9000002    1    1    2    0    0 -0.14311019269E+00 -0.33977960974E+00  0.98139891526E-01  0.10126233993E+01  0.93800000000E+00 0.  1.
         22    1    1    2    0    0 -0.19537731576E-01  0.23432199026E+00  0.21693446443E+01  0.21820505731E+01  0.00000000000E+00 0. -1.
</event>
<event>
 5    1  0.1461556E+002  0.1579120E+01  0.7818608E-02  0.3376342E+00
         11   -1    0    0    0    0  0.00000000000E+00  0.00000000000E+00  0.39999999674E+01  0.40000000000E+01  0.51100000000E-03 0. -1.
    9000002   -1    0    0    0    0 -0.00000000000E+00 -0.00000000000E+00  0.00000000000E+00  0.93800000000E+00  0.93800000000E+00 0.  1.
         11    1    1    2    0    0  0.74866981839E-01 -0.13160765535E+00  0.19585135524E+01  0.19643577158E+01  0.51100000000E-03 0. -1.
    9000002    1    1    2    0    0 -0.18690948201E+00 -0.80903342449E-01  0.43053860512E-01  0.96082159644E+00  0.93800000000E+00 0.  1.
         22    1    1    2    0    0  0.11204250017E+00  0.21251099780E+00  0.19984325545E+01  0.20128206877E+01  0.00000000000E+00 0. -1.
</event>
<event>
 5    1  0.1461556E+002  0.1599157E+01  0.7818608E-02  0.3354279E+00
         11   -1    0    0    0    0  0.00000000000E+00  0.00000000000E+00  0.39999999674E+01  0.40000000000E+01  0.51100000000E-03 0. -1.
    9000002   -1    0    0    0    0 -0.00000000000E+00 -0.00000000000E+00  0.00000000000E+00  0.93800000000E+00  0.93800000000E+00 0. -1.
         11    1    1    2    0    0 -0.16308593942E-03  0.37778565824E-02  0.17225094375E-01  0.17642669713E-01  0.51100000000E-03 0. -1.
    9000002    1    1    2    0    0  0.19525142674E+00 -0.57969175994E-01  0.27859391622E-01  0.96026230308E+00  0.93800000000E+00 0. -1.
         22    1    1    2    0    0 -0.19508834080E+00  0.54191319411E-01  0.39549154814E+01  0.39600950272E+01  0.00000000000E+00 0. -1.
</event>
<event>
 5    1  0.1461556E+002  0.1599626E+01  0.7818608E-02  0.3353769E+00
         11   -1    0    0    0    0  0.00000000000E+00  0.00000000000E+00  0.39999999674E+01  0.40000000000E+01  0.51100000000E-03 0. -1.
    9000002   -1    0    0    0    0 -0.00000000000E+00 -0.00000000000E+00  0.00000000000E+00  0.93800000000E+00  0.93800000000E+00 0. -1.
         11    1    1    2    0    0 -0.11035412028E-01  0.49738590396E-01  0.63913995996E+00  0.64116757344E+00  0.51100000000E-03 0. -1.
    9000002    1    1    2    0    0  0.95065517366E-01 -0.27865153226E+00  0.57838018967E-01  0.98482148913E+00  0.93800000000E+00 0. -1.
         22    1    1    2    0    0 -0.84030105337E-01  0.22891294186E+00  0.33030219884E+01  0.33120109374E+01  0.00000000000E+00 0. -1.
</event>
<event>
 5    1  0.1461556E+002  0.1517449E+01  0.7818608E-02  0.3448143E+00
         11   -1    0    0    0    0  0.00000000000E+00  0.00000000000E+00  0.39999999674E+01  0.40000000000E+01  0.51100000000E-03 0.  1.
    9000002   -1    0    0    0    0 -0.00000000000E+00 -0.00000000000E+00  0.00000000000E+00  0.93800000000E+00  0.93800000000E+00 0. -1.
         11    1    1    2    0    0 -0.14439467423E+00  0.24234003890E+00  0.16944405756E+01  0.17177623939E+01  0.51100000000E-03 0.  1.
    9000002    1    1    2    0    0 -0.12607903776E+00  0.82659975934E-01  0.78367433106E-01  0.95326494216E+00  0.93800000000E+00 0. -1.
         22    1    1    2    0    0  0.27047371200E+00 -0.32500001484E+00  0.22271919586E+01  0.22669726639E+01  0.00000000000E+00 0. -1.
</event>
<event>
 5    1  0.1461556E+002  0.1599491E+01  0.7818608E-02  0.3353916E+00
         11   -1    0    0    0    0  0.00000000000E+00  0.00000000000E+00  0.39999999674E+01  0.40000000000E+01  0.51100000000E-03 0. -1.
    9000002   -1    0    0    0    0 -0.00000000000E+00 -0.00000000000E+00  0.00000000000E+00  0.93800000000E+00  0.93800000000E+00 0. -1.
         11    1    1    2    0    0  0.39390726792E-01 -0.32575055174E-01  0.58436496403E+00  0.58659648472E+00  0.51100000000E-03 0. -1.
    9000002    1    1    2    0    0 -0.32988178811E+00  0.17661374425E+00  0.94293725225E-01  0.10142729985E+01  0.93800000000E+00 0. -1.
         22    1    1    2    0    0  0.29049106132E+00 -0.14403868908E+00  0.33213412781E+01  0.33371305168E+01  0.00000000000E+00 0. -1.
</event>
<event>
 5    1  0.1461556E+002  0.1577292E+01  0.7818608E-02  0.3378385E+00
         11   -1    0    0    0    0  0.00000000000E+00  0.00000000000E+00  0.39999999674E+01  0.40000000000E+01  0.51100000000E-03 0. -1.
    9000002   -1    0    0    0    0 -0.00000000000E+00 -0.00000000000E+00  0.00000000000E+00  0.93800000000E+00  0.93800000000E+00 0. -1.
         11    1    1    2    0    0  0.12550236436E+00 -0.98595330383E-01  0.13325562384E+01  0.13420798308E+01  0.51100000000E-03 0. -1.
    9000002    1    1    2    0    0 -0.11167570224E+00 -0.13985522277E+00  0.38027992205E-01  0.95567833187E+00  0.93800000000E+00 0. -1.
         22    1    1    2    0    0 -0.13826662122E-01  0.23845055316E+00  0.26294157368E+01  0.26402418374E+01  0.00000000000E+00 0. -1.
</event>
<event>
 5    1  0.1461556E+002  0.1557803E+01  0.7818608E-02  0.3400476E+00
         11   -1    0    0    0    0  0.00000000000E+00  0.00000000000E+00  0.39999999674E+01  0.40000000000E+01  0.51100000000E-03 0. -1.
    9000002   -1    0    0    0    0 -0.00000000000E+00 -0.00000000000E+00  0.00000000000E+00  0.93800000000E+00  0.93800000000E+00 0.  1.
         11    1    1    2    0    0 -0.76287795448E-01  0.19490923719E+00  0.90085148405E+00  0.92484760686E+00  0.51100000000E-03 0. -1.
    9000002    1    1    2    0    0  0.10333436916E+00  0.23463621259E-01  0.38653533449E-01  0.94475744454E+00  0.93800000000E+00 0.  1.
         22    1    1    2    0    0 -0.27046573715E-01 -0.21837285845E+00  0.30604949499E+01  0.30683949486E+01  0.00000000000E+00 0. -1.
</event>
<event>
 5    1  0.1461556E+002  0.1599677E+01  0.7818608E-02  0.3353714E+00
         11   -1    0    0    0    0  0.00000000000E+00  0.00000000000E+00  0.39999999674E+01  0.40000000000E+01  0.51100000000E-03 0. -1.
    9000002   -1    0    0    0    0 -0.00000000000E+00 -0.00000000000E+00  0.00000000000E+00  0.93800000000E+00  0.93800000000E+00 0. -1.
         11    1    1    2    0    0 -0.40178110360E-03 -0.73647620951E-01  0.10200236503E+01  0.10226791490E+01  0.51100000000E-03 0.  1.
    9000002    1    1    2    0    0  0.16191726977E-02  0.28495646785E+00  0.54097680467E-01  0.98182145491E+00  0.93800000000E+00 0. -1.
         22    1    1    2    0    0 -0.12173915941E-02 -0.21130884689E+00  0.29258786366E+01  0.29334993961E+01  0.00000000000E+00 0. -1.
</event>
<event>
 5    1  0.1461556E+002  0.1599647E+01  0.7818608E-02  0.3353746E+00
         11   -1    0    0    0    0  0.00000000000E+00  0.00000000000E+00  0.39999999674E+01  0.40000000000E+01  0.51100000000E-03 0. -1.
    9000002   -1    0    0    0    0 -0.00000000000E+00 -0.00000000000E+00  0.00000000000E+00  0.93800000000E+00  0.93800000000E+00 0. -1.
         11    1    1    2    0    0 -0.24239368605E-01 -0.22170478371E+00  0.11019910387E+01  0.11243331662E+01  0.51100000000E-03 0. -1.
    9000002    1    1    2    0    0  0.93838936134E-01  0.71529498892E+00  0.37419212779E+00  0.12410948455E+01  0.93800000000E+00 0. -1.
         22    1    1    2    0    0 -0.69599567529E-01 -0.49359020522E+00  0.25238168009E+01  0.25725719883E+01  0.00000000000E+00 0. -1.
</event>
<event>
 5    1  0.1461556E+002  0.1546483E+01  0.7818608E-02  0.3413579E+00
         11   -1    0    0    0    0  0.00000000000E+00  0.00000000000E+00  0.39999999674E+01  0.40000000000E+01  0.51100000000E-03 0. -1.
    9000002   -1    0    0    0    0 -0.00000000000E+00 -0.00000000000E+00  0.00000000000E+00  0.93800000000E+00  0.93800000000E+00 0.  1.
         11    1    1    2    0    0 -0.24973490510E+00  0.15327622764E+00  0.19635915952E+01  0.19853345659E+01  0.51100000000E-03 0. -1.
    9000002    1    1    2    0    0  0.21428069242E-01 -0.25050917161E-01  0.40287784513E-01  0.93944335443E+00  0.93800000000E+00 0.  1.
         22    1    1    2    0    0  0.22830683586E+00 -0.12822531048E+00  0.19961205877E+01  0.20132220797E+01  0.00000000000E+00 0. -1.
</event>
<event>
 5    1  0.1461556E+002  0.1539782E+01  0.7818608E-02  0.3421433E+00
         11   -1    0    0    0    0  0.00000000000E+00  0.00000000000E+00  0.39999999674E+01  0.40000000000E+01  0.51100000000E-03 0. -1.
    9000002   -1    0    0    0    0 -0.00000000000E+00 -0.00000000000E+00  0.00000000000E+00  0.93800000000E+00  0.93800000000E+00 0. -1.
         11    1    1    2    0    0  0.28672686007E+00 -0.19799827754E+00  0.18741012727E+01  0.19062191510E+01  0.51100000000E-03 0. -1.
    9000002    1    1    2    0    0 -0.53207075578E-01  0.13217629828E+00  0.58894295634E-01  0.95058619008E+00  0.93800000000E+00 0. -1.
         22    1    1    2    0    0 -0.23351978449E+00  0.65821979259E-01  0.20670043990E+01  0.20811946589E+01  0.00000000000E+00 0. -1.
</event>
<event>
 5    1  0.1461556E+002  0.1599669E+01  0.7818608E-02  0.3353723E+00
         11   -1    0    0    0    0  0.00000000000E+00  0.00000000000E+00  0.39999999674E+01  0.40000000000E+01  0.51100000000E-03 0.  1.
    9000002   -1    0    0    0    0 -0.00000000000E+00 -0.00000000000E+00  0.00000000000E+00  0.93800000000E+00  0.93800000000E+00 0.  1.
         11    1    1    2    0    0  0.26426850624E-01 -0.49891747965E-02  0.40199842203E+00  0.40289733523E+00  0.51100000000E-03 0.  1.
    9000002    1    1    2    0    0 -0.24721004144E+00  0.33574653272E-01  0.41350182304E-01  0.97149055554E+00  0.93800000000E+00 0.  1.
         22    1    1    2    0    0  0.22078319082E+00 -0.28585478475E-01  0.35566513630E+01  0.35636121092E+01  0.00000000000E+00 0.  1.
</event>
<event>
 5    1  0.1461556E+002  0.1559666E+01  0.7818608E-02  0.3398338E+00
         11   -1    0    0    0    0  0.00000000000E+00  0.00000000000E+00  0.39999999674E+01  0.40000000000E+01  0.51100000000E-03 0.  1.
    9000002   -1    0    0    0    0 -0.00000000000E+00 -0.00000000000E+00  0.00000000000E+00  0.93800000000E+00  0.93800000000E+00 0. -1.
         11    1    1    2    0    0 -0.15811414701E+00  0.95354536122E-01  0.21623076966E+01  0.21701768147E+01  0.51100000000E-03 0.  1.
    9000002    1    1    2    0    0 -0.14787389156E+00 -0.14432788281E+00  0.58958348171E-01  0.96229793327E+00  0.93800000000E+00 0. -1.
         22    1    1    2    0    0  0.30598803857E+00  0.48973346692E-01  0.17787339225E+01  0.18055252520E+01  0.00000000000E+00 0.  1.
</event>
<event>
 5    1  0.1461556E+002  0.1598409E+01  0.7818608E-02  0.3355092E+00
         11   -1    0    0    0    0  0.00000000000E+00  0.00000000000E+00  0.39999999674E+01  0.40000000000E+01  0.51100000000E-03 0. -1.
    9000002   -1    0    0    0    0 -0.00000000000E+00 -0.00000000000E+00  0.00000000000E+00  0.93800000000E+00  0.93800000000E+00 0. -1.
         11    1    1    2    0    0  0.41256992731E-01 -0.58507716059E-01  0.54874157938E+00  0.55339215241E+00  0.51100000000E-03 0. -1.
    9000002    1    1    2    0    0 -0.23374018236E+00  0.21472836283E+00  0.68321304648E-01  0.99259989085E+00  0.93800000000E+00 0. -1.
         22    1    1    2    0    0  0.19248318963E+00 -0.15622064677E+00  0.33829370833E+01  0.33920079567E+01  0.00000000000E+00 0. -1.
</event>
<event>
 5    1  0.1461556E+002  0.1599677E+01  0.7818608E-02  0.3353715E+00
         11   -1    0    0    0    0  0.00000000000E+00  0.00000000000E+00  0.39999999674E+01  0.40000000000E+01  0.51100000000E-03 0. -1.
    9000002   -1    0    0    0    0 -0.00000000000E+00 -0.00000000000E+00  0.00000000000E+00  0.93800000000E+00  0.93800000000E+00 0. -1.
         11    1    1    2    0    0 -0.20762644672E-01  0.77714538746E-01  0.89861509075E+00  0.90220839022E+00  0.51100000000E-03 0.  1.
    9000002    1    1    2    0    0  0.91970097918E-01 -0.33658688778E+00  0.81624825237E-01  0.10041194371E+01  0.93800000000E+00 0. -1.
         22    1    1    2    0    0 -0.71207453245E-01  0.25887234904E+00  0.30197600514E+01  0.30316721726E+01  0.00000000000E+00 0. -1.
</event>
<event>
 5    1  0.1461556E+002  0.1576069E+01  0.7818608E-02  0.3379754E+00
         11   -1    0    0    0    0  0.00000000000E+00  0.00000000000E+00  0.39999999674E+01  0.40000000000E+01  0.51100000000E-03 0. -1.
    9000002   -1    0    0    0    0 -0.00000000000E+00 -0.00000000000E+00  0.00000000000E+00  0.93800000000E+00  0.93800000000E+00 0. -1.
         11    1    1    2    0    0 -0.17260470797E-01 -0.99492304311E-01  0.21741963454E+00  0.23972526165E+00  0.51100000000E-03 0. -1.
    9000002    1    1    2    0    0  0.20959982718E+00  0.22590011604E+00  0.82195108525E-01  0.99073860622E+00  0.93800000000E+00 0. -1.
         22    1    1    2    0    0 -0.19233935639E+00 -0.12640781173E+00  0.37003852243E+01  0.37075361321E+01  0.00000000000E+00 0. -1.
</event>
<event>
 5    1  0.1461556E+002  0.1545551E+01  0.7818608E-02  0.3414667E+00
         11   -1    0    0    0    0  0.00000000000E+00  0.00000000000E+00  0.39999999674E+01  0.40000000000E+01  0.51100000000E-03 0.  1.
    9000002   -1    0    0    0    0 -0.00000000000E+00 -0.00000000000E+00  0.00000000000E+00  0.93800000000E+00  0.93800000000E+00 0.  1.
         11    1    1    2    0    0  0.20646320920E-01  0.20110958005E+00  0.20949232357E+01  0.21046555439E+01  0.51100000000E-03 0.  1.
    9000002    1    1    2    0    0  0.59294471717E-01  0.13867945735E+00  0.56096653524E-01  0.95170303184E+00  0.93800000000E+00 0.  1.
         22    1    1    2    0    0 -0.79940792638E-01 -0.33978903740E+00  0.18489800781E+01  0.18816414243E+01  0.00000000000E+00 0. -1.
</event>
<event>
 5    1  0.1461556E+002  0.1599666E+01  0.7818608E-02  0.3353726E+00
         11   -1    0    0    0    0  0.00000000000E+00  0.00000000000E+00  0.39999999674E+01  0.40000000000E+01  0.51100000000E-03 0. -1.
    9000002   -1    0    0    0    0 -0.00000000000E+00 -0.00000000000E+00  0.00000000000E+00  0.93800000000E+00  0.93800000000E+00 0.  1.
         11    1    1    2    0    0  0.97062696140E-02 -0.27612195433E-02  0.12549437089E+00  0.12590049344E+00  0.51100000000E-03 0. -1.
    9000002    1    1    2    0    0 -0.28044954275E+00  0.11954037666E+00  0.62039381262E-01  0.98824831521E+00  0.93800000000E+00 0.  1.
         22    1    1    2    0    0  0.27074327314E+00 -0.11677915712E+00  0.38124662152E+01  0.38238511913E+01  0.00000000000E+00 0. -1.
</event>
<event>
 5    1  0.1461556E+002  0.1488444E+01  0.7818608E-02  0.3484118E+00
         11   -1    0    0    0    0  0.00000000000E+00  0.00000000000E+00  0.39999999674E+01  0.40000000000E+01  0.51100000000E-03 0.  1.
    9000002   -1    0    0    0    0 -0.00000000000E+00 -0.00000000000E+00  0.00000000000E+00  0.93800000000E+00  0.93800000000E+00 0. -1.
         11    1    1    2    0    0  0.33990434301E+00  0.33689823320E+00  0.19899313279E+01  0.20466710368E+01  0.51100000000E-03 0.  1.
    9000002    1    1    2    0    0 -0.25692128600E+00  0.12513157872E-01  0.13473497946E+00  0.98191783822E+00  0.93800000000E+00 0. -1.
         22    1    1    2    0    0 -0.82983057013E-01 -0.34941139107E+00  0.18753336600E+01  0.19094111250E+01  0.00000000000E+00 0. -1.
</event>
<event>
 5    1  0.1461556E+002  0.1567575E+01  0.7818608E-02  0.3389326E+00
         11   -1    0    0    0    0  0.00000000000E+00  0.00000000000E+00  0.39999999674E+01  0.40000000000E+01  0.51100000000E-03 0.  1.
    9000002   -1    0    0    0    0 -0.00000000000E+00 -0.00000000000E+00  0.00000000000E+00  0.93800000000E+00  0.93800000000E+00 0.  1.
         11    1    1    2    0    0 -0.14503023822E+00  0.16357947562E-01  0.71193658422E+00  0.72674294872E+00  0.51100000000E-03 0.  1.
    9000002    1    1    2    0    0 -0.93078643221E-01  0.11270512632E+00  0.38159727306E-01  0.95008749287E+00  0.93800000000E+00 0.  1.
         22    1    1    2    0    0  0.23810888144E+00 -0.12906307388E+00  0.32499036558E+01  0.32611695584E+01  0.00000000000E+00 0.  1.
</event>
<event>
 5    1  0.1461556E+002  0.1577689E+01  0.7818608E-02  0.3377941E+00
         11   -1    0    0    0    0  0.00000000000E+00  0.00000000000E+00  0.39999999674E+01  0.40000000000E+01  0.51100000000E-03 0. -1.
    9000002   -1    0    0    0    0 -0.00000000000E+00 -0.00000000000E+00  0.00000000000E+00  0.93800000000E+00  0.93800000000E+00 0. -1.
         11    1    1    2    0    0 -0.78903841319E-01 -0.10593866895E+00  0.20481688347E+01  0.20524240923E+01  0.51100000000E-03 0. -1.
    9000002    1    1    2    0    0  0.17636001044E-01 -0.11302189451E+00  0.24900532028E-01  0.94527721525E+00  0.93800000000E+00 0. -1.
         22    1    1    2    0    0  0.61267840275E-01  0.21896056346E+00  0.19269306006E+01  0.19402986925E+01  0.00000000000E+00 0.  1.
</event>
<event>
 5    1  0.1461556E+002  0.1599677E+01  0.7818608E-02  0.3353714E+00
         11   -1    0    0    0    0  0.00000000000E+00  0.00000000000E+00  0.39999999674E+01  0.40000000000E+01  0.51100000000E-03 0.  1.
    9000002   -1    0    0    0    0 -0.00000000000E+00 -0.00000000000E+00  0.00000000000E+00  0.93800000000E+00  0.93800000000E+00 0.  1.
         11    1    1    2    0    0  0.32840821204E+00  0.12763091564E+00  0.20514111475E+01  0.20814489092E+01  0.51100000000E-03 0.  1.
    9000002    1    1    2    0    0 -0.59477883786E+00 -0.23089255482E+00  0.28643769861E+00  0.11700272617E+01  0.93800000000E+00 0.  1.
         22    1    1    2    0    0  0.26637062582E+00  0.10326163918E+00  0.16621511212E+01  0.16865238291E+01  0.00000000000E+00 0.  1.
</event>
<event>
 5    1  0.1461556E+002  0.1599671E+01  0.7818608E-02  0.3353721E+00
         11   -1    0    0    0    0  0.00000000000E+00  0.00000000000E+00  0.39999999674E+01  0.40000000000E+01  0.51100000000E-03 0.  1.
    9000002   -1    0    0    0    0 -0.00000000000E+00 -0.00000000000E+00  0.00000000000E+00  0.93800000000E+00  0.93800000000E+00 0. -1.
         11    1    1    2    0    0  0.43533065378E-01 -0.48736506564E-01  0.87420360576E+00  0.87664278945E+00  0.51100000000E-03 0.  1.
    9000002    1    1    2    0    0 -0.20315965952E+00  0.21124604286E+00  0.57272324971E-01  0.98438958603E+00  0.93800000000E+00 0. -1.
         22    1    1    2    0    0  0.15962659415E+00 -0.16250953630E+00  0.30685240366E+01  0.30769676245E+01  0.00000000000E+00 0.  1.
</event>
<event>
 5    1  0.1461556E+002  0.1598447E+01  0.7818608E-02  0.3355051E+00
         11   -1    0    0    0    0  0.00000000000E+00  0.00000000000E+00  0.39999999674E+01  0.40000000000E+01  0.51100000000E-03 0.  1.
    9000002   -1    0    0    0    0 -0.00000000000E+00 -0.00000000000E+00  0.00000000000E+00  0.93800000000E+00  0.93800000000E+00 0.  1.
         11    1    1    2    0    0  0.21254348194E-01 -0.38295779647E-01  0.36505642503E+00  0.36767481371E+00  0.51100000000E-03 0.  1.
    9000002    1    1    2    0    0 -0.40240214945E+00  0.55743606053E+00  0.33803979010E+00  0.12111058381E+01  0.93800000000E+00 0. -1.
         22    1    1    2    0    0  0.38114780125E+00 -0.51914028089E+00  0.32969037522E+01  0.33592193482E+01  0.00000000000E+00 0.  1.
</event>
<event>
 5    1  0.1461556E+002  0.1599676E+01  0.7818608E-02  0.3353715E+00
         11   -1    0    0    0    0  0.00000000000E+00  0.00000000000E+00  0.39999999674E+01  0.40000000000E+01  0.51100000000E-03 0.  1.
    9000002   -1    0    0    0    0 -0.00000000000E+00 -0.00000000000E+00  0.00000000000E+00  0.93800000000E+00  0.93800000000E+00 0. -1.
         11    1    1    2    0    0  0.10506830910E+00 -0.86892089657E-01  0.15968626673E+01  0.16026728376E+01  0.51100000000E-03 0.  1.
    9000002    1    1    2    0    0 -0.25898587737E+00  0.21666692308E+00  0.76349517769E-01  0.99984573265E+00  0.93800000000E+00 0. -1.
         22    1    1    2    0    0  0.15391756828E+00 -0.12977483342E+00  0.23267877823E+01  0.23354814298E+01  0.00000000000E+00 0.  1.
</event>
<event>
 5    1  0.1461556E+002  0.1599587E+01  0.7818608E-02  0.3353811E+00
         11   -1    0    0    0    0  0.00000000000E+00  0.00000000000E+00  0.39999999674E+01  0.40000000000E+01  0.51100000000E-03 0. -1.
    9000002   -1    0    0    0    0 -0.00000000000E+00 -0.00000000000E+00  0.00000000000E+00  0.93800000000E+00  0.93800000000E+00 0.  1.
         11    1    1    2    0    0 -0.20521381218E+00 -0.67259317341E-01  0.18577690305E+01  0.18702787376E+01  0.51100000000E-03 0. -1.
    9000002    1    1    2    0    0  0.40992514784E+00  0.12482526221E+00  0.12440459777E+00  0.10387205961E+01  0.93800000000E+00 0.  1.
         22    1    1    2    0    0 -0.20471133566E+00 -0.57565944869E-01  0.20178263391E+01  0.20290006663E+01  0.00000000000E+00 0. -1.
</event>
<event>
 5    1  0.1461556E+002  0.1541323E+01  0.7818608E-02  0.3419620E+00
         11   -1    0    0    0    0  0.00000000000E+00  0.00000000000E+00  0.39999999674E+01  0.40000000000E+01  0.51100000000E-03 0.  1.
    9000002   -1    0    0    0    0 -0.00000000000E+00 -0.00000000000E+00  0.00000000000E+00  0.93800000000E+00  0.93800000000E+00 0. -1.
         11    1    1    2    0    0 -0.23746832398E-02 -0.12077887252E+00  0.18412020613E+00  0.22021282114E+00  0.51100000000E-03 0.  1.
    9000002    1    1    2    0    0  0.32921242761E+00 -0.14129690638E+00  0.13497375375E+00  0.10131177387E+01  0.93800000000E+00 0. -1.
         22    1    1    2    0    0 -0.32683774437E+00  0.26207577890E+00  0.36809060075E+01  0.37046694402E+01  0.00000000000E+00 0.  1.
</event>
<event>
 5    1  0.1461556E+002  0.1565050E+01  0.7818608E-02  0.3392193E+00
         11   -1    0    0    0    0  0.00000000000E+00  0.00000000000E+00  0.39999999674E+01  0.40000000000E+01  0.51100000000E-03 0. -1.
    9000002   -1    0    0    0    0 -0.00000000000E+00 -0.00000000000E+00  0.00000000000E+00  0.93800000000E+00  0.93800000000E+00 0.  1.
         11    1    1    2    0    0 -0.11916767068E+00 -0.30998407483E-03  0.34383024993E+00  0.36389632000E+00  0.51100000000E-03 0. -1.
    9000002    1    1    2    0    0 -0.88169237544E-01 -0.12820797965E+00  0.42035885629E-01  0.95174687611E+00  0.93800000000E+00 0.  1.
         22    1    1    2    0    0  0.20733690822E+00  0.12851796373E+00  0.36141338318E+01  0.36223568039E+01  0.00000000000E+00 0. -1.
</event>
<event>
 5    1  0.1461556E+002  0.1599625E+01  0.7818608E-02  0.3353771E+00
         11   -1    0    0    0    0  0.00000000000E+00  0.00000000000E+00  0.39999999674E+01  0.40000000000E+01  0.51100000000E-03 0.  1.
    9000002   -1    0    0    0    0 -0.00000000000E+00 -0.00000000000E+00  0.00000000000E+00  0.93800000000E+00  0.93800000000E+00 0. -1.
         11    1    1    2    0    0  0.16007040889E+00 -0.17770987342E+00  0.15154399882E+01  0.15341974950E+01  0.51100000000E-03 0.  1.
    9000002    1    1    2    0    0 -0.39793842533E+00  0.42039827970E+00  0.23281473343E+00  0.11265595430E+01  0.93800000000E+00 0. -1.
         22    1    1    2    0    0  0.23786801645E+00 -0.24268840627E+00  0.22517452458E+01  0.22772429619E+01  0.00000000000E+00 0.  1.
</event>
<event>
 5    1  0.1461556E+002  0.1563687E+01  0.7818608E-02  0.3393745E+00
         11   -1    0    0    0    0  0.00000000000E+00  0.00000000000E+00  0.39999999674E+01  0.40000000000E+01  0.51100000000E-03 0. -1.
    9000002   -1    0    0    0    0 -0.00000000000E+00 -0.00000000000E+00  0.00000000000E+00  0.93800000000E+00  0.93800000000E+00 0. -1.
         11    1    1    2    0    0  0.27665598408E+00 -0.11661559199E-01  0.87599280133E+00  0.91871550253E+00  0.51100000000E-03 0. -1.
    9000002    1    1    2    0    0 -0.39865149202E+00  0.31830134215E+00  0.21194074057E+00  0.10885778034E+01  0.93800000000E+00 0. -1.
         22    1    1    2    0    0  0.12199550794E+00 -0.30663978296E+00  0.29120664255E+01  0.29307066941E+01  0.00000000000E+00 0. -1.
</event>
<event>
 5    1  0.1461556E+002  0.1599332E+01  0.7818608E-02  0.3354088E+00
         11   -1    0    0    0    0  0.00000000000E+00  0.00000000000E+00  0.39999999674E+01  0.40000000000E+01  0.51100000000E-03 0.  1.
    9000002   -1    0    0    0    0 -0.00000000000E+00 -0.00000000000E+00  0.00000000000E+00  0.93800000000E+00  0.93800000000E+00 0.  1.
         11    1    1    2    0    0  0.12196537885E+00 -0.29776615695E+00  0.23121868804E+01  0.23344696761E+01  0.51100000000E-03 0.  1.
    9000002    1    1    2    0    0 -0.16874140562E+00  0.50630567676E+00  0.19644853915E+00  0.10969298650E+01  0.93800000000E+00 0.  1.
         22    1    1    2    0    0  0.46776026765E-01 -0.20853951981E+00  0.14913645478E+01  0.15066004588E+01  0.00000000000E+00 0.  1.
</event>
<event>
 5    1  0.1461556E+002  0.1599671E+01  0.7818608E-02  0.3353721E+00
         11   -1    0    0    0    0  0.00000000000E+00  0.00000000000E+00  0.39999999674E+01  0.40000000000E+01  0.51100000000E-03 0. -1.
    9000002   -1    0    0    0    0 -0.00000000000E+00 -0.00000000000E+00  0.00000000000E+00  0.93800000000E+00  0.93800000000E+00 0. -1.
         11    1    1    2    0    0  0.22513261254E-01  0.10111941486E+00  0.57628620640E+00  0.58552372779E+00  0.51100000000E-03 0. -1.
    9000002    1    1    2    0    0 -0.13828518203E+00 -0.63652718194E+00  0.29950523007E+00  0.11806087530E+01  0.93800000000E+00 0. -1.
         22    1    1    2    0    0  0.11577192078E+00  0.53540776708E+00  0.31242085309E+01  0.31718675192E+01  0.00000000000E+00 0. -1.
</event>
<event>
 5    1  0.1461556E+002  0.1599406E+01  0.7818608E-02  0.3354008E+00
         11   -1    0    0    0    0  0.00000000000E+00  0.00000000000E+00  0.39999999674E+01  0.40000000000E+01  0.51100000000E-03 0.  1.
    9000002   -1    0    0    0    0 -0.00000000000E+00 -0.00000000000E+00  0.00000000000E+00  0.93800000000E+00  0.93800000000E+00 0. -1.
         11    1    1    2    0    0  0.42588796138E-02 -0.75309660177E-03  0.23592144806E-01  0.23990740456E-01  0.51100000000E-03 0.  1.
    9000002    1    1    2    0    0 -0.20713789170E+00  0.14336730314E+00  0.42369297913E-01  0.97216225353E+00  0.93800000000E+00 0. -1.
         22    1    1    2    0    0  0.20287901208E+00 -0.14261420654E+00  0.39340385246E+01  0.39418470060E+01  0.00000000000E+00 0.  1.
</event>
<event>
 5    1  0.1461556E+002  0.1599346E+01  0.7818608E-02  0.3354074E+00
         11   -1    0    0    0    0  0.00000000000E+00  0.00000000000E+00  0.39999999674E+01  0.40000000000E+01  0.51100000000E-03 0. -1.
    9000002   -1    0    0    0    0 -0.00000000000E+00 -0.00000000000E+00  0.00000000000E+00  0.93800000000E+00  0.93800000000E+00 0.  1.
         11    1    1    2    0    0  0.81505100863E-01  0.18208840814E+00  0.19163939088E+01  0.19267498916E+01  0.51100000000E-03 0. -1.
    9000002    1    1    2    0    0 -0.20833713122E+00 -0.37664539915E+00  0.12575842402E+00  0.10396755735E+01  0.93800000000E+00 0.  1.
         22    1    1    2    0    0  0.12683203036E+00  0.19455699101E+00  0.19578476345E+01  0.19715745349E+01  0.00000000000E+00 0. -1.
</event>
<event>
 5    1  0.1461556E+002  0.1582557E+01  0.7818608E-02  0.3372516E+00
         11   -1    0    0    0    0  0.00000000000E+00  0.00000000000E+00  0.39999999674E+01  0.40000000000E+01  0.51100000000E-03 0. -1.
    9000002   -1    0    0    0    0 -0.00000000000E+00 -0.00000000000E+00  0.00000000000E+00  0.93800000000E+00  0.93800000000E+00 0. -1.
         11    1    1    2    0    0 -0.44220067502E-01 -0.13026200862E-01  0.90784109494E-01  0.10181901559E+00  0.51100000000E-03 0. -1.
    9000002    1    1    2    0    0 -0.17975530606E-01 -0.24382271737E+00  0.52857734389E-01  0.97077833582E+00  0.93800000000E+00 0. -1.
         22    1    1    2    0    0  0.62195598108E-01  0.25684891823E+00  0.38563581235E+01  0.38654026486E+01  0.00000000000E+00 0. -1.
</event>
<event>
 5    1  0.1461556E+002  0.1599674E+01  0.7818608E-02  0.3353717E+00
         11   -1    0    0    0    0  0.00000000000E+00  0.00000000000E+00  0.39999999674E+01  0.40000000000E+01  0.51100000000E-03 0. -1.
    9000002   -1    0    0    0    0 -0.00000000000E+00 -0.00000000000E+00  0.00000000000E+00  0.93800000000E+00  0.93800000000E+00 0. -1.
         11    1    1    2    0    0 -0.34625287675E-01  0.52465563002E-01  0.94448997603E+00  0.94657969648E+00  0.51100000000E-03 0. -1.
    9000002    1    1    2    0    0  0.14300940609E+00 -0.22681445954E+00  0.47831465783E-01  0.97674374245E+00  0.93800000000E+00 0. -1.
         22    1    1    2    0    0 -0.10838411842E+00  0.17434889654E+00  0.30076785255E+01  0.30146765611E+01  0.00000000000E+00 0. -1.
</event>
<event>
 5    1  0.1461556E+002  0.1597219E+01  0.7818608E-02  0.3356388E+00
         11   -1    0    0    0    0  0.00000000000E+00  0.00000000000E+00  0.39999999674E+01  0.40000000000E+01  0.51100000000E-03 0.  1.
    9000002   -1    0    0    0    0 -0.00000000000E+00 -0.00000000000E+00  0.00000000000E+00  0.93800000000E+00  0.93800000000E+00 0. -1.
         11    1    1    2    0    0 -0.98543143419E-01 -0.90414366716E-01  0.10494179327E+01  0.10579053679E+01  0.51100000000E-03 0.  1.
    9000002    1    1    2    0    0  0.50444520217E+00  0.20291483571E+00  0.20626659488E+00  0.11036436475E+01  0.93800000000E+00 0. -1.
         22    1    1    2    0    0 -0.40590205875E+00 -0.11250046899E+00  0.27443154398E+01  0.27764509846E+01  0.00000000000E+00 0.  1.
</event>
<event>
 5    1  0.1461556E+002  0.1599622E+01  0.7818608E-02  0.3353774E+00
         11   -1    0    0    0    0  0.00000000000E+00  0.00000000000E+00  0.39999999674E+01  0.40000000000E+01  0.51100000000E-03 0. -1.
    9000002   -1    0    0    0    0 -0.00000000000E+00 -0.00000000000E+00  0.00000000000E+00  0.93800000000E+00  0.93800000000E+00 0. -1.
         11    1    1    2    0    0  0.90134758076E-01  0.49048955470E+00  0.20794399464E+01  0.21384047862E+01  0.51100000000E-03 0. -1.
    9000002    1    1    2    0    0 -0.16124820550E+00 -0.82799147751E+00  0.53245132563E+00  0.13692769204E+01  0.93800000000E+00 0. -1.
         22    1    1    2    0    0  0.71113447424E-01  0.33750192281E+00  0.13881086953E+01  0.14303182934E+01  0.00000000000E+00 0. -1.
</event>
<event>
 5    1  0.1461556E+002  0.1599397E+01  0.7818608E-02  0.3354018E+00
         11   -1    0    0    0    0  0.00000000000E+00  0.00000000000E+00  0.39999999674E+01  0.40000000000E+01  0.51100000000E-03 0.  1.
    9000002   -1    0    0    0    0 -0.00000000000E+00 -0.00000000000E+00  0.00000000000E+00  0.93800000000E+00  0.93800000000E+00 0. -1.
         11    1    1    2    0    0 -0.23589259866E-01 -0.18734957159E-01  0.27770580435E+00  0.27933533019E+00  0.51100000000E-03 0.  1.
    9000002    1    1    2    0    0  0.23332442859E+00  0.36982169846E+00  0.12986560105E+00  0.10430328144E+01  0.93800000000E+00 0. -1.
         22    1    1    2    0    0 -0.20973516872E+00 -0.35108674130E+00  0.35924285620E+01  0.36156318554E+01  0.00000000000E+00 0.  1.
</event>
<event>
 5    1  0.1461556E+002  0.1599677E+01  0.7818608E-02  0.3353714E+00
         11   -1    0    0    0    0  0.00000000000E+00  0.00000000000E+00  0.39999999674E+01  0.40000000000E+01  0.51100000000E-03 0.  1.
    9000002   -1    0    0    0    0 -0.00000000000E+00 -0.00000000000E+00  0.00000000000E+00  0.93800000000E+00  0.93800000000E+00 0.  1.
         11    1    1    2    0    0  0.87077289031E-01  0.54986500762E-01  0.13330929992E+01  0.13370651350E+01  0.51100000000E-03 0.  1.
    9000002    1    1    2    0    0 -0.25803994839E+00 -0.16414235349E+00  0.62427649161E-01  0.98856893465E+00  0.93800000000E+00 0.  1.
         22    1    1    2    0    0  0.17096265936E+00  0.10915585273E+00  0.26044793190E+01  0.26123659304E+01  0.00000000000E+00 0. -1.
</event>
<event>
 5    1  0.1461556E+002  0.1599669E+01  0.7818608E-02  0.3353723E+00
         11   -1    0    0    0    0  0.00000000000E+00  0.00000000000E+00  0.39999999674E+01  0.40000000000E+01  0.51100000000E-03 0.  1.
    9000002   -1    0    0    0    0 -0.00000000000E+00 -0.00000000000E+00  0.00000000000E+00  0.93800000000E+00  0.93800000000E+00 0. -1.
         11    1    1    2    0    0 -0.12599426444E-01 -0.17564417782E-01  0.29884753363E+00  0.29962870990E+00  0.51100000000E-03 0.  1.
    9000002    1    1    2    0    0  0.17757203321E+00  0.21204115516E+00  0.50929209934E-01  0.97925025549E+00  0.93800000000E+00 0. -1.
         22    1    1    2    0    0 -0.16497260676E+00 -0.19447673737E+00  0.36502232238E+01  0.36591210346E+01  0.00000000000E+00 0.  1.
</event>
<event>
 5    1  0.1461556E+002  0.1599670E+01  0.7818608E-02  0.3353721E+00
         11   -1    0    0    0    0  0.00000000000E+00  0.00000000000E+00  0.39999999674E+01  0.40000000000E+01  0.51100000000E-03 0.  1.
    9000002   -1    0    0    0    0 -0.00000000000E+00 -0.00000000000E+00  0.00000000000E+00  0.93800000000E+00  0.93800000000E+00 0. -1.
         11    1    1    2    0    0  0.28023855231E+00 -0.40141763783E+00  0.23025949370E+01  0.23540631834E+01  0.51100000000E-03 0.  1.
    9000002    1    1    2    0    0 -0.43408383913E+00  0.62791406877E+00  0.42416125641E+00  0.12815855916E+01  0.93800000000E+00 0. -1.
         22    1    1    2    0    0  0.15384528682E+00 -0.22649643094E+00  0.12732437739E+01  0.13023512250E+01  0.00000000000E+00 0.  1.
</event>
<event>
 5    1  0.1461556E+002  0.1599677E+01  0.7818608E-02  0.3353714E+00
         11   -1    0    0    0    0  0.00000000000E+00  0.00000000000E+00  0.39999999674E+01  0.40000000000E+01  0.51100000000E-03 0. -1.
    9000002   -1    0    0    0    0 -0.00000000000E+00 -0.00000000000E+00  0.00000000000E+00  0.93800000000E+00  0.93800000000E+00 0.  1.
         11    1    1    2    0    0 -0.43581216350E-01  0.90560723755E-01  0.13139625150E+01  0.13178005612E+01  0.51100000000E-03 0. -1.
    9000002    1    1    2    0    0  0.12870510045E+00 -0.27201670678E+00  0.60417909912E-01  0.98694093820E+00  0.93800000000E+00 0.  1.
         22    1    1    2    0    0 -0.85123884099E-01  0.18145598302E+00  0.26256195425E+01  0.26332585006E+01  0.00000000000E+00 0. -1.
</event>
<event>
 5    1  0.1461556E+002  0.1550759E+01  0.7818608E-02  0.3408605E+00
         11   -1    0    0    0    0  0.00000000000E+00  0.00000000000E+00  0.39999999674E+01  0.40000000000E+01  0.51100000000E-03 0.  1.
    9000002   -1    0    0    0    0 -0.00000000000E+00 -0.00000000000E+00  0.00000000000E+00  0.93800000000E+00  0.93800000000E+00 0.  1.
         11    1    1    2    0    0  0.23668298513E+00 -0.42794445322E-01  0.17383655287E+01  0.17549259735E+01  0.51100000000E-03 0.  1.
    9000002    1    1    2    0    0  0.14915345193E-01 -0.13708616978E+00  0.49446994050E-01  0.94937036539E+00  0.93800000000E+00 0.  1.
         22    1    1    2    0    0 -0.25159833033E+00  0.17988061510E+00  0.22121874446E+01  0.22337036611E+01  0.00000000000E+00 0.  1.
</event>
<event>
 5    1  0.1461556E+002  0.1573331E+01  0.7818608E-02  0.3382828E+00
         11   -1    0    0    0    0  0.00000000000E+00  0.00000000000E+00  0.39999999674E+01  0.40000000000E+01  0.51100000000E-03 0. -1.
    9000002   -1    0    0    0    0 -0.00000000000E+00 -0.00000000000E+00  0.00000000000E+00  0.93800000000E+00  0.93800000000E+00 0.  1.
         11    1    1    2    0    0 -0.50996106615E-01  0.13441395104E+00  0.19465994980E+01  0.19519010169E+01  0.51100000000E-03 0. -1.
    9000002    1    1    2    0    0  0.35823158450E-01  0.11836472956E+00  0.29665787306E-01  0.94658204442E+00  0.93800000000E+00 0.  1.
         22    1    1    2    0    0  0.15172948165E-01 -0.25277868060E+00  0.20237346820E+01  0.20395169386E+01  0.00000000000E+00 0. -1.
</event>
<event>
 5    1  0.1461556E+002  0.1569805E+01  0.7818608E-02  0.3386803E+00
         11   -1    0    0    0    0  0.00000000000E+00  0.00000000000E+00  0.39999999674E+01  0.40000000000E+01  0.51100000000E-03 0.  1.
    9000002   -1    0    0    0    0 -0.00000000000E+00 -0.00000000000E+00  0.00000000000E+00  0.93800000000E+00  0.93800000000E+00 0.  1.
         11    1    1    2    0    0  0.20504420709E+00 -0.38833185678E-01  0.16387342117E+01  0.16519688922E+01  0.51100000000E-03 0.  1.
    9000002    1    1    2    0    0 -0.34767682093E-01 -0.86819427804E-01  0.27873794487E-01  0.94306275145E+00  0.93800000000E+00 0.  1.
         22    1    1    2    0    0 -0.17027652500E+00  0.12565261348E+00  0.23333919612E+01  0.23429683563E+01  0.00000000000E+00 0.  1.
</event>
<event>
 5    1  0.1461556E+002  0.1599665E+01  0.7818608E-02  0.3353727E+00
         11   -1    0    0    0    0  0.00000000000E+00  0.00000000000E+00  0.39999999674E+01  0.40000000000E+01  0.51100000000E-03 0.  1.
    9000002   -1    0    0    0    0 -0.00000000000E+00 -0.00000000000E+00  0.00000000000E+00  0.93800000000E+00  0.93800000000E+00 0.  1.
         11    1    1    2    0    0  0.98691768894E-02 -0.32422272450E-01  0.43910718451E+00  0.44041342511E+00  0.51100000000E-03 0.  1.
    9000002    1    1    2    0    0 -0.10607865320E+00  0.27598003929E+00  0.58303247186E-01  0.98522126012E+00  0.93800000000E+00 0.  1.
         22    1    1    2    0    0  0.96209476308E-01 -0.24355776684E+00  0.35025895357E+01  0.35123653148E+01  0.00000000000E+00 0.  1.
</event>
<event>
 5    1  0.1461556E+002  0.1599668E+01  0.7818608E-02  0.3353724E+00
         11   -1    0    0    0    0  0.00000000000E+00  0.00000000000E+00  0.39999999674E+01  0.40000000000E+01  0.51100000000E-03 0.  1.
    9000002   -1    0    0    0    0 -0.00000000000E+00 -0.00000000000E+00  0.00000000000E+00  0.93800000000E+00  0.93800000000E+00 0.  1.
         11    1    1    2    0    0 -0.19975495586E-01 -0.48064928003E-01  0.68657347654E+00  0.68854386755E+00  0.51100000000E-03 0.  1.
    9000002    1    1    2    0    0  0.98795833210E-01  0.27493487061E+00  0.56904192231E-01  0.98408936933E+00  0.93800000000E+00 0.  1.
         22    1    1    2    0    0 -0.78820337623E-01 -0.22686994261E+00  0.32565222986E+01  0.32653667631E+01  0.00000000000E+00 0.  1.
</event>
<event>
 5    1  0.1461556E+002  0.1599294E+01  0.7818608E-02  0.3354130E+00
         11   -1    0    0    0    0  0.00000000000E+00  0.00000000000E+00  0.39999999674E+01  0.40000000000E+01  0.51100000000E-03 0. -1.
    9000002   -1    0    0    0    0 -0.00000000000E+00 -0.00000000000E+00  0.00000000000E+00  0.93800000000E+00  0.93800000000E+00 0.  1.
         11    1    1    2    0    0 -0.52654910031E-02 -0.26926937619E-01  0.38218381293E+00  0.38316773527E+00  0.51100000000E-03 0. -1.
    9000002    1    1    2    0    0 -0.88240401484E-01  0.29510389118E+00  0.63639743100E-01  0.98932638292E+00  0.93800000000E+00 0.  1.
         22    1    1    2    0    0  0.93505892487E-01 -0.26817695356E+00  0.35541764113E+01  0.35655058818E+01  0.00000000000E+00 0. -1.
</event>
<event>
 5    1  0.1461556E+002  0.1592888E+01  0.7818608E-02  0.3361119E+00
         11   -1    0    0    0    0  0.00000000000E+00  0.00000000000E+00  0.39999999674E+01  0.40000000000E+01  0.51100000000E-03 0.  1.
    9000002   -1    0    0    0    0 -0.00000000000E+00 -0.00000000000E+00  0.00000000000E+00  0.93800000000E+00  0.93800000000E+00 0. -1.
         11    1    1    2    0    0 -0.68043329601E-02 -0.30471111179E-01  0.61934237410E+00  0.62012903902E+00  0.51100000000E-03 0.  1.
    9000002    1    1    2    0    0 -0.19259313758E+00 -0.20023267180E+00  0.56662342311E-01  0.97991829279E+00  0.93800000000E+00 0. -1.
         22    1    1    2    0    0  0.19939747054E+00  0.23070378298E+00  0.33239952509E+01  0.33379526682E+01  0.00000000000E+00 0.  1.
</event>
<event>
 5    1  0.1461556E+002  0.1470375E+01  0.7818608E-02  0.3507305E+00
         11   -1    0    0    0    0  0.00000000000E+00  0.00000000000E+00  0.39999999674E+01  0.40000000000E+01  0.51100000000E-03 0.  1.
    9000002   -1    0    0    0    0 -0.00000000000E+00 -0.00000000000E+00  0.00000000000E+00  0.93800000000E+00  0.93800000000E+00 0.  1.
         11    1    1    2    0    0 -0.53465662789E+00 -0.37120448072E-01  0.22180546092E+01  0.22818856562E+01  0.51100000000E-03 0.  1.
    9000002    1    1    2    0    0  0.19204197072E+00  0.16064946531E+00  0.14798349002E+00  0.98205472482E+00  0.93800000000E+00 0.  1.
         22    1    1    2    0    0  0.34261465717E+00 -0.12352901724E+00  0.16339618681E+01  0.16740596190E+01  0.00000000000E+00 0.  1.
</event>
<event>
 5    1  0.1461556E+002  0.1572477E+01  0.7818608E-02  0.3383789E+00
         11   -1    0    0    0    0  0.00000000000E+00  0.00000000000E+00  0.39999999674E+01  0.40000000000E+01  0.51100000000E-03 0.  1.
    9000002   -1    0    0    0    0 -0.00000000000E+00 -0.00000000000E+00  0.00000000000E+00  0.93800000000E+00  0.93800000000E+00 0. -1.
         11    1    1    2    0    0  0.22740633861E-01 -0.42592794899E+00  0.58193513564E+00  0.72151265919E+00  0.51100000000E-03 0.  1.
    9000002    1    1    2    0    0  0.28910281740E+00  0.11595846486E+01  0.14803666209E+01  0.21212134095E+01  0.93800000000E+00 0. -1.
         22    1    1    2    0    0 -0.31184345126E+00 -0.73365669965E+00  0.19376982108E+01  0.20952739313E+01  0.00000000000E+00 0.  1.
</event>
<event>
 5    1  0.1461556E+002  0.1599665E+01  0.7818608E-02  0.3353727E+00
         11   -1    0    0    0    0  0.00000000000E+00  0.00000000000E+00  0.39999999674E+01  0.40000000000E+01  0.51100000000E-03 0. -1.
    9000002   -1    0    0    0    0 -0.00000000000E+00 -0.00000000000E+00  0.00000000000E+00  0.93800000000E+00  0.93800000000E+00 0. -1.
         11    1    1    2    0    0 -0.68850080133E-01  0.69688454971E-01  0.56169494560E+00  0.57017390972E+00  0.51100000000E-03 0. -1.
    9000002    1    1    2    0    0  0.47249670545E+00 -0.45847921473E+00  0.30650187367E+00  0.11862730401E+01  0.93800000000E+00 0. -1.
         22    1    1    2    0    0 -0.40364662532E+00  0.38879075975E+00  0.31318031481E+01  0.31815530502E+01  0.00000000000E+00 0. -1.
</event>
<event>
 5    1  0.1461556E+002  0.1599568E+01  0.7818608E-02  0.3353832E+00
         11   -1    0    0    0    0  0.00000000000E+00  0.00000000000E+00  0.39999999674E+01  0.40000000000E+01  0.51100000000E-03 0. -1.
    9000002   -1    0    0    0    0 -0.00000000000E+00 -0.00000000000E+00  0.00000000000E+00  0.93800000000E+00  0.93800000000E+00 0. -1.
         11    1    1    2    0    0  0.10165887191E-01 -0.29045782503E-02  0.17649466170E+00  0.17681178854E+00  0.51100000000E-03 0. -1.
    9000002    1    1    2    0    0 -0.25350647499E+00 -0.47689450902E-01  0.44312546728E-01  0.97383130900E+00  0.93800000000E+00 0. -1.
         22    1    1    2    0    0  0.24334058780E+00  0.50594029152E-01  0.37791927589E+01  0.37873569025E+01  0.00000000000E+00 0. -1.
</event>
<event>
 5    1  0.1461556E+002  0.1588161E+01  0.7818608E-02  0.3366315E+00
         11   -1    0    0    0    0  0.00000000000E+00  0.00000000000E+00  0.39999999674E+01  0.40000000000E+01  0.51100000000E-03 0.  1.
    9000002   -1    0    0    0    0 -0.00000000000E+00 -0.00000000000E+00  0.00000000000E+00  0.93800000000E+00  0.93800000000E+00 0.  1.
         11    1    1    2    0    0 -0.13689881846E-02 -0.20611015928E-02 -0.38522638129E-02  0.46068781089E-02  0.51100000000E-03 0.  1.
    9000002    1    1    2    0    0 -0.13224192872E+00  0.18367702795E+00  0.42736005422E-01  0.96586517924E+00  0.93800000000E+00 0.  1.
         22    1    1    2    0    0  0.13361091690E+00 -0.18161592636E+00  0.39611162258E+01  0.39675279427E+01  0.00000000000E+00 0.  1.
</event>
<event>
 5    1  0.1461556E+002  0.1599486E+01  0.7818608E-02  0.3353921E+00
         11   -1    0    0    0    0  0.00000000000E+00  0.00000000000E+00  0.39999999674E+01  0.40000000000E+01  0.51100000000E-03 0.  1.
    9000002   -1    0    0    0    0 -0.00000000000E+00 -0.00000000000E+00  0.00000000000E+00  0.93800000000E+00  0.93800000000E+00 0.  1.
         11    1    1    2    0    0  0.83267984879E-01 -0.28669002901E-01  0.85627913423E+00  0.86079596065E+00  0.51100000000E-03 0.  1.
    9000002    1    1    2    0    0 -0.32071565138E+00  0.14999100085E+00  0.84244184561E-01  0.10061296696E+01  0.93800000000E+00 0.  1.
         22    1    1    2    0    0  0.23744766651E+00 -0.12132199795E+00  0.30594766486E+01  0.30710743698E+01  0.00000000000E+00 0.  1.
</event>
<event>
 5    1  0.1461556E+002  0.1599628E+01  0.7818608E-02  0.3353767E+00
         11   -1    0    0    0    0  0.00000000000E+00  0.00000000000E+00  0.39999999674E+01  0.40000000000E+01  0.51100000000E-03 0.  1.
    9000002   -1    0    0    0    0 -0.00000000000E+00 -0.00000000000E+00  0.00000000000E+00  0.93800000000E+00  0.93800000000E+00 0.  1.
         11    1    1    2    0    0  0.32011100724E-03 -0.21218828977E-04  0.15205143323E-01  0.15217109639E-01  0.51100000000E-03 0. -1.
    9000002    1    1    2    0    0 -0.30906640015E+00  0.74519573993E-01  0.67583461520E-01  0.99271684326E+00  0.93800000000E+00 0.  1.
         22    1    1    2    0    0  0.30874628915E+00 -0.74498355164E-01  0.39172113625E+01  0.39300660471E+01  0.00000000000E+00 0.  1.
</event>
<event>
 5    1  0.1461556E+002  0.1596740E+01  0.7818608E-02  0.3356910E+00
         11   -1    0    0    0    0  0.00000000000E+00  0.00000000000E+00  0.39999999674E+01  0.40000000000E+01  0.51100000000E-03 0. -1.
    9000002   -1    0    0    0    0 -0.00000000000E+00 -0.00000000000E+00  0.00000000000E+00  0.93800000000E+00  0.93800000000E+00 0.  1.
         11    1    1    2    0    0 -0.24964967459E-01  0.12938746498E+00  0.14421108810E+01  0.14481189247E+01  0.51100000000E-03 0. -1.
    9000002    1    1    2    0    0  0.21420833043E+00 -0.42678118373E+00  0.15812504521E+00  0.10643659697E+01  0.93800000000E+00 0.  1.
         22    1    1    2    0    0 -0.18924336297E+00  0.29739371875E+00  0.23997640411E+01  0.24255151056E+01  0.00000000000E+00 0. -1.
</event>
<event>
 5    1  0.1461556E+002  0.1599625E+01  0.7818608E-02  0.3353770E+00
         11   -1    0    0    0    0  0.00000000000E+00  0.00000000000E+00  0.39999999674E+01  0.40000000000E+01  0.51100000000E-03 0.  1.
    9000002   -1    0    0    0    0 -0.00000000000E+00 -0.00000000000E+00  0.00000000000E+00  0.93800000000E+00  0.93800000000E+00 0.  1.
         11    1    1    2    0    0 -0.16045118839E+00 -0.42379561120E-01  0.86574721845E+00  0.88150956797E+00  0.51100000000E-03 0.  1.
    9000002    1    1    2    0    0  0.68768633192E+00  0.20517149185E+00  0.36990931764E+00  0.12376125143E+01  0.93800000000E+00 0.  1.
         22    1    1    2    0    0 -0.52723514353E+00 -0.16279193073E+00  0.27643434313E+01  0.28188779178E+01  0.00000000000E+00 0.  1.
</event>
<event>
 5    1  0.1461556E+002  0.1599673E+01  0.7818608E-02  0.3353718E+00
         11   -1    0    0    0    0  0.00000000000E+00  0.00000000000E+00  0.39999999674E+01  0.40000000000E+01  0.51100000000E-03 0. -1.
    9000002   -1    0    0    0    0 -0.00000000000E+00 -0.00000000000E+00  0.00000000000E+00  0.93800000000E+00  0.93800000000E+00 0. -1.
         11    1    1    2    0    0  0.17648486951E-02 -0.17700199004E+00  0.17900699487E+01  0.17988005730E+01  0.51100000000E-03 0. -1.
    9000002    1    1    2    0    0 -0.85550674665E-02  0.38408987259E+00  0.99363606145E-01  0.10184867921E+01  0.93800000000E+00 0. -1.
         22    1    1    2    0    0  0.67902187714E-02 -0.20708788255E+00  0.21105664126E+01  0.21207126349E+01  0.00000000000E+00 0. -1.
</event>
<event>
 5    1  0.1461556E+002  0.1595073E+01  0.7818608E-02  0.3358729E+00
         11   -1    0    0    0    0  0.00000000000E+00  0.00000000000E+00  0.39999999674E+01  0.40000000000E+01  0.51100000000E-03 0.  1.
    9000002   -1    0    0    0    0 -0.00000000000E+00 -0.00000000000E+00  0.00000000000E+00  0.93800000000E+00  0.93800000000E+00 0.  1.
         11    1    1    2    0    0 -0.90808965748E-01  0.33702239204E-01  0.12979010794E+01  0.13015105002E+01  0.51100000000E-03 0.  1.
    9000002    1    1    2    0    0  0.12207478363E+00 -0.27742037335E+00  0.64919849493E-01  0.98788810257E+00  0.93800000000E+00 0.  1.
         22    1    1    2    0    0 -0.31265817883E-01  0.24371813415E+00  0.26371790385E+01  0.26486013972E+01  0.00000000000E+00 0.  1.
</event>
<event>
 5    1  0.1461556E+002  0.1599617E+01  0.7818608E-02  0.3353780E+00
         11   -1    0    0    0    0  0.00000000000E+00  0.00000000000E+00  0.39999999674E+01  0.40000000000E+01  0.51100000000E-03 0. -1.
    9000002   -1    0    0    0    0 -0.00000000000E+00 -0.00000000000E+00  0.00000000000E+00  0.93800000000E+00  0.93800000000E+00 0. -1.
         11    1    1    2    0    0 -0.42858779621E-01 -0.34889449590E-03  0.39909452282E+00  0.40138970588E+00  0.51100000000E-03 0. -1.
    9000002    1    1    2    0    0  0.43407838885E+00 -0.48552710098E-01  0.12937957151E+00  0.10427677051E+01  0.93800000000E+00 0. -1.
         22    1    1    2    0    0 -0.39121960923E+00  0.48901604594E-01  0.34715258730E+01  0.34938425890E+01  0.00000000000E+00 0. -1.
</event>
<event>
 5    1  0.1461556E+002  0.1598765E+01  0.7818608E-02  0.3354705E+00
         11   -1    0    0    0    0  0.00000000000E+00  0.00000000000E+00  0.39999999674E+01  0.40000000000E+01  0.51100000000E-03 0. -1.
    9000002   -1    0    0    0    0 -0.00000000000E+00 -0.00000000000E+00  0.00000000000E+00  0.93800000000E+00  0.93800000000E+00 0. -1.
         11    1    1    2    0    0  0.50102606949E-03 -0.15380449588E-01  0.70679081291E-01  0.72336732784E-01  0.51100000000E-03 0. -1.
    9000002    1    1    2    0    0  0.49523013373E-01  0.31879459355E+00  0.70309829520E-01  0.99441942552E+00  0.93800000000E+00 0. -1.
         22    1    1    2    0    0 -0.50024039442E-01 -0.30341414396E+00  0.38590110565E+01  0.38712438417E+01  0.00000000000E+00 0. -1.
</event>
<event>
 5    1  0.1461556E+002  0.1480031E+01  0.7818608E-02  0.3494838E+00
         11   -1    0    0    0    0  0.00000000000E+00  0.00000000000E+00  0.39999999674E+01  0.40000000000E+01  0.51100000000E-03 0.  1.
    9000002   -1    0    0    0    0 -0.00000000000E+00 -0.00000000000E+00  0.00000000000E+00  0.93800000000E+00  0.93800000000E+00 0.  1.
         11    1    1    2    0    0  0.45785997765E+00 -0.83064200773E-02  0.18780695878E+01  0.19330934777E+01  0.51100000000E-03 0.  1.
    9000002    1    1    2    0    0 -0.10048226786E+00 -0.13782105501E+00  0.11397718830E+00  0.96016984373E+00  0.93800000000E+00 0.  1.
         22    1    1    2    0    0 -0.35737770979E+00  0.14612747509E+00  0.20079531913E+01  0.20447366786E+01  0.00000000000E+00 0.  1.
</event>
<event>
 5    1  0.1461556E+002  0.1598909E+01  0.7818608E-02  0.3354548E+00
         11   -1    0    0    0    0  0.00000000000E+00  0.00000000000E+00  0.39999999674E+01  0.40000000000E+01  0.51100000000E-03 0.  1.
    9000002   -1    0    0    0    0 -0.00000000000E+00 -0.00000000000E+00  0.00000000000E+00  0.93800000000E+00  0.93800000000E+00 0.  1.
         11    1    1    2    0    0  0.42529865736E-04 -0.92286452267E-02  0.73949488848E-01  0.74524879895E-01  0.51100000000E-03 0.  1.
    9000002    1    1    2    0    0  0.24627482719E+00  0.79674025795E-01  0.45126791553E-01  0.97410454686E+00  0.93800000000E+00 0.  1.
         22    1    1    2    0    0 -0.24631735706E+00 -0.70445380568E-01  0.38809236870E+01  0.38893705732E+01  0.00000000000E+00 0.  1.
</event>
<event>
 5    1  0.1461556E+002  0.1599663E+01  0.7818608E-02  0.3353729E+00
         11   -1    0    0    0    0  0.00000000000E+00  0.00000000000E+00  0.39999999674E+01  0.40000000000E+01  0.51100000000E-03 0. -1.
    9000002   -1    0    0    0    0 -0.00000000000E+00 -0.00000000000E+00  0.00000000000E+00  0.93800000000E+00  0.93800000000E+00 0. -1.
         11    1    1    2    0    0  0.57097483115E-01  0.18055103408E-01  0.85440041528E+00  0.85649660834E+00  0.51100000000E-03 0. -1.
    9000002    1    1    2    0    0 -0.27691518288E+00 -0.93845116166E-01  0.57001672682E-01  0.98416569490E+00  0.93800000000E+00 0. -1.
         22    1    1    2    0    0  0.21981769976E+00  0.75790012758E-01  0.30885978794E+01  0.30973376968E+01  0.00000000000E+00 0. -1.
</event>
<event>
 5    1  0.1461556E+002  0.1572340E+01  0.7818608E-02  0.3383943E+00
         11   -1    0    0    0    0  0.00000000000E+00  0.00000000000E+00  0.39999999674E+01  0.40000000000E+01  0.51100000000E-03 0.  1.
    9000002   -1    0    0    0    0 -0.00000000000E+00 -0.00000000000E+00  0.00000000000E+00  0.93800000000E+00  0.93800000000E+00 0.  1.
         11    1    1    2    0    0 -0.67534851558E-01 -0.88096954531E-01  0.28630517914E+01  0.28652029336E+01  0.51100000000E-03 0.  1.
    9000002    1    1    2    0    0  0.19542181104E+00  0.33496983965E+00  0.12419908688E+00  0.10225770831E+01  0.93800000000E+00 0.  1.
         22    1    1    2    0    0 -0.12788695948E+00 -0.24687288511E+00  0.10127490891E+01  0.10502199833E+01  0.00000000000E+00 0.  1.
</event>
<event>
 5    1  0.2106603E+002  0.1569684E+01  0.7818608E-02  0.3386939E+00
         11   -1    0    0    0    0  0.00000000000E+00  0.00000000000E+00  0.39999999674E+01  0.40000000000E+01  0.51100000000E-03 0.  1.
    9000002   -1    0    0    0    0 -0.00000000000E+00 -0.00000000000E+00  0.00000000000E+00  0.93800000000E+00  0.93800000000E+00 0.  1.
         11    1    1    2    0    0  0.13294777393E+00 -0.13462709464E+00  0.19608657156E+01  0.19699731422E+01  0.51100000000E-03 0.  1.
    9000002    1    1    2    0    0  0.63141895819E-01  0.12590983885E-01  0.24840731967E-01  0.94053521670E+00  0.93800000000E+00 0.  1.
         22    1    1    2    0    0 -0.19608966975E+00  0.12203611076E+00  0.20142935198E+01  0.20274916411E+01  0.00000000000E+00 0.  1.
</event>
<event>
 5    1  0.1461556E+002  0.1599675E+01  0.7818608E-02  0.3353716E+00
         11   -1    0    0    0    0  0.00000000000E+00  0.00000000000E+00  0.39999999674E+01  0.40000000000E+01  0.51100000000E-03 0.  1.
    9000002   -1    0    0    0    0 -0.00000000000E+00 -0.00000000000E+00  0.00000000000E+00  0.93800000000E+00  0.93800000000E+00 0.  1.
         11    1    1    2    0    0  0.37243969482E-01  0.67712067206E-01  0.57418265401E+00  0.57936000776E+00  0.51100000000E-03 0.  1.
    9000002    1    1    2    0    0 -0.24085522267E+00 -0.44927684675E+00  0.17818646145E+00  0.10823379040E+01  0.93800000000E+00 0.  1.
         22    1    1    2    0    0  0.20361125318E+00  0.38156477954E+00  0.32476308519E+01  0.32763020883E+01  0.00000000000E+00 0.  1.
</event>
<event>
 5    1  0.1461556E+002  0.1578491E+01  0.7818608E-02  0.3377045E+00
         11   -1    0    0    0    0  0.00000000000E+00  0.00000000000E+00  0.39999999674E+01  0.40000000000E+01  0.51100000000E-03 0.  1.
    9000002   -1    0    0    0    0 -0.00000000000E+00 -0.00000000000E+00  0.00000000000E+00  0.93800000000E+00  0.93800000000E+00 0.  1.
         11    1    1    2    0    0  0.83095415430E-01  0.45979481644E-02  0.21458223753E+00  0.23015600574E+00  0.51100000000E-03 0.  1.
    9000002    1    1    2    0    0 -0.50036134456E-01 -0.20698543986E+00  0.46168437914E-01  0.96297565479E+00  0.93800000000E+00 0.  1.
         22    1    1    2    0    0 -0.33059280974E-01  0.20238749170E+00  0.37392492919E+01  0.37448683395E+01  0.00000000000E+00 0.  1.
</event>
<event>
 5    1  0.1461556E+002  0.1599674E+01  0.7818608E-02  0.3353717E+00
         11   -1    0    0    0    0  0.00000000000E+00  0.00000000000E+00  0.39999999674E+01  0.40000000000E+01  0.51100000000E-03 0. -1.
    9000002   -1    0    0    0    0 -0.00000000000E+00 -0.00000000000E+00  0.00000000000E+00  0.93800000000E+00  0.93800000000E+00 0. -1.
         11    1    1    2    0    0 -0.10607228215E+00  0.10437804138E+00  0.16883583492E+01  0.16949042100E+01  0.51100000000E-03 0. -1.
    9000002    1    1    2    0    0  0.24629890657E+00 -0.24704868291E+00  0.81590636912E-01  0.10040902525E+01  0.93800000000E+00 0. -1.
         22    1    1    2    0    0 -0.14022662442E+00  0.14267064153E+00  0.22300509812E+01  0.22390055375E+01  0.00000000000E+00 0. -1.
</event>
<event>
 5    1  0.1461556E+002  0.1545134E+01  0.7818608E-02  0.3415154E+00
         11   -1    0    0    0    0  0.00000000000E+00  0.00000000000E+00  0.39999999674E+01  0.40000000000E+01  0.51100000000E-03 0. -1.
    9000002   -1    0    0    0    0 -0.00000000000E+00 -0.00000000000E+00  0.00000000000E+00  0.93800000000E+00  0.93800000000E+00 0.  1.
         11    1    1    2    0    0  0.20338303293E+00 -0.20803121452E+00  0.15661443946E+01  0.15929375914E+01  0.51100000000E-03 0. -1.
    9000002    1    1    2    0    0  0.16129086158E+00  0.61940738211E+00  0.34758494144E+00  0.11875771716E+01  0.93800000000E+00 0.  1.
         22    1    1    2    0    0 -0.36467389451E+00 -0.41137616759E+00  0.20862706313E+01  0.21574852370E+01  0.00000000000E+00 0.  1.
</event>
<event>
 5    1  0.1461556E+002  0.1599676E+01  0.7818608E-02  0.3353715E+00
         11   -1    0    0    0    0  0.00000000000E+00  0.00000000000E+00  0.39999999674E+01  0.40000000000E+01  0.51100000000E-03 0. -1.
    9000002   -1    0    0    0    0 -0.00000000000E+00 -0.00000000000E+00  0.00000000000E+00  0.93800000000E+00  0.93800000000E+00 0. -1.
         11    1    1    2    0    0 -0.58289604702E-01  0.11074427904E+00  0.13168987582E+01  0.13228320278E+01  0.51100000000E-03 0. -1.
    9000002    1    1    2    0    0  0.17293554739E+00 -0.32511159857E+00  0.91113503838E-01  0.10118052805E+01  0.93800000000E+00 0. -1.
         22    1    1    2    0    0 -0.11464594269E+00  0.21436731953E+00  0.25919877053E+01  0.26033626917E+01  0.00000000000E+00 0. -1.
</event>
<event>
 5    1  0.1461556E+002  0.1599676E+01  0.7818608E-02  0.3353715E+00
         11   -1    0    0    0    0  0.00000000000E+00  0.00000000000E+00  0.39999999674E+01  0.40000000000E+01  0.51100000000E-03 0.  1.
    9000002   -1    0    0    0    0 -0.00000000000E+00 -0.00000000000E+00  0.00000000000E+00  0.93800000000E+00  0.93800000000E+00 0. -1.
         11    1    1    2    0    0 -0.18075193103E-01  0.89975709801E-01  0.12128412763E+01  0.12163085807E+01  0.51100000000E-03 0.  1.
    9000002    1    1    2    0    0  0.56224156441E-01 -0.29404708640E+00  0.59786906398E-01  0.98642958135E+00  0.93800000000E+00 0. -1.
         22    1    1    2    0    0 -0.38148963338E-01  0.20407137660E+00  0.27273717847E+01  0.27352618380E+01  0.00000000000E+00 0.  1.
</event>
<event>
 5    1  0.1461556E+002  0.1590771E+01  0.7818608E-02  0.3363442E+00
         11   -1    0    0    0    0  0.00000000000E+00  0.00000000000E+00  0.39999999674E+01  0.40000000000E+01  0.51100000000E-03 0. -1.
    9000002   -1    0    0    0    0 -0.00000000000E+00 -0.00000000000E+00  0.00000000000E+00  0.93800000000E+00  0.93800000000E+00 0.  1.
         11    1    1    2    0    0 -0.11648048807E-01  0.53365830150E-01  0.44349289023E+00  0.44684426109E+00  0.51100000000E-03 0. -1.
    9000002    1    1    2    0    0 -0.14614195955E+00  0.11196666832E+00  0.29086228548E-01  0.95633886037E+00  0.93800000000E+00 0.  1.
         22    1    1    2    0    0  0.15779000836E+00 -0.16533249847E+00  0.35274208486E+01  0.35348168785E+01  0.00000000000E+00 0. -1.
</event>
<event>
 5    1  0.1461556E+002  0.1599379E+01  0.7818608E-02  0.3354038E+00
         11   -1    0    0    0    0  0.00000000000E+00  0.00000000000E+00  0.39999999674E+01  0.40000000000E+01  0.51100000000E-03 0. -1.
    9000002   -1    0    0    0    0 -0.00000000000E+00 -0.00000000000E+00  0.00000000000E+00  0.93800000000E+00  0.93800000000E+00 0.  1.
         11    1    1    2    0    0 -0.45746375518E+00  0.24805106309E+00  0.22815465290E+01  0.23401404322E+01  0.51100000000E-03 0. -1.
    9000002    1    1    2    0    0  0.69875314023E+00 -0.35708386645E+00  0.45165844682E+00  0.13036886865E+01  0.93800000000E+00 0.  1.
         22    1    1    2    0    0 -0.24128938505E+00  0.10903280336E+00  0.12667949915E+01  0.12941708813E+01  0.00000000000E+00 0. -1.
</event>
<event>
 5    1  0.1461556E+002  0.1596918E+01  0.7818608E-02  0.3356715E+00
         11   -1    0    0    0    0  0.00000000000E+00  0.00000000000E+00  0.39999999674E+01  0.40000000000E+01  0.51100000000E-03 0. -1.
    9000002   -1    0    0    0    0 -0.00000000000E+00 -0.00000000000E+00  0.00000000000E+00  0.93800000000E+00  0.93800000000E+00 0.  1.
         11    1    1    2    0    0 -0.16905956919E+00 -0.25018509559E-01  0.11819205035E+01  0.11942124608E+01  0.51100000000E-03 0. -1.
    9000002    1    1    2    0    0  0.36567539943E+00  0.74329491705E-01  0.95869109545E-01  0.10140405600E+01  0.93800000000E+00 0.  1.
         22    1    1    2    0    0 -0.19661583024E+00 -0.49310982146E-01  0.27222103543E+01  0.27297469792E+01  0.00000000000E+00 0. -1.
</event>
<event>
 5    1  0.1461556E+002  0.1599296E+01  0.7818608E-02  0.3354128E+00
         11   -1    0    0    0    0  0.00000000000E+00  0.00000000000E+00  0.39999999674E+01  0.40000000000E+01  0.51100000000E-03 0.  1.
    9000002   -1    0    0    0    0 -0.00000000000E+00 -0.00000000000E+00  0.00000000000E+00  0.93800000000E+00  0.93800000000E+00 0. -1.
         11    1    1    2    0    0  0.18635072038E-01 -0.35167599334E-01  0.39243733751E+00  0.39445069520E+00  0.51100000000E-03 0.  1.
    9000002    1    1    2    0    0 -0.56261162284E-01  0.29891451802E+00  0.62041345809E-01  0.98803255819E+00  0.93800000000E+00 0. -1.
         22    1    1    2    0    0  0.37626090246E-01 -0.26374691868E+00  0.35455212840E+01  0.35555167466E+01  0.00000000000E+00 0.  1.
</event>
<event>
 5    1  0.1461556E+002  0.1599669E+01  0.7818608E-02  0.3353723E+00
         11   -1    0    0    0    0  0.00000000000E+00  0.00000000000E+00  0.39999999674E+01  0.40000000000E+01  0.51100000000E-03 0.  1.
    9000002   -1    0    0    0    0 -0.00000000000E+00 -0.00000000000E+00  0.00000000000E+00  0.93800000000E+00  0.93800000000E+00 0.  1.
         11    1    1    2    0    0  0.21813697338E-01 -0.27848587215E-01  0.61271766720E+00  0.61373820316E+00  0.51100000000E-03 0.  1.
    9000002    1    1    2    0    0 -0.15253087730E+00  0.19131360400E+00  0.39759142544E-01  0.97020170739E+00  0.93800000000E+00 0.  1.
         22    1    1    2    0    0  0.13071717996E+00 -0.16346501679E+00  0.33475231576E+01  0.33540600894E+01  0.00000000000E+00 0.  1.
</event>
<event>
 5    1  0.1461556E+002  0.1599650E+01  0.7818608E-02  0.3353744E+00
         11   -1    0    0    0    0  0.00000000000E+00  0.00000000000E+00  0.39999999674E+01  0.40000000000E+01  0.51100000000E-03 0. -1.
    9000002   -1    0    0    0    0 -0.00000000000E+00 -0.00000000000E+00  0.00000000000E+00  0.93800000000E+00  0.93800000000E+00 0.  1.
         11    1    1    2    0    0 -0.33959049679E-03 -0.16468054633E-01  0.24663260927E+00  0.24718255849E+00  0.51100000000E-03 0. -1.
    9000002    1    1    2    0    0  0.48808105592E-01  0.24302323307E+00  0.40829954032E-01  0.97105798392E+00  0.93800000000E+00 0.  1.
         22    1    1    2    0    0 -0.48468515095E-01 -0.22655517843E+00  0.37125374041E+01  0.37197594576E+01  0.00000000000E+00 0. -1.
</event>
<event>
 5    1  0.1461556E+002  0.1597742E+01  0.7818608E-02  0.3355818E+00
         11   -1    0    0    0    0  0.00000000000E+00  0.00000000000E+00  0.39999999674E+01  0.40000000000E+01  0.51100000000E-03 0.  1.
    9000002   -1    0    0    0    0 -0.00000000000E+00 -0.00000000000E+00  0.00000000000E+00  0.93800000000E+00  0.93800000000E+00 0.  1.
         11    1    1    2    0    0  0.52533950653E-01 -0.21185859989E-02  0.14424536138E+01  0.14434115815E+01  0.51100000000E-03 0.  1.
    9000002    1    1    2    0    0 -0.22524402200E+00  0.11971942226E+00  0.44724120442E-01  0.97309396076E+00  0.93800000000E+00 0.  1.
         22    1    1    2    0    0  0.17271007134E+00 -0.11760083626E+00  0.25128222331E+01  0.25214944578E+01  0.00000000000E+00 0.  1.
</event>
<event>
 5    1  0.1461556E+002  0.1599676E+01  0.7818608E-02  0.3353716E+00
         11   -1    0    0    0    0  0.00000000000E+00  0.00000000000E+00  0.39999999674E+01  0.40000000000E+01  0.51100000000E-03 0. -1.
    9000002   -1    0    0    0    0 -0.00000000000E+00 -0.00000000000E+00  0.00000000000E+00  0.93800000000E+00  0.93800000000E+00 0. -1.
         11    1    1    2    0    0 -0.12969364094E+00 -0.29656278418E+00  0.17964448268E+01  0.18253723462E+01  0.51100000000E-03 0. -1.
    9000002    1    1    2    0    0  0.26852856914E+00  0.60695990010E+00  0.31188564270E+00  0.11906404020E+01  0.93800000000E+00 0. -1.
         22    1    1    2    0    0 -0.13883492820E+00 -0.31039711592E+00  0.18916694979E+01  0.19219872518E+01  0.00000000000E+00 0. -1.
</event>
<event>
 5    1  0.1461556E+002  0.1597973E+01  0.7818608E-02  0.3355566E+00
         11   -1    0    0    0    0  0.00000000000E+00  0.00000000000E+00  0.39999999674E+01  0.40000000000E+01  0.51100000000E-03 0. -1.
    9000002   -1    0    0    0    0 -0.00000000000E+00 -0.00000000000E+00  0.00000000000E+00  0.93800000000E+00  0.93800000000E+00 0. -1.
         11    1    1    2    0    0  0.11428960804E+00  0.25709329291E+00  0.16958552905E+01  0.17190359226E+01  0.51100000000E-03 0. -1.
    9000002    1    1    2    0    0 -0.18138271369E+00 -0.64313623912E+00  0.31833439088E+00  0.11948659738E+01  0.93800000000E+00 0. -1.
         22    1    1    2    0    0  0.67093105657E-01  0.38604294621E+00  0.19858102860E+01  0.20240981036E+01  0.00000000000E+00 0. -1.
</event>
<event>
 5    1  0.1461556E+002  0.1599664E+01  0.7818608E-02  0.3353728E+00
         11   -1    0    0    0    0  0.00000000000E+00  0.00000000000E+00  0.39999999674E+01  0.40000000000E+01  0.51100000000E-03 0.  1.
    9000002   -1    0    0    0    0 -0.00000000000E+00 -0.00000000000E+00  0.00000000000E+00  0.93800000000E+00  0.93800000000E+00 0.  1.
         11    1    1    2    0    0  0.13284223253E-02 -0.77972004730E-04  0.14014201972E-01  0.14086509980E-01  0.51100000000E-03 0. -1.
    9000002    1    1    2    0    0 -0.35988594051E+00  0.28220454586E-03  0.86949766272E-01  0.10084256203E+01  0.93800000000E+00 0.  1.
         22    1    1    2    0    0  0.35855751818E+00 -0.20423254113E-03  0.38990359991E+01  0.39154878697E+01  0.00000000000E+00 0.  1.
</event>
<event>
 5    1  0.1461556E+002  0.1599395E+01  0.7818608E-02  0.3354020E+00
         11   -1    0    0    0    0  0.00000000000E+00  0.00000000000E+00  0.39999999674E+01  0.40000000000E+01  0.51100000000E-03 0.  1.
    9000002   -1    0    0    0    0 -0.00000000000E+00 -0.00000000000E+00  0.00000000000E+00  0.93800000000E+00  0.93800000000E+00 0.  1.
         11    1    1    2    0    0  0.81576749788E-03  0.10239090412E-02  0.12906833336E-01  0.12983117272E-01  0.51100000000E-03 0.  1.
    9000002    1    1    2    0    0  0.18691681587E+00  0.21948358166E+00  0.55604702824E-01  0.98287680899E+00  0.93800000000E+00 0.  1.
         22    1    1    2    0    0 -0.18773258337E+00 -0.22050749070E+00  0.39314884312E+01  0.39421400737E+01  0.00000000000E+00 0.  1.
</event>
<event>
 5    1  0.1461556E+002  0.1460350E+01  0.7818608E-02  0.3520439E+00
         11   -1    0    0    0    0  0.00000000000E+00  0.00000000000E+00  0.39999999674E+01  0.40000000000E+01  0.51100000000E-03 0. -1.
    9000002   -1    0    0    0    0 -0.00000000000E+00 -0.00000000000E+00  0.00000000000E+00  0.93800000000E+00  0.93800000000E+00 0. -1.
         11    1    1    2    0    0 -0.27184302917E+00 -0.12478358721E+00  0.46679576159E+00  0.55440790066E+00  0.51100000000E-03 0. -1.
    9000002    1    1    2    0    0  0.28571755890E-01 -0.10704836762E+00  0.11796388216E+00  0.95185880032E+00  0.93800000000E+00 0. -1.
         22    1    1    2    0    0  0.24327127328E+00  0.23183195483E+00  0.34152403236E+01  0.34317332990E+01  0.00000000000E+00 0. -1.
</event>
<event>
 5    1  0.1461556E+002  0.1599067E+01  0.7818608E-02  0.3354377E+00
         11   -1    0    0    0    0  0.00000000000E+00  0.00000000000E+00  0.39999999674E+01  0.40000000000E+01  0.51100000000E-03 0. -1.
    9000002   -1    0    0    0    0 -0.00000000000E+00 -0.00000000000E+00  0.00000000000E+00  0.93800000000E+00  0.93800000000E+00 0. -1.
         11    1    1    2    0    0 -0.44560556551E-01  0.43820255226E-02  0.66701736004E+00  0.66851870959E+00  0.51100000000E-03 0. -1.
    9000002    1    1    2    0    0  0.35142076303E+00  0.69965739903E-01  0.86661868906E-01  0.10078422679E+01  0.93800000000E+00 0. -1.
         22    1    1    2    0    0 -0.30686020647E+00 -0.74347765426E-01  0.32463207384E+01  0.32616390225E+01  0.00000000000E+00 0. -1.
</event>
<event>
 5    1  0.1461556E+002  0.1599115E+01  0.7818608E-02  0.3354325E+00
         11   -1    0    0    0    0  0.00000000000E+00  0.00000000000E+00  0.39999999674E+01  0.40000000000E+01  0.51100000000E-03 0. -1.
    9000002   -1    0    0    0    0 -0.00000000000E+00 -0.00000000000E+00  0.00000000000E+00  0.93800000000E+00  0.93800000000E+00 0.  1.
         11    1    1    2    0    0 -0.19048126665E-01  0.40974343345E-01  0.32630984884E+00  0.32942390094E+00  0.51100000000E-03 0. -1.
    9000002    1    1    2    0    0  0.93142180314E-01 -0.35709519358E+00  0.91974410806E-01  0.10121737673E+01  0.93800000000E+00 0.  1.
         22    1    1    2    0    0 -0.74094053650E-01  0.31612085024E+00  0.35817157077E+01  0.35964023317E+01  0.00000000000E+00 0. -1.
</event>
<event>
 5    1  0.1461556E+002  0.1598695E+01  0.7818608E-02  0.3354781E+00
         11   -1    0    0    0    0  0.00000000000E+00  0.00000000000E+00  0.39999999674E+01  0.40000000000E+01  0.51100000000E-03 0. -1.
    9000002   -1    0    0    0    0 -0.00000000000E+00 -0.00000000000E+00  0.00000000000E+00  0.93800000000E+00  0.93800000000E+00 0. -1.
         11    1    1    2    0    0 -0.28146438611E-01 -0.22061185493E-01  0.10111186292E+01  0.10117509878E+01  0.51100000000E-03 0. -1.
    9000002    1    1    2    0    0  0.23774680603E+00  0.67896829169E-01  0.41351738653E-01  0.97092094914E+00  0.93800000000E+00 0. -1.
         22    1    1    2    0    0 -0.20960036742E+00 -0.45835643676E-01  0.29475295995E+01  0.29553280631E+01  0.00000000000E+00 0. -1.
</event>
<event>
 5    1  0.1461556E+002  0.1579655E+01  0.7818608E-02  0.3375745E+00
         11   -1    0    0    0    0  0.00000000000E+00  0.00000000000E+00  0.39999999674E+01  0.40000000000E+01  0.51100000000E-03 0. -1.
    9000002   -1    0    0    0    0 -0.00000000000E+00 -0.00000000000E+00  0.00000000000E+00  0.93800000000E+00  0.93800000000E+00 0.  1.
         11    1    1    2    0    0 -0.54264096802E-01  0.25785479593E-01  0.24864398444E+01  0.24871656245E+01  0.51100000000E-03 0. -1.
    9000002    1    1    2    0    0 -0.16108327625E+00  0.48140961239E-01  0.33680869964E-01  0.95354274945E+00  0.93800000000E+00 0.  1.
         22    1    1    2    0    0  0.21534737305E+00 -0.73926440832E-01  0.14798792530E+01  0.14972916260E+01  0.00000000000E+00 0. -1.
</event>
<event>
 5    1  0.1461556E+002  0.1599634E+01  0.7818608E-02  0.3353760E+00
         11   -1    0    0    0    0  0.00000000000E+00  0.00000000000E+00  0.39999999674E+01  0.40000000000E+01  0.51100000000E-03 0. -1.
    9000002   -1    0    0    0    0 -0.00000000000E+00 -0.00000000000E+00  0.00000000000E+00  0.93800000000E+00  0.93800000000E+00 0. -1.
         11    1    1    2    0    0  0.98040523286E-01 -0.75580914771E-01  0.47964127336E+00  0.49535889122E+00  0.51100000000E-03 0. -1.
    9000002    1    1    2    0    0 -0.72910127522E+00  0.53311375479E+00  0.62536856511E+00  0.14445514139E+01  0.93800000000E+00 0. -1.
         22    1    1    2    0    0  0.63106075194E+00 -0.45753284002E+00  0.28949901289E+01  0.29980896949E+01  0.00000000000E+00 0. -1.
</event>
<event>
 5    1  0.1461556E+002  0.1525167E+01  0.7818608E-02  0.3438817E+00
         11   -1    0    0    0    0  0.00000000000E+00  0.00000000000E+00  0.39999999674E+01  0.40000000000E+01  0.51100000000E-03 0. -1.
    9000002   -1    0    0    0    0 -0.00000000000E+00 -0.00000000000E+00  0.00000000000E+00  0.93800000000E+00  0.93800000000E+00 0. -1.
         11    1    1    2    0    0 -0.55160216127E-01 -0.26818194060E-01  0.56738599093E-02  0.61598042039E-01  0.51100000000E-03 0. -1.
    9000002    1    1    2    0    0 -0.24618161642E-02  0.24103174747E+00  0.97616507574E-01  0.97338345290E+00  0.93800000000E+00 0. -1.
         22    1    1    2    0    0  0.57622032291E-01 -0.21421355341E+00  0.38967095999E+01  0.39030185051E+01  0.00000000000E+00 0. -1.
</event>
<event>
 5    1  0.1461556E+002  0.1584817E+01  0.7818608E-02  0.3370009E+00
         11   -1    0    0    0    0  0.00000000000E+00  0.00000000000E+00  0.39999999674E+01  0.40000000000E+01  0.51100000000E-03 0. -1.
    9000002   -1    0    0    0    0 -0.00000000000E+00 -0.00000000000E+00  0.00000000000E+00  0.93800000000E+00  0.93800000000E+00 0.  1.
         11    1    1    2    0    0 -0.13841641693E-01 -0.91486027214E-01  0.56277967939E+00  0.57033543891E+00  0.51100000000E-03 0. -1.
    9000002    1    1    2    0    0 -0.24681449638E+00  0.89211080934E-02  0.51938639882E-01  0.97135915299E+00  0.93800000000E+00 0.  1.
         22    1    1    2    0    0  0.26065613807E+00  0.82564919120E-01  0.33852816481E+01  0.33963054081E+01  0.00000000000E+00 0. -1.
</event>
<event>
 5    1  0.1461556E+002  0.1578457E+01  0.7818608E-02  0.3377082E+00
         11   -1    0    0    0    0  0.00000000000E+00  0.00000000000E+00  0.39999999674E+01  0.40000000000E+01  0.51100000000E-03 0. -1.
    9000002   -1    0    0    0    0 -0.00000000000E+00 -0.00000000000E+00  0.00000000000E+00  0.93800000000E+00  0.93800000000E+00 0. -1.
         11    1    1    2    0    0 -0.69285297678E-01  0.37134206056E-01  0.24332696922E+00  0.25571014216E+00  0.51100000000E-03 0. -1.
    9000002    1    1    2    0    0 -0.24413909811E+00 -0.36677138320E+00  0.15009016837E+00  0.10471371474E+01  0.93800000000E+00 0. -1.
         22    1    1    2    0    0  0.31342439579E+00  0.32963717714E+00  0.36065828298E+01  0.36351527105E+01  0.00000000000E+00 0. -1.
</event>
<event>
 5    1  0.1461556E+002  0.1586638E+01  0.7818608E-02  0.3367995E+00
         11   -1    0    0    0    0  0.00000000000E+00  0.00000000000E+00  0.39999999674E+01  0.40000000000E+01  0.51100000000E-03 0. -1.
    9000002   -1    0    0    0    0 -0.00000000000E+00 -0.00000000000E+00  0.00000000000E+00  0.93800000000E+00  0.93800000000E+00 0. -1.
         11    1    1    2    0    0 -0.20445166767E-01  0.20921997693E+00  0.17628432664E+01  0.17753331086E+01  0.51100000000E-03 0. -1.
    9000002    1    1    2    0    0 -0.22618703378E+00 -0.32951001655E+00  0.11866851408E+00  0.10264811939E+01  0.93800000000E+00 0. -1.
         22    1    1    2    0    0  0.24663220055E+00  0.12029003963E+00  0.21184881869E+01  0.21361856974E+01  0.00000000000E+00 0. -1.
</event>
<event>
 5    1  0.1574965E+002  0.1565602E+01  0.7818608E-02  0.3391565E+00
         11   -1    0    0    0    0  0.00000000000E+00  0.00000000000E+00  0.39999999674E+01  0.40000000000E+01  0.51100000000E-03 0. -1.
    9000002   -1    0    0    0    0 -0.00000000000E+00 -0.00000000000E+00  0.00000000000E+00  0.93800000000E+00  0.93800000000E+00 0. -1.
         11    1    1    2    0    0  0.16451967340E+00  0.62509659290E-02  0.84116567335E+00  0.85712644846E+00  0.51100000000E-03 0. -1.
    9000002    1    1    2    0    0  0.79921061497E-01  0.25434158572E-01  0.29869979796E-01  0.94221573336E+00  0.93800000000E+00 0. -1.
         22    1    1    2    0    0 -0.24444073490E+00 -0.31685124501E-01  0.31289643142E+01  0.31386578182E+01  0.00000000000E+00 0. -1.
</event>
<event>
 5    1  0.1461556E+002  0.1599413E+01  0.7818608E-02  0.3354000E+00
         11   -1    0    0    0    0  0.00000000000E+00  0.00000000000E+00  0.39999999674E+01  0.40000000000E+01  0.51100000000E-03 0.  1.
    9000002   -1    0    0    0    0 -0.00000000000E+00 -0.00000000000E+00  0.00000000000E+00  0.93800000000E+00  0.93800000000E+00 0. -1.
         11    1    1    2    0    0 -0.16462818943E+00  0.16891985333E+00  0.17148421971E+01  0.17309882668E+01  0.51100000000E-03 0.  1.
    9000002    1    1    2    0    0  0.39480206605E+00 -0.34330907130E+00  0.18837869627E+00  0.10904404262E+01  0.93800000000E+00 0. -1.
         22    1    1    2    0    0 -0.23017387661E+00  0.17438921798E+00  0.20967790739E+01  0.21165713070E+01  0.00000000000E+00 0.  1.
</event>
<event>
 5    1  0.1461556E+002  0.1593720E+01  0.7818608E-02  0.3360208E+00
         11   -1    0    0    0    0  0.00000000000E+00  0.00000000000E+00  0.39999999674E+01  0.40000000000E+01  0.51100000000E-03 0.  1.
    9000002   -1    0    0    0    0 -0.00000000000E+00 -0.00000000000E+00  0.00000000000E+00  0.93800000000E+00  0.93800000000E+00 0.  1.
         11    1    1    2    0    0 -0.30595491682E+00  0.18577920756E+00  0.18882011915E+01  0.19218289013E+01  0.51100000000E-03 0.  1.
    9000002    1    1    2    0    0  0.54663340384E+00 -0.19504083750E+00  0.23987967049E+00  0.11288202969E+01  0.93800000000E+00 0.  1.
         22    1    1    2    0    0 -0.24067848703E+00  0.92616299359E-02  0.18719191054E+01  0.18873508018E+01  0.00000000000E+00 0.  1.
</event>
<event>
 5    1  0.1461556E+002  0.1588822E+01  0.7818608E-02  0.3365585E+00
         11   -1    0    0    0    0  0.00000000000E+00  0.00000000000E+00  0.39999999674E+01  0.40000000000E+01  0.51100000000E-03 0.  1.
    9000002   -1    0    0    0    0 -0.00000000000E+00 -0.00000000000E+00  0.00000000000E+00  0.93800000000E+00  0.93800000000E+00 0.  1.
         11    1    1    2    0    0  0.29493237005E-01 -0.77101733469E-02  0.80036957537E-01  0.85647378797E-01  0.51100000000E-03 0.  1.
    9000002    1    1    2    0    0  0.16594989635E+00 -0.32462988307E+00  0.98146777694E-01  0.10111383283E+01  0.93800000000E+00 0.  1.
         22    1    1    2    0    0 -0.19544313335E+00  0.33234005642E+00  0.38218162321E+01  0.38412142929E+01  0.00000000000E+00 0.  1.
</event>
<event>
 5    1  0.1461556E+002  0.1532383E+01  0.7818608E-02  0.3430189E+00
         11   -1    0    0    0    0  0.00000000000E+00  0.00000000000E+00  0.39999999674E+01  0.40000000000E+01  0.51100000000E-03 0.  1.
    9000002   -1    0    0    0    0 -0.00000000000E+00 -0.00000000000E+00  0.00000000000E+00  0.93800000000E+00  0.93800000000E+00 0.  1.
         11    1    1    2    0    0 -0.16234725470E+00 -0.26771508134E+00  0.11728698446E+01  0.12139406614E+01  0.51100000000E-03 0.  1.
    9000002    1    1    2    0    0 -0.88923316828E-01  0.17338221542E+00  0.77274699686E-01  0.96113689353E+00  0.93800000000E+00 0.  1.
         22    1    1    2    0    0  0.25127057153E+00  0.94332865919E-01  0.27498554230E+01  0.27629224451E+01  0.00000000000E+00 0.  1.
</event>
<event>
 5    1  0.1461556E+002  0.1597990E+01  0.7818608E-02  0.3355548E+00
         11   -1    0    0    0    0  0.00000000000E+00  0.00000000000E+00  0.39999999674E+01  0.40000000000E+01  0.51100000000E-03 0.  1.
    9000002   -1    0    0    0    0 -0.00000000000E+00 -0.00000000000E+00  0.00000000000E+00  0.93800000000E+00  0.93800000000E+00 0. -1.
         11    1    1    2    0    0 -0.75754520232E-01 -0.68546891058E-01  0.17552321468E+01  0.17582029387E+01  0.51100000000E-03 0.  1.
    9000002    1    1    2    0    0  0.17755029783E+00  0.26355486899E+00  0.68818270067E-01  0.99275638075E+00  0.93800000000E+00 0. -1.
         22    1    1    2    0    0 -0.10179577760E+00 -0.19500797793E+00  0.21759495505E+01  0.21870406805E+01  0.00000000000E+00 0.  1.
</event>
<event>
 5    1  0.1461556E+002  0.1527380E+01  0.7818608E-02  0.3436162E+00
         11   -1    0    0    0    0  0.00000000000E+00  0.00000000000E+00  0.39999999674E+01  0.40000000000E+01  0.51100000000E-03 0.  1.
    9000002   -1    0    0    0    0 -0.00000000000E+00 -0.00000000000E+00  0.00000000000E+00  0.93800000000E+00  0.93800000000E+00 0.  1.
         11    1    1    2    0    0 -0.27753711132E+00 -0.92856529853E-01  0.11115704401E+01  0.11494512985E+01  0.51100000000E-03 0.  1.
    9000002    1    1    2    0    0  0.11003540595E-01 -0.24265733022E-01  0.54772612858E-01  0.93997550118E+00  0.93800000000E+00 0.  1.
         22    1    1    2    0    0  0.26653357072E+00  0.11712226287E+00  0.28336569144E+01  0.28485732003E+01  0.00000000000E+00 0.  1.
</event>
<event>
 5    1  0.1461556E+002  0.1599552E+01  0.7818608E-02  0.3353849E+00
         11   -1    0    0    0    0  0.00000000000E+00  0.00000000000E+00  0.39999999674E+01  0.40000000000E+01  0.51100000000E-03 0. -1.
    9000002   -1    0    0    0    0 -0.00000000000E+00 -0.00000000000E+00  0.00000000000E+00  0.93800000000E+00  0.93800000000E+00 0. -1.
         11    1    1    2    0    0  0.29630512599E-02  0.13667314173E-01  0.13282713225E+00  0.13356228260E+00  0.51100000000E-03 0. -1.
    9000002    1    1    2    0    0 -0.18998768952E-01 -0.28002694078E+00  0.52557943447E-01  0.98050108526E+00  0.93800000000E+00 0. -1.
         22    1    1    2    0    0  0.16035717692E-01  0.26635962661E+00  0.38146148917E+01  0.38239366321E+01  0.00000000000E+00 0. -1.
</event>
<event>
 5    1  0.1461556E+002  0.1599565E+01  0.7818608E-02  0.3353835E+00
         11   -1    0    0    0    0  0.00000000000E+00  0.00000000000E+00  0.39999999674E+01  0.40000000000E+01  0.51100000000E-03 0. -1.
    9000002   -1    0    0    0    0 -0.00000000000E+00 -0.00000000000E+00  0.00000000000E+00  0.93800000000E+00  0.93800000000E+00 0.  1.
         11    1    1    2    0    0  0.17093887562E-01 -0.18511572996E-01  0.26342103328E+00  0.26462384855E+00  0.51100000000E-03 0. -1.
    9000002    1    1    2    0    0 -0.16700479954E+00  0.24318405372E+00  0.58118546293E-01  0.98501312300E+00  0.93800000000E+00 0.  1.
         22    1    1    2    0    0  0.14991091198E+00 -0.22467248072E+00  0.36784603878E+01  0.36883630285E+01  0.00000000000E+00 0. -1.
</event>
<event>
 5    1  0.1461556E+002  0.1537120E+01  0.7818608E-02  0.3424572E+00
         11   -1    0    0    0    0  0.00000000000E+00  0.00000000000E+00  0.39999999674E+01  0.40000000000E+01  0.51100000000E-03 0. -1.
    9000002   -1    0    0    0    0 -0.00000000000E+00 -0.00000000000E+00  0.00000000000E+00  0.93800000000E+00  0.93800000000E+00 0. -1.
         11    1    1    2    0    0  0.22540994573E+00 -0.17428498209E+00  0.17130962211E+01  0.17366300189E+01  0.51100000000E-03 0. -1.
    9000002    1    1    2    0    0  0.75358386017E-01  0.56914030447E-01  0.52972593734E-01  0.94422888586E+00  0.93800000000E+00 0. -1.
         22    1    1    2    0    0 -0.30076833175E+00  0.11737095164E+00  0.22339311525E+01  0.22571410953E+01  0.00000000000E+00 0. -1.
</event>
<event>
 5    1  0.1461556E+002  0.1599656E+01  0.7818608E-02  0.3353737E+00
         11   -1    0    0    0    0  0.00000000000E+00  0.00000000000E+00  0.39999999674E+01  0.40000000000E+01  0.51100000000E-03 0.  1.
    9000002   -1    0    0    0    0 -0.00000000000E+00 -0.00000000000E+00  0.00000000000E+00  0.93800000000E+00  0.93800000000E+00 0.  1.
         11    1    1    2    0    0 -0.62426825406E-01  0.53660628308E-01  0.10742187772E+01  0.10773684671E+01  0.51100000000E-03 0.  1.
    9000002    1    1    2    0    0  0.21233517665E+00 -0.20357742833E+00  0.57710591425E-01  0.98473575589E+00  0.93800000000E+00 0.  1.
         22    1    1    2    0    0 -0.14990835125E+00  0.14991680002E+00  0.28680705988E+01  0.28758957770E+01  0.00000000000E+00 0.  1.
</event>
<event>
 5    1  0.1461556E+002  0.1593270E+01  0.7818608E-02  0.3360700E+00
         11   -1    0    0    0    0  0.00000000000E+00  0.00000000000E+00  0.39999999674E+01  0.40000000000E+01  0.51100000000E-03 0.  1.
    9000002   -1    0    0    0    0 -0.00000000000E+00 -0.00000000000E+00  0.00000000000E+00  0.93800000000E+00  0.93800000000E+00 0. -1.
         11    1    1    2    0    0 -0.36407506836E-01 -0.35546200975E-01  0.16476980817E+00  0.17244822343E+00  0.51100000000E-03 0.  1.
    9000002    1    1    2    0    0  0.22998004480E+00  0.16617835222E+00  0.58617681417E-01  0.98172608111E+00  0.93800000000E+00 0. -1.
         22    1    1    2    0    0 -0.19357253796E+00 -0.13063215125E+00  0.37766124778E+01  0.37838256955E+01  0.00000000000E+00 0.  1.
</event>
<event>
 5    1  0.1461556E+002  0.1597080E+01  0.7818608E-02  0.3356538E+00
         11   -1    0    0    0    0  0.00000000000E+00  0.00000000000E+00  0.39999999674E+01  0.40000000000E+01  0.51100000000E-03 0. -1.
    9000002   -1    0    0    0    0 -0.00000000000E+00 -0.00000000000E+00  0.00000000000E+00  0.93800000000E+00  0.93800000000E+00 0.  1.
         11    1    1    2    0    0  0.22947619020E-02 -0.18172543609E-01  0.34520555836E+00  0.34569154736E+00  0.51100000000E-03 0. -1.
    9000002    1    1    2    0    0 -0.17643478655E+00 -0.15885065223E+00  0.39382502885E-01  0.96837892643E+00  0.93800000000E+00 0.  1.
         22    1    1    2    0    0  0.17414002465E+00  0.17702319584E+00  0.36154119061E+01  0.36239295262E+01  0.00000000000E+00 0. -1.
</event>
<event>
 5    1  0.1461556E+002  0.1599463E+01  0.7818608E-02  0.3353947E+00
         11   -1    0    0    0    0  0.00000000000E+00  0.00000000000E+00  0.39999999674E+01  0.40000000000E+01  0.51100000000E-03 0.  1.
    9000002   -1    0    0    0    0 -0.00000000000E+00 -0.00000000000E+00  0.00000000000E+00  0.93800000000E+00  0.93800000000E+00 0.  1.
         11    1    1    2    0    0 -0.11047114918E-01  0.19781829187E-01  0.50186237205E+00  0.50237382606E+00  0.51100000000E-03 0.  1.
    9000002    1    1    2    0    0  0.79407349642E-01 -0.24802932374E+00  0.45256168767E-01  0.97453383390E+00  0.93800000000E+00 0.  1.
         22    1    1    2    0    0 -0.68360234724E-01  0.22824749455E+00  0.34528814265E+01  0.34610923400E+01  0.00000000000E+00 0.  1.
</event>
<event>
 5    1  0.1461556E+002  0.1598630E+01  0.7818608E-02  0.3354852E+00
         11   -1    0    0    0    0  0.00000000000E+00  0.00000000000E+00  0.39999999674E+01  0.40000000000E+01  0.51100000000E-03 0. -1.
    9000002   -1    0    0    0    0 -0.00000000000E+00 -0.00000000000E+00  0.00000000000E+00  0.93800000000E+00  0.93800000000E+00 0.  1.
         11    1    1    2    0    0 -0.16645055798E-01  0.78311025455E-01  0.66238174547E+00  0.66720275213E+00  0.51100000000E-03 0. -1.
    9000002    1    1    2    0    0  0.18619342436E-01 -0.31100304161E+00  0.65652739561E-01  0.99056744042E+00  0.93800000000E+00 0.  1.
         22    1    1    2    0    0 -0.19742866387E-02  0.23269201615E+00  0.32719654823E+01  0.32802298075E+01  0.00000000000E+00 0. -1.
</event>
<event>
 5    1  0.1461556E+002  0.1562546E+01  0.7818608E-02  0.3395046E+00
         11   -1    0    0    0    0  0.00000000000E+00  0.00000000000E+00  0.39999999674E+01  0.40000000000E+01  0.51100000000E-03 0. -1.
    9000002   -1    0    0    0    0 -0.00000000000E+00 -0.00000000000E+00  0.00000000000E+00  0.93800000000E+00  0.93800000000E+00 0.  1.
         11    1    1    2    0    0  0.11086688163E+00  0.12690562248E+00  0.28063692222E+01  0.28114240119E+01  0.51100000000E-03 0. -1.
    9000002    1    1    2    0    0 -0.20575686471E-01  0.86762523530E-01  0.32803513806E-01  0.94279964196E+00  0.93800000000E+00 0.  1.
         22    1    1    2    0    0 -0.90291195160E-01 -0.21366814601E+00  0.11608272314E+01  0.11837763461E+01  0.00000000000E+00 0. -1.
</event>
<event>
 5    1  0.1461556E+002  0.1599592E+01  0.7818608E-02  0.3353807E+00
         11   -1    0    0    0    0  0.00000000000E+00  0.00000000000E+00  0.39999999674E+01  0.40000000000E+01  0.51100000000E-03 0. -1.
    9000002   -1    0    0    0    0 -0.00000000000E+00 -0.00000000000E+00  0.00000000000E+00  0.93800000000E+00  0.93800000000E+00 0.  1.
         11    1    1    2    0    0 -0.25998046640E-01 -0.14982931430E-01  0.37715234342E+00  0.37834446994E+00  0.51100000000E-03 0. -1.
    9000002    1    1    2    0    0  0.21747739617E+00  0.19799593148E+00  0.57739727815E-01  0.98472162711E+00  0.93800000000E+00 0.  1.
         22    1    1    2    0    0 -0.19147934953E+00 -0.18301300005E+00  0.35651078961E+01  0.35749339030E+01  0.00000000000E+00 0. -1.
</event>
<event>
 5    1  0.1461556E+002  0.1599674E+01  0.7818608E-02  0.3353717E+00
         11   -1    0    0    0    0  0.00000000000E+00  0.00000000000E+00  0.39999999674E+01  0.40000000000E+01  0.51100000000E-03 0. -1.
    9000002   -1    0    0    0    0 -0.00000000000E+00 -0.00000000000E+00  0.00000000000E+00  0.93800000000E+00  0.93800000000E+00 0. -1.
         11    1    1    2    0    0  0.49857726436E-01 -0.91898055565E-01  0.10418200352E+01  0.10470531468E+01  0.51100000000E-03 0. -1.
    9000002    1    1    2    0    0 -0.18024324109E+00  0.34095005713E+00  0.10014638915E+00  0.10191211246E+01  0.93800000000E+00 0. -1.
         22    1    1    2    0    0  0.13038551465E+00 -0.24905200156E+00  0.28580335430E+01  0.28718257285E+01  0.00000000000E+00 0. -1.
</event>
<event>
 5    1  0.1461556E+002  0.1595054E+01  0.7818608E-02  0.3358749E+00
         11   -1    0    0    0    0  0.00000000000E+00  0.00000000000E+00  0.39999999674E+01  0.40000000000E+01  0.51100000000E-03 0. -1.
    9000002   -1    0    0    0    0 -0.00000000000E+00 -0.00000000000E+00  0.00000000000E+00  0.93800000000E+00  0.93800000000E+00 0. -1.
         11    1    1    2    0    0  0.17717613373E+00  0.32157858915E+00  0.14178215891E+01  0.14645895299E+01  0.51100000000E-03 0. -1.
    9000002    1    1    2    0    0 -0.23710489363E+00 -0.80045359827E+00  0.52611246907E+00  0.13614635594E+01  0.93800000000E+00 0. -1.
         22    1    1    2    0    0  0.59928759900E-01  0.47887500912E+00  0.20560659092E+01  0.21119469107E+01  0.00000000000E+00 0. -1.
</event>
<event>
 5    1  0.1461556E+002  0.1599677E+01  0.7818608E-02  0.3353714E+00
         11   -1    0    0    0    0  0.00000000000E+00  0.00000000000E+00  0.39999999674E+01  0.40000000000E+01  0.51100000000E-03 0. -1.
    9000002   -1    0    0    0    0 -0.00000000000E+00 -0.00000000000E+00  0.00000000000E+00  0.93800000000E+00  0.93800000000E+00 0.  1.
         11    1    1    2    0    0  0.84067467683E-01  0.23866726778E+00  0.15623620613E+01  0.15827207193E+01  0.51100000000E-03 0. -1.
    9000002    1    1    2    0    0 -0.20081970332E+00 -0.57171180524E+00  0.25651170476E+00  0.11457858422E+01  0.93800000000E+00 0.  1.
         22    1    1    2    0    0  0.11675223564E+00  0.33304453746E+00  0.21811262013E+01  0.22094934385E+01  0.00000000000E+00 0. -1.
</event>
<event>
 5    1  0.1461556E+002  0.1570884E+01  0.7818608E-02  0.3385584E+00
         11   -1    0    0    0    0  0.00000000000E+00  0.00000000000E+00  0.39999999674E+01  0.40000000000E+01  0.51100000000E-03 0.  1.
    9000002   -1    0    0    0    0 -0.00000000000E+00 -0.00000000000E+00  0.00000000000E+00  0.93800000000E+00  0.93800000000E+00 0. -1.
         11    1    1    2    0    0 -0.67049806846E-01 -0.23281679500E+00  0.71481182142E+00  0.75475528338E+00  0.51100000000E-03 0.  1.
    9000002    1    1    2    0    0  0.29602459514E+00  0.37939541422E+00  0.18401376009E+00  0.10701759225E+01  0.93800000000E+00 0. -1.
         22    1    1    2    0    0 -0.22897478829E+00 -0.14657861922E+00  0.31011743858E+01  0.31130687941E+01  0.00000000000E+00 0.  1.
</event>
<event>
 5    1  0.1461556E+002  0.1599069E+01  0.7818608E-02  0.3354374E+00
         11   -1    0    0    0    0  0.00000000000E+00  0.00000000000E+00  0.39999999674E+01  0.40000000000E+01  0.51100000000E-03 0. -1.
    9000002   -1    0    0    0    0 -0.00000000000E+00 -0.00000000000E+00  0.00000000000E+00  0.93800000000E+00  0.93800000000E+00 0. -1.
         11    1    1    2    0    0  0.14633026226E+00  0.24841888844E-01  0.12256719275E+01  0.12346260973E+01  0.51100000000E-03 0. -1.
    9000002    1    1    2    0    0 -0.38227828667E+00 -0.50235824193E-01  0.10059362288E+00  0.10191287472E+01  0.93800000000E+00 0. -1.
         22    1    1    2    0    0  0.23594802441E+00  0.25393935349E-01  0.26737344169E+01  0.26842451554E+01  0.00000000000E+00 0. -1.
</event>
<event>
 5    1  0.1461556E+002  0.1599664E+01  0.7818608E-02  0.3353728E+00
         11   -1    0    0    0    0  0.00000000000E+00  0.00000000000E+00  0.39999999674E+01  0.40000000000E+01  0.51100000000E-03 0.  1.
    9000002   -1    0    0    0    0 -0.00000000000E+00 -0.00000000000E+00  0.00000000000E+00  0.93800000000E+00  0.93800000000E+00 0.  1.
         11    1    1    2    0    0  0.86723136063E-01 -0.25673464783E-01  0.12303360064E+01  0.12336559403E+01  0.51100000000E-03 0.  1.
    9000002    1    1    2    0    0 -0.29048782906E+00  0.80029520358E-01  0.60583443126E-01  0.98706750354E+00  0.93800000000E+00 0.  1.
         22    1    1    2    0    0  0.20376469299E+00 -0.54356055575E-01  0.27090805178E+01  0.27172765562E+01  0.00000000000E+00 0.  1.
</event>
<event>
 5    1  0.1461556E+002  0.1599671E+01  0.7818608E-02  0.3353720E+00
         11   -1    0    0    0    0  0.00000000000E+00  0.00000000000E+00  0.39999999674E+01  0.40000000000E+01  0.51100000000E-03 0. -1.
    9000002   -1    0    0    0    0 -0.00000000000E+00 -0.00000000000E+00  0.00000000000E+00  0.93800000000E+00  0.93800000000E+00 0. -1.
         11    1    1    2    0    0 -0.24591563754E+00 -0.23768860655E+00  0.14023024426E+01  0.14434066565E+01  0.51100000000E-03 0. -1.
    9000002    1    1    2    0    0  0.60174598353E+00  0.58767218859E+00  0.52881964990E+00  0.13663641726E+01  0.93800000000E+00 0. -1.
         22    1    1    2    0    0 -0.35583034599E+00 -0.34998358204E+00  0.20688778749E+01  0.21282291709E+01  0.00000000000E+00 0. -1.
</event>
<event>
 5    1  0.1461556E+002  0.1599641E+01  0.7818608E-02  0.3353753E+00
         11   -1    0    0    0    0  0.00000000000E+00  0.00000000000E+00  0.39999999674E+01  0.40000000000E+01  0.51100000000E-03 0.  1.
    9000002   -1    0    0    0    0 -0.00000000000E+00 -0.00000000000E+00  0.00000000000E+00  0.93800000000E+00  0.93800000000E+00 0. -1.
         11    1    1    2    0    0 -0.19153854344E+00  0.21370812384E+00  0.16450294787E+01  0.16698743733E+01  0.51100000000E-03 0.  1.
    9000002    1    1    2    0    0  0.42385430236E+00 -0.46941307964E+00  0.28113556114E+00  0.11657110760E+01  0.93800000000E+00 0. -1.
         22    1    1    2    0    0 -0.23231575892E+00  0.25570495579E+00  0.20738349275E+01  0.21024145507E+01  0.00000000000E+00 0.  1.
</event>
<event>
 5    1  0.1461556E+002  0.1599586E+01  0.7818608E-02  0.3353813E+00
         11   -1    0    0    0    0  0.00000000000E+00  0.00000000000E+00  0.39999999674E+01  0.40000000000E+01  0.51100000000E-03 0.  1.
    9000002   -1    0    0    0    0 -0.00000000000E+00 -0.00000000000E+00  0.00000000000E+00  0.93800000000E+00  0.93800000000E+00 0. -1.
         11    1    1    2    0    0  0.43543863842E-01 -0.17925328121E+00  0.12920263558E+01  0.13051284122E+01  0.51100000000E-03 0.  1.
    9000002    1    1    2    0    0 -0.10935615767E+00  0.55104727435E+00  0.21857586811E+00  0.11150028152E+01  0.93800000000E+00 0. -1.
         22    1    1    2    0    0  0.65812293826E-01 -0.37179399314E+00  0.24893977434E+01  0.25178687726E+01  0.00000000000E+00 0. -1.
</event>
<event>
 5    1  0.1461556E+002  0.1599674E+01  0.7818608E-02  0.3353717E+00
         11   -1    0    0    0    0  0.00000000000E+00  0.00000000000E+00  0.39999999674E+01  0.40000000000E+01  0.51100000000E-03 0.  1.
    9000002   -1    0    0    0    0 -0.00000000000E+00 -0.00000000000E+00  0.00000000000E+00  0.93800000000E+00  0.93800000000E+00 0.  1.
         11    1    1    2    0    0 -0.52782264651E-01 -0.56202329823E-03  0.72901439236E+00  0.73092306621E+00  0.51100000000E-03 0.  1.
    9000002    1    1    2    0    0  0.27931147556E+00  0.77740208745E-02  0.51991053608E-01  0.98011346559E+00  0.93800000000E+00 0.  1.
         22    1    1    2    0    0 -0.22652921091E+00 -0.72119975763E-02  0.32189945214E+01  0.32269634682E+01  0.00000000000E+00 0.  1.
</event>
<event>
 5    1  0.1461556E+002  0.1587340E+01  0.7818608E-02  0.3367220E+00
         11   -1    0    0    0    0  0.00000000000E+00  0.00000000000E+00  0.39999999674E+01  0.40000000000E+01  0.51100000000E-03 0.  1.
    9000002   -1    0    0    0    0 -0.00000000000E+00 -0.00000000000E+00  0.00000000000E+00  0.93800000000E+00  0.93800000000E+00 0.  1.
         11    1    1    2    0    0 -0.21785586141E-01 -0.61009372069E-01  0.69851295948E+00  0.70151077748E+00  0.51100000000E-03 0.  1.
    9000002    1    1    2    0    0 -0.13799243079E+00 -0.16910533606E+00  0.40939431404E-01  0.96392871245E+00  0.93800000000E+00 0.  1.
         22    1    1    2    0    0  0.15977801693E+00  0.23011470813E+00  0.32605475765E+01  0.32725605101E+01  0.00000000000E+00 0.  1.
</event>
<event>
 5    1  0.1461556E+002  0.1599435E+01  0.7818608E-02  0.3353976E+00
         11   -1    0    0    0    0  0.00000000000E+00  0.00000000000E+00  0.39999999674E+01  0.40000000000E+01  0.51100000000E-03 0.  1.
    9000002   -1    0    0    0    0 -0.00000000000E+00 -0.00000000000E+00  0.00000000000E+00  0.93800000000E+00  0.93800000000E+00 0. -1.
         11    1    1    2    0    0 -0.22112705729E-02  0.26571030974E-02  0.18450276991E+00  0.18453585868E+00  0.51100000000E-03 0.  1.
    9000002    1    1    2    0    0  0.43225208088E-02 -0.22070288645E+00  0.32484327153E-01  0.96417201773E+00  0.93800000000E+00 0. -1.
         22    1    1    2    0    0 -0.21112502359E-02  0.21804578335E+00  0.37830128703E+01  0.37892921236E+01  0.00000000000E+00 0.  1.
</event>
<event>
 5    1  0.1461556E+002  0.1580405E+01  0.7818608E-02  0.3374909E+00
         11   -1    0    0    0    0  0.00000000000E+00  0.00000000000E+00  0.39999999674E+01  0.40000000000E+01  0.51100000000E-03 0.  1.
    9000002   -1    0    0    0    0 -0.00000000000E+00 -0.00000000000E+00  0.00000000000E+00  0.93800000000E+00  0.93800000000E+00 0.  1.
         11    1    1    2    0    0  0.86503291949E-01 -0.58173818703E-01  0.33014268964E+00  0.34621015199E+00  0.51100000000E-03 0.  1.
    9000002    1    1    2    0    0  0.86734666018E-01  0.52142889686E+00  0.21026895359E+00  0.10970269047E+01  0.93800000000E+00 0.  1.
         22    1    1    2    0    0 -0.17323795797E+00 -0.46325507816E+00  0.34595883241E+01  0.34947629433E+01  0.00000000000E+00 0.  1.
</event>
<event>
 5    1  0.1461556E+002  0.1599563E+01  0.7818608E-02  0.3353838E+00
         11   -1    0    0    0    0  0.00000000000E+00  0.00000000000E+00  0.39999999674E+01  0.40000000000E+01  0.51100000000E-03 0. -1.
    9000002   -1    0    0    0    0 -0.00000000000E+00 -0.00000000000E+00  0.00000000000E+00  0.93800000000E+00  0.93800000000E+00 0. -1.
         11    1    1    2    0    0 -0.22761628088E-01 -0.22837577640E-02  0.20373552299E+00  0.20501641815E+00  0.51100000000E-03 0. -1.
    9000002    1    1    2    0    0  0.36106300115E+00  0.12343812886E+00  0.98080445636E-01  0.10173825418E+01  0.93800000000E+00 0. -1.
         22    1    1    2    0    0 -0.33830137306E+00 -0.12115437109E+00  0.36981839987E+01  0.37156010401E+01  0.00000000000E+00 0. -1.
</event>
<event>
 5    1  0.1461556E+002  0.1599675E+01  0.7818608E-02  0.3353716E+00
         11   -1    0    0    0    0  0.00000000000E+00  0.00000000000E+00  0.39999999674E+01  0.40000000000E+01  0.51100000000E-03 0. -1.
    9000002   -1    0    0    0    0 -0.00000000000E+00 -0.00000000000E+00  0.00000000000E+00  0.93800000000E+00  0.93800000000E+00 0.  1.
         11    1    1    2    0    0 -0.69016087973E-01  0.42819158818E-01  0.84465061734E+00  0.84854677376E+00  0.51100000000E-03 0. -1.
    9000002    1    1    2    0    0  0.31828036163E+00 -0.19205197825E+00  0.92887035719E-01  0.10132415074E+01  0.93800000000E+00 0.  1.
         22    1    1    2    0    0 -0.24926427366E+00  0.14923281943E+00  0.30624623143E+01  0.30762117188E+01  0.00000000000E+00 0. -1.
</event>
<event>
 5    1  0.1461556E+002  0.1543982E+01  0.7818608E-02  0.3416501E+00
         11   -1    0    0    0    0  0.00000000000E+00  0.00000000000E+00  0.39999999674E+01  0.40000000000E+01  0.51100000000E-03 0.  1.
    9000002   -1    0    0    0    0 -0.00000000000E+00 -0.00000000000E+00  0.00000000000E+00  0.93800000000E+00  0.93800000000E+00 0.  1.
         11    1    1    2    0    0  0.52888109630E-01 -0.15895106550E+00  0.39279110868E+00  0.42702190757E+00  0.51100000000E-03 0.  1.
    9000002    1    1    2    0    0  0.10171457093E+00 -0.17145459221E-01  0.48856757405E-01  0.94491841100E+00  0.93800000000E+00 0.  1.
         22    1    1    2    0    0 -0.15460268056E+00  0.17609652472E+00  0.35583521013E+01  0.35660596814E+01  0.00000000000E+00 0.  1.
</event>
<event>
 5    1  0.1461556E+002  0.1599656E+01  0.7818608E-02  0.3353736E+00
         11   -1    0    0    0    0  0.00000000000E+00  0.00000000000E+00  0.39999999674E+01  0.40000000000E+01  0.51100000000E-03 0. -1.
    9000002   -1    0    0    0    0 -0.00000000000E+00 -0.00000000000E+00  0.00000000000E+00  0.93800000000E+00  0.93800000000E+00 0.  1.
         11    1    1    2    0    0 -0.59881507773E-01  0.57533619170E-01  0.10819428095E+01  0.10851250695E+01  0.51100000000E-03 0. -1.
    9000002    1    1    2    0    0  0.20128187247E+00 -0.20476064685E+00  0.54949265622E-01  0.98249922976E+00  0.93800000000E+00 0.  1.
         22    1    1    2    0    0 -0.14140036469E+00  0.14722702768E+00  0.28631078922E+01  0.28703757007E+01  0.00000000000E+00 0. -1.
</event>
<event>
 5    1  0.1461556E+002  0.1598302E+01  0.7818608E-02  0.3355209E+00
         11   -1    0    0    0    0  0.00000000000E+00  0.00000000000E+00  0.39999999674E+01  0.40000000000E+01  0.51100000000E-03 0. -1.
    9000002   -1    0    0    0    0 -0.00000000000E+00 -0.00000000000E+00  0.00000000000E+00  0.93800000000E+00  0.93800000000E+00 0. -1.
         11    1    1    2    0    0  0.24114302863E+00  0.32873695613E-01  0.12824881738E+01  0.13053761210E+01  0.51100000000E-03 0. -1.
    9000002    1    1    2    0    0 -0.58118609337E+00 -0.89085226450E-01  0.24194388936E+00  0.11331788466E+01  0.93800000000E+00 0. -1.
         22    1    1    2    0    0  0.34004306474E+00  0.56211530837E-01  0.24755679042E+01  0.24994450324E+01  0.00000000000E+00 0. -1.
</event>
<event>
 5    1  0.1461556E+002  0.1599577E+01  0.7818608E-02  0.3353823E+00
         11   -1    0    0    0    0  0.00000000000E+00  0.00000000000E+00  0.39999999674E+01  0.40000000000E+01  0.51100000000E-03 0. -1.
    9000002   -1    0    0    0    0 -0.00000000000E+00 -0.00000000000E+00  0.00000000000E+00  0.93800000000E+00  0.93800000000E+00 0. -1.
         11    1    1    2    0    0  0.25796733665E-01  0.21560922893E-02  0.41753630675E+00  0.41833831856E+00  0.51100000000E-03 0.  1.
    9000002    1    1    2    0    0 -0.28696002130E+00 -0.75155645138E-01  0.58762120746E-01  0.98554117705E+00  0.93800000000E+00 0. -1.
         22    1    1    2    0    0  0.26116328763E+00  0.72999552849E-01  0.35237015399E+01  0.35341205044E+01  0.00000000000E+00 0. -1.
</event>
<event>
 5    1  0.1461556E+002  0.1594997E+01  0.7818608E-02  0.3358812E+00
         11   -1    0    0    0    0  0.00000000000E+00  0.00000000000E+00  0.39999999674E+01  0.40000000000E+01  0.51100000000E-03 0. -1.
    9000002   -1    0    0    0    0 -0.00000000000E+00 -0.00000000000E+00  0.00000000000E+00  0.93800000000E+00  0.93800000000E+00 0.  1.
         11    1    1    2    0    0  0.84667209292E-01  0.15087113946E-01  0.12331244731E+01  0.12361198909E+01  0.51100000000E-03 0. -1.
    9000002    1    1    2    0    0 -0.18819546962E+00  0.18153265599E+00  0.49063185279E-01  0.97499889032E+00  0.93800000000E+00 0.  1.
         22    1    1    2    0    0  0.10352826033E+00 -0.19661976994E+00  0.27178123090E+01  0.27268812188E+01  0.00000000000E+00 0. -1.
</event>
<event>
 5    1  0.1461556E+002  0.1599676E+01  0.7818608E-02  0.3353715E+00
         11   -1    0    0    0    0  0.00000000000E+00  0.00000000000E+00  0.39999999674E+01  0.40000000000E+01  0.51100000000E-03 0. -1.
    9000002   -1    0    0    0    0 -0.00000000000E+00 -0.00000000000E+00  0.00000000000E+00  0.93800000000E+00  0.93800000000E+00 0.  1.
         11    1    1    2    0    0  0.46918847997E-01  0.13788995623E-01  0.77187228779E+00  0.77342006987E+00  0.51100000000E-03 0. -1.
    9000002    1    1    2    0    0 -0.24301794813E+00 -0.67741265669E-01  0.42287791253E-01  0.97225452402E+00  0.93800000000E+00 0.  1.
         22    1    1    2    0    0  0.19609910013E+00  0.53952270046E-01  0.31858398883E+01  0.31923254061E+01  0.00000000000E+00 0. -1.
</event>
<event>
 5    1  0.1461556E+002  0.1599658E+01  0.7818608E-02  0.3353735E+00
         11   -1    0    0    0    0  0.00000000000E+00  0.00000000000E+00  0.39999999674E+01  0.40000000000E+01  0.51100000000E-03 0.  1.
    9000002   -1    0    0    0    0 -0.00000000000E+00 -0.00000000000E+00  0.00000000000E+00  0.93800000000E+00  0.93800000000E+00 0. -1.
         11    1    1    2    0    0 -0.10770308138E-02  0.22074948656E-01  0.28948095667E+00  0.29032386872E+00  0.51100000000E-03 0.  1.
    9000002    1    1    2    0    0  0.51443272567E-01 -0.29984600849E+00  0.61783329935E-01  0.98803604132E+00  0.93800000000E+00 0. -1.
         22    1    1    2    0    0 -0.50366241753E-01  0.27777105983E+00  0.36487356808E+01  0.36596400900E+01  0.00000000000E+00 0.  1.
</event>
<event>
 5    1  0.1461556E+002  0.1581279E+01  0.7818608E-02  0.3373937E+00
         11   -1    0    0    0    0  0.00000000000E+00  0.00000000000E+00  0.39999999674E+01  0.40000000000E+01  0.51100000000E-03 0.  1.
    9000002   -1    0    0    0    0 -0.00000000000E+00 -0.00000000000E+00  0.00000000000E+00  0.93800000000E+00  0.93800000000E+00 0. -1.
         11    1    1    2    0    0 -0.72180205712E-01  0.30778043341E-01  0.25491954396E+01  0.25504028937E+01  0.51100000000E-03 0.  1.
    9000002    1    1    2    0    0 -0.10747601856E+00  0.58771231278E-01  0.23511125347E-01  0.94625679665E+00  0.93800000000E+00 0. -1.
         22    1    1    2    0    0  0.17965622428E+00 -0.89549274618E-01  0.14272934024E+01  0.14413403096E+01  0.00000000000E+00 0.  1.
</event>
<event>
 5    1  0.1461556E+002  0.1599643E+01  0.7818608E-02  0.3353750E+00
         11   -1    0    0    0    0  0.00000000000E+00  0.00000000000E+00  0.39999999674E+01  0.40000000000E+01  0.51100000000E-03 0.  1.
    9000002   -1    0    0    0    0 -0.00000000000E+00 -0.00000000000E+00  0.00000000000E+00  0.93800000000E+00  0.93800000000E+00 0.  1.
         11    1    1    2    0    0 -0.45000765253E-01  0.89897168031E-02  0.81303982304E+00  0.81433402167E+00  0.51100000000E-03 0. -1.
    9000002    1    1    2    0    0  0.23780394286E+00 -0.63911326256E-01  0.40293612797E-01  0.97061987827E+00  0.93800000000E+00 0.  1.
         22    1    1    2    0    0 -0.19280317761E+00  0.54921609452E-01  0.31466665315E+01  0.31530461001E+01  0.00000000000E+00 0.  1.
</event>
<event>
 5    1  0.1461556E+002  0.1591952E+01  0.7818608E-02  0.3362145E+00
         11   -1    0    0    0    0  0.00000000000E+00  0.00000000000E+00  0.39999999674E+01  0.40000000000E+01  0.51100000000E-03 0. -1.
    9000002   -1    0    0    0    0 -0.00000000000E+00 -0.00000000000E+00  0.00000000000E+00  0.93800000000E+00  0.93800000000E+00 0.  1.
         11    1    1    2    0    0  0.14824727390E+00  0.66297373237E-02  0.99920720371E+00  0.10101665727E+01  0.51100000000E-03 0. -1.
    9000002    1    1    2    0    0 -0.28127902108E+00  0.17679036989E+00  0.80045652506E-01  0.99831058748E+00  0.93800000000E+00 0.  1.
         22    1    1    2    0    0  0.13303174718E+00 -0.18342010721E+00  0.29207471111E+01  0.29295228398E+01  0.00000000000E+00 0. -1.
</event>
<event>
 5    1  0.1461556E+002  0.1599672E+01  0.7818608E-02  0.3353719E+00
         11   -1    0    0    0    0  0.00000000000E+00  0.00000000000E+00  0.39999999674E+01  0.40000000000E+01  0.51100000000E-03 0.  1.
    9000002   -1    0    0    0    0 -0.00000000000E+00 -0.00000000000E+00  0.00000000000E+00  0.93800000000E+00  0.93800000000E+00 0. -1.
         11    1    1    2    0    0 -0.58263478799E-02 -0.92041550315E-02  0.20525643718E+00  0.20554592899E+00  0.51100000000E-03 0.  1.
    9000002    1    1    2    0    0  0.13125101419E+00  0.16871748187E+00  0.30278915028E-01  0.96252440494E+00  0.93800000000E+00 0. -1.
         22    1    1    2    0    0 -0.12542466631E+00 -0.15951332684E+00  0.37644646151E+01  0.37699296661E+01  0.00000000000E+00 0.  1.
</event>
<event>
 5    1  0.1461556E+002  0.1469499E+01  0.7818608E-02  0.3508445E+00
         11   -1    0    0    0    0  0.00000000000E+00  0.00000000000E+00  0.39999999674E+01  0.40000000000E+01  0.51100000000E-03 0. -1.
    9000002   -1    0    0    0    0 -0.00000000000E+00 -0.00000000000E+00  0.00000000000E+00  0.93800000000E+00  0.93800000000E+00 0. -1.
         11    1    1    2    0    0  0.61860472609E+00 -0.87970982806E-01  0.31625996815E+01  0.32237319534E+01  0.51100000000E-03 0. -1.
    9000002    1    1    2    0    0 -0.37809086641E+00 -0.33374109395E-01  0.21275635521E+00  0.10340095750E+01  0.93800000000E+00 0. -1.
         22    1    1    2    0    0 -0.24051385968E+00  0.12134509220E+00  0.62464393065E+00  0.68025847161E+00  0.00000000000E+00 0. -1.
</event>
<event>
 5    1  0.1461556E+002  0.1599497E+01  0.7818608E-02  0.3353909E+00
         11   -1    0    0    0    0  0.00000000000E+00  0.00000000000E+00  0.39999999674E+01  0.40000000000E+01  0.51100000000E-03 0.  1.
    9000002   -1    0    0    0    0 -0.00000000000E+00 -0.00000000000E+00  0.00000000000E+00  0.93800000000E+00  0.93800000000E+00 0.  1.
         11    1    1    2    0    0 -0.26547714239E-01 -0.52876995737E-02  0.13811808623E+00  0.14074660835E+00  0.51100000000E-03 0.  1.
    9000002    1    1    2    0    0  0.56668816305E+00  0.89514923573E-01  0.22857265811E+00  0.11230484654E+01  0.93800000000E+00 0.  1.
         22    1    1    2    0    0 -0.54014044881E+00 -0.84227223999E-01  0.36333092230E+01  0.36742049262E+01  0.00000000000E+00 0.  1.
</event>
<event>
 5    1  0.1461556E+002  0.1563715E+01  0.7818608E-02  0.3393713E+00
         11   -1    0    0    0    0  0.00000000000E+00  0.00000000000E+00  0.39999999674E+01  0.40000000000E+01  0.51100000000E-03 0.  1.
    9000002   -1    0    0    0    0 -0.00000000000E+00 -0.00000000000E+00  0.00000000000E+00  0.93800000000E+00  0.93800000000E+00 0. -1.
         11    1    1    2    0    0  0.13719940545E+00  0.20124991048E+00  0.18020822859E+01  0.18184680447E+01  0.51100000000E-03 0.  1.
    9000002    1    1    2    0    0 -0.34627815577E-01 -0.20316419227E-01  0.27592892734E-01  0.93926418554E+00  0.93800000000E+00 0. -1.
         22    1    1    2    0    0 -0.10257158988E+00 -0.18093349125E+00  0.21703247887E+01  0.21802677698E+01  0.00000000000E+00 0.  1.
</event>
<event>
 5    1  0.1461556E+002  0.1543795E+01  0.7818608E-02  0.3416720E+00
         11   -1    0    0    0    0  0.00000000000E+00  0.00000000000E+00  0.39999999674E+01  0.40000000000E+01  0.51100000000E-03 0. -1.
    9000002   -1    0    0    0    0 -0.00000000000E+00 -0.00000000000E+00  0.00000000000E+00  0.93800000000E+00  0.93800000000E+00 0. -1.
         11    1    1    2    0    0  0.15415026377E-01 -0.83926043565E-01  0.55659949869E-01  0.10187980647E+00  0.51100000000E-03 0. -1.
    9000002    1    1    2    0    0  0.11833198909E-02  0.28348189235E+00  0.98243389494E-01  0.98481427037E+00  0.93800000000E+00 0. -1.
         22    1    1    2    0    0 -0.16598346268E-01 -0.19955584879E+00  0.38460966280E+01  0.38513059232E+01  0.00000000000E+00 0. -1.
</event>
<event>
 5    1  0.1461556E+002  0.1599618E+01  0.7818608E-02  0.3353778E+00
         11   -1    0    0    0    0  0.00000000000E+00  0.00000000000E+00  0.39999999674E+01  0.40000000000E+01  0.51100000000E-03 0.  1.
    9000002   -1    0    0    0    0 -0.00000000000E+00 -0.00000000000E+00  0.00000000000E+00  0.93800000000E+00  0.93800000000E+00 0.  1.
         11    1    1    2    0    0 -0.14184409250E+00 -0.23340279926E+00  0.19833569414E+01  0.20020743321E+01  0.51100000000E-03 0.  1.
    9000002    1    1    2    0    0  0.26054630987E+00  0.43722783733E+00  0.17766001420E+00  0.10818778313E+01  0.93800000000E+00 0.  1.
         22    1    1    2    0    0 -0.11870221737E+00 -0.20382503806E+00  0.18389830117E+01  0.18540478365E+01  0.00000000000E+00 0. -1.
</event>
<event>
 5    1  0.1461556E+002  0.1599677E+01  0.7818608E-02  0.3353715E+00
         11   -1    0    0    0    0  0.00000000000E+00  0.00000000000E+00  0.39999999674E+01  0.40000000000E+01  0.51100000000E-03 0. -1.
    9000002   -1    0    0    0    0 -0.00000000000E+00 -0.00000000000E+00  0.00000000000E+00  0.93800000000E+00  0.93800000000E+00 0. -1.
         11    1    1    2    0    0 -0.52539854054E-01  0.26891799999E-01  0.81719844377E+00  0.81932726233E+00  0.51100000000E-03 0. -1.
    9000002    1    1    2    0    0  0.25080418182E+00 -0.12954740966E+00  0.53074588346E-01  0.98099244691E+00  0.93800000000E+00 0. -1.
         22    1    1    2    0    0 -0.19826432776E+00  0.10265560966E+00  0.31297269352E+01  0.31376802908E+01  0.00000000000E+00 0. -1.
</event>
<event>
 5    1  0.2365387E+002  0.1578980E+01  0.7818608E-02  0.3376499E+00
         11   -1    0    0    0    0  0.00000000000E+00  0.00000000000E+00  0.39999999674E+01  0.40000000000E+01  0.51100000000E-03 0.  1.
    9000002   -1    0    0    0    0 -0.00000000000E+00 -0.00000000000E+00  0.00000000000E+00  0.93800000000E+00  0.93800000000E+00 0.  1.
         11    1    1    2    0    0  0.12298131279E+00 -0.92436619649E-01  0.18932079810E+01  0.18994487759E+01  0.51100000000E-03 0.  1.
    9000002    1    1    2    0    0  0.75812423536E-01  0.51746327139E-01  0.20796596964E-01  0.94270976678E+00  0.93800000000E+00 0.  1.
         22    1    1    2    0    0 -0.19879373633E+00  0.40690292510E-01  0.20859953894E+01  0.20958414573E+01  0.00000000000E+00 0.  1.
</event>
<event>
 5    1  0.1461556E+002  0.1599674E+01  0.7818608E-02  0.3353717E+00
         11   -1    0    0    0    0  0.00000000000E+00  0.00000000000E+00  0.39999999674E+01  0.40000000000E+01  0.51100000000E-03 0. -1.
    9000002   -1    0    0    0    0 -0.00000000000E+00 -0.00000000000E+00  0.00000000000E+00  0.93800000000E+00  0.93800000000E+00 0.  1.
         11    1    1    2    0    0 -0.19081590265E+00  0.11870817676E+00  0.15999336478E+01  0.16156392786E+01  0.51100000000E-03 0. -1.
    9000002    1    1    2    0    0  0.45220646533E+00 -0.27762448913E+00  0.19378337482E+00  0.10949712510E+01  0.93800000000E+00 0.  1.
         22    1    1    2    0    0 -0.26139056268E+00  0.15891631237E+00  0.22062829447E+01  0.22273894704E+01  0.00000000000E+00 0.  1.
</event>
<event>
 5    1  0.1461556E+002  0.1599536E+01  0.7818608E-02  0.3353867E+00
         11   -1    0    0    0    0  0.00000000000E+00  0.00000000000E+00  0.39999999674E+01  0.40000000000E+01  0.51100000000E-03 0. -1.
    9000002   -1    0    0    0    0 -0.00000000000E+00 -0.00000000000E+00  0.00000000000E+00  0.93800000000E+00  0.93800000000E+00 0. -1.
         11    1    1    2    0    0 -0.15004914520E-01 -0.10710677352E-01  0.20613219764E+00  0.20695557517E+00  0.51100000000E-03 0. -1.
    9000002    1    1    2    0    0  0.17597831447E+00  0.15874108686E+00  0.37382278971E-01  0.96819860287E+00  0.93800000000E+00 0. -1.
         22    1    1    2    0    0 -0.16097339995E+00 -0.14803040951E+00  0.37564854907E+01  0.37628458220E+01  0.00000000000E+00 0. -1.
</event>
<event>
 5    1  0.1461556E+002  0.1464471E+01  0.7818608E-02  0.3515015E+00
         11   -1    0    0    0    0  0.00000000000E+00  0.00000000000E+00  0.39999999674E+01  0.40000000000E+01  0.51100000000E-03 0. -1.
    9000002   -1    0    0    0    0 -0.00000000000E+00 -0.00000000000E+00  0.00000000000E+00  0.93800000000E+00  0.93800000000E+00 0. -1.
         11    1    1    2    0    0 -0.63465373480E-01 -0.14933783556E+00  0.76146889511E-01  0.17924355683E+00  0.51100000000E-03 0. -1.
    9000002    1    1    2    0    0  0.24705603647E+00  0.58615136359E-01  0.15464271169E+00  0.98398718876E+00  0.93800000000E+00 0. -1.
         22    1    1    2    0    0 -0.18359066299E+00  0.90722699199E-01  0.37692103662E+01  0.37747692544E+01  0.00000000000E+00 0. -1.
</event>
<event>
 5    1  0.1461556E+002  0.1599634E+01  0.7818608E-02  0.3353761E+00
         11   -1    0    0    0    0  0.00000000000E+00  0.00000000000E+00  0.39999999674E+01  0.40000000000E+01  0.51100000000E-03 0.  1.
    9000002   -1    0    0    0    0 -0.00000000000E+00 -0.00000000000E+00  0.00000000000E+00  0.93800000000E+00  0.93800000000E+00 0. -1.
         11    1    1    2    0    0 -0.39919967913E-01 -0.47956747490E-01  0.62984008304E+00  0.63292356947E+00  0.51100000000E-03 0.  1.
    9000002    1    1    2    0    0  0.24759248551E+00  0.26193981084E+00  0.87245737737E-01  0.10086477691E+01  0.93800000000E+00 0. -1.
         22    1    1    2    0    0 -0.20767251760E+00 -0.21398306335E+00  0.32829141466E+01  0.32964286614E+01  0.00000000000E+00 0.  1.
</event>
<event>
 5    1  0.1461556E+002  0.1535988E+01  0.7818608E-02  0.3425912E+00
         11   -1    0    0    0    0  0.00000000000E+00  0.00000000000E+00  0.39999999674E+01  0.40000000000E+01  0.51100000000E-03 0. -1.
    9000002   -1    0    0    0    0 -0.00000000000E+00 -0.00000000000E+00  0.00000000000E+00  0.93800000000E+00  0.93800000000E+00 0.  1.
         11    1    1    2    0    0 -0.76050608975E-01 -0.30522053378E-01  0.92387019632E+00  0.92749754266E+00  0.51100000000E-03 0. -1.
    9000002    1    1    2    0    0 -0.61868073360E+00 -0.36337647970E+00  0.44694614032E+00  0.12627007438E+01  0.93800000000E+00 0.  1.
         22    1    1    2    0    0  0.69473134257E+00  0.39389853308E+00  0.26291836307E+01  0.27478017135E+01  0.00000000000E+00 0. -1.
</event>
<event>
 5    1  0.1461556E+002  0.1599677E+01  0.7818608E-02  0.3353714E+00
         11   -1    0    0    0    0  0.00000000000E+00  0.00000000000E+00  0.39999999674E+01  0.40000000000E+01  0.51100000000E-03 0. -1.
    9000002   -1    0    0    0    0 -0.00000000000E+00 -0.00000000000E+00  0.00000000000E+00  0.93800000000E+00  0.93800000000E+00 0.  1.
         11    1    1    2    0    0 -0.69426046897E-01 -0.17133296027E+00  0.95109246190E+00  0.96889219806E+00  0.51100000000E-03 0.  1.
    9000002    1    1    2    0    0  0.26608620318E+00  0.65571109502E+00  0.35862286126E+00  0.12285004128E+01  0.93800000000E+00 0.  1.
         22    1    1    2    0    0 -0.19666015629E+00 -0.48437813475E+00  0.26902846442E+01  0.27406073891E+01  0.00000000000E+00 0. -1.
</event>
<event>
 5    1  0.1461556E+002  0.1598167E+01  0.7818608E-02  0.3355355E+00
         11   -1    0    0    0    0  0.00000000000E+00  0.00000000000E+00  0.39999999674E+01  0.40000000000E+01  0.51100000000E-03 0. -1.
    9000002   -1    0    0    0    0 -0.00000000000E+00 -0.00000000000E+00  0.00000000000E+00  0.93800000000E+00  0.93800000000E+00 0.  1.
         11    1    1    2    0    0  0.16662272018E-01 -0.15827852279E+00  0.18807672672E+01  0.18874892044E+01  0.51100000000E-03 0. -1.
    9000002    1    1    2    0    0  0.61729997407E-01  0.34287373292E+00  0.82582729518E-01  0.10040104066E+01  0.93800000000E+00 0.  1.
         22    1    1    2    0    0 -0.78392269425E-01 -0.18459521013E+00  0.20366499707E+01  0.20465003891E+01  0.00000000000E+00 0. -1.
</event>
<event>
 5    1  0.1461556E+002  0.1597728E+01  0.7818608E-02  0.3355833E+00
         11   -1    0    0    0    0  0.00000000000E+00  0.00000000000E+00  0.39999999674E+01  0.40000000000E+01  0.51100000000E-03 0. -1.
    9000002   -1    0    0    0    0 -0.00000000000E+00 -0.00000000000E+00  0.00000000000E+00  0.93800000000E+00  0.93800000000E+00 0.  1.
         11    1    1    2    0    0 -0.11793012341E-01  0.70310553003E-02  0.64593307298E+00  0.64607917995E+00  0.51100000000E-03 0. -1.
    9000002    1    1    2    0    0  0.19158290797E+00  0.16585310610E+00  0.44158836874E-01  0.97262802052E+00  0.93800000000E+00 0.  1.
         22    1    1    2    0    0 -0.17978989563E+00 -0.17288416140E+00  0.33099080575E+01  0.33192927995E+01  0.00000000000E+00 0. -1.
</event>
<event>
 5    1  0.1461556E+002  0.1583926E+01  0.7818608E-02  0.3370997E+00
         11   -1    0    0    0    0  0.00000000000E+00  0.00000000000E+00  0.39999999674E+01  0.40000000000E+01  0.51100000000E-03 0.  1.
    9000002   -1    0    0    0    0 -0.00000000000E+00 -0.00000000000E+00  0.00000000000E+00  0.93800000000E+00  0.93800000000E+00 0. -1.
         11    1    1    2    0    0 -0.76220830308E-01  0.18880715391E-01  0.44207886098E+00  0.44899897198E+00  0.51100000000E-03 0.  1.
    9000002    1    1    2    0    0 -0.16385637405E+00 -0.28639086372E+00  0.85481876790E-01  0.99800791049E+00  0.93800000000E+00 0. -1.
         22    1    1    2    0    0  0.24007720436E+00  0.26751014833E+00  0.34724392296E+01  0.34909931175E+01  0.00000000000E+00 0.  1.
</event>
<event>
 5    1  0.1461556E+002  0.1599630E+01  0.7818608E-02  0.3353765E+00
         11   -1    0    0    0    0  0.00000000000E+00  0.00000000000E+00  0.39999999674E+01  0.40000000000E+01  0.51100000000E-03 0.  1.
    9000002   -1    0    0    0    0 -0.00000000000E+00 -0.00000000000E+00  0.00000000000E+00  0.93800000000E+00  0.93800000000E+00 0. -1.
         11    1    1    2    0    0 -0.22257377731E-01 -0.87379015059E-01  0.93248335721E+00  0.93683293907E+00  0.51100000000E-03 0.  1.
    9000002    1    1    2    0    0  0.11125986534E+00  0.38763228770E+00  0.10978805786E+00  0.10269055291E+01  0.93800000000E+00 0. -1.
         22    1    1    2    0    0 -0.89002487612E-01 -0.30025327264E+00  0.29577285523E+01  0.29742615318E+01  0.00000000000E+00 0.  1.
</event>
<event>
 5    1  0.1461556E+002  0.1593068E+01  0.7818608E-02  0.3360922E+00
         11   -1    0    0    0    0  0.00000000000E+00  0.00000000000E+00  0.39999999674E+01  0.40000000000E+01  0.51100000000E-03 0. -1.
    9000002   -1    0    0    0    0 -0.00000000000E+00 -0.00000000000E+00  0.00000000000E+00  0.93800000000E+00  0.93800000000E+00 0. -1.
         11    1    1    2    0    0 -0.40846836312E-01 -0.12701048198E-03  0.85940947616E+00  0.86037979346E+00  0.51100000000E-03 0. -1.
    9000002    1    1    2    0    0 -0.17578108670E+00  0.76187111402E-01  0.29241147770E-01  0.95781131289E+00  0.93800000000E+00 0. -1.
         22    1    1    2    0    0  0.21662792301E+00 -0.76060100920E-01  0.31113493434E+01  0.31198088936E+01  0.00000000000E+00 0. -1.
</event>
<event>
 5    1  0.1461556E+002  0.1599673E+01  0.7818608E-02  0.3353719E+00
         11   -1    0    0    0    0  0.00000000000E+00  0.00000000000E+00  0.39999999674E+01  0.40000000000E+01  0.51100000000E-03 0. -1.
    9000002   -1    0    0    0    0 -0.00000000000E+00 -0.00000000000E+00  0.00000000000E+00  0.93800000000E+00  0.93800000000E+00 0. -1.
         11    1    1    2    0    0  0.54131450385E+00  0.54028071871E-01  0.25901256387E+01  0.26466377746E+01  0.51100000000E-03 0. -1.
    9000002    1    1    2    0    0 -0.75141912029E+00 -0.72399634462E-01  0.41373845578E+00  0.12731441046E+01  0.93800000000E+00 0. -1.
         22    1    1    2    0    0  0.21010461644E+00  0.18371562591E-01  0.99613587286E+00  0.10182181207E+01  0.00000000000E+00 0. -1.
</event>
<event>
 5    1  0.1461556E+002  0.1599675E+01  0.7818608E-02  0.3353716E+00
         11   -1    0    0    0    0  0.00000000000E+00  0.00000000000E+00  0.39999999674E+01  0.40000000000E+01  0.51100000000E-03 0.  1.
    9000002   -1    0    0    0    0 -0.00000000000E+00 -0.00000000000E+00  0.00000000000E+00  0.93800000000E+00  0.93800000000E+00 0. -1.
         11    1    1    2    0    0  0.19264444799E+00  0.23677677949E-01  0.18269795901E+01  0.18372607870E+01  0.51100000000E-03 0.  1.
    9000002    1    1    2    0    0 -0.40701435281E+00 -0.53069670028E-01  0.11379803918E+00  0.10301801139E+01  0.93800000000E+00 0. -1.
         22    1    1    2    0    0  0.21436990482E+00  0.29391992080E-01  0.20592223381E+01  0.20705590991E+01  0.00000000000E+00 0. -1.
</event>
<event>
 5    1  0.1461556E+002  0.1594847E+01  0.7818608E-02  0.3358976E+00
         11   -1    0    0    0    0  0.00000000000E+00  0.00000000000E+00  0.39999999674E+01  0.40000000000E+01  0.51100000000E-03 0. -1.
    9000002   -1    0    0    0    0 -0.00000000000E+00 -0.00000000000E+00  0.00000000000E+00  0.93800000000E+00  0.93800000000E+00 0.  1.
         11    1    1    2    0    0  0.58263165297E-01  0.99488256768E-01  0.18250295414E+01  0.18286677112E+01  0.51100000000E-03 0. -1.
    9000002    1    1    2    0    0 -0.29471156256E+00 -0.26521551765E+00  0.11000274116E+00  0.10242747576E+01  0.93800000000E+00 0.  1.
         22    1    1    2    0    0  0.23644839726E+00  0.16572726088E+00  0.20649676848E+01  0.20850575313E+01  0.00000000000E+00 0. -1.
</event>
<event>
 5    1  0.1461556E+002  0.1528287E+01  0.7818608E-02  0.3435076E+00
         11   -1    0    0    0    0  0.00000000000E+00  0.00000000000E+00  0.39999999674E+01  0.40000000000E+01  0.51100000000E-03 0.  1.
    9000002   -1    0    0    0    0 -0.00000000000E+00 -0.00000000000E+00  0.00000000000E+00  0.93800000000E+00  0.93800000000E+00 0. -1.
         11    1    1    2    0    0 -0.23282433407E+00 -0.51828045115E-01  0.30501003880E+01  0.30594126814E+01  0.51100000000E-03 0.  1.
    9000002    1    1    2    0    0 -0.40703996877E-01 -0.10912526590E-01  0.54819061365E-01  0.94054506967E+00  0.93800000000E+00 0. -1.
         22    1    1    2    0    0  0.27352833095E+00  0.62740571705E-01  0.89508051795E+00  0.93804224893E+00  0.00000000000E+00 0.  1.
</event>
<event>
 5    1  0.1461556E+002  0.1597859E+01  0.7818608E-02  0.3355691E+00
         11   -1    0    0    0    0  0.00000000000E+00  0.00000000000E+00  0.39999999674E+01  0.40000000000E+01  0.51100000000E-03 0. -1.
    9000002   -1    0    0    0    0 -0.00000000000E+00 -0.00000000000E+00  0.00000000000E+00  0.93800000000E+00  0.93800000000E+00 0.  1.
         11    1    1    2    0    0 -0.62071709084E-03  0.41422808192E-01  0.27303810111E+00  0.27616353870E+00  0.51100000000E-03 0. -1.
    9000002    1    1    2    0    0 -0.12156137939E+00 -0.24432544779E+00  0.50967510741E-01  0.97821969953E+00  0.93800000000E+00 0.  1.
         22    1    1    2    0    0  0.12218209648E+00  0.20290263960E+00  0.36759943555E+01  0.36836167618E+01  0.00000000000E+00 0. -1.
</event>
<event>
 5    1  0.1461556E+002  0.1599669E+01  0.7818608E-02  0.3353723E+00
         11   -1    0    0    0    0  0.00000000000E+00  0.00000000000E+00  0.39999999674E+01  0.40000000000E+01  0.51100000000E-03 0. -1.
    9000002   -1    0    0    0    0 -0.00000000000E+00 -0.00000000000E+00  0.00000000000E+00  0.93800000000E+00  0.93800000000E+00 0. -1.
         11    1    1    2    0    0 -0.18355530111E-02  0.14542786388E-02  0.30398401623E-01  0.30492755262E-01  0.51100000000E-03 0. -1.
    9000002    1    1    2    0    0  0.19628922122E+00 -0.18740398659E+00  0.49014880653E-01  0.97769942778E+00  0.93800000000E+00 0. -1.
         22    1    1    2    0    0 -0.19445366821E+00  0.18594970795E+00  0.39205866851E+01  0.39298078170E+01  0.00000000000E+00 0. -1.
</event>
<event>
 5    1  0.1461556E+002  0.1599676E+01  0.7818608E-02  0.3353715E+00
         11   -1    0    0    0    0  0.00000000000E+00  0.00000000000E+00  0.39999999674E+01  0.40000000000E+01  0.51100000000E-03 0. -1.
    9000002   -1    0    0    0    0 -0.00000000000E+00 -0.00000000000E+00  0.00000000000E+00  0.93800000000E+00  0.93800000000E+00 0. -1.
         11    1    1    2    0    0  0.27744509666E-01 -0.16273396561E-01  0.28850166538E+00  0.29028960247E+00  0.51100000000E-03 0.  1.
    9000002    1    1    2    0    0 -0.37055779507E+00  0.21907032733E+00  0.12550401339E+00  0.10396634769E+01  0.93800000000E+00 0. -1.
         22    1    1    2    0    0  0.34281328540E+00 -0.20279693077E+00  0.35859942886E+01  0.36080469206E+01  0.00000000000E+00 0. -1.
</event>
<event>
 5    1  0.1461556E+002  0.1594336E+01  0.7818608E-02  0.3359534E+00
         11   -1    0    0    0    0  0.00000000000E+00  0.00000000000E+00  0.39999999674E+01  0.40000000000E+01  0.51100000000E-03 0.  1.
    9000002   -1    0    0    0    0 -0.00000000000E+00 -0.00000000000E+00  0.00000000000E+00  0.93800000000E+00  0.93800000000E+00 0. -1.
         11    1    1    2    0    0  0.63850533204E-02 -0.29037287544E-02  0.14661579020E+01  0.14661747696E+01  0.51100000000E-03 0.  1.
    9000002    1    1    2    0    0  0.43017112561E-01  0.22940945856E+00  0.40210116832E-01  0.96743993361E+00  0.93800000000E+00 0. -1.
         22    1    1    2    0    0 -0.49402165881E-01 -0.22650572980E+00  0.24936319486E+01  0.25043852967E+01  0.00000000000E+00 0.  1.
</event>
<event>
 5    1  0.1461556E+002  0.1579213E+01  0.7818608E-02  0.3376238E+00
         11   -1    0    0    0    0  0.00000000000E+00  0.00000000000E+00  0.39999999674E+01  0.40000000000E+01  0.51100000000E-03 0. -1.
    9000002   -1    0    0    0    0 -0.00000000000E+00 -0.00000000000E+00  0.00000000000E+00  0.93800000000E+00  0.93800000000E+00 0.  1.
         11    1    1    2    0    0 -0.87073670262E-03 -0.90698273992E-01  0.25902958835E+00  0.27445131416E+00  0.51100000000E-03 0. -1.
    9000002    1    1    2    0    0  0.21485229169E+00  0.81607473012E-01  0.50707877673E-01  0.96707630296E+00  0.93800000000E+00 0.  1.
         22    1    1    2    0    0 -0.21398155498E+00  0.90908009796E-02  0.36902625013E+01  0.36964723829E+01  0.00000000000E+00 0. -1.
</event>
<event>
 5    1  0.1461556E+002  0.1599677E+01  0.7818608E-02  0.3353714E+00
         11   -1    0    0    0    0  0.00000000000E+00  0.00000000000E+00  0.39999999674E+01  0.40000000000E+01  0.51100000000E-03 0.  1.
    9000002   -1    0    0    0    0 -0.00000000000E+00 -0.00000000000E+00  0.00000000000E+00  0.93800000000E+00  0.93800000000E+00 0. -1.
         11    1    1    2    0    0 -0.20965105422E+00  0.18036499720E+00  0.21440184657E+01  0.21617817973E+01  0.51100000000E-03 0.  1.
    9000002    1    1    2    0    0  0.37590939665E+00 -0.32267014320E+00  0.16787781054E+00  0.10739882937E+01  0.93800000000E+00 0. -1.
         22    1    1    2    0    0 -0.16625834244E+00  0.14230514600E+00  0.16881036911E+01  0.17022299090E+01  0.00000000000E+00 0.  1.
</event>
<event>
 5    1  0.1461556E+002  0.1599666E+01  0.7818608E-02  0.3353726E+00
         11   -1    0    0    0    0  0.00000000000E+00  0.00000000000E+00  0.39999999674E+01  0.40000000000E+01  0.51100000000E-03 0. -1.
    9000002   -1    0    0    0    0 -0.00000000000E+00 -0.00000000000E+00  0.00000000000E+00  0.93800000000E+00  0.93800000000E+00 0. -1.
         11    1    1    2    0    0  0.60762922424E-02  0.11215060418E-01  0.18503258092E+00  0.18547241313E+00  0.51100000000E-03 0. -1.
    9000002    1    1    2    0    0 -0.97314644000E-01 -0.22711059100E+00  0.40554089397E-01  0.97084395999E+00  0.93800000000E+00 0. -1.
         22    1    1    2    0    0  0.91238351757E-01  0.21589553058E+00  0.37744132970E+01  0.37816836269E+01  0.00000000000E+00 0. -1.
</event>
<event>
 5    1  0.1461556E+002  0.1589973E+01  0.7818608E-02  0.3364318E+00
         11   -1    0    0    0    0  0.00000000000E+00  0.00000000000E+00  0.39999999674E+01  0.40000000000E+01  0.51100000000E-03 0.  1.
    9000002   -1    0    0    0    0 -0.00000000000E+00 -0.00000000000E+00  0.00000000000E+00  0.93800000000E+00  0.93800000000E+00 0.  1.
         11    1    1    2    0    0  0.20471784685E-01  0.39811405244E-01  0.17205675666E+01  0.17211499221E+01  0.51100000000E-03 0.  1.
    9000002    1    1    2    0    0  0.11736796294E+00  0.12383791392E+00  0.26478688481E-01  0.95375897825E+00  0.93800000000E+00 0.  1.
         22    1    1    2    0    0 -0.13783974762E+00 -0.16364931916E+00  0.22529537122E+01  0.22630910996E+01  0.00000000000E+00 0.  1.
</event>
<event>
 5    1  0.1461556E+002  0.1597085E+01  0.7818608E-02  0.3356534E+00
         11   -1    0    0    0    0  0.00000000000E+00  0.00000000000E+00  0.39999999674E+01  0.40000000000E+01  0.51100000000E-03 0.  1.
    9000002   -1    0    0    0    0 -0.00000000000E+00 -0.00000000000E+00  0.00000000000E+00  0.93800000000E+00  0.93800000000E+00 0. -1.
         11    1    1    2    0    0 -0.76593412584E-01  0.60061288794E-01  0.77802406748E+00  0.78408903828E+00  0.51100000000E-03 0.  1.
    9000002    1    1    2    0    0  0.18578854559E+00 -0.44516694243E+00  0.16113268477E+00  0.10670045606E+01  0.93800000000E+00 0. -1.
         22    1    1    2    0    0 -0.10919513301E+00  0.38510565364E+00  0.30608432151E+01  0.30869064011E+01  0.00000000000E+00 0.  1.
</event>
<event>
 5    1  0.1461556E+002  0.1553866E+01  0.7818608E-02  0.3405010E+00
         11   -1    0    0    0    0  0.00000000000E+00  0.00000000000E+00  0.39999999674E+01  0.40000000000E+01  0.51100000000E-03 0.  1.
    9000002   -1    0    0    0    0 -0.00000000000E+00 -0.00000000000E+00  0.00000000000E+00  0.93800000000E+00  0.93800000000E+00 0. -1.
         11    1    1    2    0    0 -0.14205539628E+00  0.19305617692E+00  0.26913357073E+01  0.27019878929E+01  0.51100000000E-03 0.  1.
    9000002    1    1    2    0    0  0.95183891016E-01  0.51181496266E-01  0.41972571851E-01  0.94513767011E+00  0.93800000000E+00 0. -1.
         22    1    1    2    0    0  0.46871505263E-01 -0.24423767319E+00  0.12666916882E+01  0.12908744370E+01  0.00000000000E+00 0.  1.
</event>
<event>
 5    1  0.1461556E+002  0.1599676E+01  0.7818608E-02  0.3353715E+00
         11   -1    0    0    0    0  0.00000000000E+00  0.00000000000E+00  0.39999999674E+01  0.40000000000E+01  0.51100000000E-03 0.  1.
    9000002   -1    0    0    0    0 -0.00000000000E+00 -0.00000000000E+00  0.00000000000E+00  0.93800000000E+00  0.93800000000E+00 0. -1.
         11    1    1    2    0    0  0.44605230512E-02  0.19161687491E-01  0.34655418016E+00  0.34711255731E+00  0.51100000000E-03 0.  1.
    9000002    1    1    2    0    0 -0.49135827503E-01 -0.22506691141E+00  0.35203508541E-01  0.96651576871E+00  0.93800000000E+00 0. -1.
         22    1    1    2    0    0  0.44675304451E-01  0.20590522392E+00  0.36182422787E+01  0.36243716740E+01  0.00000000000E+00 0.  1.
</event>
<event>
 5    1  0.1461556E+002  0.1599671E+01  0.7818608E-02  0.3353721E+00
         11   -1    0    0    0    0  0.00000000000E+00  0.00000000000E+00  0.39999999674E+01  0.40000000000E+01  0.51100000000E-03 0.  1.
    9000002   -1    0    0    0    0 -0.00000000000E+00 -0.00000000000E+00  0.00000000000E+00  0.93800000000E+00  0.93800000000E+00 0. -1.
         11    1    1    2    0    0  0.31457955972E-01 -0.32057581189E+00  0.17388599426E+01  0.17684435572E+01  0.51100000000E-03 0.  1.
    9000002    1    1    2    0    0 -0.72502866078E-01  0.67558142923E+00  0.32817216047E+00  0.12038305113E+01  0.93800000000E+00 0. -1.
         22    1    1    2    0    0  0.41044910106E-01 -0.35500561734E+00  0.19329678643E+01  0.19657259314E+01  0.00000000000E+00 0. -1.
</event>
<event>
 5    1  0.1461556E+002  0.1599600E+01  0.7818608E-02  0.3353797E+00
         11   -1    0    0    0    0  0.00000000000E+00  0.00000000000E+00  0.39999999674E+01  0.40000000000E+01  0.51100000000E-03 0. -1.
    9000002   -1    0    0    0    0 -0.00000000000E+00 -0.00000000000E+00  0.00000000000E+00  0.93800000000E+00  0.93800000000E+00 0.  1.
         11    1    1    2    0    0  0.60710507236E-02 -0.34195742792E-02  0.17042299935E+00  0.17056614838E+00  0.51100000000E-03 0. -1.
    9000002    1    1    2    0    0 -0.23395467204E+00  0.45427506477E-01  0.37756058963E-01  0.96853908899E+00  0.93800000000E+00 0.  1.
         22    1    1    2    0    0  0.22788362132E+00 -0.42007932198E-01  0.37918209090E+01  0.37988947626E+01  0.00000000000E+00 0. -1.
</event>
<event>
 5    1  0.1461556E+002  0.1593665E+01  0.7818608E-02  0.3360268E+00
         11   -1    0    0    0    0  0.00000000000E+00  0.00000000000E+00  0.39999999674E+01  0.40000000000E+01  0.51100000000E-03 0.  1.
    9000002   -1    0    0    0    0 -0.00000000000E+00 -0.00000000000E+00  0.00000000000E+00  0.93800000000E+00  0.93800000000E+00 0.  1.
         11    1    1    2    0    0 -0.20542692532E-01  0.11984592985E-01  0.42173257481E-01  0.48419804348E-01  0.51100000000E-03 0.  1.
    9000002    1    1    2    0    0  0.31625941971E+00 -0.12475592618E+00  0.82243103625E-01  0.10010953949E+01  0.93800000000E+00 0.  1.
         22    1    1    2    0    0 -0.29571672718E+00  0.11277133319E+00  0.38755836063E+01  0.38884848007E+01  0.00000000000E+00 0.  1.
</event>
<event>
 5    1  0.1461556E+002  0.1599661E+01  0.7818608E-02  0.3353731E+00
         11   -1    0    0    0    0  0.00000000000E+00  0.00000000000E+00  0.39999999674E+01  0.40000000000E+01  0.51100000000E-03 0.  1.
    9000002   -1    0    0    0    0 -0.00000000000E+00 -0.00000000000E+00  0.00000000000E+00  0.93800000000E+00  0.93800000000E+00 0. -1.
         11    1    1    2    0    0  0.24771355059E-01  0.27279556180E-01  0.58319903213E+00  0.58436218771E+00  0.51100000000E-03 0.  1.
    9000002    1    1    2    0    0 -0.19056419722E+00 -0.18119324345E+00  0.45991852338E-01  0.97524609982E+00  0.93800000000E+00 0. -1.
         22    1    1    2    0    0  0.16579284216E+00  0.15391368727E+00  0.33708090829E+01  0.33783917125E+01  0.00000000000E+00 0.  1.
</event>
<event>
 5    1  0.1461556E+002  0.1597244E+01  0.7818608E-02  0.3356360E+00
         11   -1    0    0    0    0  0.00000000000E+00  0.00000000000E+00  0.39999999674E+01  0.40000000000E+01  0.51100000000E-03 0.  1.
    9000002   -1    0    0    0    0 -0.00000000000E+00 -0.00000000000E+00  0.00000000000E+00  0.93800000000E+00  0.93800000000E+00 0.  1.
         11    1    1    2    0    0  0.35385932438E-01 -0.25984550347E-02  0.61352726545E+00  0.61455258746E+00  0.51100000000E-03 0.  1.
    9000002    1    1    2    0    0 -0.16304565704E+00  0.28516539036E+00  0.74120968638E-01  0.99661482235E+00  0.93800000000E+00 0.  1.
         22    1    1    2    0    0  0.12765972460E+00 -0.28256693532E+00  0.33123517333E+01  0.33268325902E+01  0.00000000000E+00 0.  1.
</event>
<event>
 5    1  0.1461556E+002  0.1589273E+01  0.7818608E-02  0.3365089E+00
         11   -1    0    0    0    0  0.00000000000E+00  0.00000000000E+00  0.39999999674E+01  0.40000000000E+01  0.51100000000E-03 0.  1.
    9000002   -1    0    0    0    0 -0.00000000000E+00 -0.00000000000E+00  0.00000000000E+00  0.93800000000E+00  0.93800000000E+00 0. -1.
         11    1    1    2    0    0  0.96313827986E-01 -0.18784350348E-01  0.37348761385E+00  0.38616377886E+00  0.51100000000E-03 0.  1.
    9000002    1    1    2    0    0 -0.24709852247E+00  0.19174148545E+00  0.73582143187E-01  0.99150431610E+00  0.93800000000E+00 0. -1.
         22    1    1    2    0    0  0.15078469448E+00 -0.17295713510E+00  0.35529302103E+01  0.35603319050E+01  0.00000000000E+00 0.  1.
</event>
<event>
 5    1  0.1461556E+002  0.1599585E+01  0.7818608E-02  0.3353814E+00
         11   -1    0    0    0    0  0.00000000000E+00  0.00000000000E+00  0.39999999674E+01  0.40000000000E+01  0.51100000000E-03 0. -1.
    9000002   -1    0    0    0    0 -0.00000000000E+00 -0.00000000000E+00  0.00000000000E+00  0.93800000000E+00  0.93800000000E+00 0. -1.
         11    1    1    2    0    0  0.53107968469E-01 -0.55356452290E-01  0.91453076680E+00  0.91774265329E+00  0.51100000000E-03 0. -1.
    9000002    1    1    2    0    0 -0.20132080222E+00  0.20700632883E+00  0.55639637066E-01  0.98301650789E+00  0.93800000000E+00 0. -1.
         22    1    1    2    0    0  0.14821283375E+00 -0.15164987654E+00  0.30298295635E+01  0.30372408388E+01  0.00000000000E+00 0. -1.
</event>
<event>
 5    1  0.1461556E+002  0.1543729E+01  0.7818608E-02  0.3416798E+00
         11   -1    0    0    0    0  0.00000000000E+00  0.00000000000E+00  0.39999999674E+01  0.40000000000E+01  0.51100000000E-03 0. -1.
    9000002   -1    0    0    0    0 -0.00000000000E+00 -0.00000000000E+00  0.00000000000E+00  0.93800000000E+00  0.93800000000E+00 0. -1.
         11    1    1    2    0    0 -0.22794548497E+00  0.91320484211E-01  0.14631424887E+01  0.14836053311E+01  0.51100000000E-03 0. -1.
    9000002    1    1    2    0    0 -0.14690987449E-01  0.14587549752E+00  0.56643021158E-01  0.95107724068E+00  0.93800000000E+00 0. -1.
         22    1    1    2    0    0  0.24263647242E+00 -0.23719598173E+00  0.24802144575E+01  0.25033174283E+01  0.00000000000E+00 0. -1.
</event>
<event>
 5    1  0.1461556E+002  0.1599673E+01  0.7818608E-02  0.3353718E+00
         11   -1    0    0    0    0  0.00000000000E+00  0.00000000000E+00  0.39999999674E+01  0.40000000000E+01  0.51100000000E-03 0.  1.
    9000002   -1    0    0    0    0 -0.00000000000E+00 -0.00000000000E+00  0.00000000000E+00  0.93800000000E+00  0.93800000000E+00 0. -1.
         11    1    1    2    0    0  0.23181010591E-01  0.12817785975E-01  0.39950688792E+00  0.40038440217E+00  0.51100000000E-03 0.  1.
    9000002    1    1    2    0    0 -0.24186706643E+00 -0.12141097301E+00  0.48736160527E-01  0.97747609461E+00  0.93800000000E+00 0. -1.
         22    1    1    2    0    0  0.21868605584E+00  0.10859318703E+00  0.35517569189E+01  0.35601395032E+01  0.00000000000E+00 0.  1.
</event>
<event>
 5    1  0.1461556E+002  0.1599609E+01  0.7818608E-02  0.3353788E+00
         11   -1    0    0    0    0  0.00000000000E+00  0.00000000000E+00  0.39999999674E+01  0.40000000000E+01  0.51100000000E-03 0. -1.
    9000002   -1    0    0    0    0 -0.00000000000E+00 -0.00000000000E+00  0.00000000000E+00  0.93800000000E+00  0.93800000000E+00 0. -1.
         11    1    1    2    0    0  0.38312115827E-01 -0.26051168361E-01  0.77811184619E+00  0.77949008197E+00  0.51100000000E-03 0. -1.
    9000002    1    1    2    0    0 -0.23334467445E+00  0.12162573621E+00  0.46097104132E-01  0.97530072276E+00  0.93800000000E+00 0. -1.
         22    1    1    2    0    0  0.19503255863E+00 -0.95574567849E-01  0.31757910170E+01  0.31832091953E+01  0.00000000000E+00 0. -1.
</event>
<event>
 5    1  0.1461556E+002  0.1599653E+01  0.7818608E-02  0.3353740E+00
         11   -1    0    0    0    0  0.00000000000E+00  0.00000000000E+00  0.39999999674E+01  0.40000000000E+01  0.51100000000E-03 0. -1.
    9000002   -1    0    0    0    0 -0.00000000000E+00 -0.00000000000E+00  0.00000000000E+00  0.93800000000E+00  0.93800000000E+00 0. -1.
         11    1    1    2    0    0  0.89858021190E-02  0.88064864067E-02  0.13667417766E+00  0.13725301747E+00  0.51100000000E-03 0. -1.
    9000002    1    1    2    0    0 -0.25920471473E+00 -0.31076962983E+00  0.11054939536E+00  0.10275358951E+01  0.93800000000E+00 0. -1.
         22    1    1    2    0    0  0.25021891261E+00  0.30196314342E+00  0.37527763943E+01  0.37732110874E+01  0.00000000000E+00 0. -1.
</event>
<event>
 5    1  0.1461556E+002  0.1599403E+01  0.7818608E-02  0.3354011E+00
         11   -1    0    0    0    0  0.00000000000E+00  0.00000000000E+00  0.39999999674E+01  0.40000000000E+01  0.51100000000E-03 0.  1.
    9000002   -1    0    0    0    0 -0.00000000000E+00 -0.00000000000E+00  0.00000000000E+00  0.93800000000E+00  0.93800000000E+00 0.  1.
         11    1    1    2    0    0  0.17865984706E-01  0.25105911606E-02  0.45955655177E+00  0.45991084122E+00  0.51100000000E-03 0.  1.
    9000002    1    1    2    0    0 -0.25039250795E+00 -0.73905503280E-01  0.45526541960E-01  0.97471795791E+00  0.93800000000E+00 0.  1.
         22    1    1    2    0    0  0.23252652324E+00  0.71394912119E-01  0.34949168736E+01  0.35033712009E+01  0.00000000000E+00 0.  1.
</event>
<event>
 5    1  0.1461556E+002  0.1598422E+01  0.7818608E-02  0.3355078E+00
         11   -1    0    0    0    0  0.00000000000E+00  0.00000000000E+00  0.39999999674E+01  0.40000000000E+01  0.51100000000E-03 0. -1.
    9000002   -1    0    0    0    0 -0.00000000000E+00 -0.00000000000E+00  0.00000000000E+00  0.93800000000E+00  0.93800000000E+00 0. -1.
         11    1    1    2    0    0  0.59159165286E-01  0.11543342654E+00  0.85692790191E+00  0.86668931745E+00  0.51100000000E-03 0. -1.
    9000002    1    1    2    0    0 -0.12755957601E+00 -0.43913210082E+00  0.14326842636E+00  0.10533177533E+01  0.93800000000E+00 0. -1.
         22    1    1    2    0    0  0.68400410728E-01  0.32369867428E+00  0.29998036391E+01  0.30179929293E+01  0.00000000000E+00 0. -1.
</event>
<event>
 5    1  0.1461556E+002  0.1573185E+01  0.7818608E-02  0.3382991E+00
         11   -1    0    0    0    0  0.00000000000E+00  0.00000000000E+00  0.39999999674E+01  0.40000000000E+01  0.51100000000E-03 0.  1.
    9000002   -1    0    0    0    0 -0.00000000000E+00 -0.00000000000E+00  0.00000000000E+00  0.93800000000E+00  0.93800000000E+00 0.  1.
         11    1    1    2    0    0  0.59013851665E-01  0.13613066409E+00  0.27021829903E+01  0.27062533818E+01  0.51100000000E-03 0.  1.
    9000002    1    1    2    0    0  0.12874064743E+00 -0.39524576226E-01  0.31704944523E-01  0.94814848517E+00  0.93800000000E+00 0.  1.
         22    1    1    2    0    0 -0.18775449909E+00 -0.96606087868E-01  0.12661120326E+01  0.12835981330E+01  0.00000000000E+00 0.  1.
</event>
<event>
 5    1  0.1461556E+002  0.1598578E+01  0.7818608E-02  0.3354909E+00
         11   -1    0    0    0    0  0.00000000000E+00  0.00000000000E+00  0.39999999674E+01  0.40000000000E+01  0.51100000000E-03 0.  1.
    9000002   -1    0    0    0    0 -0.00000000000E+00 -0.00000000000E+00  0.00000000000E+00  0.93800000000E+00  0.93800000000E+00 0.  1.
         11    1    1    2    0    0  0.55613413843E-03 -0.68765579769E-02  0.22790388313E-01  0.23817205026E-01  0.51100000000E-03 0.  1.
    9000002    1    1    2    0    0  0.13542774985E+00  0.16307981369E+00  0.30598299385E-01  0.96214133940E+00  0.93800000000E+00 0.  1.
         22    1    1    2    0    0 -0.13598388399E+00 -0.15620325571E+00  0.39466112797E+01  0.39520414556E+01  0.00000000000E+00 0.  1.
</event>
<event>
 5    1  0.1461556E+002  0.1599673E+01  0.7818608E-02  0.3353719E+00
         11   -1    0    0    0    0  0.00000000000E+00  0.00000000000E+00  0.39999999674E+01  0.40000000000E+01  0.51100000000E-03 0.  1.
    9000002   -1    0    0    0    0 -0.00000000000E+00 -0.00000000000E+00  0.00000000000E+00  0.93800000000E+00  0.93800000000E+00 0. -1.
         11    1    1    2    0    0 -0.14994846240E-01 -0.15136647982E-01  0.37563983047E+00  0.37624394597E+00  0.51100000000E-03 0.  1.
    9000002    1    1    2    0    0  0.14825776340E+00  0.17100917201E+00  0.33972736729E-01  0.96551677777E+00  0.93800000000E+00 0. -1.
         22    1    1    2    0    0 -0.13326291716E+00 -0.15587252402E+00  0.35903874002E+01  0.35962392763E+01  0.00000000000E+00 0.  1.
</event>
<event>
 5    1  0.1461556E+002  0.1599156E+01  0.7818608E-02  0.3354279E+00
         11   -1    0    0    0    0  0.00000000000E+00  0.00000000000E+00  0.39999999674E+01  0.40000000000E+01  0.51100000000E-03 0. -1.
    9000002   -1    0    0    0    0 -0.00000000000E+00 -0.00000000000E+00  0.00000000000E+00  0.93800000000E+00  0.93800000000E+00 0.  1.
         11    1    1    2    0    0  0.10625401306E+00  0.22501966683E+00  0.14137360494E+01  0.14354698339E+01  0.51100000000E-03 0. -1.
    9000002    1    1    2    0    0 -0.21469751452E+00 -0.61810472361E+00  0.30298887132E+00  0.11831292103E+01  0.93800000000E+00 0.  1.
         22    1    1    2    0    0  0.10844350146E+00  0.39308505679E+00  0.22832750467E+01  0.23194009558E+01  0.00000000000E+00 0. -1.
</event>
<event>
 5    1  0.1461556E+002  0.1599676E+01  0.7818608E-02  0.3353715E+00
         11   -1    0    0    0    0  0.00000000000E+00  0.00000000000E+00  0.39999999674E+01  0.40000000000E+01  0.51100000000E-03 0.  1.
    9000002   -1    0    0    0    0 -0.00000000000E+00 -0.00000000000E+00  0.00000000000E+00  0.93800000000E+00  0.93800000000E+00 0. -1.
         11    1    1    2    0    0 -0.41936996372E-01 -0.41231382401E+00  0.15046256702E+01  0.15606601391E+01  0.51100000000E-03 0.  1.
    9000002    1    1    2    0    0  0.96260108632E-01  0.91655720779E+00  0.65639389468E+00  0.14697074772E+01  0.93800000000E+00 0. -1.
         22    1    1    2    0    0 -0.54323112260E-01 -0.50424338379E+00  0.18389804025E+01  0.19076323837E+01  0.00000000000E+00 0.  1.
</event>
<event>
 5    1  0.1461556E+002  0.1566392E+01  0.7818608E-02  0.3390668E+00
         11   -1    0    0    0    0  0.00000000000E+00  0.00000000000E+00  0.39999999674E+01  0.40000000000E+01  0.51100000000E-03 0.  1.
    9000002   -1    0    0    0    0 -0.00000000000E+00 -0.00000000000E+00  0.00000000000E+00  0.93800000000E+00  0.93800000000E+00 0.  1.
         11    1    1    2    0    0  0.13873653874E+00  0.59012266871E-02  0.32967388949E+00  0.35772585339E+00  0.51100000000E-03 0.  1.
    9000002    1    1    2    0    0 -0.18256249373E+00 -0.29018623503E+00  0.10593145338E+00  0.10042920830E+01  0.93800000000E+00 0.  1.
         22    1    1    2    0    0  0.43825954993E-01  0.28428500834E+00  0.35643946245E+01  0.35759820636E+01  0.00000000000E+00 0.  1.
</event>
<event>
 5    1  0.1461556E+002  0.1596433E+01  0.7818608E-02  0.3357245E+00
         11   -1    0    0    0    0  0.00000000000E+00  0.00000000000E+00  0.39999999674E+01  0.40000000000E+01  0.51100000000E-03 0.  1.
    9000002   -1    0    0    0    0 -0.00000000000E+00 -0.00000000000E+00  0.00000000000E+00  0.93800000000E+00  0.93800000000E+00 0. -1.
         11    1    1    2    0    0  0.30247244892E-01 -0.47534338370E-01  0.29524376432E+00  0.30057203901E+00  0.51100000000E-03 0.  1.
    9000002    1    1    2    0    0  0.46998000754E-01  0.44116256037E+00  0.13635547003E+00  0.10465514947E+01  0.93800000000E+00 0. -1.
         22    1    1    2    0    0 -0.77245245646E-01 -0.39362822200E+00  0.35684007330E+01  0.35908764663E+01  0.00000000000E+00 0.  1.
</event>
<event>
 5    1  0.1461556E+002  0.1599581E+01  0.7818608E-02  0.3353818E+00
         11   -1    0    0    0    0  0.00000000000E+00  0.00000000000E+00  0.39999999674E+01  0.40000000000E+01  0.51100000000E-03 0. -1.
    9000002   -1    0    0    0    0 -0.00000000000E+00 -0.00000000000E+00  0.00000000000E+00  0.93800000000E+00  0.93800000000E+00 0. -1.
         11    1    1    2    0    0  0.33447157025E+00  0.27135896678E+00  0.25074256199E+01  0.25441482702E+01  0.51100000000E-03 0. -1.
    9000002    1    1    2    0    0 -0.51006940511E+00 -0.39668630361E+00  0.29446061645E+00  0.11764700915E+01  0.93800000000E+00 0. -1.
         22    1    1    2    0    0  0.17559783485E+00  0.12532733683E+00  0.11981137310E+01  0.12173816383E+01  0.00000000000E+00 0. -1.
</event>
<event>
 5    1  0.1461556E+002  0.1599633E+01  0.7818608E-02  0.3353762E+00
         11   -1    0    0    0    0  0.00000000000E+00  0.00000000000E+00  0.39999999674E+01  0.40000000000E+01  0.51100000000E-03 0. -1.
    9000002   -1    0    0    0    0 -0.00000000000E+00 -0.00000000000E+00  0.00000000000E+00  0.93800000000E+00  0.93800000000E+00 0. -1.
         11    1    1    2    0    0  0.21179953073E-01 -0.65764178340E-02  0.31226739912E+00  0.31305435528E+00  0.51100000000E-03 0. -1.
    9000002    1    1    2    0    0 -0.23135619269E+00  0.12338568518E+00  0.45747628271E-01  0.97503156908E+00  0.93800000000E+00 0. -1.
         22    1    1    2    0    0  0.21017623962E+00 -0.11680926735E+00  0.36419849400E+01  0.36499140756E+01  0.00000000000E+00 0. -1.
</event>
<event>
 5    1  0.1461556E+002  0.1457674E+01  0.7818608E-02  0.3523977E+00
         11   -1    0    0    0    0  0.00000000000E+00  0.00000000000E+00  0.39999999674E+01  0.40000000000E+01  0.51100000000E-03 0. -1.
    9000002   -1    0    0    0    0 -0.00000000000E+00 -0.00000000000E+00  0.00000000000E+00  0.93800000000E+00  0.93800000000E+00 0.  1.
         11    1    1    2    0    0 -0.30352030949E-01  0.69386361100E-01 -0.21373287845E-01  0.78694291049E-01  0.51100000000E-03 0. -1.
    9000002    1    1    2    0    0 -0.17708095965E+00  0.18260594851E+00  0.16095656648E+00  0.98511604138E+00  0.93800000000E+00 0.  1.
         22    1    1    2    0    0  0.20743299060E+00 -0.25199230961E+00  0.38604166887E+01  0.38741896676E+01  0.00000000000E+00 0. -1.
</event>
<event>
 5    1  0.1461556E+002  0.1599670E+01  0.7818608E-02  0.3353721E+00
         11   -1    0    0    0    0  0.00000000000E+00  0.00000000000E+00  0.39999999674E+01  0.40000000000E+01  0.51100000000E-03 0.  1.
    9000002   -1    0    0    0    0 -0.00000000000E+00 -0.00000000000E+00  0.00000000000E+00  0.93800000000E+00  0.93800000000E+00 0. -1.
         11    1    1    2    0    0 -0.34911118686E-01 -0.95560098161E-02  0.42610322004E+00  0.42763806984E+00  0.51100000000E-03 0.  1.
    9000002    1    1    2    0    0  0.31729387216E+00  0.10477015083E+00  0.74741676876E-01  0.99854018651E+00  0.93800000000E+00 0. -1.
         22    1    1    2    0    0 -0.28238275348E+00 -0.95214141015E-01  0.34991550704E+01  0.35118217436E+01  0.00000000000E+00 0.  1.
</event>
<event>
 5    1  0.1461556E+002  0.1599676E+01  0.7818608E-02  0.3353715E+00
         11   -1    0    0    0    0  0.00000000000E+00  0.00000000000E+00  0.39999999674E+01  0.40000000000E+01  0.51100000000E-03 0. -1.
    9000002   -1    0    0    0    0 -0.00000000000E+00 -0.00000000000E+00  0.00000000000E+00  0.93800000000E+00  0.93800000000E+00 0.  1.
         11    1    1    2    0    0  0.52485340898E-01  0.55281682005E-02  0.70287501808E+00  0.70485376059E+00  0.51100000000E-03 0.  1.
    9000002    1    1    2    0    0 -0.29938627112E+00 -0.31182642798E-01  0.60449914232E-01  0.98696640707E+00  0.93800000000E+00 0.  1.
         22    1    1    2    0    0  0.24690093023E+00  0.25654474597E-01  0.32366750351E+01  0.32461798323E+01  0.00000000000E+00 0. -1.
</event>
<event>
 5    1  0.1461556E+002  0.1599672E+01  0.7818608E-02  0.3353719E+00
         11   -1    0    0    0    0  0.00000000000E+00  0.00000000000E+00  0.39999999674E+01  0.40000000000E+01  0.51100000000E-03 0.  1.
    9000002   -1    0    0    0    0 -0.00000000000E+00 -0.00000000000E+00  0.00000000000E+00  0.93800000000E+00  0.93800000000E+00 0. -1.
         11    1    1    2    0    0 -0.54901819278E-01  0.19573168652E-01  0.64077349283E+00  0.64341918601E+00  0.51100000000E-03 0.  1.
    9000002    1    1    2    0    0  0.33271120795E+00 -0.13077583549E+00  0.85766015109E-01  0.10074715263E+01  0.93800000000E+00 0. -1.
         22    1    1    2    0    0 -0.27780938867E+00  0.11120266684E+00  0.32734604594E+01  0.32871092876E+01  0.00000000000E+00 0.  1.
</event>
<event>
 5    1  0.1461556E+002  0.1599652E+01  0.7818608E-02  0.3353741E+00
         11   -1    0    0    0    0  0.00000000000E+00  0.00000000000E+00  0.39999999674E+01  0.40000000000E+01  0.51100000000E-03 0. -1.
    9000002   -1    0    0    0    0 -0.00000000000E+00 -0.00000000000E+00  0.00000000000E+00  0.93800000000E+00  0.93800000000E+00 0. -1.
         11    1    1    2    0    0  0.14901604527E-01 -0.17519275306E+00  0.17545947547E+01  0.17633824239E+01  0.51100000000E-03 0. -1.
    9000002    1    1    2    0    0 -0.31678447529E-01  0.37660931896E+00  0.96103466162E-01  0.10158336376E+01  0.93800000000E+00 0. -1.
         22    1    1    2    0    0  0.16776843002E-01 -0.20141656589E+00  0.21493017465E+01  0.21587839384E+01  0.00000000000E+00 0. -1.
</event>
<event>
 5    1  0.1461556E+002  0.1599673E+01  0.7818608E-02  0.3353718E+00
         11   -1    0    0    0    0  0.00000000000E+00  0.00000000000E+00  0.39999999674E+01  0.40000000000E+01  0.51100000000E-03 0.  1.
    9000002   -1    0    0    0    0 -0.00000000000E+00 -0.00000000000E+00  0.00000000000E+00  0.93800000000E+00  0.93800000000E+00 0.  1.
         11    1    1    2    0    0  0.16368969168E+00 -0.24266333108E-01  0.16009536596E+01  0.16094831628E+01  0.51100000000E-03 0.  1.
    9000002    1    1    2    0    0 -0.39368098611E+00  0.62623142782E-01  0.10716990734E+00  0.10248101121E+01  0.93800000000E+00 0.  1.
         22    1    1    2    0    0  0.22999129443E+00 -0.38356809675E-01  0.22918764004E+01  0.23037067251E+01  0.00000000000E+00 0.  1.
</event>
<event>
 5    1  0.1461556E+002  0.1599649E+01  0.7818608E-02  0.3353744E+00
         11   -1    0    0    0    0  0.00000000000E+00  0.00000000000E+00  0.39999999674E+01  0.40000000000E+01  0.51100000000E-03 0. -1.
    9000002   -1    0    0    0    0 -0.00000000000E+00 -0.00000000000E+00  0.00000000000E+00  0.93800000000E+00  0.93800000000E+00 0. -1.
         11    1    1    2    0    0  0.79058197979E-02  0.31787167974E-01  0.45802895441E+00  0.45919898762E+00  0.51100000000E-03 0. -1.
    9000002    1    1    2    0    0 -0.81728226056E-01 -0.24249002949E+00  0.43539314150E-01  0.97325258243E+00  0.93800000000E+00 0. -1.
         22    1    1    2    0    0  0.73822406258E-01  0.21070286152E+00  0.34984316988E+01  0.35055484299E+01  0.00000000000E+00 0. -1.
</event>
<event>
 5    1  0.1461556E+002  0.1599634E+01  0.7818608E-02  0.3353761E+00
         11   -1    0    0    0    0  0.00000000000E+00  0.00000000000E+00  0.39999999674E+01  0.40000000000E+01  0.51100000000E-03 0. -1.
    9000002   -1    0    0    0    0 -0.00000000000E+00 -0.00000000000E+00  0.00000000000E+00  0.93800000000E+00  0.93800000000E+00 0.  1.
         11    1    1    2    0    0  0.10603132402E-01 -0.64652651809E-02  0.16576278888E+00  0.16622812448E+00  0.51100000000E-03 0. -1.
    9000002    1    1    2    0    0 -0.21315672498E+00  0.21763077923E+00  0.61968287790E-01  0.98817155098E+00  0.93800000000E+00 0.  1.
         22    1    1    2    0    0  0.20255359257E+00 -0.21116551405E+00  0.37722688907E+01  0.37836003245E+01  0.00000000000E+00 0. -1.
</event>
<event>
 5    1  0.1461556E+002  0.1597538E+01  0.7818608E-02  0.3356040E+00
         11   -1    0    0    0    0  0.00000000000E+00  0.00000000000E+00  0.39999999674E+01  0.40000000000E+01  0.51100000000E-03 0.  1.
    9000002   -1    0    0    0    0 -0.00000000000E+00 -0.00000000000E+00  0.00000000000E+00  0.93800000000E+00  0.93800000000E+00 0.  1.
         11    1    1    2    0    0 -0.15037653726E-01  0.10590101348E+00  0.92532476295E+00  0.93148662563E+00  0.51100000000E-03 0.  1.
    9000002    1    1    2    0    0 -0.90284694466E-01 -0.32058890058E+00  0.75950405678E-01  0.99826901853E+00  0.93800000000E+00 0.  1.
         22    1    1    2    0    0  0.10532234819E+00  0.21468788711E+00  0.29987247987E+01  0.30082443558E+01  0.00000000000E+00 0. -1.
</event>
<event>
 5    1  0.1461556E+002  0.1564458E+01  0.7818608E-02  0.3392867E+00
         11   -1    0    0    0    0  0.00000000000E+00  0.00000000000E+00  0.39999999674E+01  0.40000000000E+01  0.51100000000E-03 0.  1.
    9000002   -1    0    0    0    0 -0.00000000000E+00 -0.00000000000E+00  0.00000000000E+00  0.93800000000E+00  0.93800000000E+00 0. -1.
         11    1    1    2    0    0 -0.25826304003E+00 -0.85906944692E-02  0.15071688685E+01  0.15291605073E+01  0.51100000000E-03 0.  1.
    9000002    1    1    2    0    0  0.20803167916E+00  0.35811933995E+00  0.14613579506E+00  0.10357250175E+01  0.93800000000E+00 0. -1.
         22    1    1    2    0    0  0.50231360875E-01 -0.34952864548E+00  0.23466953038E+01  0.23731144752E+01  0.00000000000E+00 0. -1.
</event>
<event>
 5    1  0.1461556E+002  0.1578770E+01  0.7818608E-02  0.3376733E+00
         11   -1    0    0    0    0  0.00000000000E+00  0.00000000000E+00  0.39999999674E+01  0.40000000000E+01  0.51100000000E-03 0. -1.
    9000002   -1    0    0    0    0 -0.00000000000E+00 -0.00000000000E+00  0.00000000000E+00  0.93800000000E+00  0.93800000000E+00 0.  1.
         11    1    1    2    0    0 -0.79474799488E-01  0.39071157678E-01  0.21356398834E+00  0.23119826416E+00  0.51100000000E-03 0. -1.
    9000002    1    1    2    0    0  0.28646828250E+00  0.18962538256E+00  0.96041856010E-01  0.10035386892E+01  0.93800000000E+00 0.  1.
         22    1    1    2    0    0 -0.20699348301E+00 -0.22869654024E+00  0.36903941230E+01  0.37032630467E+01  0.00000000000E+00 0. -1.
</event>
<event>
 5    1  0.1461556E+002  0.1599650E+01  0.7818608E-02  0.3353744E+00
         11   -1    0    0    0    0  0.00000000000E+00  0.00000000000E+00  0.39999999674E+01  0.40000000000E+01  0.51100000000E-03 0. -1.
    9000002   -1    0    0    0    0 -0.00000000000E+00 -0.00000000000E+00  0.00000000000E+00  0.93800000000E+00  0.93800000000E+00 0.  1.
         11    1    1    2    0    0  0.12680031703E+00  0.12261529642E+00  0.16079864673E+01  0.16176320877E+01  0.51100000000E-03 0. -1.
    9000002    1    1    2    0    0 -0.30949972613E+00 -0.28137348391E+00  0.11832257076E+00  0.10338304255E+01  0.93800000000E+00 0.  1.
         22    1    1    2    0    0  0.18269940910E+00  0.15875818749E+00  0.22736909293E+01  0.22865374868E+01  0.00000000000E+00 0. -1.
</event>
<event>
 5    1  0.1461556E+002  0.1543176E+01  0.7818608E-02  0.3417446E+00
         11   -1    0    0    0    0  0.00000000000E+00  0.00000000000E+00  0.39999999674E+01  0.40000000000E+01  0.51100000000E-03 0.  1.
    9000002   -1    0    0    0    0 -0.00000000000E+00 -0.00000000000E+00  0.00000000000E+00  0.93800000000E+00  0.93800000000E+00 0. -1.
         11    1    1    2    0    0  0.16694374553E+00 -0.13261977634E+00  0.57738674466E+00  0.61549486860E+00  0.51100000000E-03 0.  1.
    9000002    1    1    2    0    0 -0.13940583511E+00 -0.70782154079E-01  0.59143309791E-01  0.95277805983E+00  0.93800000000E+00 0. -1.
         22    1    1    2    0    0 -0.27537910416E-01  0.20340193042E+00  0.33634699129E+01  0.33697270716E+01  0.00000000000E+00 0.  1.
</event>
<event>
 5    1  0.1461556E+002  0.1595607E+01  0.7818608E-02  0.3358145E+00
         11   -1    0    0    0    0  0.00000000000E+00  0.00000000000E+00  0.39999999674E+01  0.40000000000E+01  0.51100000000E-03 0.  1.
    9000002   -1    0    0    0    0 -0.00000000000E+00 -0.00000000000E+00  0.00000000000E+00  0.93800000000E+00  0.93800000000E+00 0.  1.
         11    1    1    2    0    0  0.16449025033E+00  0.62275043841E-01  0.19596315190E+01  0.19675088755E+01  0.51100000000E-03 0.  1.
    9000002    1    1    2    0    0 -0.32337514816E+00 -0.27525046223E+00  0.12549383296E+00  0.10372690131E+01  0.93800000000E+00 0.  1.
         22    1    1    2    0    0  0.15888489783E+00  0.21297541839E+00  0.19148746154E+01  0.19332221114E+01  0.00000000000E+00 0.  1.
</event>
<event>
 5    1  0.1461556E+002  0.1599677E+01  0.7818608E-02  0.3353714E+00
         11   -1    0    0    0    0  0.00000000000E+00  0.00000000000E+00  0.39999999674E+01  0.40000000000E+01  0.51100000000E-03 0. -1.
    9000002   -1    0    0    0    0 -0.00000000000E+00 -0.00000000000E+00  0.00000000000E+00  0.93800000000E+00  0.93800000000E+00 0. -1.
         11    1    1    2    0    0 -0.79113730428E-01 -0.57861277268E-01  0.12656950853E+01  0.12694846277E+01  0.51100000000E-03 0.  1.
    9000002    1    1    2    0    0  0.24574785169E+00  0.18096926550E+00  0.62166468009E-01  0.98835750182E+00  0.93800000000E+00 0. -1.
         22    1    1    2    0    0 -0.16663412126E+00 -0.12310798823E+00  0.26721384140E+01  0.26801578705E+01  0.00000000000E+00 0. -1.
</event>
<event>
 5    1  0.1461556E+002  0.1598423E+01  0.7818608E-02  0.3355077E+00
         11   -1    0    0    0    0  0.00000000000E+00  0.00000000000E+00  0.39999999674E+01  0.40000000000E+01  0.51100000000E-03 0.  1.
    9000002   -1    0    0    0    0 -0.00000000000E+00 -0.00000000000E+00  0.00000000000E+00  0.93800000000E+00  0.93800000000E+00 0. -1.
         11    1    1    2    0    0 -0.31511304461E-01 -0.57910199445E-01  0.71705473319E+00  0.72007937411E+00  0.51100000000E-03 0.  1.
    9000002    1    1    2    0    0 -0.40933919824E-02  0.28371861031E+00  0.54606257346E-01  0.98149826747E+00  0.93800000000E+00 0. -1.
         22    1    1    2    0    0  0.35604696443E-01 -0.22580841087E+00  0.32283389768E+01  0.32364223584E+01  0.00000000000E+00 0.  1.
</event>
<event>
 5    1  0.1461556E+002  0.1537910E+01  0.7818608E-02  0.3423640E+00
         11   -1    0    0    0    0  0.00000000000E+00  0.00000000000E+00  0.39999999674E+01  0.40000000000E+01  0.51100000000E-03 0.  1.
    9000002   -1    0    0    0    0 -0.00000000000E+00 -0.00000000000E+00  0.00000000000E+00  0.93800000000E+00  0.93800000000E+00 0. -1.
         11    1    1    2    0    0 -0.37886011979E-01 -0.28542963308E+00  0.16759776259E+01  0.17005312961E+01  0.51100000000E-03 0.  1.
    9000002    1    1    2    0    0  0.11231467191E+00 -0.23739129659E-01  0.55350579984E-01  0.94661809538E+00  0.93800000000E+00 0. -1.
         22    1    1    2    0    0 -0.74428659930E-01  0.30916876274E+00  0.22686717615E+01  0.22908506085E+01  0.00000000000E+00 0.  1.
</event>
<event>
 5    1  0.1461556E+002  0.1599675E+01  0.7818608E-02  0.3353717E+00
         11   -1    0    0    0    0  0.00000000000E+00  0.00000000000E+00  0.39999999674E+01  0.40000000000E+01  0.51100000000E-03 0.  1.
    9000002   -1    0    0    0    0 -0.00000000000E+00 -0.00000000000E+00  0.00000000000E+00  0.93800000000E+00  0.93800000000E+00 0. -1.
         11    1    1    2    0    0 -0.96826344146E-02  0.10434222924E-01  0.11759144622E+00  0.11845098464E+00  0.51100000000E-03 0. -1.
    9000002    1    1    2    0    0  0.31824121227E+00 -0.35515718666E+00  0.15509407152E+00  0.10636316409E+01  0.93800000000E+00 0. -1.
         22    1    1    2    0    0 -0.30855857786E+00  0.34472296373E+00  0.37273144496E+01  0.37559173745E+01  0.00000000000E+00 0.  1.
</event>
<event>
 5    1  0.1461556E+002  0.1599676E+01  0.7818608E-02  0.3353715E+00
         11   -1    0    0    0    0  0.00000000000E+00  0.00000000000E+00  0.39999999674E+01  0.40000000000E+01  0.51100000000E-03 0.  1.
    9000002   -1    0    0    0    0 -0.00000000000E+00 -0.00000000000E+00  0.00000000000E+00  0.93800000000E+00  0.93800000000E+00 0.  1.
         11    1    1    2    0    0 -0.24316537528E-01 -0.16995349352E+00  0.15529112750E+01  0.15623729302E+01  0.51100000000E-03 0.  1.
    9000002    1    1    2    0    0  0.63778559747E-01  0.42290052149E+00  0.12383624832E+00  0.10383120784E+01  0.93800000000E+00 0.  1.
         22    1    1    2    0    0 -0.39462022220E-01 -0.25294702797E+00  0.23232524440E+01  0.23373149914E+01  0.00000000000E+00 0.  1.
</event>
<event>
 5    1  0.1461556E+002  0.1598662E+01  0.7818608E-02  0.3354817E+00
         11   -1    0    0    0    0  0.00000000000E+00  0.00000000000E+00  0.39999999674E+01  0.40000000000E+01  0.51100000000E-03 0.  1.
    9000002   -1    0    0    0    0 -0.00000000000E+00 -0.00000000000E+00  0.00000000000E+00  0.93800000000E+00  0.93800000000E+00 0.  1.
         11    1    1    2    0    0  0.49908012425E-01 -0.43180028775E-01  0.59818141820E+00  0.60181109560E+00  0.51100000000E-03 0.  1.
    9000002    1    1    2    0    0 -0.37292905677E+00  0.43990347979E+00  0.23191175397E+00  0.11252636200E+01  0.93800000000E+00 0.  1.
         22    1    1    2    0    0  0.32302104434E+00 -0.39672345102E+00  0.31699067952E+01  0.32109252844E+01  0.00000000000E+00 0.  1.
</event>
<event>
 5    1  0.1461556E+002  0.1558727E+01  0.7818608E-02  0.3399416E+00
         11   -1    0    0    0    0  0.00000000000E+00  0.00000000000E+00  0.39999999674E+01  0.40000000000E+01  0.51100000000E-03 0.  1.
    9000002   -1    0    0    0    0 -0.00000000000E+00 -0.00000000000E+00  0.00000000000E+00  0.93800000000E+00  0.93800000000E+00 0. -1.
         11    1    1    2    0    0 -0.13631223342E+00 -0.17763279120E+00  0.26431163884E+01  0.26525834459E+01  0.51100000000E-03 0.  1.
    9000002    1    1    2    0    0  0.70625500401E-01 -0.51240888704E-01  0.35466139536E-01  0.94271705036E+00  0.93800000000E+00 0. -1.
         22    1    1    2    0    0  0.65686733018E-01  0.22887367990E+00  0.13214174394E+01  0.13426995038E+01  0.00000000000E+00 0.  1.
</event>
<event>
 5    1  0.1461556E+002  0.1599552E+01  0.7818608E-02  0.3353850E+00
         11   -1    0    0    0    0  0.00000000000E+00  0.00000000000E+00  0.39999999674E+01  0.40000000000E+01  0.51100000000E-03 0. -1.
    9000002   -1    0    0    0    0 -0.00000000000E+00 -0.00000000000E+00  0.00000000000E+00  0.93800000000E+00  0.93800000000E+00 0. -1.
         11    1    1    2    0    0  0.13204795985E+00 -0.77429804730E-01  0.13309279811E+01  0.13397020529E+01  0.51100000000E-03 0. -1.
    9000002    1    1    2    0    0 -0.35923729247E+00  0.19941582064E+00  0.11413738802E+00  0.10303831545E+01  0.93800000000E+00 0. -1.
         22    1    1    2    0    0  0.22718933261E+00 -0.12198601591E+00  0.25549345982E+01  0.25679147926E+01  0.00000000000E+00 0. -1.
</event>
<event>
 5    1  0.1461556E+002  0.1599630E+01  0.7818608E-02  0.3353766E+00
         11   -1    0    0    0    0  0.00000000000E+00  0.00000000000E+00  0.39999999674E+01  0.40000000000E+01  0.51100000000E-03 0. -1.
    9000002   -1    0    0    0    0 -0.00000000000E+00 -0.00000000000E+00  0.00000000000E+00  0.93800000000E+00  0.93800000000E+00 0. -1.
         11    1    1    2    0    0  0.10596658024E+00  0.20432257268E+00  0.13334351725E+01  0.13531541857E+01  0.51100000000E-03 0. -1.
    9000002    1    1    2    0    0 -0.28226636404E+00 -0.55383268253E+00  0.27092283833E+00  0.11574316934E+01  0.93800000000E+00 0. -1.
         22    1    1    2    0    0  0.17629978380E+00  0.34951010985E+00  0.23956419566E+01  0.24274141210E+01  0.00000000000E+00 0. -1.
</event>
<event>
 5    1  0.1461556E+002  0.1592301E+01  0.7818608E-02  0.3361762E+00
         11   -1    0    0    0    0  0.00000000000E+00  0.00000000000E+00  0.39999999674E+01  0.40000000000E+01  0.51100000000E-03 0. -1.
    9000002   -1    0    0    0    0 -0.00000000000E+00 -0.00000000000E+00  0.00000000000E+00  0.93800000000E+00  0.93800000000E+00 0.  1.
         11    1    1    2    0    0 -0.42553804217E-01 -0.17736758248E-01  0.36195323218E+00  0.36487781825E+00  0.51100000000E-03 0. -1.
    9000002    1    1    2    0    0 -0.83403909954E-01 -0.15678951015E+00  0.26359794170E-01  0.95502774904E+00  0.93800000000E+00 0.  1.
         22    1    1    2    0    0  0.12595771417E+00  0.17452626840E+00  0.36116869410E+01  0.36180944327E+01  0.00000000000E+00 0. -1.
</event>
<event>
 5    1  0.1461556E+002  0.1599676E+01  0.7818608E-02  0.3353715E+00
         11   -1    0    0    0    0  0.00000000000E+00  0.00000000000E+00  0.39999999674E+01  0.40000000000E+01  0.51100000000E-03 0.  1.
    9000002   -1    0    0    0    0 -0.00000000000E+00 -0.00000000000E+00  0.00000000000E+00  0.93800000000E+00  0.93800000000E+00 0.  1.
         11    1    1    2    0    0  0.59134924719E+00 -0.36474846796E+00  0.26170069599E+01  0.27076670892E+01  0.51100000000E-03 0.  1.
    9000002    1    1    2    0    0 -0.76425653741E+00  0.47293503161E+00  0.61794004293E+00  0.14385581308E+01  0.93800000000E+00 0.  1.
         22    1    1    2    0    0  0.17290729022E+00 -0.10818656365E+00  0.76505296455E+00  0.79177477993E+00  0.00000000000E+00 0. -1.
</event>
<event>
 5    1  0.1461556E+002  0.1599666E+01  0.7818608E-02  0.3353726E+00
         11   -1    0    0    0    0  0.00000000000E+00  0.00000000000E+00  0.39999999674E+01  0.40000000000E+01  0.51100000000E-03 0.  1.
    9000002   -1    0    0    0    0 -0.00000000000E+00 -0.00000000000E+00  0.00000000000E+00  0.93800000000E+00  0.93800000000E+00 0.  1.
         11    1    1    2    0    0 -0.30437120947E-01 -0.59001805964E-01  0.97274252313E+00  0.97500559428E+00  0.51100000000E-03 0.  1.
    9000002    1    1    2    0    0  0.13736312279E+00  0.24121785961E+00  0.51309773527E-01  0.97955672432E+00  0.93800000000E+00 0.  1.
         22    1    1    2    0    0 -0.10692600184E+00 -0.18221605365E+00  0.29759476707E+01  0.29834376814E+01  0.00000000000E+00 0.  1.
</event>
<event>
 5    1  0.1461556E+002  0.1599659E+01  0.7818608E-02  0.3353734E+00
         11   -1    0    0    0    0  0.00000000000E+00  0.00000000000E+00  0.39999999674E+01  0.40000000000E+01  0.51100000000E-03 0. -1.
    9000002   -1    0    0    0    0 -0.00000000000E+00 -0.00000000000E+00  0.00000000000E+00  0.93800000000E+00  0.93800000000E+00 0. -1.
         11    1    1    2    0    0 -0.90671724167E-01  0.11826061187E-01  0.12618611681E+01  0.12651699831E+01  0.51100000000E-03 0. -1.
    9000002    1    1    2    0    0  0.29589020807E+00 -0.29082020228E-01  0.58970040536E-01  0.98575770086E+00  0.93800000000E+00 0. -1.
         22    1    1    2    0    0 -0.20521848390E+00  0.17255959041E-01  0.26791687587E+01  0.26870723161E+01  0.00000000000E+00 0. -1.
</event>
<event>
 5    1  0.1461556E+002  0.1593945E+01  0.7818608E-02  0.3359962E+00
         11   -1    0    0    0    0  0.00000000000E+00  0.00000000000E+00  0.39999999674E+01  0.40000000000E+01  0.51100000000E-03 0.  1.
    9000002   -1    0    0    0    0 -0.00000000000E+00 -0.00000000000E+00  0.00000000000E+00  0.93800000000E+00  0.93800000000E+00 0. -1.
         11    1    1    2    0    0 -0.10198653337E-01 -0.46978812974E+00  0.26345509418E+01  0.26761285144E+01  0.51100000000E-03 0.  1.
    9000002    1    1    2    0    0  0.88112935319E-01  0.72775915509E+00  0.39437957782E+00  0.12541038747E+01  0.93800000000E+00 0. -1.
         22    1    1    2    0    0 -0.77914281983E-01 -0.25797102535E+00  0.97106944773E+00  0.10077676109E+01  0.00000000000E+00 0.  1.
</event>
<event>
 5    1  0.1461556E+002  0.1539972E+01  0.7818608E-02  0.3421209E+00
         11   -1    0    0    0    0  0.00000000000E+00  0.00000000000E+00  0.39999999674E+01  0.40000000000E+01  0.51100000000E-03 0. -1.
    9000002   -1    0    0    0    0 -0.00000000000E+00 -0.00000000000E+00  0.00000000000E+00  0.93800000000E+00  0.93800000000E+00 0. -1.
         11    1    1    2    0    0  0.73875412018E-01 -0.27335655582E-01  0.55855514818E-01  0.96565595444E-01  0.51100000000E-03 0. -1.
    9000002    1    1    2    0    0  0.23773630058E+00  0.28277457593E+00  0.14209463450E+00  0.10180937553E+01  0.93800000000E+00 0. -1.
         22    1    1    2    0    0 -0.31161171260E+00 -0.25543892035E+00  0.38020498180E+01  0.38233406493E+01  0.00000000000E+00 0. -1.
</event>
<event>
 5    1  0.1461556E+002  0.1599677E+01  0.7818608E-02  0.3353714E+00
         11   -1    0    0    0    0  0.00000000000E+00  0.00000000000E+00  0.39999999674E+01  0.40000000000E+01  0.51100000000E-03 0.  1.
    9000002   -1    0    0    0    0 -0.00000000000E+00 -0.00000000000E+00  0.00000000000E+00  0.93800000000E+00  0.93800000000E+00 0. -1.
         11    1    1    2    0    0 -0.15998298948E+00  0.15250999426E-01  0.15295904805E+01  0.15380098989E+01  0.51100000000E-03 0. -1.
    9000002    1    1    2    0    0  0.40608137777E+00 -0.38399434592E-01  0.11233943548E+00  0.10289998789E+01  0.93800000000E+00 0. -1.
         22    1    1    2    0    0 -0.24609838828E+00  0.23148435166E-01  0.23580700514E+01  0.23709902222E+01  0.00000000000E+00 0.  1.
</event>
<event>
 5    1  0.1461556E+002  0.1599673E+01  0.7818608E-02  0.3353719E+00
         11   -1    0    0    0    0  0.00000000000E+00  0.00000000000E+00  0.39999999674E+01  0.40000000000E+01  0.51100000000E-03 0.  1.
    9000002   -1    0    0    0    0 -0.00000000000E+00 -0.00000000000E+00  0.00000000000E+00  0.93800000000E+00  0.93800000000E+00 0. -1.
         11    1    1    2    0    0  0.32958689145E+00  0.11819360974E+00  0.21550419014E+01  0.21833009656E+01  0.51100000000E-03 0.  1.
    9000002    1    1    2    0    0 -0.57040134952E+00 -0.20156266671E+00  0.25562465941E+00  0.11450647033E+01  0.93800000000E+00 0. -1.
         22    1    1    2    0    0  0.24081445807E+00  0.83369056966E-01  0.15893334066E+01  0.16096343312E+01  0.00000000000E+00 0.  1.
</event>
<event>
 5    1  0.1461556E+002  0.1599674E+01  0.7818608E-02  0.3353717E+00
         11   -1    0    0    0    0  0.00000000000E+00  0.00000000000E+00  0.39999999674E+01  0.40000000000E+01  0.51100000000E-03 0. -1.
    9000002   -1    0    0    0    0 -0.00000000000E+00 -0.00000000000E+00  0.00000000000E+00  0.93800000000E+00  0.93800000000E+00 0.  1.
         11    1    1    2    0    0 -0.13327951562E-01  0.67460685864E-02  0.28920753263E+00  0.28959351130E+00  0.51100000000E-03 0. -1.
    9000002    1    1    2    0    0  0.19233698638E+00 -0.10247260142E+00  0.31480010430E-01  0.96349838683E+00  0.93800000000E+00 0.  1.
         22    1    1    2    0    0 -0.17900903481E+00  0.95726532834E-01  0.36793124243E+01  0.36849081019E+01  0.00000000000E+00 0. -1.
</event>
<event>
 5    1  0.1461556E+002  0.1599662E+01  0.7818608E-02  0.3353730E+00
         11   -1    0    0    0    0  0.00000000000E+00  0.00000000000E+00  0.39999999674E+01  0.40000000000E+01  0.51100000000E-03 0.  1.
    9000002   -1    0    0    0    0 -0.00000000000E+00 -0.00000000000E+00  0.00000000000E+00  0.93800000000E+00  0.93800000000E+00 0. -1.
         11    1    1    2    0    0 -0.28722676830E-01 -0.72996513184E-02  0.36322950369E+00  0.36443684027E+00  0.51100000000E-03 0.  1.
    9000002    1    1    2    0    0  0.29392810296E+00  0.56034297041E-01  0.59736473273E-01  0.98638026055E+00  0.93800000000E+00 0. -1.
         22    1    1    2    0    0 -0.26520542613E+00 -0.48734645723E-01  0.35770339904E+01  0.35871828992E+01  0.00000000000E+00 0.  1.
</event>
<event>
 5    1  0.1461556E+002  0.1599354E+01  0.7818608E-02  0.3354065E+00
         11   -1    0    0    0    0  0.00000000000E+00  0.00000000000E+00  0.39999999674E+01  0.40000000000E+01  0.51100000000E-03 0.  1.
    9000002   -1    0    0    0    0 -0.00000000000E+00 -0.00000000000E+00  0.00000000000E+00  0.93800000000E+00  0.93800000000E+00 0. -1.
         11    1    1    2    0    0  0.10884579568E+00  0.16829340282E+00  0.17264513985E+01  0.17380462506E+01  0.51100000000E-03 0.  1.
    9000002    1    1    2    0    0 -0.22961049218E+00 -0.33303095473E+00  0.11070616335E+00  0.10274874450E+01  0.93800000000E+00 0. -1.
         22    1    1    2    0    0  0.12076469650E+00  0.16473755191E+00  0.21628424055E+01  0.21724663044E+01  0.00000000000E+00 0.  1.
</event>
<event>
 5    1  0.1461556E+002  0.1541867E+01  0.7818608E-02  0.3418982E+00
         11   -1    0    0    0    0  0.00000000000E+00  0.00000000000E+00  0.39999999674E+01  0.40000000000E+01  0.51100000000E-03 0.  1.
    9000002   -1    0    0    0    0 -0.00000000000E+00 -0.00000000000E+00  0.00000000000E+00  0.93800000000E+00  0.93800000000E+00 0. -1.
         11    1    1    2    0    0  0.77383822636E-01  0.18610158503E+00  0.54673466749E+00  0.58270156488E+00  0.51100000000E-03 0.  1.
    9000002    1    1    2    0    0  0.14198478150E+00 -0.62847008626E-01  0.59935205595E-01  0.95265190576E+00  0.93800000000E+00 0. -1.
         22    1    1    2    0    0 -0.21936860413E+00 -0.12325457640E+00  0.33933300943E+01  0.34026465294E+01  0.00000000000E+00 0.  1.
</event>
<event>
 5    1  0.1461556E+002  0.1599677E+01  0.7818608E-02  0.3353714E+00
         11   -1    0    0    0    0  0.00000000000E+00  0.00000000000E+00  0.39999999674E+01  0.40000000000E+01  0.51100000000E-03 0. -1.
    9000002   -1    0    0    0    0 -0.00000000000E+00 -0.00000000000E+00  0.00000000000E+00  0.93800000000E+00  0.93800000000E+00 0.  1.
         11    1    1    2    0    0  0.88762494910E-01  0.74261578323E-01  0.14349103872E+01  0.14395699507E+01  0.51100000000E-03 0. -1.
    9000002    1    1    2    0    0 -0.24250237592E+00 -0.20377454986E+00  0.67040013732E-01  0.99230531236E+00  0.93800000000E+00 0.  1.
         22    1    1    2    0    0  0.15373988101E+00  0.12951297154E+00  0.24980495664E+01  0.25061247369E+01  0.00000000000E+00 0.  1.
</event>
<event>
 5    1  0.1461556E+002  0.1598653E+01  0.7818608E-02  0.3354827E+00
         11   -1    0    0    0    0  0.00000000000E+00  0.00000000000E+00  0.39999999674E+01  0.40000000000E+01  0.51100000000E-03 0. -1.
    9000002   -1    0    0    0    0 -0.00000000000E+00 -0.00000000000E+00  0.00000000000E+00  0.93800000000E+00  0.93800000000E+00 0. -1.
         11    1    1    2    0    0  0.41734731747E-01  0.36302260639E-01  0.94106138840E+00  0.94268575879E+00  0.51100000000E-03 0. -1.
    9000002    1    1    2    0    0 -0.24487634638E+00 -0.33475870602E-01  0.41351581195E-01  0.97089598423E+00  0.93800000000E+00 0. -1.
         22    1    1    2    0    0  0.20314161464E+00 -0.28263900374E-02  0.30175869978E+01  0.30244182570E+01  0.00000000000E+00 0. -1.
</event>
<event>
 5    1  0.1461556E+002  0.1527936E+01  0.7818608E-02  0.3435496E+00
         11   -1    0    0    0    0  0.00000000000E+00  0.00000000000E+00  0.39999999674E+01  0.40000000000E+01  0.51100000000E-03 0. -1.
    9000002   -1    0    0    0    0 -0.00000000000E+00 -0.00000000000E+00  0.00000000000E+00  0.93800000000E+00  0.93800000000E+00 0. -1.
         11    1    1    2    0    0  0.99654505390E-02  0.86640603213E-02 -0.25341416677E-01  0.28580144609E-01  0.51100000000E-03 0. -1.
    9000002    1    1    2    0    0 -0.28051622545E+00 -0.86953999000E-01  0.11574622073E+00  0.98969264840E+00  0.93800000000E+00 0. -1.
         22    1    1    2    0    0  0.27055077491E+00  0.78289938679E-01  0.39095951633E+01  0.39197272070E+01  0.00000000000E+00 0. -1.
</event>
<event>
 5    1  0.1461556E+002  0.1599009E+01  0.7818608E-02  0.3354440E+00
         11   -1    0    0    0    0  0.00000000000E+00  0.00000000000E+00  0.39999999674E+01  0.40000000000E+01  0.51100000000E-03 0.  1.
    9000002   -1    0    0    0    0 -0.00000000000E+00 -0.00000000000E+00  0.00000000000E+00  0.93800000000E+00  0.93800000000E+00 0. -1.
         11    1    1    2    0    0 -0.11866664472E-01 -0.66391170641E-02  0.86234499842E-01  0.87301464392E-01  0.51100000000E-03 0.  1.
    9000002    1    1    2    0    0  0.34060040884E+00 -0.63110369150E-01  0.80960896088E-01  0.10031900238E+01  0.93800000000E+00 0. -1.
         22    1    1    2    0    0 -0.32873374436E+00  0.69749486214E-01  0.38328045714E+01  0.38475085118E+01  0.00000000000E+00 0.  1.
</event>
<event>
 5    1  0.1461556E+002  0.1599601E+01  0.7818608E-02  0.3353797E+00
         11   -1    0    0    0    0  0.00000000000E+00  0.00000000000E+00  0.39999999674E+01  0.40000000000E+01  0.51100000000E-03 0.  1.
    9000002   -1    0    0    0    0 -0.00000000000E+00 -0.00000000000E+00  0.00000000000E+00  0.93800000000E+00  0.93800000000E+00 0. -1.
         11    1    1    2    0    0 -0.67157434145E-02 -0.17279204933E+00  0.16063929162E+01  0.16156734372E+01  0.51100000000E-03 0.  1.
    9000002    1    1    2    0    0 -0.36112621665E-03  0.39976451600E+00  0.10785657642E+00  0.10253237731E+01  0.93800000000E+00 0. -1.
         22    1    1    2    0    0  0.70768696311E-02 -0.22697246666E+00  0.22857504748E+01  0.22970027897E+01  0.00000000000E+00 0. -1.
</event>
<event>
 5    1  0.1461556E+002  0.1599621E+01  0.7818608E-02  0.3353775E+00
         11   -1    0    0    0    0  0.00000000000E+00  0.00000000000E+00  0.39999999674E+01  0.40000000000E+01  0.51100000000E-03 0.  1.
    9000002   -1    0    0    0    0 -0.00000000000E+00 -0.00000000000E+00  0.00000000000E+00  0.93800000000E+00  0.93800000000E+00 0.  1.
         11    1    1    2    0    0 -0.30967250707E-01 -0.71410779415E-01  0.88869008031E+00  0.89209236629E+00  0.51100000000E-03 0.  1.
    9000002    1    1    2    0    0  0.10997692944E+00  0.29642196365E+00  0.66832852954E-01  0.99210459921E+00  0.93800000000E+00 0.  1.
         22    1    1    2    0    0 -0.79009678731E-01 -0.22501118424E+00  0.30444770341E+01  0.30538030345E+01  0.00000000000E+00 0.  1.
</event>
<event>
 5    1  0.1461556E+002  0.1599677E+01  0.7818608E-02  0.3353714E+00
         11   -1    0    0    0    0  0.00000000000E+00  0.00000000000E+00  0.39999999674E+01  0.40000000000E+01  0.51100000000E-03 0.  1.
    9000002   -1    0    0    0    0 -0.00000000000E+00 -0.00000000000E+00  0.00000000000E+00  0.93800000000E+00  0.93800000000E+00 0.  1.
         11    1    1    2    0    0  0.25483674084E+00 -0.17902833517E+00  0.12465621668E+01  0.12848775841E+01  0.51100000000E-03 0.  1.
    9000002    1    1    2    0    0 -0.70392721290E+00  0.49341060719E+00  0.55629513404E+00  0.13886237160E+01  0.93800000000E+00 0.  1.
         22    1    1    2    0    0  0.44909047206E+00 -0.31438227203E+00  0.21971426665E+01  0.22644986999E+01  0.00000000000E+00 0.  1.
</event>
<event>
 5    1  0.1461556E+002  0.1595246E+01  0.7818608E-02  0.3358540E+00
         11   -1    0    0    0    0  0.00000000000E+00  0.00000000000E+00  0.39999999674E+01  0.40000000000E+01  0.51100000000E-03 0. -1.
    9000002   -1    0    0    0    0 -0.00000000000E+00 -0.00000000000E+00  0.00000000000E+00  0.93800000000E+00  0.93800000000E+00 0. -1.
         11    1    1    2    0    0 -0.21063914234E-02  0.45008801733E-01  0.16504140312E+00  0.17108230470E+00  0.51100000000E-03 0. -1.
    9000002    1    1    2    0    0 -0.29509842469E-01 -0.30093858745E+00  0.64491742413E-01  0.98764267276E+00  0.93800000000E+00 0. -1.
         22    1    1    2    0    0  0.31616233893E-01  0.25592978571E+00  0.37704668218E+01  0.37792750225E+01  0.00000000000E+00 0. -1.
</event>
<event>
 5    1  0.1461556E+002  0.1591854E+01  0.7818608E-02  0.3362252E+00
         11   -1    0    0    0    0  0.00000000000E+00  0.00000000000E+00  0.39999999674E+01  0.40000000000E+01  0.51100000000E-03 0.  1.
    9000002   -1    0    0    0    0 -0.00000000000E+00 -0.00000000000E+00  0.00000000000E+00  0.93800000000E+00  0.93800000000E+00 0.  1.
         11    1    1    2    0    0  0.13882876404E+00  0.67333213850E-01  0.83105211205E+00  0.84525443594E+00  0.51100000000E-03 0.  1.
    9000002    1    1    2    0    0 -0.36409355546E+00 -0.22320741479E-01  0.95753167811E-01  0.10109772509E+01  0.93800000000E+00 0.  1.
         22    1    1    2    0    0  0.22526479142E+00 -0.45012472371E-01  0.30731946875E+01  0.30817683132E+01  0.00000000000E+00 0.  1.
</event>
<event>
 5    1  0.1461556E+002  0.1541288E+01  0.7818608E-02  0.3419661E+00
         11   -1    0    0    0    0  0.00000000000E+00  0.00000000000E+00  0.39999999674E+01  0.40000000000E+01  0.51100000000E-03 0. -1.
    9000002   -1    0    0    0    0 -0.00000000000E+00 -0.00000000000E+00  0.00000000000E+00  0.93800000000E+00  0.93800000000E+00 0. -1.
         11    1    1    2    0    0 -0.61388145084E-01  0.16353887839E+00  0.38369666621E+00  0.42158849828E+00  0.51100000000E-03 0. -1.
    9000002    1    1    2    0    0  0.14237807936E+00  0.56713264248E-01  0.59952678096E-01  0.95232674825E+00  0.93800000000E+00 0. -1.
         22    1    1    2    0    0 -0.80989934277E-01 -0.22025214264E+00  0.35563506231E+01  0.35640847535E+01  0.00000000000E+00 0. -1.
</event>
<event>
 5    1  0.1461556E+002  0.1599677E+01  0.7818608E-02  0.3353714E+00
         11   -1    0    0    0    0  0.00000000000E+00  0.00000000000E+00  0.39999999674E+01  0.40000000000E+01  0.51100000000E-03 0.  1.
    9000002   -1    0    0    0    0 -0.00000000000E+00 -0.00000000000E+00  0.00000000000E+00  0.93800000000E+00  0.93800000000E+00 0. -1.
         11    1    1    2    0    0  0.24585529489E+00 -0.24088937089E+00  0.23313174981E+01  0.23565894961E+01  0.51100000000E-03 0.  1.
    9000002    1    1    2    0    0 -0.39896303447E+00  0.38975104345E+00  0.21518088541E+00  0.11123057998E+01  0.93800000000E+00 0. -1.
         22    1    1    2    0    0  0.15310773957E+00 -0.14886167256E+00  0.14535015839E+01  0.14691047042E+01  0.00000000000E+00 0.  1.
</event>
<event>
 5    1  0.1461556E+002  0.1594467E+01  0.7818608E-02  0.3359391E+00
         11   -1    0    0    0    0  0.00000000000E+00  0.00000000000E+00  0.39999999674E+01  0.40000000000E+01  0.51100000000E-03 0.  1.
    9000002   -1    0    0    0    0 -0.00000000000E+00 -0.00000000000E+00  0.00000000000E+00  0.93800000000E+00  0.93800000000E+00 0. -1.
         11    1    1    2    0    0 -0.13117954396E-01  0.18392689849E-01  0.45775039501E-01  0.51048870015E-01  0.51100000000E-03 0.  1.
    9000002    1    1    2    0    0  0.60225003182E-01 -0.30914045877E+00  0.70390895710E-01  0.99196459234E+00  0.93800000000E+00 0. -1.
         22    1    1    2    0    0 -0.47107048785E-01  0.29074776892E+00  0.38838340321E+01  0.38949865376E+01  0.00000000000E+00 0.  1.
</event>
<event>
 5    1  0.1461556E+002  0.1585441E+01  0.7818608E-02  0.3369318E+00
         11   -1    0    0    0    0  0.00000000000E+00  0.00000000000E+00  0.39999999674E+01  0.40000000000E+01  0.51100000000E-03 0. -1.
    9000002   -1    0    0    0    0 -0.00000000000E+00 -0.00000000000E+00  0.00000000000E+00  0.93800000000E+00  0.93800000000E+00 0. -1.
         11    1    1    2    0    0  0.28533030343E+00 -0.27191694497E+00  0.24434393321E+01  0.24750248964E+01  0.51100000000E-03 0. -1.
    9000002    1    1    2    0    0 -0.24499513198E+00  0.50111618970E+00  0.22889599614E+00  0.11150683510E+01  0.93800000000E+00 0. -1.
         22    1    1    2    0    0 -0.40335171443E-01 -0.22919924473E+00  0.13276646391E+01  0.13479067526E+01  0.00000000000E+00 0. -1.
</event>
<event>
 5    1  0.1461556E+002  0.1598482E+01  0.7818608E-02  0.3355013E+00
         11   -1    0    0    0    0  0.00000000000E+00  0.00000000000E+00  0.39999999674E+01  0.40000000000E+01  0.51100000000E-03 0.  1.
    9000002   -1    0    0    0    0 -0.00000000000E+00 -0.00000000000E+00  0.00000000000E+00  0.93800000000E+00  0.93800000000E+00 0.  1.
         11    1    1    2    0    0  0.21597422998E-01 -0.31138954283E+00  0.13378354400E+01  0.13737662908E+01  0.51100000000E-03 0.  1.
    9000002    1    1    2    0    0 -0.16190400954E+00  0.81155595967E+00  0.51097737546E+00  0.13512134777E+01  0.93800000000E+00 0.  1.
         22    1    1    2    0    0  0.14030658654E+00 -0.50016641684E+00  0.21511871519E+01  0.22130202316E+01  0.00000000000E+00 0.  1.
</event>
<event>
 5    1  0.1461556E+002  0.1528756E+01  0.7818608E-02  0.3434515E+00
         11   -1    0    0    0    0  0.00000000000E+00  0.00000000000E+00  0.39999999674E+01  0.40000000000E+01  0.51100000000E-03 0.  1.
    9000002   -1    0    0    0    0 -0.00000000000E+00 -0.00000000000E+00  0.00000000000E+00  0.93800000000E+00  0.93800000000E+00 0. -1.
         11    1    1    2    0    0 -0.10017380733E+00  0.67671235412E-01  0.13534041845E+00  0.18147032200E+00  0.51100000000E-03 0.  1.
    9000002    1    1    2    0    0 -0.17974546847E+00 -0.56242078297E-01  0.78409216703E-01  0.95992896095E+00  0.93800000000E+00 0. -1.
         22    1    1    2    0    0  0.27991927581E+00 -0.11429157115E-01  0.37862503322E+01  0.37966007171E+01  0.00000000000E+00 0.  1.
</event>
<event>
 5    1  0.1461556E+002  0.1597411E+01  0.7818608E-02  0.3356179E+00
         11   -1    0    0    0    0  0.00000000000E+00  0.00000000000E+00  0.39999999674E+01  0.40000000000E+01  0.51100000000E-03 0.  1.
    9000002   -1    0    0    0    0 -0.00000000000E+00 -0.00000000000E+00  0.00000000000E+00  0.93800000000E+00  0.93800000000E+00 0. -1.
         11    1    1    2    0    0 -0.22668922894E-01  0.27653855513E-01  0.51883276892E+00  0.52006376437E+00  0.51100000000E-03 0.  1.
    9000002    1    1    2    0    0 -0.12027752080E+00 -0.24253381488E+00  0.50516466494E-01  0.97759155416E+00  0.93800000000E+00 0. -1.
         22    1    1    2    0    0  0.14294644370E+00  0.21487995937E+00  0.34306507319E+01  0.34403446815E+01  0.00000000000E+00 0.  1.
</event>
<event>
 5    1  0.1461556E+002  0.1599121E+01  0.7818608E-02  0.3354318E+00
         11   -1    0    0    0    0  0.00000000000E+00  0.00000000000E+00  0.39999999674E+01  0.40000000000E+01  0.51100000000E-03 0. -1.
    9000002   -1    0    0    0    0 -0.00000000000E+00 -0.00000000000E+00  0.00000000000E+00  0.93800000000E+00  0.93800000000E+00 0. -1.
         11    1    1    2    0    0 -0.21113839980E+00 -0.53491571371E+00  0.25056853558E+01  0.25708313068E+01  0.51100000000E-03 0. -1.
    9000002    1    1    2    0    0  0.28220312797E+00  0.72582286389E+00  0.44429872852E+00  0.12975757378E+01  0.93800000000E+00 0. -1.
         22    1    1    2    0    0 -0.71064728174E-01 -0.19090715018E+00  0.10500158831E+01  0.10695929554E+01  0.00000000000E+00 0.  1.
</event>
<event>
 5    1  0.1461556E+002  0.1599675E+01  0.7818608E-02  0.3353716E+00
         11   -1    0    0    0    0  0.00000000000E+00  0.00000000000E+00  0.39999999674E+01  0.40000000000E+01  0.51100000000E-03 0.  1.
    9000002   -1    0    0    0    0 -0.00000000000E+00 -0.00000000000E+00  0.00000000000E+00  0.93800000000E+00  0.93800000000E+00 0. -1.
         11    1    1    2    0    0  0.82368875268E-01  0.10340645079E+00  0.13126392723E+01  0.13192799726E+01  0.51100000000E-03 0. -1.
    9000002    1    1    2    0    0 -0.24879880423E+00 -0.30729580079E+00  0.10538820469E+00  0.10233680803E+01  0.93800000000E+00 0. -1.
         22    1    1    2    0    0  0.16642992896E+00  0.20388935000E+00  0.25819724904E+01  0.25953519471E+01  0.00000000000E+00 0.  1.
</event>
<event>
 5    1  0.1461556E+002  0.1556031E+01  0.7818608E-02  0.3402513E+00
         11   -1    0    0    0    0  0.00000000000E+00  0.00000000000E+00  0.39999999674E+01  0.40000000000E+01  0.51100000000E-03 0. -1.
    9000002   -1    0    0    0    0 -0.00000000000E+00 -0.00000000000E+00  0.00000000000E+00  0.93800000000E+00  0.93800000000E+00 0. -1.
         11    1    1    2    0    0 -0.19785416474E+00  0.16455324892E+00  0.17598046087E+01  0.17785208923E+01  0.51100000000E-03 0. -1.
    9000002    1    1    2    0    0  0.41332512773E-01  0.20677983773E-01  0.33747027985E-01  0.93974401702E+00  0.93800000000E+00 0. -1.
         22    1    1    2    0    0  0.15652165196E+00 -0.18523123270E+00  0.22064483307E+01  0.22197350907E+01  0.00000000000E+00 0. -1.
</event>
<event>
 5    1  0.1461556E+002  0.1599677E+01  0.7818608E-02  0.3353714E+00
         11   -1    0    0    0    0  0.00000000000E+00  0.00000000000E+00  0.39999999674E+01  0.40000000000E+01  0.51100000000E-03 0.  1.
    9000002   -1    0    0    0    0 -0.00000000000E+00 -0.00000000000E+00  0.00000000000E+00  0.93800000000E+00  0.93800000000E+00 0.  1.
         11    1    1    2    0    0  0.12919062614E+00  0.10618431578E+00  0.17629302434E+01  0.17708440448E+01  0.51100000000E-03 0.  1.
    9000002    1    1    2    0    0 -0.28561255127E+00 -0.23525092819E+00  0.92014176962E-01  0.10125354993E+01  0.93800000000E+00 0.  1.
         22    1    1    2    0    0  0.15642192514E+00  0.12906661240E+00  0.21450555470E+01  0.21546204559E+01  0.00000000000E+00 0.  1.
</event>
<event>
 5    1  0.1461556E+002  0.1544568E+01  0.7818608E-02  0.3415816E+00
         11   -1    0    0    0    0  0.00000000000E+00  0.00000000000E+00  0.39999999674E+01  0.40000000000E+01  0.51100000000E-03 0. -1.
    9000002   -1    0    0    0    0 -0.00000000000E+00 -0.00000000000E+00  0.00000000000E+00  0.93800000000E+00  0.93800000000E+00 0. -1.
         11    1    1    2    0    0 -0.22837199084E+00 -0.66669968406E-01  0.54505613952E+00  0.59471430724E+00  0.51100000000E-03 0. -1.
    9000002    1    1    2    0    0  0.35458040793E+00 -0.19129038466E+00  0.15700489989E+00  0.10328667947E+01  0.93800000000E+00 0. -1.
         22    1    1    2    0    0 -0.12620841709E+00  0.25796035307E+00  0.32979389280E+01  0.33104188981E+01  0.00000000000E+00 0.  1.
</event>
<event>
 5    1  0.1461556E+002  0.1599675E+01  0.7818608E-02  0.3353716E+00
         11   -1    0    0    0    0  0.00000000000E+00  0.00000000000E+00  0.39999999674E+01  0.40000000000E+01  0.51100000000E-03 0. -1.
    9000002   -1    0    0    0    0 -0.00000000000E+00 -0.00000000000E+00  0.00000000000E+00  0.93800000000E+00  0.93800000000E+00 0.  1.
         11    1    1    2    0    0  0.19217802758E-01 -0.75361477331E-01  0.10815753605E+01  0.10843681099E+01  0.51100000000E-03 0. -1.
    9000002    1    1    2    0    0 -0.70585499087E-01  0.26990591996E+00  0.51826088448E-01  0.97998033743E+00  0.93800000000E+00 0.  1.
         22    1    1    2    0    0  0.51367696329E-01 -0.19454444263E+00  0.28665985185E+01  0.28736515527E+01  0.00000000000E+00 0. -1.
</event>
<event>
 5    1  0.1461556E+002  0.1599676E+01  0.7818608E-02  0.3353715E+00
         11   -1    0    0    0    0  0.00000000000E+00  0.00000000000E+00  0.39999999674E+01  0.40000000000E+01  0.51100000000E-03 0. -1.
    9000002   -1    0    0    0    0 -0.00000000000E+00 -0.00000000000E+00  0.00000000000E+00  0.93800000000E+00  0.93800000000E+00 0.  1.
         11    1    1    2    0    0  0.82853315284E-02 -0.17295568201E-01  0.34206707752E+00  0.34260462642E+00  0.51100000000E-03 0. -1.
    9000002    1    1    2    0    0 -0.10196569970E+00  0.20132702621E+00  0.33773014791E-01  0.96535702822E+00  0.93800000000E+00 0.  1.
         22    1    1    2    0    0  0.93680368176E-01 -0.18403145801E+00  0.36241598750E+01  0.36300383454E+01  0.00000000000E+00 0. -1.
</event>
<event>
 5    1  0.1461556E+002  0.1599677E+01  0.7818608E-02  0.3353714E+00
         11   -1    0    0    0    0  0.00000000000E+00  0.00000000000E+00  0.39999999674E+01  0.40000000000E+01  0.51100000000E-03 0.  1.
    9000002   -1    0    0    0    0 -0.00000000000E+00 -0.00000000000E+00  0.00000000000E+00  0.93800000000E+00  0.93800000000E+00 0.  1.
         11    1    1    2    0    0 -0.48282269971E-01  0.28897277611E-02  0.76080257335E+00  0.76233873367E+00  0.51100000000E-03 0.  1.
    9000002    1    1    2    0    0  0.25108379725E+00 -0.12898327748E-01  0.41994199324E-01  0.97201695092E+00  0.93800000000E+00 0.  1.
         22    1    1    2    0    0 -0.20280152727E+00  0.10008599987E-01  0.31972031947E+01  0.32036443154E+01  0.00000000000E+00 0.  1.
</event>
<event>
 5    1  0.1461556E+002  0.1584777E+01  0.7818608E-02  0.3370053E+00
         11   -1    0    0    0    0  0.00000000000E+00  0.00000000000E+00  0.39999999674E+01  0.40000000000E+01  0.51100000000E-03 0.  1.
    9000002   -1    0    0    0    0 -0.00000000000E+00 -0.00000000000E+00  0.00000000000E+00  0.93800000000E+00  0.93800000000E+00 0.  1.
         11    1    1    2    0    0 -0.77588510032E-01  0.16462893769E+00  0.14229357223E+01  0.14345274466E+01  0.51100000000E-03 0.  1.
    9000002    1    1    2    0    0  0.23660127764E+00 -0.76593072421E+00  0.49326114254E+00  0.13288267734E+01  0.93800000000E+00 0.  1.
         22    1    1    2    0    0 -0.15901276761E+00  0.60130178652E+00  0.20838031025E+01  0.21746457801E+01  0.00000000000E+00 0.  1.
</event>
<event>
 5    1  0.1461556E+002  0.1592601E+01  0.7818608E-02  0.3361433E+00
         11   -1    0    0    0    0  0.00000000000E+00  0.00000000000E+00  0.39999999674E+01  0.40000000000E+01  0.51100000000E-03 0. -1.
    9000002   -1    0    0    0    0 -0.00000000000E+00 -0.00000000000E+00  0.00000000000E+00  0.93800000000E+00  0.93800000000E+00 0. -1.
         11    1    1    2    0    0  0.16194964563E-01  0.90329171022E-01  0.41550389832E+00  0.42551778653E+00  0.51100000000E-03 0. -1.
    9000002    1    1    2    0    0 -0.12354219405E+00 -0.26226120678E+00  0.61544881019E-01  0.98370492866E+00  0.93800000000E+00 0. -1.
         22    1    1    2    0    0  0.10734722949E+00  0.17193203576E+00  0.35229511880E+01  0.35287772848E+01  0.00000000000E+00 0. -1.
</event>
<event>
 5    1  0.1461556E+002  0.1598893E+01  0.7818608E-02  0.3354565E+00
         11   -1    0    0    0    0  0.00000000000E+00  0.00000000000E+00  0.39999999674E+01  0.40000000000E+01  0.51100000000E-03 0.  1.
    9000002   -1    0    0    0    0 -0.00000000000E+00 -0.00000000000E+00  0.00000000000E+00  0.93800000000E+00  0.93800000000E+00 0.  1.
         11    1    1    2    0    0 -0.30211186084E-02  0.53436778056E-02  0.30704448405E+00  0.30710626557E+00  0.51100000000E-03 0.  1.
    9000002    1    1    2    0    0 -0.56186144145E-01 -0.28032974780E+00  0.55070261527E-01  0.98214987858E+00  0.93800000000E+00 0.  1.
         22    1    1    2    0    0  0.59207262754E-01  0.27498607000E+00  0.36378852218E+01  0.36487438558E+01  0.00000000000E+00 0.  1.
</event>
<event>
 5    1  0.1461556E+002  0.1593991E+01  0.7818608E-02  0.3359911E+00
         11   -1    0    0    0    0  0.00000000000E+00  0.00000000000E+00  0.39999999674E+01  0.40000000000E+01  0.51100000000E-03 0.  1.
    9000002   -1    0    0    0    0 -0.00000000000E+00 -0.00000000000E+00  0.00000000000E+00  0.93800000000E+00  0.93800000000E+00 0. -1.
         11    1    1    2    0    0  0.16143164915E+00  0.26230337967E+00  0.20679685280E+01  0.20907791213E+01  0.51100000000E-03 0.  1.
    9000002    1    1    2    0    0 -0.13201877868E+00 -0.50303454662E+00  0.19102843392E+00  0.10894074424E+01  0.93800000000E+00 0. -1.
         22    1    1    2    0    0 -0.29412870465E-01  0.24073116695E+00  0.17410030054E+01  0.17578134363E+01  0.00000000000E+00 0.  1.
</event>
<event>
 5    1  0.1461556E+002  0.1599670E+01  0.7818608E-02  0.3353722E+00
         11   -1    0    0    0    0  0.00000000000E+00  0.00000000000E+00  0.39999999674E+01  0.40000000000E+01  0.51100000000E-03 0. -1.
    9000002   -1    0    0    0    0 -0.00000000000E+00 -0.00000000000E+00  0.00000000000E+00  0.93800000000E+00  0.93800000000E+00 0. -1.
         11    1    1    2    0    0  0.63261504908E-01  0.29957917664E-01  0.74965992285E+00  0.75292081647E+00  0.51100000000E-03 0. -1.
    9000002    1    1    2    0    0 -0.34003209223E+00 -0.14779166150E+00  0.92395478700E-01  0.10128401273E+01  0.93800000000E+00 0. -1.
         22    1    1    2    0    0  0.27677058732E+00  0.11783374384E+00  0.31579445658E+01  0.31722390562E+01  0.00000000000E+00 0. -1.
</event>
<event>
 5    1  0.1461556E+002  0.1598670E+01  0.7818608E-02  0.3354808E+00
         11   -1    0    0    0    0  0.00000000000E+00  0.00000000000E+00  0.39999999674E+01  0.40000000000E+01  0.51100000000E-03 0. -1.
    9000002   -1    0    0    0    0 -0.00000000000E+00 -0.00000000000E+00  0.00000000000E+00  0.93800000000E+00  0.93800000000E+00 0. -1.
         11    1    1    2    0    0  0.54757381457E-01  0.35173048815E-01  0.59210179501E+00  0.59566795361E+00  0.51100000000E-03 0. -1.
    9000002    1    1    2    0    0 -0.18945220795E+00 -0.18679781208E+00  0.47857602727E-01  0.97617616844E+00  0.93800000000E+00 0. -1.
         22    1    1    2    0    0  0.13469482649E+00  0.15162476326E+00  0.33600405696E+01  0.33661558779E+01  0.00000000000E+00 0. -1.
</event>
<event>
 5    1  0.1461556E+002  0.1599675E+01  0.7818608E-02  0.3353717E+00
         11   -1    0    0    0    0  0.00000000000E+00  0.00000000000E+00  0.39999999674E+01  0.40000000000E+01  0.51100000000E-03 0. -1.
    9000002   -1    0    0    0    0 -0.00000000000E+00 -0.00000000000E+00  0.00000000000E+00  0.93800000000E+00  0.93800000000E+00 0.  1.
         11    1    1    2    0    0 -0.25873130126E-01 -0.29524102322E-01  0.59201002079E+00  0.59331038868E+00  0.51100000000E-03 0. -1.
    9000002    1    1    2    0    0  0.16886926013E+00  0.20458615116E+00  0.46805924818E-01  0.97591347714E+00  0.93800000000E+00 0.  1.
         22    1    1    2    0    0 -0.14299613000E+00 -0.17506204884E+00  0.33611840218E+01  0.33687761342E+01  0.00000000000E+00 0. -1.
</event>
<event>
 5    1  0.1461556E+002  0.1578770E+01  0.7818608E-02  0.3376733E+00
         11   -1    0    0    0    0  0.00000000000E+00  0.00000000000E+00  0.39999999674E+01  0.40000000000E+01  0.51100000000E-03 0. -1.
    9000002   -1    0    0    0    0 -0.00000000000E+00 -0.00000000000E+00  0.00000000000E+00  0.93800000000E+00  0.93800000000E+00 0.  1.
         11    1    1    2    0    0  0.85234972808E-01  0.85125514878E-01  0.10777264471E+01  0.10844380618E+01  0.51100000000E-03 0. -1.
    9000002    1    1    2    0    0 -0.29588295253E+00  0.25460266407E+00  0.12013701929E+00  0.10230572523E+01  0.93800000000E+00 0.  1.
         22    1    1    2    0    0  0.21064797973E+00 -0.33972817895E+00  0.28021365009E+01  0.28305046859E+01  0.00000000000E+00 0. -1.
</event>
<event>
 5    1  0.1461556E+002  0.1599658E+01  0.7818608E-02  0.3353735E+00
         11   -1    0    0    0    0  0.00000000000E+00  0.00000000000E+00  0.39999999674E+01  0.40000000000E+01  0.51100000000E-03 0.  1.
    9000002   -1    0    0    0    0 -0.00000000000E+00 -0.00000000000E+00  0.00000000000E+00  0.93800000000E+00  0.93800000000E+00 0. -1.
         11    1    1    2    0    0  0.20549425648E-02  0.78217138824E-02  0.18073454351E+00  0.18091610856E+00  0.51100000000E-03 0.  1.
    9000002    1    1    2    0    0 -0.44162915086E-01 -0.21860718481E+00  0.32991461438E-01  0.96471337756E+00  0.93800000000E+00 0. -1.
         22    1    1    2    0    0  0.42107972522E-01  0.21078547093E+00  0.37862739624E+01  0.37923705139E+01  0.00000000000E+00 0.  1.
</event>
<event>
 5    1  0.1461556E+002  0.1599676E+01  0.7818608E-02  0.3353716E+00
         11   -1    0    0    0    0  0.00000000000E+00  0.00000000000E+00  0.39999999674E+01  0.40000000000E+01  0.51100000000E-03 0.  1.
    9000002   -1    0    0    0    0 -0.00000000000E+00 -0.00000000000E+00  0.00000000000E+00  0.93800000000E+00  0.93800000000E+00 0.  1.
         11    1    1    2    0    0  0.85341010387E-01  0.27435496393E+00  0.20795351665E+01  0.20992904764E+01  0.51100000000E-03 0.  1.
    9000002    1    1    2    0    0 -0.15525546952E+00 -0.50488116113E+00  0.19193838088E+00  0.10934777500E+01  0.93800000000E+00 0.  1.
         22    1    1    2    0    0  0.69914459129E-01  0.23052619719E+00  0.17285264200E+01  0.17452317736E+01  0.00000000000E+00 0.  1.
</event>
<event>
 5    1  0.1461556E+002  0.1558640E+01  0.7818608E-02  0.3399515E+00
         11   -1    0    0    0    0  0.00000000000E+00  0.00000000000E+00  0.39999999674E+01  0.40000000000E+01  0.51100000000E-03 0.  1.
    9000002   -1    0    0    0    0 -0.00000000000E+00 -0.00000000000E+00  0.00000000000E+00  0.93800000000E+00  0.93800000000E+00 0. -1.
         11    1    1    2    0    0 -0.29436024690E-02  0.16089681633E+00  0.19633405382E+01  0.19699245621E+01  0.51100000000E-03 0.  1.
    9000002    1    1    2    0    0  0.24628130627E+00  0.10270796508E+00  0.79659026039E-01  0.97846459739E+00  0.93800000000E+00 0. -1.
         22    1    1    2    0    0 -0.24333770381E+00 -0.26360478141E+00  0.19570004031E+01  0.19896108405E+01  0.00000000000E+00 0. -1.
</event>
<event>
 5    1  0.1461556E+002  0.1599184E+01  0.7818608E-02  0.3354249E+00
         11   -1    0    0    0    0  0.00000000000E+00  0.00000000000E+00  0.39999999674E+01  0.40000000000E+01  0.51100000000E-03 0.  1.
    9000002   -1    0    0    0    0 -0.00000000000E+00 -0.00000000000E+00  0.00000000000E+00  0.93800000000E+00  0.93800000000E+00 0. -1.
         11    1    1    2    0    0  0.12700050068E-01 -0.17842875953E-01  0.59359378962E+00  0.59399790209E+00  0.51100000000E-03 0.  1.
    9000002    1    1    2    0    0 -0.20689577485E+00  0.82744138364E-01  0.33291407514E-01  0.96467858476E+00  0.93800000000E+00 0. -1.
         22    1    1    2    0    0  0.19419572478E+00 -0.64901262411E-01  0.33731147702E+01  0.33793235131E+01  0.00000000000E+00 0.  1.
</event>
<event>
 5    1  0.1461556E+002  0.1592664E+01  0.7818608E-02  0.3361365E+00
         11   -1    0    0    0    0  0.00000000000E+00  0.00000000000E+00  0.39999999674E+01  0.40000000000E+01  0.51100000000E-03 0. -1.
    9000002   -1    0    0    0    0 -0.00000000000E+00 -0.00000000000E+00  0.00000000000E+00  0.93800000000E+00  0.93800000000E+00 0. -1.
         11    1    1    2    0    0 -0.68515256330E-01  0.88437023857E-01  0.11807190044E+01  0.11860071990E+01  0.51100000000E-03 0. -1.
    9000002    1    1    2    0    0 -0.77183891185E-01 -0.25822141588E+00  0.53753022204E-01  0.97742981337E+00  0.93800000000E+00 0. -1.
         22    1    1    2    0    0  0.14569914751E+00  0.16978439202E+00  0.27655279408E+01  0.27745629877E+01  0.00000000000E+00 0. -1.
</event>
<event>
 5    1  0.1939103E+002  0.1584509E+01  0.7818608E-02  0.3370350E+00
         11   -1    0    0    0    0  0.00000000000E+00  0.00000000000E+00  0.39999999674E+01  0.40000000000E+01  0.51100000000E-03 0. -1.
    9000002   -1    0    0    0    0 -0.00000000000E+00 -0.00000000000E+00  0.00000000000E+00  0.93800000000E+00  0.93800000000E+00 0. -1.
         11    1    1    2    0    0  0.58094011534E-01  0.38586001646E-01  0.33531896223E+00  0.34249505289E+00  0.51100000000E-03 0. -1.
    9000002    1    1    2    0    0  0.12097430847E+00  0.93171798623E-01  0.26684434544E-01  0.95072173974E+00  0.93800000000E+00 0. -1.
         22    1    1    2    0    0 -0.17906832000E+00 -0.13175780027E+00  0.36379965706E+01  0.36447832074E+01  0.00000000000E+00 0. -1.
</event>
<event>
 5    1  0.1461556E+002  0.1561215E+01  0.7818608E-02  0.3396566E+00
         11   -1    0    0    0    0  0.00000000000E+00  0.00000000000E+00  0.39999999674E+01  0.40000000000E+01  0.51100000000E-03 0.  1.
    9000002   -1    0    0    0    0 -0.00000000000E+00 -0.00000000000E+00  0.00000000000E+00  0.93800000000E+00  0.93800000000E+00 0. -1.
         11    1    1    2    0    0 -0.52777133752E-01  0.12431502682E-01  0.32042691279E+01  0.32047278938E+01  0.51100000000E-03 0.  1.
    9000002    1    1    2    0    0 -0.16408313364E+00 -0.36159966411E-01  0.47747769040E-01  0.95412507952E+00  0.93800000000E+00 0. -1.
         22    1    1    2    0    0  0.21686026739E+00  0.23728463729E-01  0.74798307037E+00  0.77914702664E+00  0.00000000000E+00 0. -1.
</event>
<event>
 5    1  0.1461556E+002  0.1593548E+01  0.7818608E-02  0.3360396E+00
         11   -1    0    0    0    0  0.00000000000E+00  0.00000000000E+00  0.39999999674E+01  0.40000000000E+01  0.51100000000E-03 0.  1.
    9000002   -1    0    0    0    0 -0.00000000000E+00 -0.00000000000E+00  0.00000000000E+00  0.93800000000E+00  0.93800000000E+00 0.  1.
         11    1    1    2    0    0  0.51168838039E-01  0.52517766803E-01  0.29609545684E+00  0.30503958186E+00  0.51100000000E-03 0.  1.
    9000002    1    1    2    0    0 -0.16866779344E+00 -0.26632688938E+00  0.71245594521E-01  0.99211832525E+00  0.93800000000E+00 0.  1.
         22    1    1    2    0    0  0.11749895541E+00  0.21380912258E+00  0.36326589160E+01  0.36408420929E+01  0.00000000000E+00 0.  1.
</event>
<event>
 5    1  0.1461556E+002  0.1599674E+01  0.7818608E-02  0.3353717E+00
         11   -1    0    0    0    0  0.00000000000E+00  0.00000000000E+00  0.39999999674E+01  0.40000000000E+01  0.51100000000E-03 0.  1.
    9000002   -1    0    0    0    0 -0.00000000000E+00 -0.00000000000E+00  0.00000000000E+00  0.93800000000E+00  0.93800000000E+00 0.  1.
         11    1    1    2    0    0 -0.18974925521E-01  0.85671192455E-01  0.78627369094E+00  0.79115496536E+00  0.51100000000E-03 0.  1.
    9000002    1    1    2    0    0  0.86506901598E-01 -0.42455981390E+00  0.12720144447E+00  0.10410373130E+01  0.93800000000E+00 0.  1.
         22    1    1    2    0    0 -0.67531976077E-01  0.33888862145E+00  0.30865248319E+01  0.31058077216E+01  0.00000000000E+00 0.  1.
</event>
<event>
 5    1  0.1461556E+002  0.1599669E+01  0.7818608E-02  0.3353723E+00
         11   -1    0    0    0    0  0.00000000000E+00  0.00000000000E+00  0.39999999674E+01  0.40000000000E+01  0.51100000000E-03 0. -1.
    9000002   -1    0    0    0    0 -0.00000000000E+00 -0.00000000000E+00  0.00000000000E+00  0.93800000000E+00  0.93800000000E+00 0.  1.
         11    1    1    2    0    0 -0.18717147864E-01  0.53411897318E-02  0.24161104922E+00  0.24239434844E+00  0.51100000000E-03 0. -1.
    9000002    1    1    2    0    0  0.28050152875E+00 -0.79302663828E-01  0.56646824795E-01  0.98388153905E+00  0.93800000000E+00 0.  1.
         22    1    1    2    0    0 -0.26178438088E+00  0.73961474096E-01  0.37017420933E+01  0.37117241125E+01  0.00000000000E+00 0. -1.
</event>
<event>
 5    1  0.1461556E+002  0.1599649E+01  0.7818608E-02  0.3353744E+00
         11   -1    0    0    0    0  0.00000000000E+00  0.00000000000E+00  0.39999999674E+01  0.40000000000E+01  0.51100000000E-03 0. -1.
    9000002   -1    0    0    0    0 -0.00000000000E+00 -0.00000000000E+00  0.00000000000E+00  0.93800000000E+00  0.93800000000E+00 0.  1.
         11    1    1    2    0    0 -0.42151754941E-03  0.45264826770E-02  0.11083256223E+00  0.11092693403E+00  0.51100000000E-03 0. -1.
    9000002    1    1    2    0    0  0.27623875392E-01 -0.23326124287E+00  0.36631341463E-01  0.96765683023E+00  0.93800000000E+00 0.  1.
         22    1    1    2    0    0 -0.27202357843E-01  0.22873476020E+00  0.38525360637E+01  0.38594162357E+01  0.00000000000E+00 0. -1.
</event>
<event>
 5    1  0.1461556E+002  0.1599129E+01  0.7818608E-02  0.3354309E+00
         11   -1    0    0    0    0  0.00000000000E+00  0.00000000000E+00  0.39999999674E+01  0.40000000000E+01  0.51100000000E-03 0. -1.
    9000002   -1    0    0    0    0 -0.00000000000E+00 -0.00000000000E+00  0.00000000000E+00  0.93800000000E+00  0.93800000000E+00 0.  1.
         11    1    1    2    0    0  0.96524184381E-02  0.69748786915E-02  0.41925681922E+00  0.41942622677E+00  0.51100000000E-03 0. -1.
    9000002    1    1    2    0    0 -0.71060660844E-01 -0.22843966554E+00  0.38406371707E-01  0.96878963026E+00  0.93800000000E+00 0.  1.
         22    1    1    2    0    0  0.61408242406E-01  0.22146478685E+00  0.35423367764E+01  0.35497841430E+01  0.00000000000E+00 0. -1.
</event>
<event>
 5    1  0.1461556E+002  0.1562431E+01  0.7818608E-02  0.3395177E+00
         11   -1    0    0    0    0  0.00000000000E+00  0.00000000000E+00  0.39999999674E+01  0.40000000000E+01  0.51100000000E-03 0. -1.
    9000002   -1    0    0    0    0 -0.00000000000E+00 -0.00000000000E+00  0.00000000000E+00  0.93800000000E+00  0.93800000000E+00 0. -1.
         11    1    1    2    0    0 -0.92673390031E-01  0.11635857271E+00  0.33042379491E+00  0.36236420909E+00  0.51100000000E-03 0. -1.
    9000002    1    1    2    0    0 -0.16808245969E+00 -0.42944861954E+00  0.17790300447E+00  0.10602694512E+01  0.93800000000E+00 0. -1.
         22    1    1    2    0    0  0.26075584973E+00  0.31309004683E+00  0.34916731680E+01  0.35153663397E+01  0.00000000000E+00 0. -1.
</event>
<event>
 5    1  0.1461556E+002  0.1573286E+01  0.7818608E-02  0.3382878E+00
         11   -1    0    0    0    0  0.00000000000E+00  0.00000000000E+00  0.39999999674E+01  0.40000000000E+01  0.51100000000E-03 0.  1.
    9000002   -1    0    0    0    0 -0.00000000000E+00 -0.00000000000E+00  0.00000000000E+00  0.93800000000E+00  0.93800000000E+00 0.  1.
         11    1    1    2    0    0 -0.14431988248E+00  0.62509903035E-01  0.15643235015E+01  0.15722099080E+01  0.51100000000E-03 0.  1.
    9000002    1    1    2    0    0 -0.62403193583E-01  0.67798127206E-01  0.25089622373E-01  0.94284899839E+00  0.93800000000E+00 0.  1.
         22    1    1    2    0    0  0.20672307606E+00 -0.13030803024E+00  0.24105868435E+01  0.24229410936E+01  0.00000000000E+00 0. -1.
</event>
<event>
 5    1  0.1461556E+002  0.1598448E+01  0.7818608E-02  0.3355050E+00
         11   -1    0    0    0    0  0.00000000000E+00  0.00000000000E+00  0.39999999674E+01  0.40000000000E+01  0.51100000000E-03 0. -1.
    9000002   -1    0    0    0    0 -0.00000000000E+00 -0.00000000000E+00  0.00000000000E+00  0.93800000000E+00  0.93800000000E+00 0. -1.
         11    1    1    2    0    0  0.11576932472E-01  0.59946850472E-01  0.53550371728E+00  0.53897322994E+00  0.51100000000E-03 0. -1.
    9000002    1    1    2    0    0 -0.28214886960E+00 -0.36374119236E+00  0.14522357526E+00  0.10549168339E+01  0.93800000000E+00 0. -1.
         22    1    1    2    0    0  0.27057193713E+00  0.30379434189E+00  0.33192726748E+01  0.33441099362E+01  0.00000000000E+00 0. -1.
</event>
<event>
 5    1  0.1461556E+002  0.1599303E+01  0.7818608E-02  0.3354120E+00
         11   -1    0    0    0    0  0.00000000000E+00  0.00000000000E+00  0.39999999674E+01  0.40000000000E+01  0.51100000000E-03 0. -1.
    9000002   -1    0    0    0    0 -0.00000000000E+00 -0.00000000000E+00  0.00000000000E+00  0.93800000000E+00  0.93800000000E+00 0.  1.
         11    1    1    2    0    0  0.50540925003E-01 -0.23736522686E-01  0.41066348310E+00  0.41444247500E+00  0.51100000000E-03 0. -1.
    9000002    1    1    2    0    0 -0.43361931515E+00  0.94845929455E-01  0.13401567801E+00  0.10463391719E+01  0.93800000000E+00 0.  1.
         22    1    1    2    0    0  0.38307839014E+00 -0.71109406769E-01  0.34553208062E+01  0.34772183531E+01  0.00000000000E+00 0. -1.
</event>
<event>
 5    1  0.1461556E+002  0.1592229E+01  0.7818608E-02  0.3361841E+00
         11   -1    0    0    0    0  0.00000000000E+00  0.00000000000E+00  0.39999999674E+01  0.40000000000E+01  0.51100000000E-03 0. -1.
    9000002   -1    0    0    0    0 -0.00000000000E+00 -0.00000000000E+00  0.00000000000E+00  0.93800000000E+00  0.93800000000E+00 0. -1.
         11    1    1    2    0    0 -0.47783035034E-01 -0.96188404392E-02  0.48881300403E+00  0.49123737089E+00  0.51100000000E-03 0. -1.
    9000002    1    1    2    0    0 -0.84871441737E-01 -0.21114218476E+00  0.40003484500E-01  0.96603750578E+00  0.93800000000E+00 0. -1.
         22    1    1    2    0    0  0.13265447677E+00  0.22076102520E+00  0.34711834788E+01  0.34807251233E+01  0.00000000000E+00 0. -1.
</event>
<event>
 5    1  0.1461556E+002  0.1599670E+01  0.7818608E-02  0.3353721E+00
         11   -1    0    0    0    0  0.00000000000E+00  0.00000000000E+00  0.39999999674E+01  0.40000000000E+01  0.51100000000E-03 0. -1.
    9000002   -1    0    0    0    0 -0.00000000000E+00 -0.00000000000E+00  0.00000000000E+00  0.93800000000E+00  0.93800000000E+00 0. -1.
         11    1    1    2    0    0  0.54011304108E-02  0.14469183374E+00  0.13352242940E+01  0.13430521492E+01  0.51100000000E-03 0. -1.
    9000002    1    1    2    0    0 -0.73496968089E-02 -0.41851369968E+00  0.11847658986E+00  0.10339673289E+01  0.93800000000E+00 0. -1.
         22    1    1    2    0    0  0.19485663981E-02  0.27382186594E+00  0.25462990835E+01  0.25609805219E+01  0.00000000000E+00 0. -1.
</event>
<event>
 5    1  0.1461556E+002  0.1599672E+01  0.7818608E-02  0.3353720E+00
         11   -1    0    0    0    0  0.00000000000E+00  0.00000000000E+00  0.39999999674E+01  0.40000000000E+01  0.51100000000E-03 0.  1.
    9000002   -1    0    0    0    0 -0.00000000000E+00 -0.00000000000E+00  0.00000000000E+00  0.93800000000E+00  0.93800000000E+00 0.  1.
         11    1    1    2    0    0 -0.18810872769E+00  0.61018268992E+00  0.25125026381E+01  0.25923691049E+01  0.51100000000E-03 0.  1.
    9000002    1    1    2    0    0  0.25675780724E+00 -0.83463643643E+00  0.57716661262E+00  0.14055276060E+01  0.93800000000E+00 0.  1.
         22    1    1    2    0    0 -0.68649079554E-01  0.22445374651E+00  0.91033071661E+00  0.94010328903E+00  0.00000000000E+00 0. -1.
</event>
<event>
 5    1  0.1461556E+002  0.1597758E+01  0.7818608E-02  0.3355801E+00
         11   -1    0    0    0    0  0.00000000000E+00  0.00000000000E+00  0.39999999674E+01  0.40000000000E+01  0.51100000000E-03 0. -1.
    9000002   -1    0    0    0    0 -0.00000000000E+00 -0.00000000000E+00  0.00000000000E+00  0.93800000000E+00  0.93800000000E+00 0. -1.
         11    1    1    2    0    0  0.56952011200E-01  0.85657142712E-01  0.62273912022E+00  0.63117743198E+00  0.51100000000E-03 0. -1.
    9000002    1    1    2    0    0 -0.19888763714E+00 -0.34888464278E+00  0.11040704751E+00  0.10263091651E+01  0.93800000000E+00 0. -1.
         22    1    1    2    0    0  0.14193562594E+00  0.26322750007E+00  0.32668537996E+01  0.32805134029E+01  0.00000000000E+00 0. -1.
</event>
<event>
 5    1  0.1461556E+002  0.1599676E+01  0.7818608E-02  0.3353716E+00
         11   -1    0    0    0    0  0.00000000000E+00  0.00000000000E+00  0.39999999674E+01  0.40000000000E+01  0.51100000000E-03 0.  1.
    9000002   -1    0    0    0    0 -0.00000000000E+00 -0.00000000000E+00  0.00000000000E+00  0.93800000000E+00  0.93800000000E+00 0. -1.
         11    1    1    2    0    0 -0.88009433217E-01  0.15674335265E+00  0.18057369931E+01  0.18146626376E+01  0.51100000000E-03 0.  1.
    9000002    1    1    2    0    0  0.18697789987E+00 -0.33884837808E+00  0.10086492038E+00  0.10197042172E+01  0.93800000000E+00 0. -1.
         22    1    1    2    0    0 -0.98968466657E-01  0.18210502543E+00  0.20933980539E+01  0.21036331452E+01  0.00000000000E+00 0.  1.
</event>
<event>
 5    1  0.1461556E+002  0.1599669E+01  0.7818608E-02  0.3353723E+00
         11   -1    0    0    0    0  0.00000000000E+00  0.00000000000E+00  0.39999999674E+01  0.40000000000E+01  0.51100000000E-03 0. -1.
    9000002   -1    0    0    0    0 -0.00000000000E+00 -0.00000000000E+00  0.00000000000E+00  0.93800000000E+00  0.93800000000E+00 0.  1.
         11    1    1    2    0    0 -0.38434206031E-02 -0.19776268046E-01  0.38346240706E+00  0.38399160331E+00  0.51100000000E-03 0. -1.
    9000002    1    1    2    0    0  0.53073583576E-01  0.22019130570E+00  0.34026666922E-01  0.96555829987E+00  0.93800000000E+00 0.  1.
         22    1    1    2    0    0 -0.49230162973E-01 -0.20041503765E+00  0.35825108934E+01  0.35884500968E+01  0.00000000000E+00 0. -1.
</event>
<event>
 5    1  0.1461556E+002  0.1549797E+01  0.7818608E-02  0.3409722E+00
         11   -1    0    0    0    0  0.00000000000E+00  0.00000000000E+00  0.39999999674E+01  0.40000000000E+01  0.51100000000E-03 0.  1.
    9000002   -1    0    0    0    0 -0.00000000000E+00 -0.00000000000E+00  0.00000000000E+00  0.93800000000E+00  0.93800000000E+00 0. -1.
         11    1    1    2    0    0 -0.31166202119E+00  0.39392814270E-01  0.23433811785E+01  0.23643435914E+01  0.51100000000E-03 0.  1.
    9000002    1    1    2    0    0  0.83075014805E-01 -0.16635526297E-01  0.41975023808E-01  0.94275346801E+00  0.93800000000E+00 0. -1.
         22    1    1    2    0    0  0.22858700639E+00 -0.22757287973E-01  0.16146437650E+01  0.16309029406E+01  0.00000000000E+00 0. -1.
</event>
<event>
 5    1  0.1461556E+002  0.1597752E+01  0.7818608E-02  0.3355806E+00
         11   -1    0    0    0    0  0.00000000000E+00  0.00000000000E+00  0.39999999674E+01  0.40000000000E+01  0.51100000000E-03 0.  1.
    9000002   -1    0    0    0    0 -0.00000000000E+00 -0.00000000000E+00  0.00000000000E+00  0.93800000000E+00  0.93800000000E+00 0. -1.
         11    1    1    2    0    0  0.12840992726E-01  0.57736907658E-02  0.38856757456E+00  0.38882290020E+00  0.51100000000E-03 0.  1.
    9000002    1    1    2    0    0  0.35940607231E-01  0.21444490090E+00  0.32786468688E-01  0.96342996388E+00  0.93800000000E+00 0. -1.
         22    1    1    2    0    0 -0.48781599957E-01 -0.22021859167E+00  0.35786459241E+01  0.35857471359E+01  0.00000000000E+00 0.  1.
</event>
<event>
 5    1  0.1461556E+002  0.1594918E+01  0.7818608E-02  0.3358898E+00
         11   -1    0    0    0    0  0.00000000000E+00  0.00000000000E+00  0.39999999674E+01  0.40000000000E+01  0.51100000000E-03 0.  1.
    9000002   -1    0    0    0    0 -0.00000000000E+00 -0.00000000000E+00  0.00000000000E+00  0.93800000000E+00  0.93800000000E+00 0.  1.
         11    1    1    2    0    0 -0.28035808223E-03 -0.27318532749E-01  0.11834627795E+01  0.11837781855E+01  0.51100000000E-03 0.  1.
    9000002    1    1    2    0    0  0.25176519549E+00  0.12977657265E+00  0.57142509446E-01  0.98149729437E+00  0.93800000000E+00 0.  1.
         22    1    1    2    0    0 -0.25148483741E+00 -0.10245803990E+00  0.27593946784E+01  0.27727245201E+01  0.00000000000E+00 0.  1.
</event>
<event>
 5    1  0.1461556E+002  0.1548400E+01  0.7818608E-02  0.3411346E+00
         11   -1    0    0    0    0  0.00000000000E+00  0.00000000000E+00  0.39999999674E+01  0.40000000000E+01  0.51100000000E-03 0. -1.
    9000002   -1    0    0    0    0 -0.00000000000E+00 -0.00000000000E+00  0.00000000000E+00  0.93800000000E+00  0.93800000000E+00 0. -1.
         11    1    1    2    0    0 -0.10561257262E+00 -0.26760335903E+00  0.18982487683E+01  0.19199255769E+01  0.51100000000E-03 0. -1.
    9000002    1    1    2    0    0  0.15536448689E+00 -0.60695162687E-02  0.54871467981E-01  0.95238114262E+00  0.93800000000E+00 0. -1.
         22    1    1    2    0    0 -0.49751914266E-01  0.27367287529E+00  0.20468797310E+01  0.20656932805E+01  0.00000000000E+00 0. -1.
</event>
<event>
 5    1  0.1461556E+002  0.1599668E+01  0.7818608E-02  0.3353723E+00
         11   -1    0    0    0    0  0.00000000000E+00  0.00000000000E+00  0.39999999674E+01  0.40000000000E+01  0.51100000000E-03 0.  1.
    9000002   -1    0    0    0    0 -0.00000000000E+00 -0.00000000000E+00  0.00000000000E+00  0.93800000000E+00  0.93800000000E+00 0.  1.
         11    1    1    2    0    0  0.55114145624E-02  0.32753995036E-01  0.29777484943E+00  0.29962196507E+00  0.51100000000E-03 0.  1.
    9000002    1    1    2    0    0 -0.66869037032E-01 -0.44822802184E+00  0.13956416544E+00  0.10510480407E+01  0.93800000000E+00 0.  1.
         22    1    1    2    0    0  0.61357622470E-01  0.41547402680E+00  0.35626609525E+01  0.35873299942E+01  0.00000000000E+00 0.  1.
</event>
<event>
 5    1  0.1738892E+002  0.1576089E+01  0.7818608E-02  0.3379731E+00
         11   -1    0    0    0    0  0.00000000000E+00  0.00000000000E+00  0.39999999674E+01  0.40000000000E+01  0.51100000000E-03 0.  1.
    9000002   -1    0    0    0    0 -0.00000000000E+00 -0.00000000000E+00  0.00000000000E+00  0.93800000000E+00  0.93800000000E+00 0.  1.
         11    1    1    2    0    0  0.11730269361E+00  0.62367081726E-01  0.20381738720E+01  0.20424990988E+01  0.51100000000E-03 0.  1.
    9000002    1    1    2    0    0  0.97125888068E-01  0.32338807557E-01  0.24337325597E-01  0.94388322478E+00  0.93800000000E+00 0.  1.
         22    1    1    2    0    0 -0.21442858168E+00 -0.94705889283E-01  0.19374887697E+01  0.19516176764E+01  0.00000000000E+00 0.  1.
</event>
<event>
 5    1  0.1461556E+002  0.1599598E+01  0.7818608E-02  0.3353800E+00
         11   -1    0    0    0    0  0.00000000000E+00  0.00000000000E+00  0.39999999674E+01  0.40000000000E+01  0.51100000000E-03 0. -1.
    9000002   -1    0    0    0    0 -0.00000000000E+00 -0.00000000000E+00  0.00000000000E+00  0.93800000000E+00  0.93800000000E+00 0. -1.
         11    1    1    2    0    0 -0.23840516470E+00 -0.51521315911E-01  0.19819809278E+01  0.19969326799E+01  0.51100000000E-03 0. -1.
    9000002    1    1    2    0    0  0.47325369503E+00  0.11702208813E+00  0.16242887821E+00  0.10695281060E+01  0.93800000000E+00 0. -1.
         22    1    1    2    0    0 -0.23484853033E+00 -0.65500772215E-01  0.18555901613E+01  0.18715392142E+01  0.00000000000E+00 0. -1.
</event>
<event>
 5    1  0.1461556E+002  0.1599664E+01  0.7818608E-02  0.3353728E+00
         11   -1    0    0    0    0  0.00000000000E+00  0.00000000000E+00  0.39999999674E+01  0.40000000000E+01  0.51100000000E-03 0.  1.
    9000002   -1    0    0    0    0 -0.00000000000E+00 -0.00000000000E+00  0.00000000000E+00  0.93800000000E+00  0.93800000000E+00 0. -1.
         11    1    1    2    0    0  0.44735367143E-01 -0.63840696014E-01  0.90013358608E+00  0.90350297258E+00  0.51100000000E-03 0.  1.
    9000002    1    1    2    0    0 -0.17913906885E+00  0.28026347376E+00  0.74056711662E-01  0.99798137120E+00  0.93800000000E+00 0. -1.
         22    1    1    2    0    0  0.13440370171E+00 -0.21642277775E+00  0.30258096696E+01  0.30365156562E+01  0.00000000000E+00 0.  1.
</event>
<event>
 5    1  0.1461556E+002  0.1599645E+01  0.7818608E-02  0.3353749E+00
         11   -1    0    0    0    0  0.00000000000E+00  0.00000000000E+00  0.39999999674E+01  0.40000000000E+01  0.51100000000E-03 0. -1.
    9000002   -1    0    0    0    0 -0.00000000000E+00 -0.00000000000E+00  0.00000000000E+00  0.93800000000E+00  0.93800000000E+00 0.  1.
         11    1    1    2    0    0 -0.26285220943E+00 -0.19595346335E-01  0.18010585823E+01  0.18202438133E+01  0.51100000000E-03 0. -1.
    9000002    1    1    2    0    0  0.56230673600E+00  0.31416279061E-01  0.21966212103E+00  0.11159172440E+01  0.93800000000E+00 0.  1.
         22    1    1    2    0    0 -0.29945452657E+00 -0.11820932726E-01  0.19792792640E+01  0.20018389428E+01  0.00000000000E+00 0. -1.
</event>
<event>
 5    1  0.1461556E+002  0.1595293E+01  0.7818608E-02  0.3358489E+00
         11   -1    0    0    0    0  0.00000000000E+00  0.00000000000E+00  0.39999999674E+01  0.40000000000E+01  0.51100000000E-03 0.  1.
    9000002   -1    0    0    0    0 -0.00000000000E+00 -0.00000000000E+00  0.00000000000E+00  0.93800000000E+00  0.93800000000E+00 0. -1.
         11    1    1    2    0    0 -0.42717837155E-01 -0.76569880879E-01  0.28393488831E+00  0.29716500835E+00  0.51100000000E-03 0.  1.
    9000002    1    1    2    0    0  0.15098421854E+00  0.61024026014E+00  0.28198758422E+00  0.11638515399E+01  0.93800000000E+00 0. -1.
         22    1    1    2    0    0 -0.10826638138E+00 -0.53367037926E+00  0.34340774948E+01  0.34769834517E+01  0.00000000000E+00 0.  1.
</event>
<event>
 5    1  0.1461556E+002  0.1566770E+01  0.7818608E-02  0.3390239E+00
         11   -1    0    0    0    0  0.00000000000E+00  0.00000000000E+00  0.39999999674E+01  0.40000000000E+01  0.51100000000E-03 0. -1.
    9000002   -1    0    0    0    0 -0.00000000000E+00 -0.00000000000E+00  0.00000000000E+00  0.93800000000E+00  0.93800000000E+00 0. -1.
         11    1    1    2    0    0  0.10499394470E+00 -0.11646868022E+00  0.18978614771E+01  0.19043285245E+01  0.51100000000E-03 0. -1.
    9000002    1    1    2    0    0 -0.67968454280E-01 -0.18607609001E+00  0.51039216024E-01  0.96004844858E+00  0.93800000000E+00 0. -1.
         22    1    1    2    0    0 -0.37025490416E-01  0.30254477024E+00  0.20510992742E+01  0.20736230269E+01  0.00000000000E+00 0.  1.
</event>
<event>
 5    1  0.1461556E+002  0.1421544E+01  0.7818608E-02  0.3573183E+00
         11   -1    0    0    0    0  0.00000000000E+00  0.00000000000E+00  0.39999999674E+01  0.40000000000E+01  0.51100000000E-03 0.  1.
    9000002   -1    0    0    0    0 -0.00000000000E+00 -0.00000000000E+00  0.00000000000E+00  0.93800000000E+00  0.93800000000E+00 0. -1.
         11    1    1    2    0    0 -0.34990070549E+00 -0.22578300721E-02  0.23825661373E+01  0.24081231823E+01  0.51100000000E-03 0.  1.
    9000002    1    1    2    0    0  0.35974090572E-01  0.55366119481E+00  0.40719467628E+00  0.11633943262E+01  0.93800000000E+00 0.  1.
         22    1    1    2    0    0  0.31392661491E+00 -0.55140336474E+00  0.12102391538E+01  0.13664824915E+01  0.00000000000E+00 0.  1.
</event>
<event>
 5    1  0.1461556E+002  0.1599500E+01  0.7818608E-02  0.3353906E+00
         11   -1    0    0    0    0  0.00000000000E+00  0.00000000000E+00  0.39999999674E+01  0.40000000000E+01  0.51100000000E-03 0.  1.
    9000002   -1    0    0    0    0 -0.00000000000E+00 -0.00000000000E+00  0.00000000000E+00  0.93800000000E+00  0.93800000000E+00 0.  1.
         11    1    1    2    0    0 -0.30924174900E-01 -0.33651904017E+00  0.11991977716E+01  0.12459040595E+01  0.51100000000E-03 0.  1.
    9000002    1    1    2    0    0  0.45509764360E-01  0.92284105585E+00  0.66076920192E+00  0.14731485639E+01  0.93800000000E+00 0.  1.
         22    1    1    2    0    0 -0.14585589461E-01 -0.58632201567E+00  0.21400329938E+01  0.22189473766E+01  0.00000000000E+00 0.  1.
</event>
<event>
 5    1  0.1461556E+002  0.1599179E+01  0.7818608E-02  0.3354255E+00
         11   -1    0    0    0    0  0.00000000000E+00  0.00000000000E+00  0.39999999674E+01  0.40000000000E+01  0.51100000000E-03 0. -1.
    9000002   -1    0    0    0    0 -0.00000000000E+00 -0.00000000000E+00  0.00000000000E+00  0.93800000000E+00  0.93800000000E+00 0.  1.
         11    1    1    2    0    0  0.12991362693E-01 -0.30399767196E-01  0.30101787654E+00  0.30282824252E+00  0.51100000000E-03 0. -1.
    9000002    1    1    2    0    0 -0.82141232700E-01  0.23431974733E+00  0.41330427706E-01  0.97118748466E+00  0.93800000000E+00 0.  1.
         22    1    1    2    0    0  0.69149870007E-01 -0.20391998013E+00  0.36576516631E+01  0.36639842728E+01  0.00000000000E+00 0. -1.
</event>
<event>
 5    1  0.1461556E+002  0.1479202E+01  0.7818608E-02  0.3495901E+00
         11   -1    0    0    0    0  0.00000000000E+00  0.00000000000E+00  0.39999999674E+01  0.40000000000E+01  0.51100000000E-03 0. -1.
    9000002   -1    0    0    0    0 -0.00000000000E+00 -0.00000000000E+00  0.00000000000E+00  0.93800000000E+00  0.93800000000E+00 0.  1.
         11    1    1    2    0    0  0.21852662103E+00 -0.26301852457E+00  0.25334638652E+01  0.25564373738E+01  0.51100000000E-03 0. -1.
    9000002    1    1    2    0    0  0.18537318305E+00  0.81246353607E-01  0.12365277431E+00  0.96752167705E+00  0.93800000000E+00 0.  1.
         22    1    1    2    0    0 -0.40389980408E+00  0.18177217096E+00  0.13428833278E+01  0.14140409492E+01  0.00000000000E+00 0. -1.
</event>
<event>
 5    1  0.1461556E+002  0.1599673E+01  0.7818608E-02  0.3353719E+00
         11   -1    0    0    0    0  0.00000000000E+00  0.00000000000E+00  0.39999999674E+01  0.40000000000E+01  0.51100000000E-03 0. -1.
    9000002   -1    0    0    0    0 -0.00000000000E+00 -0.00000000000E+00  0.00000000000E+00  0.93800000000E+00  0.93800000000E+00 0. -1.
         11    1    1    2    0    0  0.33193520341E+00  0.27235466969E+00  0.17193977312E+01  0.17721983141E+01  0.51100000000E-03 0. -1.
    9000002    1    1    2    0    0 -0.66170274069E+00 -0.54935750565E+00  0.55689616078E+00  0.13891081743E+01  0.93800000000E+00 0. -1.
         22    1    1    2    0    0  0.32976753728E+00  0.27700283596E+00  0.17237060754E+01  0.17766935116E+01  0.00000000000E+00 0.  1.
</event>
<event>
 5    1  0.1461556E+002  0.1585649E+01  0.7818608E-02  0.3369089E+00
         11   -1    0    0    0    0  0.00000000000E+00  0.00000000000E+00  0.39999999674E+01  0.40000000000E+01  0.51100000000E-03 0.  1.
    9000002   -1    0    0    0    0 -0.00000000000E+00 -0.00000000000E+00  0.00000000000E+00  0.93800000000E+00  0.93800000000E+00 0. -1.
         11    1    1    2    0    0  0.56073698526E-01 -0.47701744289E-01  0.16021450211E+01  0.16038356044E+01  0.51100000000E-03 0.  1.
    9000002    1    1    2    0    0  0.20624184282E+00  0.91696897600E-01  0.44471315237E-01  0.96579796885E+00  0.93800000000E+00 0. -1.
         22    1    1    2    0    0 -0.26231554134E+00 -0.43995153311E-01  0.23533836310E+01  0.23683664268E+01  0.00000000000E+00 0.  1.
</event>
<event>
 5    1  0.1461556E+002  0.1599567E+01  0.7818608E-02  0.3353834E+00
         11   -1    0    0    0    0  0.00000000000E+00  0.00000000000E+00  0.39999999674E+01  0.40000000000E+01  0.51100000000E-03 0. -1.
    9000002   -1    0    0    0    0 -0.00000000000E+00 -0.00000000000E+00  0.00000000000E+00  0.93800000000E+00  0.93800000000E+00 0.  1.
         11    1    1    2    0    0  0.14056834830E+00 -0.34446989085E-01  0.14813486307E+01  0.14884018552E+01  0.51100000000E-03 0. -1.
    9000002    1    1    2    0    0 -0.39854736164E+00  0.10281788908E+00  0.11453694769E+00  0.10307153973E+01  0.93800000000E+00 0.  1.
         22    1    1    2    0    0  0.25797901335E+00 -0.68370899996E-01  0.24041143890E+01  0.24188827476E+01  0.00000000000E+00 0. -1.
</event>
<event>
 5    1  0.1461556E+002  0.1599668E+01  0.7818608E-02  0.3353724E+00
         11   -1    0    0    0    0  0.00000000000E+00  0.00000000000E+00  0.39999999674E+01  0.40000000000E+01  0.51100000000E-03 0.  1.
    9000002   -1    0    0    0    0 -0.00000000000E+00 -0.00000000000E+00  0.00000000000E+00  0.93800000000E+00  0.93800000000E+00 0.  1.
         11    1    1    2    0    0  0.13152285031E+00  0.41942913067E-02  0.11135546853E+01  0.11213028809E+01  0.51100000000E-03 0.  1.
    9000002    1    1    2    0    0 -0.45999549749E+00 -0.39235227741E-02  0.14394639658E+00  0.10545974667E+01  0.93800000000E+00 0.  1.
         22    1    1    2    0    0  0.32847264719E+00 -0.27076853253E-03  0.27424988854E+01  0.27620996524E+01  0.00000000000E+00 0.  1.
</event>
<event>
 5    1  0.1461556E+002  0.1572963E+01  0.7818608E-02  0.3383242E+00
         11   -1    0    0    0    0  0.00000000000E+00  0.00000000000E+00  0.39999999674E+01  0.40000000000E+01  0.51100000000E-03 0.  1.
    9000002   -1    0    0    0    0 -0.00000000000E+00 -0.00000000000E+00  0.00000000000E+00  0.93800000000E+00  0.93800000000E+00 0. -1.
         11    1    1    2    0    0 -0.11351082453E+00 -0.73102258333E-01  0.77706403386E+00  0.78870616917E+00  0.51100000000E-03 0.  1.
    9000002    1    1    2    0    0 -0.28311627540E-01 -0.14363913117E+00  0.34113638380E-01  0.94996920402E+00  0.93800000000E+00 0. -1.
         22    1    1    2    0    0  0.14182245207E+00  0.21674138950E+00  0.31888222951E+01  0.31993246268E+01  0.00000000000E+00 0.  1.
</event>
<event>
 5    1  0.1461556E+002  0.1451123E+01  0.7818608E-02  0.3532701E+00
         11   -1    0    0    0    0  0.00000000000E+00  0.00000000000E+00  0.39999999674E+01  0.40000000000E+01  0.51100000000E-03 0. -1.
    9000002   -1    0    0    0    0 -0.00000000000E+00 -0.00000000000E+00  0.00000000000E+00  0.93800000000E+00  0.93800000000E+00 0. -1.
         11    1    1    2    0    0  0.18255831249E+00 -0.32149147371E+00  0.29141900380E+01  0.29375479815E+01  0.51100000000E-03 0. -1.
    9000002    1    1    2    0    0 -0.45419076329E-01 -0.73928148766E-01  0.12222593700E+00  0.94990075447E+00  0.93800000000E+00 0. -1.
         22    1    1    2    0    0 -0.13713923617E+00  0.39541962247E+00  0.96358399237E+00  0.10505512640E+01  0.00000000000E+00 0. -1.
</event>
<event>
 5    1  0.1461556E+002  0.1596290E+01  0.7818608E-02  0.3357400E+00
         11   -1    0    0    0    0  0.00000000000E+00  0.00000000000E+00  0.39999999674E+01  0.40000000000E+01  0.51100000000E-03 0.  1.
    9000002   -1    0    0    0    0 -0.00000000000E+00 -0.00000000000E+00  0.00000000000E+00  0.93800000000E+00  0.93800000000E+00 0. -1.
         11    1    1    2    0    0  0.15733325342E-01  0.35059591327E-01  0.17031479464E+01  0.17035814924E+01  0.51100000000E-03 0.  1.
    9000002    1    1    2    0    0 -0.18002197109E+00 -0.15557941803E+00  0.40152869858E-01  0.96853968341E+00  0.93800000000E+00 0. -1.
         22    1    1    2    0    0  0.16428864574E+00  0.12051982671E+00  0.22566991511E+01  0.22658788242E+01  0.00000000000E+00 0.  1.
</event>
<event>
 5    1  0.1461556E+002  0.1599586E+01  0.7818608E-02  0.3353813E+00
         11   -1    0    0    0    0  0.00000000000E+00  0.00000000000E+00  0.39999999674E+01  0.40000000000E+01  0.51100000000E-03 0. -1.
    9000002   -1    0    0    0    0 -0.00000000000E+00 -0.00000000000E+00  0.00000000000E+00  0.93800000000E+00  0.93800000000E+00 0.  1.
         11    1    1    2    0    0 -0.49021990650E-02 -0.30157781627E-01  0.51982634410E+00  0.52072373913E+00  0.51100000000E-03 0. -1.
    9000002    1    1    2    0    0 -0.14809282643E-01  0.25727782327E+00  0.44212745605E-01  0.97376073040E+00  0.93800000000E+00 0.  1.
         22    1    1    2    0    0  0.19711481708E-01 -0.22712004164E+00  0.34359608777E+01  0.34435155305E+01  0.00000000000E+00 0. -1.
</event>
<event>
 5    1  0.1461556E+002  0.1599544E+01  0.7818608E-02  0.3353859E+00
         11   -1    0    0    0    0  0.00000000000E+00  0.00000000000E+00  0.39999999674E+01  0.40000000000E+01  0.51100000000E-03 0. -1.
    9000002   -1    0    0    0    0 -0.00000000000E+00 -0.00000000000E+00  0.00000000000E+00  0.93800000000E+00  0.93800000000E+00 0. -1.
         11    1    1    2    0    0 -0.15642347842E-01 -0.28000433183E+00  0.21395679005E+01  0.21578688957E+01  0.51100000000E-03 0. -1.
    9000002    1    1    2    0    0  0.37480708008E-01  0.47967952550E+00  0.15810184504E+00  0.10659912964E+01  0.93800000000E+00 0. -1.
         22    1    1    2    0    0 -0.21838360166E-01 -0.19967519367E+00  0.17023302218E+01  0.17141398079E+01  0.00000000000E+00 0. -1.
</event>
<event>
 5    1  0.1461556E+002  0.1599676E+01  0.7818608E-02  0.3353715E+00
         11   -1    0    0    0    0  0.00000000000E+00  0.00000000000E+00  0.39999999674E+01  0.40000000000E+01  0.51100000000E-03 0.  1.
    9000002   -1    0    0    0    0 -0.00000000000E+00 -0.00000000000E+00  0.00000000000E+00  0.93800000000E+00  0.93800000000E+00 0. -1.
         11    1    1    2    0    0 -0.33841796484E-01 -0.21715180288E-01  0.63877099730E+00  0.64003551804E+00  0.51100000000E-03 0.  1.
    9000002    1    1    2    0    0  0.20448603300E+00  0.13260245740E+00  0.39439687187E-01  0.96994713172E+00  0.93800000000E+00 0. -1.
         22    1    1    2    0    0 -0.17064423652E+00 -0.11088727711E+00  0.33217892829E+01  0.33280173502E+01  0.00000000000E+00 0.  1.
</event>
<event>
 5    1  0.1461556E+002  0.1599674E+01  0.7818608E-02  0.3353717E+00
         11   -1    0    0    0    0  0.00000000000E+00  0.00000000000E+00  0.39999999674E+01  0.40000000000E+01  0.51100000000E-03 0.  1.
    9000002   -1    0    0    0    0 -0.00000000000E+00 -0.00000000000E+00  0.00000000000E+00  0.93800000000E+00  0.93800000000E+00 0.  1.
         11    1    1    2    0    0  0.28666252275E-01 -0.68985061676E-01  0.91534209354E+00  0.91838559553E+00  0.51100000000E-03 0.  1.
    9000002    1    1    2    0    0 -0.11822197022E+00  0.29169186826E+00  0.66179674833E-01  0.99160694310E+00  0.93800000000E+00 0.  1.
         22    1    1    2    0    0  0.89555717945E-01 -0.22270680658E+00  0.30184781990E+01  0.30280074614E+01  0.00000000000E+00 0. -1.
</event>
<event>
 5    1  0.1461556E+002  0.1593075E+01  0.7818608E-02  0.3360914E+00
         11   -1    0    0    0    0  0.00000000000E+00  0.00000000000E+00  0.39999999674E+01  0.40000000000E+01  0.51100000000E-03 0.  1.
    9000002   -1    0    0    0    0 -0.00000000000E+00 -0.00000000000E+00  0.00000000000E+00  0.93800000000E+00  0.93800000000E+00 0. -1.
         11    1    1    2    0    0  0.15864920691E-01  0.37535717878E-01  0.88809454875E+00  0.88902914152E+00  0.51100000000E-03 0.  1.
    9000002    1    1    2    0    0  0.45332552379E-01  0.17746276026E+00  0.27123596788E-01  0.95610028820E+00  0.93800000000E+00 0. -1.
         22    1    1    2    0    0 -0.61197473070E-01 -0.21499847814E+00  0.30847818218E+01  0.30928705703E+01  0.00000000000E+00 0.  1.
</event>
<event>
 5    1  0.1461556E+002  0.1599677E+01  0.7818608E-02  0.3353714E+00
         11   -1    0    0    0    0  0.00000000000E+00  0.00000000000E+00  0.39999999674E+01  0.40000000000E+01  0.51100000000E-03 0. -1.
    9000002   -1    0    0    0    0 -0.00000000000E+00 -0.00000000000E+00  0.00000000000E+00  0.93800000000E+00  0.93800000000E+00 0. -1.
         11    1    1    2    0    0 -0.23739858777E-01  0.22688029522E-01  0.53504815753E+00  0.53605514602E+00  0.51100000000E-03 0. -1.
    9000002    1    1    2    0    0  0.17487350614E+00 -0.17018471366E+00  0.39536598214E-01  0.97002614527E+00  0.93800000000E+00 0. -1.
         22    1    1    2    0    0 -0.15113364736E+00  0.14749668414E+00  0.34254152116E+01  0.34319187087E+01  0.00000000000E+00 0. -1.
</event>
<event>
 5    1  0.1461556E+002  0.1457216E+01  0.7818608E-02  0.3524585E+00
         11   -1    0    0    0    0  0.00000000000E+00  0.00000000000E+00  0.39999999674E+01  0.40000000000E+01  0.51100000000E-03 0. -1.
    9000002   -1    0    0    0    0 -0.00000000000E+00 -0.00000000000E+00  0.00000000000E+00  0.93800000000E+00  0.93800000000E+00 0. -1.
         11    1    1    2    0    0 -0.17027900575E+00  0.72147591235E-01  0.11881595023E+00  0.21981288832E+00  0.51100000000E-03 0. -1.
    9000002    1    1    2    0    0 -0.24221915252E+00  0.18332585216E+00  0.20110910953E+00  0.10062640607E+01  0.93800000000E+00 0. -1.
         22    1    1    2    0    0  0.41249815828E+00 -0.25547344339E+00  0.36800749076E+01  0.37119230510E+01  0.00000000000E+00 0. -1.
</event>
<event>
 5    1  0.1461556E+002  0.1599674E+01  0.7818608E-02  0.3353717E+00
         11   -1    0    0    0    0  0.00000000000E+00  0.00000000000E+00  0.39999999674E+01  0.40000000000E+01  0.51100000000E-03 0.  1.
    9000002   -1    0    0    0    0 -0.00000000000E+00 -0.00000000000E+00  0.00000000000E+00  0.93800000000E+00  0.93800000000E+00 0.  1.
         11    1    1    2    0    0  0.19647145627E+00 -0.49956637677E-01  0.13713013432E+01  0.13862050115E+01  0.51100000000E-03 0.  1.
    9000002    1    1    2    0    0 -0.54003358215E+00  0.13275935429E+00  0.21385994161E+00  0.11112341745E+01  0.93800000000E+00 0.  1.
         22    1    1    2    0    0  0.34356212588E+00 -0.82802716617E-01  0.24148386825E+01  0.24405608140E+01  0.00000000000E+00 0.  1.
</event>
<event>
 5    1  0.1461556E+002  0.1478587E+01  0.7818608E-02  0.3496691E+00
         11   -1    0    0    0    0  0.00000000000E+00  0.00000000000E+00  0.39999999674E+01  0.40000000000E+01  0.51100000000E-03 0.  1.
    9000002   -1    0    0    0    0 -0.00000000000E+00 -0.00000000000E+00  0.00000000000E+00  0.93800000000E+00  0.93800000000E+00 0.  1.
         11    1    1    2    0    0 -0.23309614514E+00 -0.32046519106E+00  0.63882946079E+00  0.75175467585E+00  0.51100000000E-03 0.  1.
    9000002    1    1    2    0    0  0.73937037257E-01 -0.30170682010E-01  0.15143633745E+00  0.95349563178E+00  0.93800000000E+00 0.  1.
         22    1    1    2    0    0  0.15915910789E+00  0.35063587307E+00  0.32097341691E+01  0.32327496924E+01  0.00000000000E+00 0.  1.
</event>
<event>
 5    1  0.1461556E+002  0.1573811E+01  0.7818608E-02  0.3382288E+00
         11   -1    0    0    0    0  0.00000000000E+00  0.00000000000E+00  0.39999999674E+01  0.40000000000E+01  0.51100000000E-03 0.  1.
    9000002   -1    0    0    0    0 -0.00000000000E+00 -0.00000000000E+00  0.00000000000E+00  0.93800000000E+00  0.93800000000E+00 0. -1.
         11    1    1    2    0    0 -0.14380172364E+00 -0.37296108487E-01  0.10242653849E+01  0.10349829831E+01  0.51100000000E-03 0.  1.
    9000002    1    1    2    0    0 -0.77202932301E-02 -0.19053787325E+00  0.43638672830E-01  0.95818193358E+00  0.93800000000E+00 0. -1.
         22    1    1    2    0    0  0.15152201687E+00  0.22783398174E+00  0.29320959096E+01  0.29448350833E+01  0.00000000000E+00 0.  1.
</event>
<event>
 5    1  0.1461556E+002  0.1576413E+01  0.7818608E-02  0.3379369E+00
         11   -1    0    0    0    0  0.00000000000E+00  0.00000000000E+00  0.39999999674E+01  0.40000000000E+01  0.51100000000E-03 0. -1.
    9000002   -1    0    0    0    0 -0.00000000000E+00 -0.00000000000E+00  0.00000000000E+00  0.93800000000E+00  0.93800000000E+00 0.  1.
         11    1    1    2    0    0  0.11158022604E+00 -0.32919904444E-01  0.30605758228E+00  0.32742231406E+00  0.51100000000E-03 0. -1.
    9000002    1    1    2    0    0 -0.15732211404E+00  0.24506110157E+00  0.74881504096E-01  0.98501595455E+00  0.93800000000E+00 0.  1.
         22    1    1    2    0    0  0.45741887998E-01 -0.21214119712E+00  0.36190608810E+01  0.36255617314E+01  0.00000000000E+00 0. -1.
</event>
<event>
 5    1  0.1461556E+002  0.1599484E+01  0.7818608E-02  0.3353923E+00
         11   -1    0    0    0    0  0.00000000000E+00  0.00000000000E+00  0.39999999674E+01  0.40000000000E+01  0.51100000000E-03 0.  1.
    9000002   -1    0    0    0    0 -0.00000000000E+00 -0.00000000000E+00  0.00000000000E+00  0.93800000000E+00  0.93800000000E+00 0. -1.
         11    1    1    2    0    0  0.10935574984E+00 -0.73681645387E-01  0.17071937018E+01  0.17122786751E+01  0.51100000000E-03 0.  1.
    9000002    1    1    2    0    0 -0.28814440519E+00  0.17924240658E+00  0.77277704519E-01  0.10004853233E+01  0.93800000000E+00 0. -1.
         22    1    1    2    0    0  0.17878865536E+00 -0.10556076119E+00  0.22155285611E+01  0.22252360015E+01  0.00000000000E+00 0.  1.
</event>
<event>
 5    1  0.1461556E+002  0.1599630E+01  0.7818608E-02  0.3353765E+00
         11   -1    0    0    0    0  0.00000000000E+00  0.00000000000E+00  0.39999999674E+01  0.40000000000E+01  0.51100000000E-03 0.  1.
    9000002   -1    0    0    0    0 -0.00000000000E+00 -0.00000000000E+00  0.00000000000E+00  0.93800000000E+00  0.93800000000E+00 0.  1.
         11    1    1    2    0    0 -0.22590701551E-01 -0.45086848625E-01  0.68245500115E+00  0.68431590178E+00  0.51100000000E-03 0.  1.
    9000002    1    1    2    0    0  0.14182223304E+00  0.29373020743E+00  0.71193641328E-01  0.99564226262E+00  0.93800000000E+00 0.  1.
         22    1    1    2    0    0 -0.11923153149E+00 -0.24864335880E+00  0.32463513249E+01  0.32580418356E+01  0.00000000000E+00 0. -1.
</event>
<event>
 5    1  0.1461556E+002  0.1598398E+01  0.7818608E-02  0.3355104E+00
         11   -1    0    0    0    0  0.00000000000E+00  0.00000000000E+00  0.39999999674E+01  0.40000000000E+01  0.51100000000E-03 0. -1.
    9000002   -1    0    0    0    0 -0.00000000000E+00 -0.00000000000E+00  0.00000000000E+00  0.93800000000E+00  0.93800000000E+00 0.  1.
         11    1    1    2    0    0  0.36985116495E-01 -0.11221833258E+00  0.61179933938E+00  0.62310476310E+00  0.51100000000E-03 0. -1.
    9000002    1    1    2    0    0 -0.38703577454E+00  0.57422511166E+00  0.34344261861E+00  0.12154538255E+01  0.93800000000E+00 0.  1.
         22    1    1    2    0    0  0.35005065805E+00 -0.46200677908E+00  0.30447580094E+01  0.30994414114E+01  0.00000000000E+00 0. -1.
</event>
<event>
 5    1  0.1461556E+002  0.1599677E+01  0.7818608E-02  0.3353715E+00
         11   -1    0    0    0    0  0.00000000000E+00  0.00000000000E+00  0.39999999674E+01  0.40000000000E+01  0.51100000000E-03 0.  1.
    9000002   -1    0    0    0    0 -0.00000000000E+00 -0.00000000000E+00  0.00000000000E+00  0.93800000000E+00  0.93800000000E+00 0.  1.
         11    1    1    2    0    0  0.45042654101E-01 -0.19779559146E+00  0.19477410438E+01  0.19582766331E+01  0.51100000000E-03 0.  1.
    9000002    1    1    2    0    0 -0.88617717120E-01  0.39594523167E+00  0.11112625952E+00  0.10280169122E+01  0.93800000000E+00 0.  1.
         22    1    1    2    0    0  0.43575063019E-01 -0.19814964022E+00  0.19411326640E+01  0.19517064547E+01  0.00000000000E+00 0.  1.
</event>
<event>
 5    1  0.1461556E+002  0.1596861E+01  0.7818608E-02  0.3356777E+00
         11   -1    0    0    0    0  0.00000000000E+00  0.00000000000E+00  0.39999999674E+01  0.40000000000E+01  0.51100000000E-03 0. -1.
    9000002   -1    0    0    0    0 -0.00000000000E+00 -0.00000000000E+00  0.00000000000E+00  0.93800000000E+00  0.93800000000E+00 0.  1.
         11    1    1    2    0    0  0.10581133463E+00 -0.35930862890E-01  0.75004165645E+00  0.75832038940E+00  0.51100000000E-03 0. -1.
    9000002    1    1    2    0    0 -0.38667967753E+00 -0.18984964325E-01  0.10326023532E+00  0.10199942539E+01  0.93800000000E+00 0.  1.
         22    1    1    2    0    0  0.28086834290E+00  0.54915827216E-01  0.31466980756E+01  0.31596853567E+01  0.00000000000E+00 0. -1.
</event>
<event>
 5    1  0.1461556E+002  0.1599334E+01  0.7818608E-02  0.3354087E+00
         11   -1    0    0    0    0  0.00000000000E+00  0.00000000000E+00  0.39999999674E+01  0.40000000000E+01  0.51100000000E-03 0.  1.
    9000002   -1    0    0    0    0 -0.00000000000E+00 -0.00000000000E+00  0.00000000000E+00  0.93800000000E+00  0.93800000000E+00 0. -1.
         11    1    1    2    0    0  0.31754753704E-01  0.97076329438E-01  0.85745032561E+00  0.86351230456E+00  0.51100000000E-03 0.  1.
    9000002    1    1    2    0    0 -0.60014113509E-01 -0.44563719133E+00  0.13761653919E+00  0.10492742787E+01  0.93800000000E+00 0. -1.
         22    1    1    2    0    0  0.28259359805E-01  0.34856086189E+00  0.30049331026E+01  0.30252134167E+01  0.00000000000E+00 0.  1.
</event>
<event>
 5    1  0.1735719E+002  0.1599628E+01  0.7818608E-02  0.3353767E+00
         11   -1    0    0    0    0  0.00000000000E+00  0.00000000000E+00  0.39999999674E+01  0.40000000000E+01  0.51100000000E-03 0. -1.
    9000002   -1    0    0    0    0 -0.00000000000E+00 -0.00000000000E+00  0.00000000000E+00  0.93800000000E+00  0.93800000000E+00 0. -1.
         11    1    1    2    0    0  0.13869950526E+00  0.56070025616E+00  0.26415607413E+01  0.27039722153E+01  0.51100000000E-03 0. -1.
    9000002    1    1    2    0    0 -0.19191293281E+00 -0.76146686048E+00  0.45208603663E+00  0.13041810219E+01  0.93800000000E+00 0. -1.
         22    1    1    2    0    0  0.53213427555E-01  0.20076660432E+00  0.90635318939E+00  0.92984676275E+00  0.00000000000E+00 0.  1.
</event>
<event>
 5    1  0.1461556E+002  0.1599671E+01  0.7818608E-02  0.3353721E+00
         11   -1    0    0    0    0  0.00000000000E+00  0.00000000000E+00  0.39999999674E+01  0.40000000000E+01  0.51100000000E-03 0. -1.
    9000002   -1    0    0    0    0 -0.00000000000E+00 -0.00000000000E+00  0.00000000000E+00  0.93800000000E+00  0.93800000000E+00 0. -1.
         11    1    1    2    0    0  0.45300165984E-01 -0.66448890909E+00  0.23791911710E+01  0.24706575046E+01  0.51100000000E-03 0. -1.
    9000002    1    1    2    0    0 -0.66128315171E-01  0.93082069536E+00  0.67661932037E+00  0.14860880949E+01  0.93800000000E+00 0. -1.
         22    1    1    2    0    0  0.20828149187E-01 -0.26633178627E+00  0.94418947595E+00  0.98125440059E+00  0.00000000000E+00 0.  1.
</event>
<event>
 5    1  0.1461556E+002  0.1598283E+01  0.7818608E-02  0.3355229E+00
         11   -1    0    0    0    0  0.00000000000E+00  0.00000000000E+00  0.39999999674E+01  0.40000000000E+01  0.51100000000E-03 0.  1.
    9000002   -1    0    0    0    0 -0.00000000000E+00 -0.00000000000E+00  0.00000000000E+00  0.93800000000E+00  0.93800000000E+00 0.  1.
         11    1    1    2    0    0 -0.27402602920E-01  0.46497956895E-01  0.30371419515E+00  0.30847290983E+00  0.51100000000E-03 0.  1.
    9000002    1    1    2    0    0  0.19145407445E+00 -0.32981447359E+00  0.99014383952E-01  0.10173888626E+01  0.93800000000E+00 0.  1.
         22    1    1    2    0    0 -0.16405147153E+00  0.28331651669E+00  0.35972713883E+01  0.36121382275E+01  0.00000000000E+00 0.  1.
</event>
<event>
 5    1  0.1461556E+002  0.1599617E+01  0.7818608E-02  0.3353779E+00
         11   -1    0    0    0    0  0.00000000000E+00  0.00000000000E+00  0.39999999674E+01  0.40000000000E+01  0.51100000000E-03 0.  1.
    9000002   -1    0    0    0    0 -0.00000000000E+00 -0.00000000000E+00  0.00000000000E+00  0.93800000000E+00  0.93800000000E+00 0.  1.
         11    1    1    2    0    0  0.47404610083E-01 -0.87305191284E-01  0.10891837105E+01  0.10937050836E+01  0.51100000000E-03 0.  1.
    9000002    1    1    2    0    0 -0.14763240993E+00  0.29563747928E+00  0.73112416600E-01  0.99718918620E+00  0.93800000000E+00 0.  1.
         22    1    1    2    0    0  0.10022779984E+00 -0.20833228800E+00  0.28377038402E+01  0.28471057302E+01  0.00000000000E+00 0.  1.
</event>
<event>
 5    1  0.1461556E+002  0.1599674E+01  0.7818608E-02  0.3353717E+00
         11   -1    0    0    0    0  0.00000000000E+00  0.00000000000E+00  0.39999999674E+01  0.40000000000E+01  0.51100000000E-03 0.  1.
    9000002   -1    0    0    0    0 -0.00000000000E+00 -0.00000000000E+00  0.00000000000E+00  0.93800000000E+00  0.93800000000E+00 0.  1.
         11    1    1    2    0    0  0.11540604302E-01  0.94535547515E-02  0.23008587945E+00  0.23056957364E+00  0.51100000000E-03 0.  1.
    9000002    1    1    2    0    0 -0.20431859197E+00 -0.14835283195E+00  0.42362156865E-01  0.97231332507E+00  0.93800000000E+00 0.  1.
         22    1    1    2    0    0  0.19277798766E+00  0.13889927720E+00  0.37275519310E+01  0.37351171013E+01  0.00000000000E+00 0.  1.
</event>
<event>
 5    1  0.1461556E+002  0.1599559E+01  0.7818608E-02  0.3353842E+00
         11   -1    0    0    0    0  0.00000000000E+00  0.00000000000E+00  0.39999999674E+01  0.40000000000E+01  0.51100000000E-03 0. -1.
    9000002   -1    0    0    0    0 -0.00000000000E+00 -0.00000000000E+00  0.00000000000E+00  0.93800000000E+00  0.93800000000E+00 0. -1.
         11    1    1    2    0    0 -0.77318643348E-02 -0.56867525483E-02  0.12268490087E+00  0.12306082602E+00  0.51100000000E-03 0. -1.
    9000002    1    1    2    0    0  0.10463585195E+00  0.18560780114E+00  0.30168174784E-01  0.96236845134E+00  0.93800000000E+00 0. -1.
         22    1    1    2    0    0 -0.96903987619E-01 -0.17992104859E+00  0.38471468917E+01  0.38525707226E+01  0.00000000000E+00 0. -1.
</event>
<event>
 5    1  0.1461556E+002  0.1585630E+01  0.7818608E-02  0.3369109E+00
         11   -1    0    0    0    0  0.00000000000E+00  0.00000000000E+00  0.39999999674E+01  0.40000000000E+01  0.51100000000E-03 0. -1.
    9000002   -1    0    0    0    0 -0.00000000000E+00 -0.00000000000E+00  0.00000000000E+00  0.93800000000E+00  0.93800000000E+00 0.  1.
         11    1    1    2    0    0  0.21963794957E-01  0.37493397938E-01  0.16993446143E+01  0.16999001566E+01  0.51100000000E-03 0. -1.
    9000002    1    1    2    0    0  0.18504169345E+00  0.14164101138E+00  0.46762492956E-01  0.96764318587E+00  0.93800000000E+00 0.  1.
         22    1    1    2    0    0 -0.20700548840E+00 -0.17913440931E+00  0.22538928601E+01  0.22704566575E+01  0.00000000000E+00 0. -1.
</event>
<event>
 5    1  0.1461556E+002  0.1599676E+01  0.7818608E-02  0.3353715E+00
         11   -1    0    0    0    0  0.00000000000E+00  0.00000000000E+00  0.39999999674E+01  0.40000000000E+01  0.51100000000E-03 0. -1.
    9000002   -1    0    0    0    0 -0.00000000000E+00 -0.00000000000E+00  0.00000000000E+00  0.93800000000E+00  0.93800000000E+00 0. -1.
         11    1    1    2    0    0 -0.38641014426E-01 -0.96475577675E-01  0.10146334027E+01  0.10199420905E+01  0.51100000000E-03 0. -1.
    9000002    1    1    2    0    0  0.14702299435E+00  0.36662828943E+00  0.10518064435E+00  0.10232003867E+01  0.93800000000E+00 0. -1.
         22    1    1    2    0    0 -0.10838197993E+00 -0.27015271176E+00  0.28801859203E+01  0.28948575227E+01  0.00000000000E+00 0. -1.
</event>
<event>
 5    1  0.1461556E+002  0.1599677E+01  0.7818608E-02  0.3353714E+00
         11   -1    0    0    0    0  0.00000000000E+00  0.00000000000E+00  0.39999999674E+01  0.40000000000E+01  0.51100000000E-03 0. -1.
    9000002   -1    0    0    0    0 -0.00000000000E+00 -0.00000000000E+00  0.00000000000E+00  0.93800000000E+00  0.93800000000E+00 0.  1.
         11    1    1    2    0    0 -0.10055465734E+00 -0.10337303278E+00  0.16176330330E+01  0.16240486795E+01  0.51100000000E-03 0. -1.
    9000002    1    1    2    0    0  0.24371466527E+00  0.24983200453E+00  0.81667970726E-01  0.10041546325E+01  0.93800000000E+00 0.  1.
         22    1    1    2    0    0 -0.14316000793E+00 -0.14645897175E+00  0.23006989636E+01  0.23097966879E+01  0.00000000000E+00 0. -1.
</event>
<event>
 5    1  0.1461556E+002  0.1599676E+01  0.7818608E-02  0.3353715E+00
         11   -1    0    0    0    0  0.00000000000E+00  0.00000000000E+00  0.39999999674E+01  0.40000000000E+01  0.51100000000E-03 0. -1.
    9000002   -1    0    0    0    0 -0.00000000000E+00 -0.00000000000E+00  0.00000000000E+00  0.93800000000E+00  0.93800000000E+00 0. -1.
         11    1    1    2    0    0 -0.87049347497E-02 -0.16665347073E-02  0.13186231519E+00  0.13216082822E+00  0.51100000000E-03 0.  1.
    9000002    1    1    2    0    0  0.25824751969E+00  0.49021024407E-01  0.45946460181E-01  0.97521788307E+00  0.93800000000E+00 0. -1.
         22    1    1    2    0    0 -0.24954258494E+00 -0.47354489699E-01  0.38221911920E+01  0.38306212887E+01  0.00000000000E+00 0. -1.
</event>
<event>
 5    1  0.1461556E+002  0.1599652E+01  0.7818608E-02  0.3353741E+00
         11   -1    0    0    0    0  0.00000000000E+00  0.00000000000E+00  0.39999999674E+01  0.40000000000E+01  0.51100000000E-03 0.  1.
    9000002   -1    0    0    0    0 -0.00000000000E+00 -0.00000000000E+00  0.00000000000E+00  0.93800000000E+00  0.93800000000E+00 0.  1.
         11    1    1    2    0    0 -0.28729378969E-01 -0.81928928937E-01  0.79560966458E+00  0.80033288456E+00  0.51100000000E-03 0.  1.
    9000002    1    1    2    0    0  0.11934274451E+00  0.38977286133E+00  0.11221368998E+00  0.10288836116E+01  0.93800000000E+00 0.  1.
         22    1    1    2    0    0 -0.90613365541E-01 -0.30784393239E+00  0.30921766128E+01  0.31087835038E+01  0.00000000000E+00 0. -1.
</event>
<event>
 5    1  0.1461556E+002  0.1599677E+01  0.7818608E-02  0.3353714E+00
         11   -1    0    0    0    0  0.00000000000E+00  0.00000000000E+00  0.39999999674E+01  0.40000000000E+01  0.51100000000E-03 0. -1.
    9000002   -1    0    0    0    0 -0.00000000000E+00 -0.00000000000E+00  0.00000000000E+00  0.93800000000E+00  0.93800000000E+00 0. -1.
         11    1    1    2    0    0  0.24241227394E+00  0.15731352930E+00  0.20676619029E+01  0.20877589091E+01  0.51100000000E-03 0. -1.
    9000002    1    1    2    0    0 -0.44564892891E+00 -0.28900087721E+00  0.19418333369E+00  0.10952970565E+01  0.93800000000E+00 0.  1.
         22    1    1    2    0    0  0.20323665496E+00  0.13168734792E+00  0.17381547308E+01  0.17549440344E+01  0.00000000000E+00 0. -1.
</event>
<event>
 5    1  0.1461556E+002  0.1599677E+01  0.7818608E-02  0.3353714E+00
         11   -1    0    0    0    0  0.00000000000E+00  0.00000000000E+00  0.39999999674E+01  0.40000000000E+01  0.51100000000E-03 0.  1.
    9000002   -1    0    0    0    0 -0.00000000000E+00 -0.00000000000E+00  0.00000000000E+00  0.93800000000E+00  0.93800000000E+00 0. -1.
         11    1    1    2    0    0 -0.66163144579E-01 -0.29486630094E-01  0.68950979070E+00  0.69330443215E+00  0.51100000000E-03 0. -1.
    9000002    1    1    2    0    0  0.37184380776E+00  0.16598650533E+00  0.11195325132E+00  0.10286869630E+01  0.93800000000E+00 0. -1.
         22    1    1    2    0    0 -0.30568066318E+00 -0.13649987523E+00  0.31985369253E+01  0.32160086049E+01  0.00000000000E+00 0.  1.
</event>
<event>
 5    1  0.1461556E+002  0.1554817E+01  0.7818608E-02  0.3403912E+00
         11   -1    0    0    0    0  0.00000000000E+00  0.00000000000E+00  0.39999999674E+01  0.40000000000E+01  0.51100000000E-03 0.  1.
    9000002   -1    0    0    0    0 -0.00000000000E+00 -0.00000000000E+00  0.00000000000E+00  0.93800000000E+00  0.93800000000E+00 0. -1.
         11    1    1    2    0    0 -0.43852025485E-01 -0.50181974807E-01  0.59346102606E-01  0.89238174287E-01  0.51100000000E-03 0.  1.
    9000002    1    1    2    0    0 -0.10388644622E-01 -0.16319643686E+00  0.51667449700E-01  0.95354838697E+00  0.93800000000E+00 0. -1.
         22    1    1    2    0    0  0.54240670106E-01  0.21337841167E+00  0.38889864151E+01  0.38952134387E+01  0.00000000000E+00 0.  1.
</event>
<event>
 5    1  0.1461556E+002  0.1599674E+01  0.7818608E-02  0.3353718E+00
         11   -1    0    0    0    0  0.00000000000E+00  0.00000000000E+00  0.39999999674E+01  0.40000000000E+01  0.51100000000E-03 0.  1.
    9000002   -1    0    0    0    0 -0.00000000000E+00 -0.00000000000E+00  0.00000000000E+00  0.93800000000E+00  0.93800000000E+00 0.  1.
         11    1    1    2    0    0 -0.33287487033E-02  0.23175142382E-01  0.39100173276E+00  0.39170241757E+00  0.51100000000E-03 0.  1.
    9000002    1    1    2    0    0  0.40979878231E-01 -0.24500949474E+00  0.40990278637E-01  0.97120193877E+00  0.93800000000E+00 0.  1.
         22    1    1    2    0    0 -0.37651129528E-01  0.22183435236E+00  0.35680079560E+01  0.35750956437E+01  0.00000000000E+00 0.  1.
</event>
<event>
 5    1  0.1461556E+002  0.1593046E+01  0.7818608E-02  0.3360946E+00
         11   -1    0    0    0    0  0.00000000000E+00  0.00000000000E+00  0.39999999674E+01  0.40000000000E+01  0.51100000000E-03 0.  1.
    9000002   -1    0    0    0    0 -0.00000000000E+00 -0.00000000000E+00  0.00000000000E+00  0.93800000000E+00  0.93800000000E+00 0.  1.
         11    1    1    2    0    0  0.74815035734E-03 -0.22808151656E-01  0.14711793745E+01  0.14713564438E+01  0.51100000000E-03 0.  1.
    9000002    1    1    2    0    0  0.72505112084E-01  0.30361970030E+00  0.70322092436E-01  0.99107573392E+00  0.93800000000E+00 0.  1.
         22    1    1    2    0    0 -0.73253262442E-01 -0.28081154865E+00  0.24584985004E+01  0.24755678223E+01  0.00000000000E+00 0.  1.
</event>
<event>
 5    1  0.1461556E+002  0.1599670E+01  0.7818608E-02  0.3353722E+00
         11   -1    0    0    0    0  0.00000000000E+00  0.00000000000E+00  0.39999999674E+01  0.40000000000E+01  0.51100000000E-03 0. -1.
    9000002   -1    0    0    0    0 -0.00000000000E+00 -0.00000000000E+00  0.00000000000E+00  0.93800000000E+00  0.93800000000E+00 0. -1.
         11    1    1    2    0    0 -0.40396947101E+00  0.22610579237E+00  0.16065143031E+01  0.16718862491E+01  0.51100000000E-03 0. -1.
    9000002    1    1    2    0    0  0.83342843139E+00 -0.46242183036E+00  0.71274299374E+00  0.15153492913E+01  0.93800000000E+00 0. -1.
         22    1    1    2    0    0 -0.42945896038E+00  0.23631603799E+00  0.16807426705E+01  0.17507644596E+01  0.00000000000E+00 0.  1.
</event>
<event>
 5    1  0.1461556E+002  0.1594124E+01  0.7818608E-02  0.3359765E+00
         11   -1    0    0    0    0  0.00000000000E+00  0.00000000000E+00  0.39999999674E+01  0.40000000000E+01  0.51100000000E-03 0. -1.
    9000002   -1    0    0    0    0 -0.00000000000E+00 -0.00000000000E+00  0.00000000000E+00  0.93800000000E+00  0.93800000000E+00 0.  1.
         11    1    1    2    0    0  0.11197522119E-01  0.24861833785E-01  0.35080661613E+00  0.35186508540E+00  0.51100000000E-03 0. -1.
    9000002    1    1    2    0    0  0.14291557726E+00  0.22752955608E+00  0.52321100729E-01  0.97712642923E+00  0.93800000000E+00 0.  1.
         22    1    1    2    0    0 -0.15411309938E+00 -0.25239138986E+00  0.35968722505E+01  0.36090084854E+01  0.00000000000E+00 0. -1.
</event>
<event>
 5    1  0.1461556E+002  0.1391890E+01  0.7818608E-02  0.3619962E+00
         11   -1    0    0    0    0  0.00000000000E+00  0.00000000000E+00  0.39999999674E+01  0.40000000000E+01  0.51100000000E-03 0. -1.
    9000002   -1    0    0    0    0 -0.00000000000E+00 -0.00000000000E+00  0.00000000000E+00  0.93800000000E+00  0.93800000000E+00 0.  1.
         11    1    1    2    0    0 -0.14316106417E+00  0.27286638372E+00  0.26463931957E+01  0.26642725763E+01  0.51100000000E-03 0. -1.
    9000002    1    1    2    0    0 -0.47128247878E+00 -0.29957272370E+00  0.45018715729E+00  0.11808316850E+01  0.93800000000E+00 0.  1.
         22    1    1    2    0    0  0.61444354296E+00  0.26706339982E-01  0.90341961441E+00  0.10928957387E+01  0.00000000000E+00 0.  1.
</event>
<event>
 5    1  0.1461556E+002  0.1556910E+01  0.7818608E-02  0.3401502E+00
         11   -1    0    0    0    0  0.00000000000E+00  0.00000000000E+00  0.39999999674E+01  0.40000000000E+01  0.51100000000E-03 0.  1.
    9000002   -1    0    0    0    0 -0.00000000000E+00 -0.00000000000E+00  0.00000000000E+00  0.93800000000E+00  0.93800000000E+00 0.  1.
         11    1    1    2    0    0  0.89088063326E-01 -0.13563074174E+00  0.73200199245E+00  0.74977300512E+00  0.51100000000E-03 0.  1.
    9000002    1    1    2    0    0  0.14522335940E+00 -0.10542229836E+00  0.53830697756E-01  0.95652779841E+00  0.93800000000E+00 0.  1.
         22    1    1    2    0    0 -0.23431142272E+00  0.24105304010E+00  0.32141672771E+01  0.32316991965E+01  0.00000000000E+00 0.  1.
</event>
<event>
 5    1  0.1461556E+002  0.1599668E+01  0.7818608E-02  0.3353723E+00
         11   -1    0    0    0    0  0.00000000000E+00  0.00000000000E+00  0.39999999674E+01  0.40000000000E+01  0.51100000000E-03 0. -1.
    9000002   -1    0    0    0    0 -0.00000000000E+00 -0.00000000000E+00  0.00000000000E+00  0.93800000000E+00  0.93800000000E+00 0.  1.
         11    1    1    2    0    0 -0.15645129290E-01 -0.94958068339E-02  0.19033579205E+00  0.19121431765E+00  0.51100000000E-03 0.  1.
    9000002    1    1    2    0    0  0.29397776915E+00  0.20631739590E+00  0.86584606047E-01  0.10081322783E+01  0.93800000000E+00 0.  1.
         22    1    1    2    0    0 -0.27833263986E+00 -0.19682158907E+00  0.37230795693E+01  0.37386534040E+01  0.00000000000E+00 0. -1.
</event>
<event>
 5    1  0.1461556E+002  0.1599669E+01  0.7818608E-02  0.3353723E+00
         11   -1    0    0    0    0  0.00000000000E+00  0.00000000000E+00  0.39999999674E+01  0.40000000000E+01  0.51100000000E-03 0.  1.
    9000002   -1    0    0    0    0 -0.00000000000E+00 -0.00000000000E+00  0.00000000000E+00  0.93800000000E+00  0.93800000000E+00 0.  1.
         11    1    1    2    0    0  0.15285730861E-01  0.60077980030E-01  0.82832464571E+00  0.83064131673E+00  0.51100000000E-03 0.  1.
    9000002    1    1    2    0    0 -0.60584022419E-01 -0.28045831403E+00  0.54862841359E-01  0.98243636997E+00  0.93800000000E+00 0.  1.
         22    1    1    2    0    0  0.45298291558E-01  0.22038033400E+00  0.31168124803E+01  0.31249223133E+01  0.00000000000E+00 0.  1.
</event>
<event>
 5    1  0.1461556E+002  0.1599675E+01  0.7818608E-02  0.3353716E+00
         11   -1    0    0    0    0  0.00000000000E+00  0.00000000000E+00  0.39999999674E+01  0.40000000000E+01  0.51100000000E-03 0. -1.
    9000002   -1    0    0    0    0 -0.00000000000E+00 -0.00000000000E+00  0.00000000000E+00  0.93800000000E+00  0.93800000000E+00 0.  1.
         11    1    1    2    0    0  0.38004499146E-01 -0.29715158121E+00  0.16702035443E+01  0.16968569605E+01  0.51100000000E-03 0. -1.
    9000002    1    1    2    0    0 -0.80791085606E-01  0.65556138731E+00  0.30865536895E+00  0.11880235978E+01  0.93800000000E+00 0.  1.
         22    1    1    2    0    0  0.42786586460E-01 -0.35840980611E+00  0.20211410542E+01  0.20531194417E+01  0.00000000000E+00 0.  1.
</event>
<event>
 5    1  0.1461556E+002  0.1596135E+01  0.7818608E-02  0.3357569E+00
         11   -1    0    0    0    0  0.00000000000E+00  0.00000000000E+00  0.39999999674E+01  0.40000000000E+01  0.51100000000E-03 0.  1.
    9000002   -1    0    0    0    0 -0.00000000000E+00 -0.00000000000E+00  0.00000000000E+00  0.93800000000E+00  0.93800000000E+00 0.  1.
         11    1    1    2    0    0 -0.49167875562E-01  0.17352069194E+00  0.22965793839E+01  0.23036501554E+01  0.51100000000E-03 0.  1.
    9000002    1    1    2    0    0  0.20212763939E+00 -0.31405136373E+00  0.96677353182E-01  0.10142358465E+01  0.93800000000E+00 0.  1.
         22    1    1    2    0    0 -0.15295976382E+00  0.14053067179E+00  0.16067432303E+01  0.16201139982E+01  0.00000000000E+00 0.  1.
</event>
<event>
 5    1  0.1461556E+002  0.1572476E+01  0.7818608E-02  0.3383790E+00
         11   -1    0    0    0    0  0.00000000000E+00  0.00000000000E+00  0.39999999674E+01  0.40000000000E+01  0.51100000000E-03 0. -1.
    9000002   -1    0    0    0    0 -0.00000000000E+00 -0.00000000000E+00  0.00000000000E+00  0.93800000000E+00  0.93800000000E+00 0.  1.
         11    1    1    2    0    0 -0.76585313730E-01  0.14891334257E+00  0.24721496160E+01  0.24778144561E+01  0.51100000000E-03 0. -1.
    9000002    1    1    2    0    0 -0.11224618710E+00 -0.38453285306E-01  0.29484965290E-01  0.94593404889E+00  0.93800000000E+00 0.  1.
         22    1    1    2    0    0  0.18883150083E+00 -0.11046005726E+00  0.14983653861E+01  0.15142514950E+01  0.00000000000E+00 0. -1.
</event>
<event>
 5    1  0.1461556E+002  0.1507056E+01  0.7818608E-02  0.3460862E+00
         11   -1    0    0    0    0  0.00000000000E+00  0.00000000000E+00  0.39999999674E+01  0.40000000000E+01  0.51100000000E-03 0. -1.
    9000002   -1    0    0    0    0 -0.00000000000E+00 -0.00000000000E+00  0.00000000000E+00  0.93800000000E+00  0.93800000000E+00 0.  1.
         11    1    1    2    0    0  0.19056258548E+00  0.16839923575E+00  0.66723458393E+00  0.71405507680E+00  0.51100000000E-03 0. -1.
    9000002    1    1    2    0    0  0.15743078049E+00  0.25166766476E-01  0.88751980784E-01  0.95558292726E+00  0.93800000000E+00 0.  1.
         22    1    1    2    0    0 -0.34799336597E+00 -0.19356600223E+00  0.32440134026E+01  0.32683619959E+01  0.00000000000E+00 0.  1.
</event>
<event>
 5    1  0.1461556E+002  0.1599505E+01  0.7818608E-02  0.3353900E+00
         11   -1    0    0    0    0  0.00000000000E+00  0.00000000000E+00  0.39999999674E+01  0.40000000000E+01  0.51100000000E-03 0.  1.
    9000002   -1    0    0    0    0 -0.00000000000E+00 -0.00000000000E+00  0.00000000000E+00  0.93800000000E+00  0.93800000000E+00 0.  1.
         11    1    1    2    0    0  0.57206962793E-01 -0.30361477977E-01  0.87459457192E+00  0.87698938550E+00  0.51100000000E-03 0.  1.
    9000002    1    1    2    0    0 -0.24433079398E+00  0.19411065404E+00  0.65170703307E-01  0.99069051851E+00  0.93800000000E+00 0.  1.
         22    1    1    2    0    0  0.18712383119E+00 -0.16374917606E+00  0.30602346921E+01  0.30703200960E+01  0.00000000000E+00 0.  1.
</event>
<event>
 5    1  0.1461556E+002  0.1599643E+01  0.7818608E-02  0.3353751E+00
         11   -1    0    0    0    0  0.00000000000E+00  0.00000000000E+00  0.39999999674E+01  0.40000000000E+01  0.51100000000E-03 0.  1.
    9000002   -1    0    0    0    0 -0.00000000000E+00 -0.00000000000E+00  0.00000000000E+00  0.93800000000E+00  0.93800000000E+00 0.  1.
         11    1    1    2    0    0  0.10018826423E+00 -0.45375856175E-01  0.14521651413E+01  0.14563243167E+01  0.51100000000E-03 0.  1.
    9000002    1    1    2    0    0 -0.28748946774E+00  0.13200116292E+00  0.66892799219E-01  0.99216588717E+00  0.93800000000E+00 0.  1.
         22    1    1    2    0    0  0.18730120351E+00 -0.86625306741E-01  0.24809420268E+01  0.24895097962E+01  0.00000000000E+00 0.  1.
</event>
<event>
 5    1  0.1491427E+002  0.1570228E+01  0.7818608E-02  0.3386324E+00
         11   -1    0    0    0    0  0.00000000000E+00  0.00000000000E+00  0.39999999674E+01  0.40000000000E+01  0.51100000000E-03 0.  1.
    9000002   -1    0    0    0    0 -0.00000000000E+00 -0.00000000000E+00  0.00000000000E+00  0.93800000000E+00  0.93800000000E+00 0.  1.
         11    1    1    2    0    0 -0.13486553620E+00 -0.10586479757E+00  0.24181853883E+01  0.24242559481E+01  0.51100000000E-03 0.  1.
    9000002    1    1    2    0    0 -0.74390902276E-01  0.24838268185E-01  0.25793895872E-01  0.94162639671E+00  0.93800000000E+00 0.  1.
         22    1    1    2    0    0  0.20925643847E+00  0.81026529389E-01  0.15560206831E+01  0.15721176552E+01  0.00000000000E+00 0.  1.
</event>
<event>
 5    1  0.1461556E+002  0.1599613E+01  0.7818608E-02  0.3353783E+00
         11   -1    0    0    0    0  0.00000000000E+00  0.00000000000E+00  0.39999999674E+01  0.40000000000E+01  0.51100000000E-03 0.  1.
    9000002   -1    0    0    0    0 -0.00000000000E+00 -0.00000000000E+00  0.00000000000E+00  0.93800000000E+00  0.93800000000E+00 0. -1.
         11    1    1    2    0    0  0.94008815257E-01  0.60793476678E-01  0.13439659402E+01  0.13486208561E+01  0.51100000000E-03 0.  1.
    9000002    1    1    2    0    0 -0.26163031769E+00 -0.20086257415E+00  0.72842904207E-01  0.99696854791E+00  0.93800000000E+00 0. -1.
         22    1    1    2    0    0  0.16762150243E+00  0.14006909748E+00  0.25831911230E+01  0.25924105960E+01  0.00000000000E+00 0.  1.
</event>
<event>
 5    1  0.1461556E+002  0.1555282E+01  0.7818608E-02  0.3403376E+00
         11   -1    0    0    0    0  0.00000000000E+00  0.00000000000E+00  0.39999999674E+01  0.40000000000E+01  0.51100000000E-03 0.  1.
    9000002   -1    0    0    0    0 -0.00000000000E+00 -0.00000000000E+00  0.00000000000E+00  0.93800000000E+00  0.93800000000E+00 0.  1.
         11    1    1    2    0    0  0.17069730284E+00 -0.36794946800E-01 -0.23823564240E-01  0.17623637717E+00  0.51100000000E-03 0.  1.
    9000002    1    1    2    0    0  0.11173808245E+00  0.48917021399E+00  0.46120704661E+00  0.11594519555E+01  0.93800000000E+00 0.  1.
         22    1    1    2    0    0 -0.28243538529E+00 -0.45237526719E+00  0.35626164850E+01  0.36023116673E+01  0.00000000000E+00 0.  1.
</event>
<event>
 5    1  0.1461556E+002  0.1599641E+01  0.7818608E-02  0.3353754E+00
         11   -1    0    0    0    0  0.00000000000E+00  0.00000000000E+00  0.39999999674E+01  0.40000000000E+01  0.51100000000E-03 0. -1.
    9000002   -1    0    0    0    0 -0.00000000000E+00 -0.00000000000E+00  0.00000000000E+00  0.93800000000E+00  0.93800000000E+00 0.  1.
         11    1    1    2    0    0  0.30593991344E-01  0.39020842109E-02  0.47250908878E+00  0.47351485581E+00  0.51100000000E-03 0. -1.
    9000002    1    1    2    0    0 -0.28376835149E+00 -0.52385843147E-02  0.53686949739E-01  0.98146737523E+00  0.93800000000E+00 0.  1.
         22    1    1    2    0    0  0.25317436015E+00  0.13365001038E-02  0.34738039288E+01  0.34830177690E+01  0.00000000000E+00 0. -1.
</event>
<event>
 5    1  0.1461556E+002  0.1599657E+01  0.7818608E-02  0.3353736E+00
         11   -1    0    0    0    0  0.00000000000E+00  0.00000000000E+00  0.39999999674E+01  0.40000000000E+01  0.51100000000E-03 0. -1.
    9000002   -1    0    0    0    0 -0.00000000000E+00 -0.00000000000E+00  0.00000000000E+00  0.93800000000E+00  0.93800000000E+00 0. -1.
         11    1    1    2    0    0 -0.11439255299E+00 -0.26861324125E+00  0.13570438024E+01  0.13880946914E+01  0.51100000000E-03 0. -1.
    9000002    1    1    2    0    0  0.31056361762E+00  0.69722346519E+00  0.42406868619E+00  0.12815024665E+01  0.93800000000E+00 0. -1.
         22    1    1    2    0    0 -0.19617106462E+00 -0.42861022393E+00  0.22188874788E+01  0.22684028422E+01  0.00000000000E+00 0. -1.
</event>
<event>
 5    1  0.1461556E+002  0.1595254E+01  0.7818608E-02  0.3358531E+00
         11   -1    0    0    0    0  0.00000000000E+00  0.00000000000E+00  0.39999999674E+01  0.40000000000E+01  0.51100000000E-03 0. -1.
    9000002   -1    0    0    0    0 -0.00000000000E+00 -0.00000000000E+00  0.00000000000E+00  0.93800000000E+00  0.93800000000E+00 0.  1.
         11    1    1    2    0    0 -0.20709111433E-02 -0.48762750295E-01  0.94882267452E+00  0.95007727227E+00  0.51100000000E-03 0. -1.
    9000002    1    1    2    0    0  0.22910011736E+00  0.22612447264E-01  0.38515090045E-01  0.96660519278E+00  0.93800000000E+00 0.  1.
         22    1    1    2    0    0 -0.22702920622E+00  0.26150303032E-01  0.30126622028E+01  0.30213175349E+01  0.00000000000E+00 0. -1.
</event>
<event>
 5    1  0.1461556E+002  0.1583419E+01  0.7818608E-02  0.3371559E+00
         11   -1    0    0    0    0  0.00000000000E+00  0.00000000000E+00  0.39999999674E+01  0.40000000000E+01  0.51100000000E-03 0. -1.
    9000002   -1    0    0    0    0 -0.00000000000E+00 -0.00000000000E+00  0.00000000000E+00  0.93800000000E+00  0.93800000000E+00 0. -1.
         11    1    1    2    0    0 -0.85462688949E+00 -0.42231362280E+00  0.16071285094E+01  0.18685818749E+01  0.51100000000E-03 0. -1.
    9000002    1    1    2    0    0  0.10416198250E+01  0.66032506569E+00  0.16312198244E+01  0.22498273640E+01  0.93800000000E+00 0. -1.
         22    1    1    2    0    0 -0.18699293550E+00 -0.23801144289E+00  0.76165163352E+00  0.81959076112E+00  0.00000000000E+00 0. -1.
</event>
<event>
 5    1  0.1461556E+002  0.1534072E+01  0.7818608E-02  0.3428182E+00
         11   -1    0    0    0    0  0.00000000000E+00  0.00000000000E+00  0.39999999674E+01  0.40000000000E+01  0.51100000000E-03 0.  1.
    9000002   -1    0    0    0    0 -0.00000000000E+00 -0.00000000000E+00  0.00000000000E+00  0.93800000000E+00  0.93800000000E+00 0. -1.
         11    1    1    2    0    0  0.12750864779E+00 -0.21889126512E+00  0.11770316915E+01  0.12039832661E+01  0.51100000000E-03 0.  1.
    9000002    1    1    2    0    0  0.40206550413E-01 -0.88894477664E-01  0.55770612731E-01  0.94470797398E+00  0.93800000000E+00 0. -1.
         22    1    1    2    0    0 -0.16771519820E+00  0.30778574278E+00  0.27671976632E+01  0.27893087599E+01  0.00000000000E+00 0.  1.
</event>
<event>
 5    1  0.1461556E+002  0.1582455E+01  0.7818608E-02  0.3372629E+00
         11   -1    0    0    0    0  0.00000000000E+00  0.00000000000E+00  0.39999999674E+01  0.40000000000E+01  0.51100000000E-03 0.  1.
    9000002   -1    0    0    0    0 -0.00000000000E+00 -0.00000000000E+00  0.00000000000E+00  0.93800000000E+00  0.93800000000E+00 0.  1.
         11    1    1    2    0    0 -0.12021172724E+00 -0.11014249343E+00  0.14891658211E+01  0.14980645287E+01  0.51100000000E-03 0.  1.
    9000002    1    1    2    0    0  0.17492478675E+00 -0.87297475171E-01  0.38293844232E-01  0.95892124218E+00  0.93800000000E+00 0.  1.
         22    1    1    2    0    0 -0.54713059512E-01  0.19743996861E+00  0.24725403020E+01  0.24810142291E+01  0.00000000000E+00 0.  1.
</event>
<event>
 5    1  0.1461556E+002  0.1599472E+01  0.7818608E-02  0.3353937E+00
         11   -1    0    0    0    0  0.00000000000E+00  0.00000000000E+00  0.39999999674E+01  0.40000000000E+01  0.51100000000E-03 0.  1.
    9000002   -1    0    0    0    0 -0.00000000000E+00 -0.00000000000E+00  0.00000000000E+00  0.93800000000E+00  0.93800000000E+00 0.  1.
         11    1    1    2    0    0 -0.19436597541E-01 -0.13498659298E-01  0.27541009625E+00  0.27642535586E+00  0.51100000000E-03 0.  1.
    9000002    1    1    2    0    0  0.28779250238E+00  0.67853944460E-01  0.58461860784E-01  0.98523625155E+00  0.93800000000E+00 0.  1.
         22    1    1    2    0    0 -0.26835590484E+00 -0.54355285162E-01  0.36661280103E+01  0.36763383926E+01  0.00000000000E+00 0.  1.
</event>
<event>
 5    1  0.1461556E+002  0.1599560E+01  0.7818608E-02  0.3353841E+00
         11   -1    0    0    0    0  0.00000000000E+00  0.00000000000E+00  0.39999999674E+01  0.40000000000E+01  0.51100000000E-03 0.  1.
    9000002   -1    0    0    0    0 -0.00000000000E+00 -0.00000000000E+00  0.00000000000E+00  0.93800000000E+00  0.93800000000E+00 0. -1.
         11    1    1    2    0    0  0.11214404586E-02  0.54853674914E-01  0.95295305483E+00  0.95453128242E+00  0.51100000000E-03 0.  1.
    9000002    1    1    2    0    0 -0.11327677818E-01 -0.27312608135E+00  0.49823473281E-01  0.97829062711E+00  0.93800000000E+00 0. -1.
         22    1    1    2    0    0  0.10206237360E-01  0.21827240644E+00  0.29972234392E+01  0.30051780905E+01  0.00000000000E+00 0.  1.
</event>
<event>
 5    1  0.1461556E+002  0.1599676E+01  0.7818608E-02  0.3353715E+00
         11   -1    0    0    0    0  0.00000000000E+00  0.00000000000E+00  0.39999999674E+01  0.40000000000E+01  0.51100000000E-03 0. -1.
    9000002   -1    0    0    0    0 -0.00000000000E+00 -0.00000000000E+00  0.00000000000E+00  0.93800000000E+00  0.93800000000E+00 0. -1.
         11    1    1    2    0    0 -0.12132637795E-01 -0.22258526981E-01  0.39754949664E+00  0.39835725966E+00  0.51100000000E-03 0.  1.
    9000002    1    1    2    0    0  0.11721560872E+00  0.21981791826E+00  0.41223164774E-01  0.97139217900E+00  0.93800000000E+00 0. -1.
         22    1    1    2    0    0 -0.10508297093E+00 -0.19755939128E+00  0.35612273059E+01  0.35682505613E+01  0.00000000000E+00 0. -1.
</event>
<event>
 5    1  0.1461556E+002  0.1599615E+01  0.7818608E-02  0.3353781E+00
         11   -1    0    0    0    0  0.00000000000E+00  0.00000000000E+00  0.39999999674E+01  0.40000000000E+01  0.51100000000E-03 0. -1.
    9000002   -1    0    0    0    0 -0.00000000000E+00 -0.00000000000E+00  0.00000000000E+00  0.93800000000E+00  0.93800000000E+00 0. -1.
         11    1    1    2    0    0  0.10141951815E+00  0.87950710033E-01  0.12090137169E+01  0.12164438642E+01  0.51100000000E-03 0. -1.
    9000002    1    1    2    0    0 -0.30484478580E+00 -0.26453489668E+00  0.10998825305E+00  0.10270591370E+01  0.93800000000E+00 0. -1.
         22    1    1    2    0    0  0.20342526764E+00  0.17658418664E+00  0.26809979974E+01  0.26944969988E+01  0.00000000000E+00 0. -1.
</event>
<event>
 5    1  0.1461556E+002  0.1599668E+01  0.7818608E-02  0.3353724E+00
         11   -1    0    0    0    0  0.00000000000E+00  0.00000000000E+00  0.39999999674E+01  0.40000000000E+01  0.51100000000E-03 0.  1.
    9000002   -1    0    0    0    0 -0.00000000000E+00 -0.00000000000E+00  0.00000000000E+00  0.93800000000E+00  0.93800000000E+00 0.  1.
         11    1    1    2    0    0  0.75346738359E-01 -0.90102490892E-01  0.12923255073E+01  0.12976521366E+01  0.51100000000E-03 0.  1.
    9000002    1    1    2    0    0 -0.22726506256E+00  0.28290394104E+00  0.88430852564E-01  0.10096276859E+01  0.93800000000E+00 0.  1.
         22    1    1    2    0    0  0.15191832420E+00 -0.19280145014E+00  0.26192436075E+01  0.26307201774E+01  0.00000000000E+00 0.  1.
</event>
<event>
 5    1  0.1461556E+002  0.1599667E+01  0.7818608E-02  0.3353725E+00
         11   -1    0    0    0    0  0.00000000000E+00  0.00000000000E+00  0.39999999674E+01  0.40000000000E+01  0.51100000000E-03 0. -1.
    9000002   -1    0    0    0    0 -0.00000000000E+00 -0.00000000000E+00  0.00000000000E+00  0.93800000000E+00  0.93800000000E+00 0. -1.
         11    1    1    2    0    0  0.20748362897E-01 -0.36736496664E-01  0.52043325555E+00  0.52214088076E+00  0.51100000000E-03 0. -1.
    9000002    1    1    2    0    0 -0.16644783071E+00  0.26102602594E+00  0.64001577075E-01  0.98983820316E+00  0.93800000000E+00 0. -1.
         22    1    1    2    0    0  0.14569946781E+00 -0.22428952927E+00  0.34155651347E+01  0.34260209161E+01  0.00000000000E+00 0. -1.
</event>
<event>
 5    1  0.1461556E+002  0.1599542E+01  0.7818608E-02  0.3353861E+00
         11   -1    0    0    0    0  0.00000000000E+00  0.00000000000E+00  0.39999999674E+01  0.40000000000E+01  0.51100000000E-03 0.  1.
    9000002   -1    0    0    0    0 -0.00000000000E+00 -0.00000000000E+00  0.00000000000E+00  0.93800000000E+00  0.93800000000E+00 0. -1.
         11    1    1    2    0    0 -0.37435519634E-02  0.10866294450E-01  0.13959197176E+00  0.14006523565E+00  0.51100000000E-03 0.  1.
    9000002    1    1    2    0    0 -0.39055835991E-02 -0.21308976714E+00  0.30197148941E-01  0.96238161363E+00  0.93800000000E+00 0. -1.
         22    1    1    2    0    0  0.76491355624E-02  0.20222347269E+00  0.38302108467E+01  0.38355531507E+01  0.00000000000E+00 0.  1.
</event>
<event>
 5    1  0.1461556E+002  0.1599677E+01  0.7818608E-02  0.3353714E+00
         11   -1    0    0    0    0  0.00000000000E+00  0.00000000000E+00  0.39999999674E+01  0.40000000000E+01  0.51100000000E-03 0. -1.
    9000002   -1    0    0    0    0 -0.00000000000E+00 -0.00000000000E+00  0.00000000000E+00  0.93800000000E+00  0.93800000000E+00 0. -1.
         11    1    1    2    0    0  0.68388479644E-01  0.76554882261E-01  0.12662690361E+01  0.12704232236E+01  0.51100000000E-03 0. -1.
    9000002    1    1    2    0    0 -0.21404497485E+00 -0.23777077526E+00  0.68410580638E-01  0.99341542185E+00  0.93800000000E+00 0. -1.
         22    1    1    2    0    0  0.14565649520E+00  0.16121589300E+00  0.26653203507E+01  0.26741613546E+01  0.00000000000E+00 0. -1.
</event>
<event>
 5    1  0.1461556E+002  0.1590735E+01  0.7818608E-02  0.3363481E+00
         11   -1    0    0    0    0  0.00000000000E+00  0.00000000000E+00  0.39999999674E+01  0.40000000000E+01  0.51100000000E-03 0.  1.
    9000002   -1    0    0    0    0 -0.00000000000E+00 -0.00000000000E+00  0.00000000000E+00  0.93800000000E+00  0.93800000000E+00 0.  1.
         11    1    1    2    0    0 -0.17388908860E+00 -0.97272660469E-01  0.24957024060E+01  0.25036433744E+01  0.51100000000E-03 0.  1.
    9000002    1    1    2    0    0  0.35679942104E+00  0.31374410469E-02  0.92696833461E-01  0.10078454114E+01  0.93800000000E+00 0.  1.
         22    1    1    2    0    0 -0.18291033243E+00  0.94135219422E-01  0.14116007278E+01  0.14265112142E+01  0.00000000000E+00 0.  1.
</event>
<event>
 5    1  0.1461556E+002  0.1599646E+01  0.7818608E-02  0.3353748E+00
         11   -1    0    0    0    0  0.00000000000E+00  0.00000000000E+00  0.39999999674E+01  0.40000000000E+01  0.51100000000E-03 0. -1.
    9000002   -1    0    0    0    0 -0.00000000000E+00 -0.00000000000E+00  0.00000000000E+00  0.93800000000E+00  0.93800000000E+00 0. -1.
         11    1    1    2    0    0  0.55155149608E-01  0.15677898412E-01  0.74621514088E+00  0.74841511518E+00  0.51100000000E-03 0. -1.
    9000002    1    1    2    0    0 -0.26706923522E+00 -0.70674806011E-01  0.50830854713E-01  0.97915712753E+00  0.93800000000E+00 0. -1.
         22    1    1    2    0    0  0.21191408561E+00  0.54996907598E-01  0.32029539718E+01  0.32104277573E+01  0.00000000000E+00 0. -1.
</event>
<event>
 5    1  0.1461556E+002  0.1555977E+01  0.7818608E-02  0.3402576E+00
         11   -1    0    0    0    0  0.00000000000E+00  0.00000000000E+00  0.39999999674E+01  0.40000000000E+01  0.51100000000E-03 0.  1.
    9000002   -1    0    0    0    0 -0.00000000000E+00 -0.00000000000E+00  0.00000000000E+00  0.93800000000E+00  0.93800000000E+00 0. -1.
         11    1    1    2    0    0  0.10092007332E+00  0.74491049516E-01  0.28182650271E+00  0.30848049599E+00  0.51100000000E-03 0.  1.
    9000002    1    1    2    0    0  0.19273323931E+00 -0.12973567320E+00  0.69726063730E-01  0.96885663047E+00  0.93800000000E+00 0. -1.
         22    1    1    2    0    0 -0.29365331262E+00  0.55244623687E-01  0.36484474009E+01  0.36606628735E+01  0.00000000000E+00 0.  1.
</event>
<event>
 5    1  0.1461556E+002  0.1598973E+01  0.7818608E-02  0.3354478E+00
         11   -1    0    0    0    0  0.00000000000E+00  0.00000000000E+00  0.39999999674E+01  0.40000000000E+01  0.51100000000E-03 0. -1.
    9000002   -1    0    0    0    0 -0.00000000000E+00 -0.00000000000E+00  0.00000000000E+00  0.93800000000E+00  0.93800000000E+00 0. -1.
         11    1    1    2    0    0  0.15547199828E-01 -0.46935163863E-01  0.60309529371E+00  0.60511884737E+00  0.51100000000E-03 0. -1.
    9000002    1    1    2    0    0  0.48260166313E-01  0.31581487000E+00  0.68775495063E-01  0.99329861798E+00  0.93800000000E+00 0. -1.
         22    1    1    2    0    0 -0.63807366141E-01 -0.26887970613E+00  0.33281291786E+01  0.33395825346E+01  0.00000000000E+00 0. -1.
</event>
<event>
 5    1  0.1461556E+002  0.1597019E+01  0.7818608E-02  0.3356605E+00
         11   -1    0    0    0    0  0.00000000000E+00  0.00000000000E+00  0.39999999674E+01  0.40000000000E+01  0.51100000000E-03 0. -1.
    9000002   -1    0    0    0    0 -0.00000000000E+00 -0.00000000000E+00  0.00000000000E+00  0.93800000000E+00  0.93800000000E+00 0. -1.
         11    1    1    2    0    0 -0.59454203279E-01  0.36033864634E+00  0.17130011483E+01  0.17514999108E+01  0.51100000000E-03 0. -1.
    9000002    1    1    2    0    0  0.20193210976E+00 -0.65947176778E+00  0.34197038138E+00  0.12134526489E+01  0.93800000000E+00 0. -1.
         22    1    1    2    0    0 -0.14247790648E+00  0.29913312144E+00  0.19450284376E+01  0.19730474402E+01  0.00000000000E+00 0. -1.
</event>
<event>
 5    1  0.1461556E+002  0.1576588E+01  0.7818608E-02  0.3379173E+00
         11   -1    0    0    0    0  0.00000000000E+00  0.00000000000E+00  0.39999999674E+01  0.40000000000E+01  0.51100000000E-03 0.  1.
    9000002   -1    0    0    0    0 -0.00000000000E+00 -0.00000000000E+00  0.00000000000E+00  0.93800000000E+00  0.93800000000E+00 0. -1.
         11    1    1    2    0    0  0.51873702982E-01  0.14764803564E-01  0.94164850942E-01  0.10851802044E+00  0.51100000000E-03 0.  1.
    9000002    1    1    2    0    0  0.16278302605E+00 -0.47296096450E-01  0.36325149302E-01  0.95388613093E+00  0.93800000000E+00 0. -1.
         22    1    1    2    0    0 -0.21465672904E+00  0.32531292885E-01  0.38695099671E+01  0.38755958486E+01  0.00000000000E+00 0.  1.
</event>
<event>
 5    1  0.1461556E+002  0.1599667E+01  0.7818608E-02  0.3353725E+00
         11   -1    0    0    0    0  0.00000000000E+00  0.00000000000E+00  0.39999999674E+01  0.40000000000E+01  0.51100000000E-03 0.  1.
    9000002   -1    0    0    0    0 -0.00000000000E+00 -0.00000000000E+00  0.00000000000E+00  0.93800000000E+00  0.93800000000E+00 0.  1.
         11    1    1    2    0    0 -0.37966999655E+00 -0.17801421800E+00  0.16070525312E+01  0.16608601589E+01  0.51100000000E-03 0.  1.
    9000002    1    1    2    0    0  0.79696012500E+00  0.37951331039E+00  0.59205719891E+00  0.14175865125E+01  0.93800000000E+00 0.  1.
         22    1    1    2    0    0 -0.41729012845E+00 -0.20149909239E+00  0.18008902372E+01  0.18595533287E+01  0.00000000000E+00 0.  1.
</event>
<event>
 5    1  0.1461556E+002  0.1599677E+01  0.7818608E-02  0.3353714E+00
         11   -1    0    0    0    0  0.00000000000E+00  0.00000000000E+00  0.39999999674E+01  0.40000000000E+01  0.51100000000E-03 0. -1.
    9000002   -1    0    0    0    0 -0.00000000000E+00 -0.00000000000E+00  0.00000000000E+00  0.93800000000E+00  0.93800000000E+00 0. -1.
         11    1    1    2    0    0  0.15198133854E+00  0.43662542630E+00  0.23909467689E+01  0.24352344451E+01  0.51100000000E-03 0. -1.
    9000002    1    1    2    0    0 -0.23067828872E+00 -0.66545829027E+00  0.35492566831E+00  0.12255053811E+01  0.93800000000E+00 0. -1.
         22    1    1    2    0    0  0.78696950176E-01  0.22883286397E+00  0.12541275302E+01  0.12772601738E+01  0.00000000000E+00 0. -1.
</event>
<event>
 5    1  0.1461556E+002  0.1599676E+01  0.7818608E-02  0.3353715E+00
         11   -1    0    0    0    0  0.00000000000E+00  0.00000000000E+00  0.39999999674E+01  0.40000000000E+01  0.51100000000E-03 0.  1.
    9000002   -1    0    0    0    0 -0.00000000000E+00 -0.00000000000E+00  0.00000000000E+00  0.93800000000E+00  0.93800000000E+00 0. -1.
         11    1    1    2    0    0 -0.41633070337E-01  0.49655659777E-02  0.39992740961E+00  0.40211958852E+00  0.51100000000E-03 0.  1.
    9000002    1    1    2    0    0  0.40692708562E+00 -0.50911589903E-01  0.11359166979E+00  0.10300139370E+01  0.93800000000E+00 0. -1.
         22    1    1    2    0    0 -0.36529401528E+00  0.45946023925E-01  0.34864808880E+01  0.35058664745E+01  0.00000000000E+00 0.  1.
</event>
<event>
 5    1  0.1461556E+002  0.1598713E+01  0.7818608E-02  0.3354761E+00
         11   -1    0    0    0    0  0.00000000000E+00  0.00000000000E+00  0.39999999674E+01  0.40000000000E+01  0.51100000000E-03 0. -1.
    9000002   -1    0    0    0    0 -0.00000000000E+00 -0.00000000000E+00  0.00000000000E+00  0.93800000000E+00  0.93800000000E+00 0. -1.
         11    1    1    2    0    0  0.11881904328E+00  0.69334864717E-02  0.86181403546E+00  0.86999409832E+00  0.51100000000E-03 0. -1.
    9000002    1    1    2    0    0 -0.41384690785E+00 -0.10295908810E+00  0.12392638044E+00  0.10378205937E+01  0.93800000000E+00 0. -1.
         22    1    1    2    0    0  0.29502786457E+00  0.96025601623E-01  0.30142595515E+01  0.30301853080E+01  0.00000000000E+00 0. -1.
</event>
<event>
 5    1  0.1461556E+002  0.1599155E+01  0.7818608E-02  0.3354281E+00
         11   -1    0    0    0    0  0.00000000000E+00  0.00000000000E+00  0.39999999674E+01  0.40000000000E+01  0.51100000000E-03 0. -1.
    9000002   -1    0    0    0    0 -0.00000000000E+00 -0.00000000000E+00  0.00000000000E+00  0.93800000000E+00  0.93800000000E+00 0.  1.
         11    1    1    2    0    0 -0.20409125073E-01 -0.65678477106E-02  0.42255651432E+00  0.42310038753E+00  0.51100000000E-03 0. -1.
    9000002    1    1    2    0    0  0.14952620401E+00  0.21486475807E+00  0.45963429898E-01  0.97492645201E+00  0.93800000000E+00 0.  1.
         22    1    1    2    0    0 -0.12911707893E+00 -0.20829691036E+00  0.35314800231E+01  0.35399731605E+01  0.00000000000E+00 0. -1.
</event>
<event>
 5    1  0.1461556E+002  0.1599645E+01  0.7818608E-02  0.3353749E+00
         11   -1    0    0    0    0  0.00000000000E+00  0.00000000000E+00  0.39999999674E+01  0.40000000000E+01  0.51100000000E-03 0.  1.
    9000002   -1    0    0    0    0 -0.00000000000E+00 -0.00000000000E+00  0.00000000000E+00  0.93800000000E+00  0.93800000000E+00 0.  1.
         11    1    1    2    0    0 -0.11998447140E-01  0.37760143822E-02  0.14215346343E+00  0.14270980802E+00  0.51100000000E-03 0.  1.
    9000002    1    1    2    0    0  0.33291966875E+00 -0.34880827036E-01  0.75034701147E-01  0.99876242636E+00  0.93800000000E+00 0.  1.
         22    1    1    2    0    0 -0.32092122161E+00  0.31104812654E-01  0.37828118028E+01  0.37965277656E+01  0.00000000000E+00 0.  1.
</event>
<event>
 5    1  0.1461556E+002  0.1549821E+01  0.7818608E-02  0.3409694E+00
         11   -1    0    0    0    0  0.00000000000E+00  0.00000000000E+00  0.39999999674E+01  0.40000000000E+01  0.51100000000E-03 0.  1.
    9000002   -1    0    0    0    0 -0.00000000000E+00 -0.00000000000E+00  0.00000000000E+00  0.93800000000E+00  0.93800000000E+00 0.  1.
         11    1    1    2    0    0  0.21760107479E+00  0.25213914686E+00  0.19277860185E+01  0.19563444409E+01  0.51100000000E-03 0.  1.
    9000002    1    1    2    0    0 -0.13720606343E+00 -0.60488500638E-01  0.52587826871E-01  0.95136420055E+00  0.93800000000E+00 0.  1.
         22    1    1    2    0    0 -0.80395011359E-01 -0.19165064623E+00  0.20196261220E+01  0.20302913586E+01  0.00000000000E+00 0. -1.
</event>
<event>
 5    1  0.1461556E+002  0.1589112E+01  0.7818608E-02  0.3365266E+00
         11   -1    0    0    0    0  0.00000000000E+00  0.00000000000E+00  0.39999999674E+01  0.40000000000E+01  0.51100000000E-03 0.  1.
    9000002   -1    0    0    0    0 -0.00000000000E+00 -0.00000000000E+00  0.00000000000E+00  0.93800000000E+00  0.93800000000E+00 0.  1.
         11    1    1    2    0    0  0.24624942321E+00 -0.10459730698E-01  0.12631729623E+01  0.12869943194E+01  0.51100000000E-03 0.  1.
    9000002    1    1    2    0    0 -0.44221028678E+00  0.21339582054E+00  0.17429410486E+00  0.10729912157E+01  0.93800000000E+00 0.  1.
         22    1    1    2    0    0  0.19596086357E+00 -0.20293608984E+00  0.25625329002E+01  0.25780144649E+01  0.00000000000E+00 0.  1.
</event>
<event>
 5    1  0.1461556E+002  0.1592303E+01  0.7818608E-02  0.3361761E+00
         11   -1    0    0    0    0  0.00000000000E+00  0.00000000000E+00  0.39999999674E+01  0.40000000000E+01  0.51100000000E-03 0. -1.
    9000002   -1    0    0    0    0 -0.00000000000E+00 -0.00000000000E+00  0.00000000000E+00  0.93800000000E+00  0.93800000000E+00 0.  1.
         11    1    1    2    0    0  0.40131082209E+00 -0.32775672530E+00  0.27615641694E+01  0.28097529731E+01  0.51100000000E-03 0. -1.
    9000002    1    1    2    0    0 -0.63311927781E+00  0.40312542153E+00  0.41737645604E+00  0.12717693311E+01  0.93800000000E+00 0.  1.
         22    1    1    2    0    0  0.23180845572E+00 -0.75368696228E-01  0.82105934188E+00  0.85647769580E+00  0.00000000000E+00 0.  1.
</event>
<event>
 5    1  0.1461556E+002  0.1599675E+01  0.7818608E-02  0.3353716E+00
         11   -1    0    0    0    0  0.00000000000E+00  0.00000000000E+00  0.39999999674E+01  0.40000000000E+01  0.51100000000E-03 0. -1.
    9000002   -1    0    0    0    0 -0.00000000000E+00 -0.00000000000E+00  0.00000000000E+00  0.93800000000E+00  0.93800000000E+00 0. -1.
         11    1    1    2    0    0  0.60974567532E-02  0.97164704700E-03  0.12250289882E+00  0.12265946526E+00  0.51100000000E-03 0. -1.
    9000002    1    1    2    0    0 -0.20535589767E+00 -0.36221182745E-01  0.28803046816E-01  0.96133065815E+00  0.93800000000E+00 0. -1.
         22    1    1    2    0    0  0.19925844092E+00  0.35249535698E-01  0.38486940217E+01  0.38540098766E+01  0.00000000000E+00 0. -1.
</event>
<event>
 5    1  0.1461556E+002  0.1541958E+01  0.7818608E-02  0.3418874E+00
         11   -1    0    0    0    0  0.00000000000E+00  0.00000000000E+00  0.39999999674E+01  0.40000000000E+01  0.51100000000E-03 0.  1.
    9000002   -1    0    0    0    0 -0.00000000000E+00 -0.00000000000E+00  0.00000000000E+00  0.93800000000E+00  0.93800000000E+00 0. -1.
         11    1    1    2    0    0  0.17340385481E+00 -0.21015329830E+00  0.12454923468E+01  0.12749449998E+01  0.51100000000E-03 0.  1.
    9000002    1    1    2    0    0 -0.42086672479E-01 -0.19029157147E-01  0.44484015801E-01  0.94018946201E+00  0.93800000000E+00 0. -1.
         22    1    1    2    0    0 -0.13131718234E+00  0.22918245545E+00  0.27100236048E+01  0.27228655382E+01  0.00000000000E+00 0.  1.
</event>
<event>
 5    1  0.1461556E+002  0.1599676E+01  0.7818608E-02  0.3353715E+00
         11   -1    0    0    0    0  0.00000000000E+00  0.00000000000E+00  0.39999999674E+01  0.40000000000E+01  0.51100000000E-03 0. -1.
    9000002   -1    0    0    0    0 -0.00000000000E+00 -0.00000000000E+00  0.00000000000E+00  0.93800000000E+00  0.93800000000E+00 0. -1.
         11    1    1    2    0    0 -0.14996219098E-01  0.21489831224E-02  0.16917658730E+00  0.16985430088E+00  0.51100000000E-03 0. -1.
    9000002    1    1    2    0    0  0.34058671870E+00 -0.48145348684E-01  0.79281810234E-01  0.10022209801E+01  0.93800000000E+00 0. -1.
         22    1    1    2    0    0 -0.32559049960E+00  0.45996365562E-01  0.37515415698E+01  0.37659247190E+01  0.00000000000E+00 0. -1.
</event>
<event>
 5    1  0.1461556E+002  0.1596651E+01  0.7818608E-02  0.3357006E+00
         11   -1    0    0    0    0  0.00000000000E+00  0.00000000000E+00  0.39999999674E+01  0.40000000000E+01  0.51100000000E-03 0.  1.
    9000002   -1    0    0    0    0 -0.00000000000E+00 -0.00000000000E+00  0.00000000000E+00  0.93800000000E+00  0.93800000000E+00 0.  1.
         11    1    1    2    0    0  0.10076376619E-01 -0.40550272996E-01  0.28893763023E+00  0.29194361321E+00  0.51100000000E-03 0.  1.
    9000002    1    1    2    0    0  0.19657123823E+00  0.22033872043E+00  0.60505876181E-01  0.98523822727E+00  0.93800000000E+00 0.  1.
         22    1    1    2    0    0 -0.20664761485E+00 -0.17978844743E+00  0.36505564609E+01  0.36608181595E+01  0.00000000000E+00 0.  1.
</event>
<event>
 5    1  0.1461556E+002  0.1515314E+01  0.7818608E-02  0.3450740E+00
         11   -1    0    0    0    0  0.00000000000E+00  0.00000000000E+00  0.39999999674E+01  0.40000000000E+01  0.51100000000E-03 0. -1.
    9000002   -1    0    0    0    0 -0.00000000000E+00 -0.00000000000E+00  0.00000000000E+00  0.93800000000E+00  0.93800000000E+00 0.  1.
         11    1    1    2    0    0 -0.18680705093E+00  0.14248096034E+00  0.56154122104E+00  0.60870888147E+00  0.51100000000E-03 0. -1.
    9000002    1    1    2    0    0 -0.66990518516E-01  0.57756456263E-01  0.69352009307E-01  0.94471013491E+00  0.93800000000E+00 0.  1.
         22    1    1    2    0    0  0.25379756945E+00 -0.20023741660E+00  0.33691067370E+01  0.33845809836E+01  0.00000000000E+00 0. -1.
</event>
<event>
 5    1  0.1461556E+002  0.1582307E+01  0.7818608E-02  0.3372794E+00
         11   -1    0    0    0    0  0.00000000000E+00  0.00000000000E+00  0.39999999674E+01  0.40000000000E+01  0.51100000000E-03 0.  1.
    9000002   -1    0    0    0    0 -0.00000000000E+00 -0.00000000000E+00  0.00000000000E+00  0.93800000000E+00  0.93800000000E+00 0.  1.
         11    1    1    2    0    0 -0.12770087512E+00 -0.59179479410E-01  0.65190413554E+00  0.66692502378E+00  0.51100000000E-03 0.  1.
    9000002    1    1    2    0    0  0.25045807343E+00 -0.13338688484E+00  0.67245836443E-01  0.98228677590E+00  0.93800000000E+00 0.  1.
         22    1    1    2    0    0 -0.12275719832E+00  0.19256636425E+00  0.32808499954E+01  0.32887882003E+01  0.00000000000E+00 0.  1.
</event>
<event>
 5    1  0.1839759E+002  0.1563593E+01  0.7818608E-02  0.3393852E+00
         11   -1    0    0    0    0  0.00000000000E+00  0.00000000000E+00  0.39999999674E+01  0.40000000000E+01  0.51100000000E-03 0. -1.
    9000002   -1    0    0    0    0 -0.00000000000E+00 -0.00000000000E+00  0.00000000000E+00  0.93800000000E+00  0.93800000000E+00 0.  1.
         11    1    1    2    0    0  0.11436801811E+00  0.14925608007E+00  0.10041570049E+01  0.10216109693E+01  0.51100000000E-03 0. -1.
    9000002    1    1    2    0    0 -0.10992533682E-01  0.61270378432E-01  0.29228149456E-01  0.94051750637E+00  0.93800000000E+00 0.  1.
         22    1    1    2    0    0 -0.10337548443E+00 -0.21052645851E+00  0.29666148130E+01  0.29758715243E+01  0.00000000000E+00 0. -1.
</event>
<event>
 5    1  0.1461556E+002  0.1548251E+01  0.7818608E-02  0.3411520E+00
         11   -1    0    0    0    0  0.00000000000E+00  0.00000000000E+00  0.39999999674E+01  0.40000000000E+01  0.51100000000E-03 0.  1.
    9000002   -1    0    0    0    0 -0.00000000000E+00 -0.00000000000E+00  0.00000000000E+00  0.93800000000E+00  0.93800000000E+00 0.  1.
         11    1    1    2    0    0  0.23884591020E-02 -0.24284884668E+00  0.21882945411E+01  0.22017298941E+01  0.51100000000E-03 0.  1.
    9000002    1    1    2    0    0 -0.14328212342E+00 -0.31320804505E-01  0.53129608505E-01  0.95088249273E+00  0.93800000000E+00 0.  1.
         22    1    1    2    0    0  0.14089366431E+00  0.27416965119E+00  0.17585758178E+01  0.17853876131E+01  0.00000000000E+00 0.  1.
</event>
<event>
 5    1  0.1461556E+002  0.1599541E+01  0.7818608E-02  0.3353862E+00
         11   -1    0    0    0    0  0.00000000000E+00  0.00000000000E+00  0.39999999674E+01  0.40000000000E+01  0.51100000000E-03 0. -1.
    9000002   -1    0    0    0    0 -0.00000000000E+00 -0.00000000000E+00  0.00000000000E+00  0.93800000000E+00  0.93800000000E+00 0.  1.
         11    1    1    2    0    0  0.21412300254E+00 -0.25734964634E+00  0.22741044680E+01  0.22986145595E+01  0.51100000000E-03 0. -1.
    9000002    1    1    2    0    0 -0.33464892166E+00  0.43404283669E+00  0.20752705357E+00  0.11060264747E+01  0.93800000000E+00 0.  1.
         22    1    1    2    0    0  0.12052591912E+00 -0.17669319035E+00  0.15183684458E+01  0.15333589657E+01  0.00000000000E+00 0. -1.
</event>
<event>
 5    1  0.1461556E+002  0.1599645E+01  0.7818608E-02  0.3353748E+00
         11   -1    0    0    0    0  0.00000000000E+00  0.00000000000E+00  0.39999999674E+01  0.40000000000E+01  0.51100000000E-03 0.  1.
    9000002   -1    0    0    0    0 -0.00000000000E+00 -0.00000000000E+00  0.00000000000E+00  0.93800000000E+00  0.93800000000E+00 0. -1.
         11    1    1    2    0    0  0.78249618332E-01  0.12084380769E+00  0.14289823663E+01  0.14362162417E+01  0.51100000000E-03 0.  1.
    9000002    1    1    2    0    0 -0.20972244719E+00 -0.31281322504E+00  0.95419586978E-01  0.10152755863E+01  0.93800000000E+00 0. -1.
         22    1    1    2    0    0  0.13147282885E+00  0.19196941735E+00  0.24755980141E+01  0.24865081720E+01  0.00000000000E+00 0.  1.
</event>
<event>
 5    1  0.1461556E+002  0.1598562E+01  0.7818608E-02  0.3354926E+00
         11   -1    0    0    0    0  0.00000000000E+00  0.00000000000E+00  0.39999999674E+01  0.40000000000E+01  0.51100000000E-03 0.  1.
    9000002   -1    0    0    0    0 -0.00000000000E+00 -0.00000000000E+00  0.00000000000E+00  0.93800000000E+00  0.93800000000E+00 0.  1.
         11    1    1    2    0    0 -0.11221320082E-01 -0.15264134872E-01  0.68801495955E+00  0.68827593124E+00  0.51100000000E-03 0.  1.
    9000002    1    1    2    0    0  0.23188356601E+00  0.34990557928E-01  0.37337504027E-01  0.96759103785E+00  0.93800000000E+00 0.  1.
         22    1    1    2    0    0 -0.22066224592E+00 -0.19726423055E-01  0.32746475038E+01  0.32821330309E+01  0.00000000000E+00 0.  1.
</event>
<event>
 5    1  0.1461556E+002  0.1577719E+01  0.7818608E-02  0.3377908E+00
         11   -1    0    0    0    0  0.00000000000E+00  0.00000000000E+00  0.39999999674E+01  0.40000000000E+01  0.51100000000E-03 0.  1.
    9000002   -1    0    0    0    0 -0.00000000000E+00 -0.00000000000E+00  0.00000000000E+00  0.93800000000E+00  0.93800000000E+00 0.  1.
         11    1    1    2    0    0 -0.94370241845E-02  0.32640827646E+00  0.21004425739E+01  0.21256741726E+01  0.51100000000E-03 0.  1.
    9000002    1    1    2    0    0  0.24503620909E+00 -0.36573615024E+00  0.15051118449E+00  0.10470450286E+01  0.93800000000E+00 0.  1.
         22    1    1    2    0    0 -0.23559918490E+00  0.39327873780E-01  0.17490462089E+01  0.17652807988E+01  0.00000000000E+00 0.  1.
</event>
<event>
 5    1  0.1461556E+002  0.1597557E+01  0.7818608E-02  0.3356019E+00
         11   -1    0    0    0    0  0.00000000000E+00  0.00000000000E+00  0.39999999674E+01  0.40000000000E+01  0.51100000000E-03 0.  1.
    9000002   -1    0    0    0    0 -0.00000000000E+00 -0.00000000000E+00  0.00000000000E+00  0.93800000000E+00  0.93800000000E+00 0. -1.
         11    1    1    2    0    0  0.11895345975E-01 -0.32834309669E-02  0.31619192781E+00  0.31643305218E+00  0.51100000000E-03 0.  1.
    9000002    1    1    2    0    0  0.12829352751E+00 -0.21295097129E+00  0.42674237683E-01  0.97132509282E+00  0.93800000000E+00 0. -1.
         22    1    1    2    0    0 -0.14018887348E+00  0.21623440226E+00  0.36411338019E+01  0.36502418550E+01  0.00000000000E+00 0.  1.
</event>
<event>
 5    1  0.1461556E+002  0.1598435E+01  0.7818608E-02  0.3355064E+00
         11   -1    0    0    0    0  0.00000000000E+00  0.00000000000E+00  0.39999999674E+01  0.40000000000E+01  0.51100000000E-03 0. -1.
    9000002   -1    0    0    0    0 -0.00000000000E+00 -0.00000000000E+00  0.00000000000E+00  0.93800000000E+00  0.93800000000E+00 0.  1.
         11    1    1    2    0    0 -0.13345194712E+00 -0.33727385722E+00  0.25944261594E+01  0.26196584576E+01  0.51100000000E-03 0. -1.
    9000002    1    1    2    0    0  0.21660667741E+00  0.54188650474E+00  0.23800493863E+00  0.11300662757E+01  0.93800000000E+00 0.  1.
         22    1    1    2    0    0 -0.83154730290E-01 -0.20461264752E+00  0.11675688694E+01  0.11882752667E+01  0.00000000000E+00 0. -1.
</event>
<event>
 5    1  0.1461556E+002  0.1542375E+01  0.7818608E-02  0.3418384E+00
         11   -1    0    0    0    0  0.00000000000E+00  0.00000000000E+00  0.39999999674E+01  0.40000000000E+01  0.51100000000E-03 0. -1.
    9000002   -1    0    0    0    0 -0.00000000000E+00 -0.00000000000E+00  0.00000000000E+00  0.93800000000E+00  0.93800000000E+00 0. -1.
         11    1    1    2    0    0  0.14024649635E+00  0.28135693878E+00  0.24048575306E+01  0.24253187028E+01  0.51100000000E-03 0. -1.
    9000002    1    1    2    0    0 -0.10301161522E+00 -0.18201050431E-01  0.50311943460E-01  0.94515499404E+00  0.93800000000E+00 0. -1.
         22    1    1    2    0    0 -0.37234881132E-01 -0.26315588834E+00  0.15448304933E+01  0.15675263031E+01  0.00000000000E+00 0.  1.
</event>
<event>
 5    1  0.1461556E+002  0.1599112E+01  0.7818608E-02  0.3354327E+00
         11   -1    0    0    0    0  0.00000000000E+00  0.00000000000E+00  0.39999999674E+01  0.40000000000E+01  0.51100000000E-03 0.  1.
    9000002   -1    0    0    0    0 -0.00000000000E+00 -0.00000000000E+00  0.00000000000E+00  0.93800000000E+00  0.93800000000E+00 0. -1.
         11    1    1    2    0    0  0.76503565711E-03  0.44852921884E-02  0.15164174929E-01  0.15840342416E-01  0.51100000000E-03 0.  1.
    9000002    1    1    2    0    0 -0.10932126556E+00 -0.24624929061E+00  0.48730903648E-01  0.97714305667E+00  0.93800000000E+00 0. -1.
         22    1    1    2    0    0  0.10855622991E+00  0.24176399842E+00  0.39361048888E+01  0.39450166009E+01  0.00000000000E+00 0.  1.
</event>
<event>
 5    1  0.1461556E+002  0.1599603E+01  0.7818608E-02  0.3353794E+00
         11   -1    0    0    0    0  0.00000000000E+00  0.00000000000E+00  0.39999999674E+01  0.40000000000E+01  0.51100000000E-03 0.  1.
    9000002   -1    0    0    0    0 -0.00000000000E+00 -0.00000000000E+00  0.00000000000E+00  0.93800000000E+00  0.93800000000E+00 0.  1.
         11    1    1    2    0    0 -0.34199231657E+00 -0.12855667731E-01  0.19619831118E+01  0.19916078944E+01  0.51100000000E-03 0.  1.
    9000002    1    1    2    0    0  0.64412160795E+00  0.43681133867E-01  0.29388341043E+00  0.11760153682E+01  0.93800000000E+00 0.  1.
         22    1    1    2    0    0 -0.30212929138E+00 -0.30825466136E-01  0.17441334451E+01  0.17703767374E+01  0.00000000000E+00 0. -1.
</event>
<event>
 5    1  0.1461556E+002  0.1599677E+01  0.7818608E-02  0.3353714E+00
         11   -1    0    0    0    0  0.00000000000E+00  0.00000000000E+00  0.39999999674E+01  0.40000000000E+01  0.51100000000E-03 0. -1.
    9000002   -1    0    0    0    0 -0.00000000000E+00 -0.00000000000E+00  0.00000000000E+00  0.93800000000E+00  0.93800000000E+00 0. -1.
         11    1    1    2    0    0 -0.29853958576E+00  0.21990425349E-01  0.22722648566E+01  0.22918981877E+01  0.51100000000E-03 0. -1.
    9000002    1    1    2    0    0  0.50357795977E+00 -0.37813411918E-01  0.17472364638E+00  0.10795336809E+01  0.93800000000E+00 0. -1.
         22    1    1    2    0    0 -0.20503837400E+00  0.15822986569E-01  0.15530114644E+01  0.15665681314E+01  0.00000000000E+00 0. -1.
</event>
<event>
 5    1  0.1461556E+002  0.1576054E+01  0.7818608E-02  0.3379771E+00
         11   -1    0    0    0    0  0.00000000000E+00  0.00000000000E+00  0.39999999674E+01  0.40000000000E+01  0.51100000000E-03 0. -1.
    9000002   -1    0    0    0    0 -0.00000000000E+00 -0.00000000000E+00  0.00000000000E+00  0.93800000000E+00  0.93800000000E+00 0. -1.
         11    1    1    2    0    0 -0.18330496960E+00 -0.13849290309E+00  0.16257072312E+01  0.16418603043E+01  0.51100000000E-03 0. -1.
    9000002    1    1    2    0    0  0.36359504469E-02  0.36811890755E+00  0.11055362047E+00  0.10137015602E+01  0.93800000000E+00 0. -1.
         22    1    1    2    0    0  0.17966901915E+00 -0.22962600447E+00  0.22637391157E+01  0.22824381355E+01  0.00000000000E+00 0.  1.
</event>
<event>
 5    1  0.1461556E+002  0.1596841E+01  0.7818608E-02  0.3356799E+00
         11   -1    0    0    0    0  0.00000000000E+00  0.00000000000E+00  0.39999999674E+01  0.40000000000E+01  0.51100000000E-03 0. -1.
    9000002   -1    0    0    0    0 -0.00000000000E+00 -0.00000000000E+00  0.00000000000E+00  0.93800000000E+00  0.93800000000E+00 0. -1.
         11    1    1    2    0    0 -0.45232452508E-01  0.15762027241E-01  0.26951720229E+00  0.27374111805E+00  0.51100000000E-03 0. -1.
    9000002    1    1    2    0    0  0.18960785826E+00 -0.18020381345E+00  0.47676596466E-01  0.97495723606E+00  0.93800000000E+00 0. -1.
         22    1    1    2    0    0 -0.14437540575E+00  0.16444178621E+00  0.36828061686E+01  0.36893016459E+01  0.00000000000E+00 0. -1.
</event>
<event>
 5    1  0.1461556E+002  0.1579217E+01  0.7818608E-02  0.3376234E+00
         11   -1    0    0    0    0  0.00000000000E+00  0.00000000000E+00  0.39999999674E+01  0.40000000000E+01  0.51100000000E-03 0.  1.
    9000002   -1    0    0    0    0 -0.00000000000E+00 -0.00000000000E+00  0.00000000000E+00  0.93800000000E+00  0.93800000000E+00 0.  1.
         11    1    1    2    0    0 -0.66666055200E-01  0.14685426177E+00  0.16900982462E+01  0.16977758627E+01  0.51100000000E-03 0.  1.
    9000002    1    1    2    0    0 -0.15583912495E+00 -0.95555192248E-01  0.37503585772E-01  0.95638232239E+00  0.93800000000E+00 0.  1.
         22    1    1    2    0    0  0.22250518015E+00 -0.51299069519E-01  0.22723981354E+01  0.22838418149E+01  0.00000000000E+00 0.  1.
</event>
<event>
 5    1  0.1461556E+002  0.1599390E+01  0.7818608E-02  0.3354025E+00
         11   -1    0    0    0    0  0.00000000000E+00  0.00000000000E+00  0.39999999674E+01  0.40000000000E+01  0.51100000000E-03 0. -1.
    9000002   -1    0    0    0    0 -0.00000000000E+00 -0.00000000000E+00  0.00000000000E+00  0.93800000000E+00  0.93800000000E+00 0.  1.
         11    1    1    2    0    0 -0.98815469638E-03  0.12558527445E-02  0.32223586515E-02  0.36329508803E-02  0.51100000000E-03 0.  1.
    9000002    1    1    2    0    0  0.47341989115E+00 -0.32543673170E+00  0.22932718346E+00  0.11235970883E+01  0.93800000000E+00 0.  1.
         22    1    1    2    0    0 -0.47243173645E+00  0.32418087896E+00  0.37674504252E+01  0.38107699609E+01  0.00000000000E+00 0. -1.
</event>
<event>
 5    1  0.1461556E+002  0.1599443E+01  0.7818608E-02  0.3353968E+00
         11   -1    0    0    0    0  0.00000000000E+00  0.00000000000E+00  0.39999999674E+01  0.40000000000E+01  0.51100000000E-03 0. -1.
    9000002   -1    0    0    0    0 -0.00000000000E+00 -0.00000000000E+00  0.00000000000E+00  0.93800000000E+00  0.93800000000E+00 0. -1.
         11    1    1    2    0    0  0.33228976332E+00  0.43185472587E-01  0.14495529898E+01  0.14877787481E+01  0.51100000000E-03 0. -1.
    9000002    1    1    2    0    0 -0.77093378833E+00 -0.97958008550E-01  0.44181846580E+00  0.12957554685E+01  0.93800000000E+00 0. -1.
         22    1    1    2    0    0  0.43864402501E+00  0.54772535963E-01  0.21086285117E+01  0.21544657834E+01  0.00000000000E+00 0. -1.
</event>
<event>
 5    1  0.1461556E+002  0.1599676E+01  0.7818608E-02  0.3353715E+00
         11   -1    0    0    0    0  0.00000000000E+00  0.00000000000E+00  0.39999999674E+01  0.40000000000E+01  0.51100000000E-03 0. -1.
    9000002   -1    0    0    0    0 -0.00000000000E+00 -0.00000000000E+00  0.00000000000E+00  0.93800000000E+00  0.93800000000E+00 0. -1.
         11    1    1    2    0    0  0.17361862301E-01 -0.24463488366E-01  0.33947910429E+00  0.34080231792E+00  0.51100000000E-03 0.  1.
    9000002    1    1    2    0    0 -0.20072344094E+00  0.28499054889E+00  0.81461085999E-01  0.10039867635E+01  0.93800000000E+00 0. -1.
         22    1    1    2    0    0  0.18336157864E+00 -0.26052706052E+00  0.35790597771E+01  0.35932109186E+01  0.00000000000E+00 0. -1.
</event>
<event>
 5    1  0.1461556E+002  0.1599677E+01  0.7818608E-02  0.3353714E+00
         11   -1    0    0    0    0  0.00000000000E+00  0.00000000000E+00  0.39999999674E+01  0.40000000000E+01  0.51100000000E-03 0. -1.
    9000002   -1    0    0    0    0 -0.00000000000E+00 -0.00000000000E+00  0.00000000000E+00  0.93800000000E+00  0.93800000000E+00 0. -1.
         11    1    1    2    0    0  0.29299816222E+00  0.45769978689E+00  0.25897755234E+01  0.26461811240E+01  0.51100000000E-03 0. -1.
    9000002    1    1    2    0    0 -0.40535264255E+00 -0.63425112551E+00  0.41107423345E+00  0.12709883085E+01  0.93800000000E+00 0. -1.
         22    1    1    2    0    0  0.11235448033E+00  0.17655133863E+00  0.99915021047E+00  0.10208305675E+01  0.00000000000E+00 0.  1.
</event>
<event>
 5    1  0.1461556E+002  0.1598940E+01  0.7818608E-02  0.3354514E+00
         11   -1    0    0    0    0  0.00000000000E+00  0.00000000000E+00  0.39999999674E+01  0.40000000000E+01  0.51100000000E-03 0.  1.
    9000002   -1    0    0    0    0 -0.00000000000E+00 -0.00000000000E+00  0.00000000000E+00  0.93800000000E+00  0.93800000000E+00 0.  1.
         11    1    1    2    0    0 -0.59624300310E-02  0.17613593949E-01  0.52048805253E+00  0.52082037519E+00  0.51100000000E-03 0.  1.
    9000002    1    1    2    0    0  0.20374925651E+00 -0.77628460643E-01  0.32064236947E-01  0.96354141204E+00  0.93800000000E+00 0.  1.
         22    1    1    2    0    0 -0.19778682648E+00  0.60014866695E-01  0.34474476779E+01  0.34536382128E+01  0.00000000000E+00 0.  1.
</event>
<event>
 5    1  0.1461556E+002  0.1599671E+01  0.7818608E-02  0.3353721E+00
         11   -1    0    0    0    0  0.00000000000E+00  0.00000000000E+00  0.39999999674E+01  0.40000000000E+01  0.51100000000E-03 0.  1.
    9000002   -1    0    0    0    0 -0.00000000000E+00 -0.00000000000E+00  0.00000000000E+00  0.93800000000E+00  0.93800000000E+00 0. -1.
         11    1    1    2    0    0  0.24777267521E-03 -0.53957331943E-02  0.95761998893E-01  0.95915571629E-01  0.51100000000E-03 0.  1.
    9000002    1    1    2    0    0 -0.14460233595E-01  0.25413757862E+00  0.43062392240E-01  0.97287891171E+00  0.93800000000E+00 0. -1.
         22    1    1    2    0    0  0.14212460920E-01 -0.24874184543E+00  0.38611755762E+01  0.38692055167E+01  0.00000000000E+00 0.  1.
</event>
<event>
 5    1  0.1461556E+002  0.1599669E+01  0.7818608E-02  0.3353723E+00
         11   -1    0    0    0    0  0.00000000000E+00  0.00000000000E+00  0.39999999674E+01  0.40000000000E+01  0.51100000000E-03 0. -1.
    9000002   -1    0    0    0    0 -0.00000000000E+00 -0.00000000000E+00  0.00000000000E+00  0.93800000000E+00  0.93800000000E+00 0. -1.
         11    1    1    2    0    0 -0.57104547561E-01 -0.32179316065E-01  0.76337472937E+00  0.76618383975E+00  0.51100000000E-03 0. -1.
    9000002    1    1    2    0    0  0.29099154690E+00  0.17893303367E+00  0.78178950183E-01  0.10013236535E+01  0.93800000000E+00 0. -1.
         22    1    1    2    0    0 -0.23388699933E+00 -0.14675371760E+00  0.31584462878E+01  0.31704925067E+01  0.00000000000E+00 0.  1.
</event>
<event>
 5    1  0.1461556E+002  0.1599668E+01  0.7818608E-02  0.3353724E+00
         11   -1    0    0    0    0  0.00000000000E+00  0.00000000000E+00  0.39999999674E+01  0.40000000000E+01  0.51100000000E-03 0.  1.
    9000002   -1    0    0    0    0 -0.00000000000E+00 -0.00000000000E+00  0.00000000000E+00  0.93800000000E+00  0.93800000000E+00 0. -1.
         11    1    1    2    0    0  0.17911107376E-01  0.10379494477E-02  0.17781935245E+00  0.17872288139E+00  0.51100000000E-03 0.  1.
    9000002    1    1    2    0    0 -0.36352931460E+00 -0.12566784380E-01  0.88861327876E-01  0.10099761493E+01  0.93800000000E+00 0. -1.
         22    1    1    2    0    0  0.34561820723E+00  0.11528834933E-01  0.37333192870E+01  0.37493009693E+01  0.00000000000E+00 0.  1.
</event>
<event>
 5    1  0.1461556E+002  0.1588579E+01  0.7818608E-02  0.3365853E+00
         11   -1    0    0    0    0  0.00000000000E+00  0.00000000000E+00  0.39999999674E+01  0.40000000000E+01  0.51100000000E-03 0. -1.
    9000002   -1    0    0    0    0 -0.00000000000E+00 -0.00000000000E+00  0.00000000000E+00  0.93800000000E+00  0.93800000000E+00 0.  1.
         11    1    1    2    0    0 -0.16647535271E+00  0.16500082833E-01  0.24683652980E+01  0.24740278497E+01  0.51100000000E-03 0. -1.
    9000002    1    1    2    0    0  0.35670520461E+00 -0.19363460141E+00  0.12053108197E+00  0.10291281279E+01  0.93800000000E+00 0.  1.
         22    1    1    2    0    0 -0.19022985190E+00  0.17713451858E+00  0.14111035874E+01  0.14348440224E+01  0.00000000000E+00 0. -1.
</event>
<event>
 5    1  0.1461556E+002  0.1599553E+01  0.7818608E-02  0.3353848E+00
         11   -1    0    0    0    0  0.00000000000E+00  0.00000000000E+00  0.39999999674E+01  0.40000000000E+01  0.51100000000E-03 0.  1.
    9000002   -1    0    0    0    0 -0.00000000000E+00 -0.00000000000E+00  0.00000000000E+00  0.93800000000E+00  0.93800000000E+00 0.  1.
         11    1    1    2    0    0  0.48236511768E-01 -0.66040705571E-02  0.46974231266E+00  0.47225890805E+00  0.51100000000E-03 0.  1.
    9000002    1    1    2    0    0 -0.34347884267E+00  0.12846393968E-01  0.79260798244E-01  0.10021322365E+01  0.93800000000E+00 0.  1.
         22    1    1    2    0    0  0.29524233090E+00 -0.62423234111E-02  0.34509968565E+01  0.34636088555E+01  0.00000000000E+00 0.  1.
</event>
<event>
 5    1  0.1461556E+002  0.1481393E+01  0.7818608E-02  0.3493094E+00
         11   -1    0    0    0    0  0.00000000000E+00  0.00000000000E+00  0.39999999674E+01  0.40000000000E+01  0.51100000000E-03 0. -1.
    9000002   -1    0    0    0    0 -0.00000000000E+00 -0.00000000000E+00  0.00000000000E+00  0.93800000000E+00  0.93800000000E+00 0.  1.
         11    1    1    2    0    0 -0.27370884759E+00  0.19017206213E+00  0.65558853378E+00  0.73544444604E+00  0.51100000000E-03 0. -1.
    9000002    1    1    2    0    0  0.55832254726E-01 -0.98221013477E-01  0.10058345457E+00  0.95011875020E+00  0.93800000000E+00 0.  1.
         22    1    1    2    0    0  0.21787659286E+00 -0.91951048653E-01  0.32438279790E+01  0.32524368038E+01  0.00000000000E+00 0. -1.
</event>
<event>
 5    1  0.1461556E+002  0.1599539E+01  0.7818608E-02  0.3353864E+00
         11   -1    0    0    0    0  0.00000000000E+00  0.00000000000E+00  0.39999999674E+01  0.40000000000E+01  0.51100000000E-03 0. -1.
    9000002   -1    0    0    0    0 -0.00000000000E+00 -0.00000000000E+00  0.00000000000E+00  0.93800000000E+00  0.93800000000E+00 0.  1.
         11    1    1    2    0    0 -0.81593183142E-01  0.18858092126E-01  0.10552955285E+01  0.10586132385E+01  0.51100000000E-03 0. -1.
    9000002    1    1    2    0    0  0.34202077634E+00 -0.44289927628E-01  0.79816526135E-01  0.10025739309E+01  0.93800000000E+00 0.  1.
         22    1    1    2    0    0 -0.26042759319E+00  0.25431835502E-01  0.28648879128E+01  0.28768128306E+01  0.00000000000E+00 0. -1.
</event>
<event>
 5    1  0.1461556E+002  0.1544796E+01  0.7818608E-02  0.3415550E+00
         11   -1    0    0    0    0  0.00000000000E+00  0.00000000000E+00  0.39999999674E+01  0.40000000000E+01  0.51100000000E-03 0.  1.
    9000002   -1    0    0    0    0 -0.00000000000E+00 -0.00000000000E+00  0.00000000000E+00  0.93800000000E+00  0.93800000000E+00 0. -1.
         11    1    1    2    0    0 -0.22899503494E+00  0.18496742286E+00  0.27155992620E+01  0.27315071456E+01  0.51100000000E-03 0.  1.
    9000002    1    1    2    0    0 -0.19505944500E-01 -0.12614094297E+00  0.52172407969E-01  0.94808120935E+00  0.93800000000E+00 0. -1.
         22    1    1    2    0    0  0.24850097944E+00 -0.58826479890E-01  0.12322282974E+01  0.12584116450E+01  0.00000000000E+00 0.  1.
</event>
<event>
 5    1  0.2010965E+002  0.1580167E+01  0.7818608E-02  0.3375174E+00
         11   -1    0    0    0    0  0.00000000000E+00  0.00000000000E+00  0.39999999674E+01  0.40000000000E+01  0.51100000000E-03 0. -1.
    9000002   -1    0    0    0    0 -0.00000000000E+00 -0.00000000000E+00  0.00000000000E+00  0.93800000000E+00  0.93800000000E+00 0. -1.
         11    1    1    2    0    0 -0.13335334611E+00  0.51437417358E-01  0.14417955667E+01  0.14488628783E+01  0.51100000000E-03 0. -1.
    9000002    1    1    2    0    0 -0.69937140509E-01 -0.58189670193E-01  0.19813731203E-01  0.94261011308E+00  0.93800000000E+00 0. -1.
         22    1    1    2    0    0  0.20329048661E+00  0.67522528348E-02  0.25383906695E+01  0.25465270087E+01  0.00000000000E+00 0. -1.
</event>
<event>
 5    1  0.1461556E+002  0.1591734E+01  0.7818608E-02  0.3362384E+00
         11   -1    0    0    0    0  0.00000000000E+00  0.00000000000E+00  0.39999999674E+01  0.40000000000E+01  0.51100000000E-03 0. -1.
    9000002   -1    0    0    0    0 -0.00000000000E+00 -0.00000000000E+00  0.00000000000E+00  0.93800000000E+00  0.93800000000E+00 0.  1.
         11    1    1    2    0    0 -0.15691121616E+00 -0.36818915026E-01  0.14807992941E+01  0.14895447536E+01  0.51100000000E-03 0. -1.
    9000002    1    1    2    0    0  0.28585311012E+00 -0.14535511926E+00  0.75056239824E-01  0.99414161486E+00  0.93800000000E+00 0.  1.
         22    1    1    2    0    0 -0.12894189395E+00  0.18217403428E+00  0.24441444334E+01  0.24543136316E+01  0.00000000000E+00 0. -1.
</event>
<event>
 5    1  0.1461556E+002  0.1599676E+01  0.7818608E-02  0.3353715E+00
         11   -1    0    0    0    0  0.00000000000E+00  0.00000000000E+00  0.39999999674E+01  0.40000000000E+01  0.51100000000E-03 0. -1.
    9000002   -1    0    0    0    0 -0.00000000000E+00 -0.00000000000E+00  0.00000000000E+00  0.93800000000E+00  0.93800000000E+00 0.  1.
         11    1    1    2    0    0 -0.28196888255E+00  0.10376568737E+00  0.14309289037E+01  0.14621325375E+01  0.51100000000E-03 0. -1.
    9000002    1    1    2    0    0  0.70506061074E+00 -0.25894303885E+00  0.40911717376E+00  0.12694025461E+01  0.93800000000E+00 0.  1.
         22    1    1    2    0    0 -0.42309172819E+00  0.15517735149E+00  0.21599538899E+01  0.22064649164E+01  0.00000000000E+00 0.  1.
</event>
<event>
 5    1  0.1461556E+002  0.1599264E+01  0.7818608E-02  0.3354162E+00
         11   -1    0    0    0    0  0.00000000000E+00  0.00000000000E+00  0.39999999674E+01  0.40000000000E+01  0.51100000000E-03 0. -1.
    9000002   -1    0    0    0    0 -0.00000000000E+00 -0.00000000000E+00  0.00000000000E+00  0.93800000000E+00  0.93800000000E+00 0. -1.
         11    1    1    2    0    0  0.39929369536E-01 -0.74819491883E-02  0.20237751771E+00  0.20641524874E+00  0.51100000000E-03 0. -1.
    9000002    1    1    2    0    0 -0.66319289382E+00  0.32773036866E+00  0.39598410077E+00  0.12585227122E+01  0.93800000000E+00 0. -1.
         22    1    1    2    0    0  0.62326352429E+00 -0.32024841947E+00  0.34016383489E+01  0.34730620391E+01  0.00000000000E+00 0. -1.
</event>
<event>
 5    1  0.1461556E+002  0.1599632E+01  0.7818608E-02  0.3353763E+00
         11   -1    0    0    0    0  0.00000000000E+00  0.00000000000E+00  0.39999999674E+01  0.40000000000E+01  0.51100000000E-03 0. -1.
    9000002   -1    0    0    0    0 -0.00000000000E+00 -0.00000000000E+00  0.00000000000E+00  0.93800000000E+00  0.93800000000E+00 0. -1.
         11    1    1    2    0    0  0.29226754196E-01 -0.10781502379E-02  0.52058588324E+00  0.52140702768E+00  0.51100000000E-03 0. -1.
    9000002    1    1    2    0    0 -0.25359151486E+00  0.35325464977E-01  0.43603668070E-01  0.97329431559E+00  0.93800000000E+00 0. -1.
         22    1    1    2    0    0  0.22436476066E+00 -0.34247314739E-01  0.34358104161E+01  0.34432986567E+01  0.00000000000E+00 0. -1.
</event>
<event>
 5    1  0.1461556E+002  0.1599655E+01  0.7818608E-02  0.3353738E+00
         11   -1    0    0    0    0  0.00000000000E+00  0.00000000000E+00  0.39999999674E+01  0.40000000000E+01  0.51100000000E-03 0.  1.
    9000002   -1    0    0    0    0 -0.00000000000E+00 -0.00000000000E+00  0.00000000000E+00  0.93800000000E+00  0.93800000000E+00 0. -1.
         11    1    1    2    0    0  0.22176794117E-01  0.48182952809E-01  0.47673943412E+00  0.47968130702E+00  0.51100000000E-03 0.  1.
    9000002    1    1    2    0    0 -0.20306721485E+00 -0.37189001397E+00  0.12150334140E+00  0.10364099277E+01  0.93800000000E+00 0. -1.
         22    1    1    2    0    0  0.18089042073E+00  0.32370706116E+00  0.34017571918E+01  0.34219087653E+01  0.00000000000E+00 0.  1.
</event>
<event>
 5    1  0.1461556E+002  0.1573946E+01  0.7818608E-02  0.3382137E+00
         11   -1    0    0    0    0  0.00000000000E+00  0.00000000000E+00  0.39999999674E+01  0.40000000000E+01  0.51100000000E-03 0. -1.
    9000002   -1    0    0    0    0 -0.00000000000E+00 -0.00000000000E+00  0.00000000000E+00  0.93800000000E+00  0.93800000000E+00 0.  1.
         11    1    1    2    0    0 -0.16488385609E+00 -0.41894733820E-01  0.16325155706E+01  0.16413559041E+01  0.51100000000E-03 0. -1.
    9000002    1    1    2    0    0 -0.12783120303E-01 -0.10343822877E+00  0.26201499937E-01  0.94413632169E+00  0.93800000000E+00 0.  1.
         22    1    1    2    0    0  0.17766697639E+00  0.14533296259E+00  0.23412828969E+01  0.23525077742E+01  0.00000000000E+00 0. -1.
</event>
<event>
 5    1  0.1461556E+002  0.1596952E+01  0.7818608E-02  0.3356678E+00
         11   -1    0    0    0    0  0.00000000000E+00  0.00000000000E+00  0.39999999674E+01  0.40000000000E+01  0.51100000000E-03 0. -1.
    9000002   -1    0    0    0    0 -0.00000000000E+00 -0.00000000000E+00  0.00000000000E+00  0.93800000000E+00  0.93800000000E+00 0. -1.
         11    1    1    2    0    0 -0.89154730909E-01 -0.49150737895E-01  0.48790291955E+00  0.49841135732E+00  0.51100000000E-03 0. -1.
    9000002    1    1    2    0    0  0.56264493245E+00  0.77676421975E-01  0.22622397407E+00  0.11196536219E+01  0.93800000000E+00 0. -1.
         22    1    1    2    0    0 -0.47349020154E+00 -0.28525684080E-01  0.32858730737E+01  0.33199350208E+01  0.00000000000E+00 0. -1.
</event>
<event>
 5    1  0.1461556E+002  0.1599676E+01  0.7818608E-02  0.3353715E+00
         11   -1    0    0    0    0  0.00000000000E+00  0.00000000000E+00  0.39999999674E+01  0.40000000000E+01  0.51100000000E-03 0.  1.
    9000002   -1    0    0    0    0 -0.00000000000E+00 -0.00000000000E+00  0.00000000000E+00  0.93800000000E+00  0.93800000000E+00 0. -1.
         11    1    1    2    0    0  0.54871591753E-01  0.75345333596E-01  0.11732157289E+01  0.11769125790E+01  0.51100000000E-03 0.  1.
    9000002    1    1    2    0    0 -0.18157256508E+00 -0.25195541734E+00  0.64407974912E-01  0.99017297274E+00  0.93800000000E+00 0. -1.
         22    1    1    2    0    0  0.12670097333E+00  0.17661008374E+00  0.27623762636E+01  0.27709144483E+01  0.00000000000E+00 0.  1.
</event>
<event>
 5    1  0.2188653E+002  0.1570643E+01  0.7818608E-02  0.3385856E+00
         11   -1    0    0    0    0  0.00000000000E+00  0.00000000000E+00  0.39999999674E+01  0.40000000000E+01  0.51100000000E-03 0. -1.
    9000002   -1    0    0    0    0 -0.00000000000E+00 -0.00000000000E+00  0.00000000000E+00  0.93800000000E+00  0.93800000000E+00 0.  1.
         11    1    1    2    0    0  0.10648653663E+00  0.10169361026E+00  0.72394999311E+00  0.73877251336E+00  0.51100000000E-03 0. -1.
    9000002    1    1    2    0    0  0.20961453424E-01  0.67541769620E-01  0.24703969842E-01  0.94098648200E+00  0.93800000000E+00 0.  1.
         22    1    1    2    0    0 -0.12744799005E+00 -0.16923537988E+00  0.32513460044E+01  0.32582410046E+01  0.00000000000E+00 0. -1.
</event>
<event>
 5    1  0.1461556E+002  0.1580779E+01  0.7818608E-02  0.3374493E+00
         11   -1    0    0    0    0  0.00000000000E+00  0.00000000000E+00  0.39999999674E+01  0.40000000000E+01  0.51100000000E-03 0. -1.
    9000002   -1    0    0    0    0 -0.00000000000E+00 -0.00000000000E+00  0.00000000000E+00  0.93800000000E+00  0.93800000000E+00 0. -1.
         11    1    1    2    0    0  0.42564592667E-01 -0.79007322252E-02  0.87688254024E-01  0.97793952438E-01  0.51100000000E-03 0. -1.
    9000002    1    1    2    0    0  0.22904827914E+00 -0.31279412319E+00  0.11698391140E+00  0.10216812190E+01  0.93800000000E+00 0. -1.
         22    1    1    2    0    0 -0.27161287180E+00  0.32069485542E+00  0.37953278019E+01  0.38185248286E+01  0.00000000000E+00 0. -1.
</event>
<event>
 5    1  0.1461556E+002  0.1599504E+01  0.7818608E-02  0.3353902E+00
         11   -1    0    0    0    0  0.00000000000E+00  0.00000000000E+00  0.39999999674E+01  0.40000000000E+01  0.51100000000E-03 0. -1.
    9000002   -1    0    0    0    0 -0.00000000000E+00 -0.00000000000E+00  0.00000000000E+00  0.93800000000E+00  0.93800000000E+00 0. -1.
         11    1    1    2    0    0  0.11975267248E-01  0.11082852254E+00  0.15759344023E+01  0.15798721055E+01  0.51100000000E-03 0. -1.
    9000002    1    1    2    0    0 -0.52120295848E-01 -0.30856643250E+00  0.65547319477E-01  0.99099456083E+00  0.93800000000E+00 0. -1.
         22    1    1    2    0    0  0.40145028600E-01  0.19773790997E+00  0.23585182456E+01  0.23671333337E+01  0.00000000000E+00 0. -1.
</event>
<event>
 5    1  0.1461556E+002  0.1596799E+01  0.7818608E-02  0.3356844E+00
         11   -1    0    0    0    0  0.00000000000E+00  0.00000000000E+00  0.39999999674E+01  0.40000000000E+01  0.51100000000E-03 0. -1.
    9000002   -1    0    0    0    0 -0.00000000000E+00 -0.00000000000E+00  0.00000000000E+00  0.93800000000E+00  0.93800000000E+00 0. -1.
         11    1    1    2    0    0  0.16412014093E+00  0.95738670105E-02  0.16079617913E+01  0.16163441660E+01  0.51100000000E-03 0. -1.
    9000002    1    1    2    0    0 -0.36635981311E+00  0.12758113509E+00  0.10373660372E+00  0.10203439330E+01  0.93800000000E+00 0. -1.
         22    1    1    2    0    0  0.20223967218E+00 -0.13715500210E+00  0.22883015723E+01  0.23013119009E+01  0.00000000000E+00 0. -1.
</event>
<event>
 5    1  0.1461556E+002  0.1386082E+01  0.7818608E-02  0.3629444E+00
         11   -1    0    0    0    0  0.00000000000E+00  0.00000000000E+00  0.39999999674E+01  0.40000000000E+01  0.51100000000E-03 0.  1.
    9000002   -1    0    0    0    0 -0.00000000000E+00 -0.00000000000E+00  0.00000000000E+00  0.93800000000E+00  0.93800000000E+00 0. -1.
         11    1    1    2    0    0 -0.29357120792E+00 -0.32516347725E+00  0.17002063078E+01  0.17557383322E+01  0.51100000000E-03 0.  1.
    9000002    1    1    2    0    0 -0.23126569434E+00 -0.13292338193E+00  0.23498402542E+00  0.10031021578E+01  0.93800000000E+00 0. -1.
         22    1    1    2    0    0  0.52483690226E+00  0.45808685918E+00  0.20648096342E+01  0.21791595100E+01  0.00000000000E+00 0.  1.
</event>
<event>
 5    1  0.2114283E+002  0.1574786E+01  0.7818608E-02  0.3381192E+00
         11   -1    0    0    0    0  0.00000000000E+00  0.00000000000E+00  0.39999999674E+01  0.40000000000E+01  0.51100000000E-03 0. -1.
    9000002   -1    0    0    0    0 -0.00000000000E+00 -0.00000000000E+00  0.00000000000E+00  0.93800000000E+00  0.93800000000E+00 0. -1.
         11    1    1    2    0    0  0.81156893982E-01 -0.14549180623E+00  0.19351517668E+01  0.19423096892E+01  0.51100000000E-03 0. -1.
    9000002    1    1    2    0    0  0.66384699585E-01 -0.13640184109E-01  0.21334848941E-01  0.94068706738E+00  0.93800000000E+00 0. -1.
         22    1    1    2    0    0 -0.14754159357E+00  0.15913199034E+00  0.20435133517E+01  0.20550032435E+01  0.00000000000E+00 0. -1.
</event>
<event>
 5    1  0.1461556E+002  0.1598080E+01  0.7818608E-02  0.3355450E+00
         11   -1    0    0    0    0  0.00000000000E+00  0.00000000000E+00  0.39999999674E+01  0.40000000000E+01  0.51100000000E-03 0.  1.
    9000002   -1    0    0    0    0 -0.00000000000E+00 -0.00000000000E+00  0.00000000000E+00  0.93800000000E+00  0.93800000000E+00 0.  1.
         11    1    1    2    0    0 -0.12584440675E+00 -0.65675617861E-01  0.15787104581E+01  0.15850795164E+01  0.51100000000E-03 0.  1.
    9000002    1    1    2    0    0  0.30438123232E+00  0.27788248557E+00  0.11610156121E+00  0.10311111399E+01  0.93800000000E+00 0.  1.
         22    1    1    2    0    0 -0.17853682557E+00 -0.21220686771E+00  0.23051879480E+01  0.23218093437E+01  0.00000000000E+00 0.  1.
</event>
<event>
 5    1  0.1461556E+002  0.1599674E+01  0.7818608E-02  0.3353718E+00
         11   -1    0    0    0    0  0.00000000000E+00  0.00000000000E+00  0.39999999674E+01  0.40000000000E+01  0.51100000000E-03 0.  1.
    9000002   -1    0    0    0    0 -0.00000000000E+00 -0.00000000000E+00  0.00000000000E+00  0.93800000000E+00  0.93800000000E+00 0. -1.
         11    1    1    2    0    0  0.21599899453E+00 -0.26253255863E-01  0.14881957821E+01  0.15040185325E+01  0.51100000000E-03 0.  1.
    9000002    1    1    2    0    0 -0.54626646737E+00  0.63224700258E-01  0.20887057977E+00  0.11071925466E+01  0.93800000000E+00 0. -1.
         22    1    1    2    0    0  0.33026747284E+00 -0.36971444395E-01  0.23029336055E+01  0.23267889210E+01  0.00000000000E+00 0.  1.
</event>
<event>
 5    1  0.1461556E+002  0.1596948E+01  0.7818608E-02  0.3356683E+00
         11   -1    0    0    0    0  0.00000000000E+00  0.00000000000E+00  0.39999999674E+01  0.40000000000E+01  0.51100000000E-03 0.  1.
    9000002   -1    0    0    0    0 -0.00000000000E+00 -0.00000000000E+00  0.00000000000E+00  0.93800000000E+00  0.93800000000E+00 0. -1.
         11    1    1    2    0    0  0.42268809583E-02 -0.64872261502E-02  0.21406652835E-01  0.22769640585E-01  0.51100000000E-03 0.  1.
    9000002    1    1    2    0    0  0.96560032871E-01 -0.28143313156E+00  0.61181490615E-01  0.98595923967E+00  0.93800000000E+00 0. -1.
         22    1    1    2    0    0 -0.10078691383E+00  0.28792035771E+00  0.39174118239E+01  0.39292711197E+01  0.00000000000E+00 0.  1.
</event>
<event>
 5    1  0.1461556E+002  0.1452896E+01  0.7818608E-02  0.3530331E+00
         11   -1    0    0    0    0  0.00000000000E+00  0.00000000000E+00  0.39999999674E+01  0.40000000000E+01  0.51100000000E-03 0.  1.
    9000002   -1    0    0    0    0 -0.00000000000E+00 -0.00000000000E+00  0.00000000000E+00  0.93800000000E+00  0.93800000000E+00 0.  1.
         11    1    1    2    0    0  0.23580891519E+00  0.21956173671E+00  0.44431716947E+00  0.54884534152E+00  0.51100000000E-03 0.  1.
    9000002    1    1    2    0    0 -0.13408260197E+00 -0.39601563311E-01  0.12998881925E+00  0.95722908496E+00  0.93800000000E+00 0.  1.
         22    1    1    2    0    0 -0.10172631321E+00 -0.17996017340E+00  0.34256939786E+01  0.34319255735E+01  0.00000000000E+00 0.  1.
</event>
<event>
 5    1  0.1461556E+002  0.1599662E+01  0.7818608E-02  0.3353730E+00
         11   -1    0    0    0    0  0.00000000000E+00  0.00000000000E+00  0.39999999674E+01  0.40000000000E+01  0.51100000000E-03 0.  1.
    9000002   -1    0    0    0    0 -0.00000000000E+00 -0.00000000000E+00  0.00000000000E+00  0.93800000000E+00  0.93800000000E+00 0. -1.
         11    1    1    2    0    0 -0.15329404622E-01  0.61760182149E-01  0.72207772813E+00  0.72487641521E+00  0.51100000000E-03 0.  1.
    9000002    1    1    2    0    0  0.69176402875E-01 -0.34845094270E+00  0.84682155483E-01  0.10065875529E+01  0.93800000000E+00 0. -1.
         22    1    1    2    0    0 -0.53846998253E-01  0.28669076055E+00  0.31932400838E+01  0.32065360319E+01  0.00000000000E+00 0.  1.
</event>
<event>
 5    1  0.1461556E+002  0.1598819E+01  0.7818608E-02  0.3354646E+00
         11   -1    0    0    0    0  0.00000000000E+00  0.00000000000E+00  0.39999999674E+01  0.40000000000E+01  0.51100000000E-03 0.  1.
    9000002   -1    0    0    0    0 -0.00000000000E+00 -0.00000000000E+00  0.00000000000E+00  0.93800000000E+00  0.93800000000E+00 0.  1.
         11    1    1    2    0    0  0.10026537261E+00 -0.15214879323E+00  0.17170699248E+01  0.17267112636E+01  0.51100000000E-03 0.  1.
    9000002    1    1    2    0    0 -0.14835261321E+00  0.34757325683E+00  0.96771286536E-01  0.10158859919E+01  0.93800000000E+00 0.  1.
         22    1    1    2    0    0  0.48087240591E-01 -0.19542446360E+00  0.21861587561E+01  0.21954027445E+01  0.00000000000E+00 0.  1.
</event>
<event>
 5    1  0.1461556E+002  0.1599621E+01  0.7818608E-02  0.3353775E+00
         11   -1    0    0    0    0  0.00000000000E+00  0.00000000000E+00  0.39999999674E+01  0.40000000000E+01  0.51100000000E-03 0.  1.
    9000002   -1    0    0    0    0 -0.00000000000E+00 -0.00000000000E+00  0.00000000000E+00  0.93800000000E+00  0.93800000000E+00 0. -1.
         11    1    1    2    0    0  0.12002573387E+00 -0.70140665773E-01  0.15462409609E+01  0.15524777809E+01  0.51100000000E-03 0.  1.
    9000002    1    1    2    0    0 -0.28910778046E+00  0.19421997712E+00  0.81365836132E-01  0.10038770380E+01  0.93800000000E+00 0. -1.
         22    1    1    2    0    0  0.16908204658E+00 -0.12407931134E+00  0.23723931703E+01  0.23816451811E+01  0.00000000000E+00 0.  1.
</event>
<event>
 5    1  0.1461556E+002  0.1493208E+01  0.7818608E-02  0.3478106E+00
         11   -1    0    0    0    0  0.00000000000E+00  0.00000000000E+00  0.39999999674E+01  0.40000000000E+01  0.51100000000E-03 0. -1.
    9000002   -1    0    0    0    0 -0.00000000000E+00 -0.00000000000E+00  0.00000000000E+00  0.93800000000E+00  0.93800000000E+00 0. -1.
         11    1    1    2    0    0 -0.21583687379E+00  0.11410302625E+00  0.49315918260E+00  0.55028292467E+00  0.51100000000E-03 0. -1.
    9000002    1    1    2    0    0 -0.10696326962E+00  0.15145440907E+00  0.10682023493E+00  0.96209882115E+00  0.93800000000E+00 0. -1.
         22    1    1    2    0    0  0.32280014340E+00 -0.26555743532E+00  0.34000205498E+01  0.34256182542E+01  0.00000000000E+00 0. -1.
</event>
<event>
 5    1  0.1461556E+002  0.1586274E+01  0.7818608E-02  0.3368397E+00
         11   -1    0    0    0    0  0.00000000000E+00  0.00000000000E+00  0.39999999674E+01  0.40000000000E+01  0.51100000000E-03 0. -1.
    9000002   -1    0    0    0    0 -0.00000000000E+00 -0.00000000000E+00  0.00000000000E+00  0.93800000000E+00  0.93800000000E+00 0.  1.
         11    1    1    2    0    0  0.29552897647E-01  0.75902766414E-01  0.30250662455E+00  0.31328121988E+00  0.51100000000E-03 0. -1.
    9000002    1    1    2    0    0  0.17336579718E+00 -0.19160036457E+00  0.54733338741E-01  0.97447736644E+00  0.93800000000E+00 0.  1.
         22    1    1    2    0    0 -0.20291869483E+00  0.11569759816E+00  0.36427600041E+01  0.36502414137E+01  0.00000000000E+00 0. -1.
</event>
<event>
 5    1  0.1461556E+002  0.1561052E+01  0.7818608E-02  0.3396753E+00
         11   -1    0    0    0    0  0.00000000000E+00  0.00000000000E+00  0.39999999674E+01  0.40000000000E+01  0.51100000000E-03 0. -1.
    9000002   -1    0    0    0    0 -0.00000000000E+00 -0.00000000000E+00  0.00000000000E+00  0.93800000000E+00  0.93800000000E+00 0.  1.
         11    1    1    2    0    0  0.17557345034E+00  0.36542852109E-01  0.68265971239E+00  0.70582289602E+00  0.51100000000E-03 0. -1.
    9000002    1    1    2    0    0 -0.66741136695E-01  0.21541145615E+00  0.63535728868E-01  0.96681811299E+00  0.93800000000E+00 0.  1.
         22    1    1    2    0    0 -0.10883231365E+00 -0.25195430826E+00  0.32538045261E+01  0.32653589910E+01  0.00000000000E+00 0.  1.
</event>
<event>
 5    1  0.1461556E+002  0.1598581E+01  0.7818608E-02  0.3354905E+00
         11   -1    0    0    0    0  0.00000000000E+00  0.00000000000E+00  0.39999999674E+01  0.40000000000E+01  0.51100000000E-03 0. -1.
    9000002   -1    0    0    0    0 -0.00000000000E+00 -0.00000000000E+00  0.00000000000E+00  0.93800000000E+00  0.93800000000E+00 0.  1.
         11    1    1    2    0    0 -0.32543059442E+00 -0.68279573660E-01  0.26128780116E+01  0.26339512024E+01  0.51100000000E-03 0. -1.
    9000002    1    1    2    0    0  0.51823921315E+00  0.13021242311E+00  0.19765920054E+00  0.10974699617E+01  0.93800000000E+00 0.  1.
         22    1    1    2    0    0 -0.19280861873E+00 -0.61932849449E-01  0.11894627552E+01  0.12065788359E+01  0.00000000000E+00 0. -1.
</event>
<event>
 5    1  0.1461556E+002  0.1579176E+01  0.7818608E-02  0.3376280E+00
         11   -1    0    0    0    0  0.00000000000E+00  0.00000000000E+00  0.39999999674E+01  0.40000000000E+01  0.51100000000E-03 0.  1.
    9000002   -1    0    0    0    0 -0.00000000000E+00 -0.00000000000E+00  0.00000000000E+00  0.93800000000E+00  0.93800000000E+00 0. -1.
         11    1    1    2    0    0  0.22551852281E-01 -0.16256796605E+00  0.18016565552E+01  0.18091167828E+01  0.51100000000E-03 0.  1.
    9000002    1    1    2    0    0 -0.28654310423E+00  0.64894063287E-01  0.73721337550E-01  0.98569621367E+00  0.93800000000E+00 0. -1.
         22    1    1    2    0    0  0.26399125195E+00  0.97673902759E-01  0.21246220746E+01  0.21431870035E+01  0.00000000000E+00 0.  1.
</event>
<event>
 5    1  0.1461556E+002  0.1538732E+01  0.7818608E-02  0.3422670E+00
         11   -1    0    0    0    0  0.00000000000E+00  0.00000000000E+00  0.39999999674E+01  0.40000000000E+01  0.51100000000E-03 0. -1.
    9000002   -1    0    0    0    0 -0.00000000000E+00 -0.00000000000E+00  0.00000000000E+00  0.93800000000E+00  0.93800000000E+00 0.  1.
         11    1    1    2    0    0  0.20487912594E+00  0.56963376761E-01  0.58730916328E+00  0.62462196321E+00  0.51100000000E-03 0. -1.
    9000002    1    1    2    0    0  0.10637568231E-01 -0.17706811326E-01  0.45775138063E-01  0.93934341552E+00  0.93800000000E+00 0.  1.
         22    1    1    2    0    0 -0.21551669417E+00 -0.39256565435E-01  0.33669156660E+01  0.33740346213E+01  0.00000000000E+00 0. -1.
</event>
<event>
 5    1  0.1461556E+002  0.1599131E+01  0.7818608E-02  0.3354307E+00
         11   -1    0    0    0    0  0.00000000000E+00  0.00000000000E+00  0.39999999674E+01  0.40000000000E+01  0.51100000000E-03 0. -1.
    9000002   -1    0    0    0    0 -0.00000000000E+00 -0.00000000000E+00  0.00000000000E+00  0.93800000000E+00  0.93800000000E+00 0. -1.
         11    1    1    2    0    0 -0.18597247605E+00 -0.36930301478E-01  0.16487024363E+01  0.16595690988E+01  0.51100000000E-03 0. -1.
    9000002    1    1    2    0    0  0.40571580318E+00  0.14411908290E+00  0.12601714241E+00  0.10397595603E+01  0.93800000000E+00 0. -1.
         22    1    1    2    0    0 -0.21974332713E+00 -0.10718878143E+00  0.22252803886E+01  0.22386713409E+01  0.00000000000E+00 0. -1.
</event>
<event>
 5    1  0.1461556E+002  0.1599673E+01  0.7818608E-02  0.3353718E+00
         11   -1    0    0    0    0  0.00000000000E+00  0.00000000000E+00  0.39999999674E+01  0.40000000000E+01  0.51100000000E-03 0. -1.
    9000002   -1    0    0    0    0 -0.00000000000E+00 -0.00000000000E+00  0.00000000000E+00  0.93800000000E+00  0.93800000000E+00 0.  1.
         11    1    1    2    0    0 -0.85850530307E-01  0.26845834172E-01  0.77340656230E+00  0.77861992274E+00  0.51100000000E-03 0. -1.
    9000002    1    1    2    0    0  0.43145928656E+00 -0.14269867443E+00  0.14036093961E+00  0.10516963540E+01  0.93800000000E+00 0.  1.
         22    1    1    2    0    0 -0.34560875626E+00  0.11585284026E+00  0.30862324655E+01  0.31076837233E+01  0.00000000000E+00 0. -1.
</event>
<event>
 5    1  0.1461556E+002  0.1599641E+01  0.7818608E-02  0.3353753E+00
         11   -1    0    0    0    0  0.00000000000E+00  0.00000000000E+00  0.39999999674E+01  0.40000000000E+01  0.51100000000E-03 0.  1.
    9000002   -1    0    0    0    0 -0.00000000000E+00 -0.00000000000E+00  0.00000000000E+00  0.93800000000E+00  0.93800000000E+00 0. -1.
         11    1    1    2    0    0 -0.11448405793E+00  0.30530662223E-01  0.10614756401E+01  0.10680681235E+01  0.51100000000E-03 0.  1.
    9000002    1    1    2    0    0  0.39582478184E+00 -0.10779709240E+00  0.11370169414E+00  0.10300823007E+01  0.93800000000E+00 0. -1.
         22    1    1    2    0    0 -0.28134072391E+00  0.77266430182E-01  0.28248226331E+01  0.28398495757E+01  0.00000000000E+00 0. -1.
</event>
<event>
 5    1  0.1461556E+002  0.1599353E+01  0.7818608E-02  0.3354066E+00
         11   -1    0    0    0    0  0.00000000000E+00  0.00000000000E+00  0.39999999674E+01  0.40000000000E+01  0.51100000000E-03 0. -1.
    9000002   -1    0    0    0    0 -0.00000000000E+00 -0.00000000000E+00  0.00000000000E+00  0.93800000000E+00  0.93800000000E+00 0. -1.
         11    1    1    2    0    0 -0.13690833904E+00 -0.84129180980E-01  0.13941726694E+01  0.14034027596E+01  0.51100000000E-03 0. -1.
    9000002    1    1    2    0    0  0.39621836478E+00  0.17817225906E+00  0.12817380971E+00  0.10416366315E+01  0.93800000000E+00 0. -1.
         22    1    1    2    0    0 -0.25931002574E+00 -0.94043078084E-01  0.24776534882E+01  0.24929606089E+01  0.00000000000E+00 0. -1.
</event>
<event>
 5    1  0.1461556E+002  0.1599659E+01  0.7818608E-02  0.3353733E+00
         11   -1    0    0    0    0  0.00000000000E+00  0.00000000000E+00  0.39999999674E+01  0.40000000000E+01  0.51100000000E-03 0.  1.
    9000002   -1    0    0    0    0 -0.00000000000E+00 -0.00000000000E+00  0.00000000000E+00  0.93800000000E+00  0.93800000000E+00 0. -1.
         11    1    1    2    0    0  0.40654141404E-01 -0.16137890875E+00  0.15493425405E+01  0.15582549471E+01  0.51100000000E-03 0.  1.
    9000002    1    1    2    0    0 -0.10111606638E+00  0.39263495883E+00  0.11097495956E+00  0.10278842889E+01  0.93800000000E+00 0. -1.
         22    1    1    2    0    0  0.60461924975E-01 -0.23125605008E+00  0.23396824673E+01  0.23518607639E+01  0.00000000000E+00 0.  1.
</event>
<event>
 5    1  0.1461556E+002  0.1599677E+01  0.7818608E-02  0.3353714E+00
         11   -1    0    0    0    0  0.00000000000E+00  0.00000000000E+00  0.39999999674E+01  0.40000000000E+01  0.51100000000E-03 0. -1.
    9000002   -1    0    0    0    0 -0.00000000000E+00 -0.00000000000E+00  0.00000000000E+00  0.93800000000E+00  0.93800000000E+00 0. -1.
         11    1    1    2    0    0  0.10874346200E+00  0.61915768253E+00  0.24940120761E+01  0.25720182490E+01  0.51100000000E-03 0. -1.
    9000002    1    1    2    0    0 -0.15038043482E+00 -0.85243226565E+00  0.56536713787E+00  0.13959724364E+01  0.93800000000E+00 0. -1.
         22    1    1    2    0    0  0.41636972816E-01  0.23327458311E+00  0.94062075339E+00  0.97000931456E+00  0.00000000000E+00 0. -1.
</event>
<event>
 5    1  0.1461556E+002  0.1529092E+01  0.7818608E-02  0.3434113E+00
         11   -1    0    0    0    0  0.00000000000E+00  0.00000000000E+00  0.39999999674E+01  0.40000000000E+01  0.51100000000E-03 0.  1.
    9000002   -1    0    0    0    0 -0.00000000000E+00 -0.00000000000E+00  0.00000000000E+00  0.93800000000E+00  0.93800000000E+00 0.  1.
         11    1    1    2    0    0 -0.77929963053E-01  0.23342778866E+00  0.72298389212E+00  0.76371956963E+00  0.51100000000E-03 0.  1.
    9000002    1    1    2    0    0  0.70981973349E-01  0.40033548353E-01  0.57632028524E-01  0.94329559325E+00  0.93800000000E+00 0.  1.
         22    1    1    2    0    0  0.69479897045E-02 -0.27346133701E+00  0.32193840467E+01  0.32309848371E+01  0.00000000000E+00 0.  1.
</event>
<event>
 5    1  0.1461556E+002  0.1530539E+01  0.7818608E-02  0.3432386E+00
         11   -1    0    0    0    0  0.00000000000E+00  0.00000000000E+00  0.39999999674E+01  0.40000000000E+01  0.51100000000E-03 0.  1.
    9000002   -1    0    0    0    0 -0.00000000000E+00 -0.00000000000E+00  0.00000000000E+00  0.93800000000E+00  0.93800000000E+00 0.  1.
         11    1    1    2    0    0 -0.18163002957E+00 -0.10430408751E-01  0.39375269265E+00  0.43375074082E+00  0.51100000000E-03 0.  1.
    9000002    1    1    2    0    0 -0.10612607925E+00 -0.64855736445E-01  0.62747838907E-01  0.94828809047E+00  0.93800000000E+00 0.  1.
         22    1    1    2    0    0  0.28775610883E+00  0.75286145196E-01  0.35434994358E+01  0.35559611687E+01  0.00000000000E+00 0.  1.
</event>
<event>
 5    1  0.1461556E+002  0.1599374E+01  0.7818608E-02  0.3354043E+00
         11   -1    0    0    0    0  0.00000000000E+00  0.00000000000E+00  0.39999999674E+01  0.40000000000E+01  0.51100000000E-03 0. -1.
    9000002   -1    0    0    0    0 -0.00000000000E+00 -0.00000000000E+00  0.00000000000E+00  0.93800000000E+00  0.93800000000E+00 0. -1.
         11    1    1    2    0    0 -0.16017447841E+00  0.14820536256E+00  0.19758412293E+01  0.19878555072E+01  0.51100000000E-03 0. -1.
    9000002    1    1    2    0    0  0.33582918019E+00 -0.25587399815E+00  0.12084506080E+00  0.10357124456E+01  0.93800000000E+00 0. -1.
         22    1    1    2    0    0 -0.17565470178E+00  0.10766863558E+00  0.19033136773E+01  0.19144320472E+01  0.00000000000E+00 0.  1.
</event>
<event>
 5    1  0.1461556E+002  0.1599608E+01  0.7818608E-02  0.3353789E+00
         11   -1    0    0    0    0  0.00000000000E+00  0.00000000000E+00  0.39999999674E+01  0.40000000000E+01  0.51100000000E-03 0.  1.
    9000002   -1    0    0    0    0 -0.00000000000E+00 -0.00000000000E+00  0.00000000000E+00  0.93800000000E+00  0.93800000000E+00 0.  1.
         11    1    1    2    0    0  0.13981326367E+00 -0.17937385812E+00  0.17200233970E+01  0.17349937974E+01  0.51100000000E-03 0.  1.
    9000002    1    1    2    0    0 -0.29109569040E+00  0.39206587007E+00  0.16298033672E+00  0.10699808118E+01  0.93800000000E+00 0.  1.
         22    1    1    2    0    0  0.15128242673E+00 -0.21269201194E+00  0.21169962337E+01  0.21330253908E+01  0.00000000000E+00 0.  1.
</event>
<event>
 5    1  0.1461556E+002  0.1557692E+01  0.7818608E-02  0.3400604E+00
         11   -1    0    0    0    0  0.00000000000E+00  0.00000000000E+00  0.39999999674E+01  0.40000000000E+01  0.51100000000E-03 0.  1.
    9000002   -1    0    0    0    0 -0.00000000000E+00 -0.00000000000E+00  0.00000000000E+00  0.93800000000E+00  0.93800000000E+00 0. -1.
         11    1    1    2    0    0 -0.28431698784E+00  0.17724562190E+00  0.18590780576E+01  0.18890271691E+01  0.51100000000E-03 0.  1.
    9000002    1    1    2    0    0  0.95031932576E-01 -0.24884355754E+00  0.80247897391E-01  0.97838535832E+00  0.93800000000E+00 0. -1.
         22    1    1    2    0    0  0.18928505526E+00  0.71597935640E-01  0.20606740123E+01  0.20705874726E+01  0.00000000000E+00 0.  1.
</event>
<event>
 5    1  0.1898874E+002  0.1571843E+01  0.7818608E-02  0.3384502E+00
         11   -1    0    0    0    0  0.00000000000E+00  0.00000000000E+00  0.39999999674E+01  0.40000000000E+01  0.51100000000E-03 0. -1.
    9000002   -1    0    0    0    0 -0.00000000000E+00 -0.00000000000E+00  0.00000000000E+00  0.93800000000E+00  0.93800000000E+00 0.  1.
         11    1    1    2    0    0  0.16100692731E+00 -0.91482474271E-01  0.16416316549E+01  0.16520432879E+01  0.51100000000E-03 0. -1.
    9000002    1    1    2    0    0 -0.20255019390E-02 -0.59001703637E-01  0.22779978806E-01  0.94013202856E+00  0.93800000000E+00 0.  1.
         22    1    1    2    0    0 -0.15898142537E+00  0.15048417791E+00  0.23355883337E+01  0.23458246835E+01  0.00000000000E+00 0. -1.
</event>
<event>
 5    1  0.1461556E+002  0.1599621E+01  0.7818608E-02  0.3353774E+00
         11   -1    0    0    0    0  0.00000000000E+00  0.00000000000E+00  0.39999999674E+01  0.40000000000E+01  0.51100000000E-03 0. -1.
    9000002   -1    0    0    0    0 -0.00000000000E+00 -0.00000000000E+00  0.00000000000E+00  0.93800000000E+00  0.93800000000E+00 0. -1.
         11    1    1    2    0    0 -0.28656148847E-01 -0.22765725499E-01  0.29846911031E+00  0.30070504495E+00  0.51100000000E-03 0. -1.
    9000002    1    1    2    0    0  0.34559334190E+00  0.23988426439E+00  0.11974999883E+00  0.10349701834E+01  0.93800000000E+00 0. -1.
         22    1    1    2    0    0 -0.31693719306E+00 -0.21711853889E+00  0.35817808582E+01  0.36023247717E+01  0.00000000000E+00 0. -1.
</event>
<event>
 5    1  0.1461556E+002  0.1599500E+01  0.7818608E-02  0.3353907E+00
         11   -1    0    0    0    0  0.00000000000E+00  0.00000000000E+00  0.39999999674E+01  0.40000000000E+01  0.51100000000E-03 0.  1.
    9000002   -1    0    0    0    0 -0.00000000000E+00 -0.00000000000E+00  0.00000000000E+00  0.93800000000E+00  0.93800000000E+00 0. -1.
         11    1    1    2    0    0  0.17282269105E-01 -0.24571443421E-01  0.33904420955E+00  0.34037283941E+00  0.51100000000E-03 0.  1.
    9000002    1    1    2    0    0 -0.22299495725E+00  0.18368510195E+00  0.55763533185E-01  0.98306690478E+00  0.93800000000E+00 0. -1.
         22    1    1    2    0    0  0.20571268815E+00 -0.15911365853E+00  0.36051922246E+01  0.36145602558E+01  0.00000000000E+00 0.  1.
</event>
<event>
 5    1  0.1461556E+002  0.1599096E+01  0.7818608E-02  0.3354345E+00
         11   -1    0    0    0    0  0.00000000000E+00  0.00000000000E+00  0.39999999674E+01  0.40000000000E+01  0.51100000000E-03 0.  1.
    9000002   -1    0    0    0    0 -0.00000000000E+00 -0.00000000000E+00  0.00000000000E+00  0.93800000000E+00  0.93800000000E+00 0.  1.
         11    1    1    2    0    0  0.12133403599E+00 -0.56805703518E+00  0.24916727897E+01  0.25584847655E+01  0.51100000000E-03 0.  1.
    9000002    1    1    2    0    0 -0.17444126433E+00  0.76925871266E+00  0.45734059231E+00  0.13081258116E+01  0.93800000000E+00 0.  1.
         22    1    1    2    0    0  0.53107228338E-01 -0.20120167748E+00  0.10509865854E+01  0.10713894228E+01  0.00000000000E+00 0.  1.
</event>
<event>
 5    1  0.1461556E+002  0.1592798E+01  0.7818608E-02  0.3361217E+00
         11   -1    0    0    0    0  0.00000000000E+00  0.00000000000E+00  0.39999999674E+01  0.40000000000E+01  0.51100000000E-03 0.  1.
    9000002   -1    0    0    0    0 -0.00000000000E+00 -0.00000000000E+00  0.00000000000E+00  0.93800000000E+00  0.93800000000E+00 0.  1.
         11    1    1    2    0    0 -0.14186329280E-01  0.30925746462E-01  0.23198047611E+00  0.23446290997E+00  0.51100000000E-03 0.  1.
    9000002    1    1    2    0    0  0.32936527014E-01  0.24510154396E+00  0.45888502484E-01  0.97113816541E+00  0.93800000000E+00 0.  1.
         22    1    1    2    0    0 -0.18750197734E-01 -0.27602729042E+00  0.37221309888E+01  0.37323989246E+01  0.00000000000E+00 0.  1.
</event>
<event>
 5    1  0.1461556E+002  0.1597070E+01  0.7818608E-02  0.3356550E+00
         11   -1    0    0    0    0  0.00000000000E+00  0.00000000000E+00  0.39999999674E+01  0.40000000000E+01  0.51100000000E-03 0.  1.
    9000002   -1    0    0    0    0 -0.00000000000E+00 -0.00000000000E+00  0.00000000000E+00  0.93800000000E+00  0.93800000000E+00 0. -1.
         11    1    1    2    0    0  0.40956511358E-02 -0.14913297090E-01  0.62222378337E-01  0.64117597235E-01  0.51100000000E-03 0.  1.
    9000002    1    1    2    0    0 -0.25034945805E+00 -0.29577097591E-01  0.44219011138E-01  0.97229058249E+00  0.93800000000E+00 0. -1.
         22    1    1    2    0    0  0.24625380691E+00  0.44490394681E-01  0.38935585779E+01  0.39015918203E+01  0.00000000000E+00 0.  1.
</event>
<event>
 5    1  0.1461556E+002  0.1598623E+01  0.7818608E-02  0.3354860E+00
         11   -1    0    0    0    0  0.00000000000E+00  0.00000000000E+00  0.39999999674E+01  0.40000000000E+01  0.51100000000E-03 0.  1.
    9000002   -1    0    0    0    0 -0.00000000000E+00 -0.00000000000E+00  0.00000000000E+00  0.93800000000E+00  0.93800000000E+00 0. -1.
         11    1    1    2    0    0 -0.12571518364E-01 -0.45764194695E-02  0.81793243362E-01  0.82881737855E-01  0.51100000000E-03 0.  1.
    9000002    1    1    2    0    0  0.18247750159E+00 -0.10791080184E+00  0.30569074412E-01  0.96214408903E+00  0.93800000000E+00 0. -1.
         22    1    1    2    0    0 -0.16990598322E+00  0.11248722131E+00  0.38876376496E+01  0.38929741731E+01  0.00000000000E+00 0.  1.
</event>
<event>
 5    1  0.1461556E+002  0.1599462E+01  0.7818608E-02  0.3353948E+00
         11   -1    0    0    0    0  0.00000000000E+00  0.00000000000E+00  0.39999999674E+01  0.40000000000E+01  0.51100000000E-03 0.  1.
    9000002   -1    0    0    0    0 -0.00000000000E+00 -0.00000000000E+00  0.00000000000E+00  0.93800000000E+00  0.93800000000E+00 0. -1.
         11    1    1    2    0    0  0.18497272379E-01  0.38736659130E-01  0.59995545536E+00  0.60148939091E+00  0.51100000000E-03 0.  1.
    9000002    1    1    2    0    0 -0.97605639158E-01 -0.33297019355E+00  0.80873223966E-01  0.10033845170E+01  0.93800000000E+00 0. -1.
         22    1    1    2    0    0  0.79108366778E-01  0.29423353442E+00  0.33191712880E+01  0.33331260921E+01  0.00000000000E+00 0.  1.
</event>
<event>
 5    1  0.1461556E+002  0.1550679E+01  0.7818608E-02  0.3408698E+00
         11   -1    0    0    0    0  0.00000000000E+00  0.00000000000E+00  0.39999999674E+01  0.40000000000E+01  0.51100000000E-03 0. -1.
    9000002   -1    0    0    0    0 -0.00000000000E+00 -0.00000000000E+00  0.00000000000E+00  0.93800000000E+00  0.93800000000E+00 0. -1.
         11    1    1    2    0    0  0.14657808891E+00  0.20672655581E-01  0.37928376784E+00  0.40714731057E+00  0.51100000000E-03 0. -1.
    9000002    1    1    2    0    0  0.10481032449E+00  0.52719322522E-01  0.45863659715E-01  0.94642062867E+00  0.93800000000E+00 0. -1.
         22    1    1    2    0    0 -0.25138841341E+00 -0.73391978102E-01  0.35748525398E+01  0.35844320608E+01  0.00000000000E+00 0. -1.
</event>
<event>
 5    1  0.1461556E+002  0.1599414E+01  0.7818608E-02  0.3353999E+00
         11   -1    0    0    0    0  0.00000000000E+00  0.00000000000E+00  0.39999999674E+01  0.40000000000E+01  0.51100000000E-03 0.  1.
    9000002   -1    0    0    0    0 -0.00000000000E+00 -0.00000000000E+00  0.00000000000E+00  0.93800000000E+00  0.93800000000E+00 0.  1.
         11    1    1    2    0    0 -0.10531754796E+00  0.50781797889E+00  0.18927030214E+01  0.19624718785E+01  0.51100000000E-03 0.  1.
    9000002    1    1    2    0    0  0.21779930604E+00 -0.90400357062E+00  0.67122712888E+00  0.14815697256E+01  0.93800000000E+00 0.  1.
         22    1    1    2    0    0 -0.11248175808E+00  0.39618559173E+00  0.14360698170E+01  0.14939583958E+01  0.00000000000E+00 0. -1.
</event>
<event>
 5    1  0.1461556E+002  0.1590375E+01  0.7818608E-02  0.3363876E+00
         11   -1    0    0    0    0  0.00000000000E+00  0.00000000000E+00  0.39999999674E+01  0.40000000000E+01  0.51100000000E-03 0. -1.
    9000002   -1    0    0    0    0 -0.00000000000E+00 -0.00000000000E+00  0.00000000000E+00  0.93800000000E+00  0.93800000000E+00 0. -1.
         11    1    1    2    0    0  0.55462339150E-02 -0.34262856552E-01  0.10950840154E+00  0.11487843652E+00  0.51100000000E-03 0. -1.
    9000002    1    1    2    0    0  0.14052443811E+00 -0.10502765814E+00  0.27294437900E-01  0.95465538967E+00  0.93800000000E+00 0. -1.
         22    1    1    2    0    0 -0.14607067203E+00  0.13929051469E+00  0.38631971279E+01  0.38684661738E+01  0.00000000000E+00 0. -1.
</event>
<event>
 5    1  0.1461556E+002  0.1548772E+01  0.7818608E-02  0.3410912E+00
         11   -1    0    0    0    0  0.00000000000E+00  0.00000000000E+00  0.39999999674E+01  0.40000000000E+01  0.51100000000E-03 0.  1.
    9000002   -1    0    0    0    0 -0.00000000000E+00 -0.00000000000E+00  0.00000000000E+00  0.93800000000E+00  0.93800000000E+00 0.  1.
         11    1    1    2    0    0  0.47771546057E-01  0.11446007247E+00  0.23061888602E+00  0.26185599193E+00  0.51100000000E-03 0.  1.
    9000002    1    1    2    0    0  0.57796776105E-01  0.96169339773E-01  0.46516075893E-01  0.94583125057E+00  0.93800000000E+00 0.  1.
         22    1    1    2    0    0 -0.10556832216E+00 -0.21062941224E+00  0.37228650054E+01  0.37303127575E+01  0.00000000000E+00 0.  1.
</event>
<event>
 5    1  0.1461556E+002  0.1586407E+01  0.7818608E-02  0.3368250E+00
         11   -1    0    0    0    0  0.00000000000E+00  0.00000000000E+00  0.39999999674E+01  0.40000000000E+01  0.51100000000E-03 0.  1.
    9000002   -1    0    0    0    0 -0.00000000000E+00 -0.00000000000E+00  0.00000000000E+00  0.93800000000E+00  0.93800000000E+00 0.  1.
         11    1    1    2    0    0  0.11558331238E+00 -0.24875100978E-01  0.20332438230E+01  0.20366784179E+01  0.51100000000E-03 0.  1.
    9000002    1    1    2    0    0 -0.54407434133E-01  0.25687489355E+00  0.56113181380E-01  0.97567288009E+00  0.93800000000E+00 0.  1.
         22    1    1    2    0    0 -0.61175878252E-01 -0.23199979257E+00  0.19106429629E+01  0.19256487020E+01  0.00000000000E+00 0.  1.
</event>
<event>
 5    1  0.1461556E+002  0.1589483E+01  0.7818608E-02  0.3364858E+00
         11   -1    0    0    0    0  0.00000000000E+00  0.00000000000E+00  0.39999999674E+01  0.40000000000E+01  0.51100000000E-03 0.  1.
    9000002   -1    0    0    0    0 -0.00000000000E+00 -0.00000000000E+00  0.00000000000E+00  0.93800000000E+00  0.93800000000E+00 0. -1.
         11    1    1    2    0    0 -0.93638379486E-01 -0.85360638815E-02  0.77757808777E+00  0.78324258962E+00  0.51100000000E-03 0.  1.
    9000002    1    1    2    0    0  0.21777597634E-01  0.23003989192E+00  0.43188153061E-01  0.96700663503E+00  0.93800000000E+00 0. -1.
         22    1    1    2    0    0  0.71860781851E-01 -0.22150382804E+00  0.31792337265E+01  0.31877507753E+01  0.00000000000E+00 0.  1.
</event>
<event>
 5    1  0.1461556E+002  0.1599653E+01  0.7818608E-02  0.3353740E+00
         11   -1    0    0    0    0  0.00000000000E+00  0.00000000000E+00  0.39999999674E+01  0.40000000000E+01  0.51100000000E-03 0.  1.
    9000002   -1    0    0    0    0 -0.00000000000E+00 -0.00000000000E+00  0.00000000000E+00  0.93800000000E+00  0.93800000000E+00 0. -1.
         11    1    1    2    0    0  0.19642409962E-01  0.18477836409E-01  0.28699744409E+00  0.28826211812E+00  0.51100000000E-03 0.  1.
    9000002    1    1    2    0    0 -0.30686931330E+00 -0.25919671270E+00  0.10887853686E+00  0.10261823654E+01  0.93800000000E+00 0. -1.
         22    1    1    2    0    0  0.28722690334E+00  0.24071887629E+00  0.36041239864E+01  0.36235555165E+01  0.00000000000E+00 0.  1.
</event>
<event>
 5    1  0.1461556E+002  0.1588146E+01  0.7818608E-02  0.3366331E+00
         11   -1    0    0    0    0  0.00000000000E+00  0.00000000000E+00  0.39999999674E+01  0.40000000000E+01  0.51100000000E-03 0. -1.
    9000002   -1    0    0    0    0 -0.00000000000E+00 -0.00000000000E+00  0.00000000000E+00  0.93800000000E+00  0.93800000000E+00 0.  1.
         11    1    1    2    0    0  0.57223669604E-01 -0.12429212238E-01  0.16607206867E+01  0.16617528378E+01  0.51100000000E-03 0. -1.
    9000002    1    1    2    0    0  0.13939022207E+00  0.15824698900E+00  0.38186852548E-01  0.96217149160E+00  0.93800000000E+00 0.  1.
         22    1    1    2    0    0 -0.19661389167E+00 -0.14581777677E+00  0.23010924281E+01  0.23140756706E+01  0.00000000000E+00 0. -1.
</event>
<event>
 5    1  0.1461556E+002  0.1599482E+01  0.7818608E-02  0.3353926E+00
         11   -1    0    0    0    0  0.00000000000E+00  0.00000000000E+00  0.39999999674E+01  0.40000000000E+01  0.51100000000E-03 0.  1.
    9000002   -1    0    0    0    0 -0.00000000000E+00 -0.00000000000E+00  0.00000000000E+00  0.93800000000E+00  0.93800000000E+00 0.  1.
         11    1    1    2    0    0  0.10855201329E+00 -0.40583448570E-02  0.15536787803E+01  0.15574716766E+01  0.51100000000E-03 0.  1.
    9000002    1    1    2    0    0 -0.31524470472E+00 -0.38043683083E-04  0.66547781236E-01  0.99179223252E+00  0.93800000000E+00 0.  1.
         22    1    1    2    0    0  0.20669269142E+00  0.40963885401E-02  0.23797734058E+01  0.23887360909E+01  0.00000000000E+00 0.  1.
</event>
<event>
 5    1  0.1461556E+002  0.1599663E+01  0.7818608E-02  0.3353729E+00
         11   -1    0    0    0    0  0.00000000000E+00  0.00000000000E+00  0.39999999674E+01  0.40000000000E+01  0.51100000000E-03 0. -1.
    9000002   -1    0    0    0    0 -0.00000000000E+00 -0.00000000000E+00  0.00000000000E+00  0.93800000000E+00  0.93800000000E+00 0.  1.
         11    1    1    2    0    0 -0.48881229763E-01  0.51713015300E-01  0.77460475250E+00  0.77786656587E+00  0.51100000000E-03 0. -1.
    9000002    1    1    2    0    0  0.23656893938E+00 -0.24730769914E+00  0.78478986190E-01  0.10015632344E+01  0.93800000000E+00 0.  1.
         22    1    1    2    0    0 -0.18768770962E+00  0.19559468383E+00  0.31469162287E+01  0.31585701998E+01  0.00000000000E+00 0. -1.
</event>
<event>
 5    1  0.1461556E+002  0.1599364E+01  0.7818608E-02  0.3354054E+00
         11   -1    0    0    0    0  0.00000000000E+00  0.00000000000E+00  0.39999999674E+01  0.40000000000E+01  0.51100000000E-03 0. -1.
    9000002   -1    0    0    0    0 -0.00000000000E+00 -0.00000000000E+00  0.00000000000E+00  0.93800000000E+00  0.93800000000E+00 0. -1.
         11    1    1    2    0    0 -0.16135227212E+00 -0.36189515830E+00  0.24197907095E+01  0.24520175367E+01  0.51100000000E-03 0. -1.
    9000002    1    1    2    0    0  0.27076399693E+00  0.53677508637E+00  0.25255267561E+00  0.11423955048E+01  0.93800000000E+00 0. -1.
         22    1    1    2    0    0 -0.10941172481E+00 -0.17487992807E+00  0.13276565823E+01  0.13435869585E+01  0.00000000000E+00 0. -1.
</event>
<event>
 5    1  0.1461556E+002  0.1599676E+01  0.7818608E-02  0.3353715E+00
         11   -1    0    0    0    0  0.00000000000E+00  0.00000000000E+00  0.39999999674E+01  0.40000000000E+01  0.51100000000E-03 0.  1.
    9000002   -1    0    0    0    0 -0.00000000000E+00 -0.00000000000E+00  0.00000000000E+00  0.93800000000E+00  0.93800000000E+00 0. -1.
         11    1    1    2    0    0  0.91683313241E-01 -0.53356425543E-01  0.73178312542E+00  0.73943190481E+00  0.51100000000E-03 0.  1.
    9000002    1    1    2    0    0 -0.47189514148E+00  0.27699547299E+00  0.20669422649E+00  0.11054311466E+01  0.93800000000E+00 0. -1.
         22    1    1    2    0    0  0.38021182823E+00 -0.22363904744E+00  0.30615226154E+01  0.30931369486E+01  0.00000000000E+00 0.  1.
</event>
<event>
 5    1  0.1461556E+002  0.1599676E+01  0.7818608E-02  0.3353715E+00
         11   -1    0    0    0    0  0.00000000000E+00  0.00000000000E+00  0.39999999674E+01  0.40000000000E+01  0.51100000000E-03 0.  1.
    9000002   -1    0    0    0    0 -0.00000000000E+00 -0.00000000000E+00  0.00000000000E+00  0.93800000000E+00  0.93800000000E+00 0.  1.
         11    1    1    2    0    0  0.30780399067E-02 -0.22580605156E-01  0.37502072988E+00  0.37571287844E+00  0.51100000000E-03 0.  1.
    9000002    1    1    2    0    0 -0.28746391132E-01  0.23435749316E+00  0.36996540515E-01  0.96796825031E+00  0.93800000000E+00 0.  1.
         22    1    1    2    0    0  0.25668351225E-01 -0.21177688800E+00  0.35879826970E+01  0.35943188713E+01  0.00000000000E+00 0.  1.
</event>
<event>
 5    1  0.1461556E+002  0.1599669E+01  0.7818608E-02  0.3353723E+00
         11   -1    0    0    0    0  0.00000000000E+00  0.00000000000E+00  0.39999999674E+01  0.40000000000E+01  0.51100000000E-03 0. -1.
    9000002   -1    0    0    0    0 -0.00000000000E+00 -0.00000000000E+00  0.00000000000E+00  0.93800000000E+00  0.93800000000E+00 0.  1.
         11    1    1    2    0    0 -0.25632510377E+00  0.70090111594E-01  0.18968820788E+01  0.19154051959E+01  0.51100000000E-03 0. -1.
    9000002    1    1    2    0    0  0.51188742036E+00 -0.14703345504E+00  0.19528977683E+00  0.10961886995E+01  0.93800000000E+00 0.  1.
         22    1    1    2    0    0 -0.25556231659E+00  0.76943343443E-01  0.19078281117E+01  0.19264061045E+01  0.00000000000E+00 0. -1.
</event>
<event>
 5    1  0.1461556E+002  0.1580346E+01  0.7818608E-02  0.3374975E+00
         11   -1    0    0    0    0  0.00000000000E+00  0.00000000000E+00  0.39999999674E+01  0.40000000000E+01  0.51100000000E-03 0. -1.
    9000002   -1    0    0    0    0 -0.00000000000E+00 -0.00000000000E+00  0.00000000000E+00  0.93800000000E+00  0.93800000000E+00 0.  1.
         11    1    1    2    0    0 -0.10225276043E+00 -0.84690777887E-01  0.10392697734E+01  0.10477166019E+01  0.51100000000E-03 0. -1.
    9000002    1    1    2    0    0 -0.11886164038E+00  0.86194334403E-01  0.28625785672E-01  0.94985314046E+00  0.93800000000E+00 0.  1.
         22    1    1    2    0    0  0.22111440082E+00 -0.15035565157E-02  0.29321044083E+01  0.29404302576E+01  0.00000000000E+00 0. -1.
</event>
<event>
 5    1  0.1779166E+002  0.1593215E+01  0.7818608E-02  0.3360761E+00
         11   -1    0    0    0    0  0.00000000000E+00  0.00000000000E+00  0.39999999674E+01  0.40000000000E+01  0.51100000000E-03 0.  1.
    9000002   -1    0    0    0    0 -0.00000000000E+00 -0.00000000000E+00  0.00000000000E+00  0.93800000000E+00  0.93800000000E+00 0.  1.
         11    1    1    2    0    0  0.14899445698E-01 -0.41304871394E-01  0.38493849403E+00  0.38743514450E+00  0.51100000000E-03 0.  1.
    9000002    1    1    2    0    0 -0.61124087200E-01 -0.15711294861E+00  0.23591578890E-01  0.95332113962E+00  0.93800000000E+00 0.  1.
         22    1    1    2    0    0  0.46224641502E-01  0.19841782001E+00  0.35914698944E+01  0.35972437159E+01  0.00000000000E+00 0.  1.
</event>
<event>
 5    1  0.1461556E+002  0.1587915E+01  0.7818608E-02  0.3366585E+00
         11   -1    0    0    0    0  0.00000000000E+00  0.00000000000E+00  0.39999999674E+01  0.40000000000E+01  0.51100000000E-03 0.  1.
    9000002   -1    0    0    0    0 -0.00000000000E+00 -0.00000000000E+00  0.00000000000E+00  0.93800000000E+00  0.93800000000E+00 0.  1.
         11    1    1    2    0    0 -0.20416609384E-01  0.19419175486E+00  0.75602606458E+00  0.78083477576E+00  0.51100000000E-03 0.  1.
    9000002    1    1    2    0    0  0.63967978314E-01 -0.45420732687E+00  0.15338448600E+00  0.10553515995E+01  0.93800000000E+00 0.  1.
         22    1    1    2    0    0 -0.43551368930E-01  0.26001557201E+00  0.30905894168E+01  0.31018136247E+01  0.00000000000E+00 0.  1.
</event>
<event>
 5    1  0.1461556E+002  0.1599677E+01  0.7818608E-02  0.3353714E+00
         11   -1    0    0    0    0  0.00000000000E+00  0.00000000000E+00  0.39999999674E+01  0.40000000000E+01  0.51100000000E-03 0. -1.
    9000002   -1    0    0    0    0 -0.00000000000E+00 -0.00000000000E+00  0.00000000000E+00  0.93800000000E+00  0.93800000000E+00 0. -1.
         11    1    1    2    0    0 -0.14004498568E+00 -0.65351439355E-01  0.15154016592E+01  0.15232615857E+01  0.51100000000E-03 0. -1.
    9000002    1    1    2    0    0  0.35929157901E+00  0.16947270251E+00  0.10640986271E+00  0.10241965117E+01  0.93800000000E+00 0. -1.
         22    1    1    2    0    0 -0.21924659333E+00 -0.10412126315E+00  0.23781884454E+01  0.23905419026E+01  0.00000000000E+00 0. -1.
</event>
<event>
 5    1  0.1461556E+002  0.1599625E+01  0.7818608E-02  0.3353770E+00
         11   -1    0    0    0    0  0.00000000000E+00  0.00000000000E+00  0.39999999674E+01  0.40000000000E+01  0.51100000000E-03 0. -1.
    9000002   -1    0    0    0    0 -0.00000000000E+00 -0.00000000000E+00  0.00000000000E+00  0.93800000000E+00  0.93800000000E+00 0.  1.
         11    1    1    2    0    0 -0.29916901525E+00  0.38062523386E-03  0.21404535252E+01  0.21612597714E+01  0.51100000000E-03 0. -1.
    9000002    1    1    2    0    0  0.54160979970E+00  0.10144152255E-01  0.20241466707E+00  0.11019345609E+01  0.93800000000E+00 0.  1.
         22    1    1    2    0    0 -0.24244078445E+00 -0.10524777488E-01  0.16571317751E+01  0.16748056678E+01  0.00000000000E+00 0.  1.
</event>
<event>
 5    1  0.1461556E+002  0.1589410E+01  0.7818608E-02  0.3364939E+00
         11   -1    0    0    0    0  0.00000000000E+00  0.00000000000E+00  0.39999999674E+01  0.40000000000E+01  0.51100000000E-03 0. -1.
    9000002   -1    0    0    0    0 -0.00000000000E+00 -0.00000000000E+00  0.00000000000E+00  0.93800000000E+00  0.93800000000E+00 0. -1.
         11    1    1    2    0    0  0.83635321782E-02 -0.55801455988E-01  0.14458058303E+00  0.15520166646E+00  0.51100000000E-03 0. -1.
    9000002    1    1    2    0    0 -0.10874910940E-01  0.26179544693E+00  0.53580413345E-01  0.97538196642E+00  0.93800000000E+00 0. -1.
         22    1    1    2    0    0  0.25113787614E-02 -0.20599399095E+00  0.38018389710E+01  0.38074163671E+01  0.00000000000E+00 0. -1.
</event>
<event>
 5    1  0.1461556E+002  0.1599497E+01  0.7818608E-02  0.3353910E+00
         11   -1    0    0    0    0  0.00000000000E+00  0.00000000000E+00  0.39999999674E+01  0.40000000000E+01  0.51100000000E-03 0.  1.
    9000002   -1    0    0    0    0 -0.00000000000E+00 -0.00000000000E+00  0.00000000000E+00  0.93800000000E+00  0.93800000000E+00 0.  1.
         11    1    1    2    0    0  0.43276718010E-02 -0.21607456620E-02  0.14689390311E+00  0.14697441089E+00  0.51100000000E-03 0.  1.
    9000002    1    1    2    0    0 -0.48196869593E-01  0.20780148450E+00  0.30285775250E-01  0.96242694444E+00  0.93800000000E+00 0.  1.
         22    1    1    2    0    0  0.43869197792E-01 -0.20564073883E+00  0.38228202890E+01  0.38285986447E+01  0.00000000000E+00 0.  1.
</event>
<event>
 5    1  0.1461556E+002  0.1599392E+01  0.7818608E-02  0.3354024E+00
         11   -1    0    0    0    0  0.00000000000E+00  0.00000000000E+00  0.39999999674E+01  0.40000000000E+01  0.51100000000E-03 0. -1.
    9000002   -1    0    0    0    0 -0.00000000000E+00 -0.00000000000E+00  0.00000000000E+00  0.93800000000E+00  0.93800000000E+00 0.  1.
         11    1    1    2    0    0 -0.76046765161E-02 -0.47781937410E-01  0.64085502090E+00  0.64267905177E+00  0.51100000000E-03 0. -1.
    9000002    1    1    2    0    0 -0.44469477176E-01  0.28099230473E+00  0.54137836499E-01  0.98168687221E+00  0.93800000000E+00 0.  1.
         22    1    1    2    0    0  0.52074153692E-01 -0.23321036732E+00  0.33050071100E+01  0.33136340760E+01  0.00000000000E+00 0. -1.
</event>
<event>
 5    1  0.1461556E+002  0.1403548E+01  0.7818608E-02  0.3601203E+00
         11   -1    0    0    0    0  0.00000000000E+00  0.00000000000E+00  0.39999999674E+01  0.40000000000E+01  0.51100000000E-03 0. -1.
    9000002   -1    0    0    0    0 -0.00000000000E+00 -0.00000000000E+00  0.00000000000E+00  0.93800000000E+00  0.93800000000E+00 0.  1.
         11    1    1    2    0    0  0.16191613847E+00  0.42340561234E+00  0.24688386072E+01  0.25101102521E+01  0.51100000000E-03 0. -1.
    9000002    1    1    2    0    0  0.35704879373E+00 -0.16475320806E+00  0.28947042174E+00  0.10574803004E+01  0.93800000000E+00 0.  1.
         22    1    1    2    0    0 -0.51896493221E+00 -0.25865240428E+00  0.12416909385E+01  0.13704094475E+01  0.00000000000E+00 0.  1.
</event>
<event>
 5    1  0.1461556E+002  0.1587690E+01  0.7818608E-02  0.3366833E+00
         11   -1    0    0    0    0  0.00000000000E+00  0.00000000000E+00  0.39999999674E+01  0.40000000000E+01  0.51100000000E-03 0. -1.
    9000002   -1    0    0    0    0 -0.00000000000E+00 -0.00000000000E+00  0.00000000000E+00  0.93800000000E+00  0.93800000000E+00 0. -1.
         11    1    1    2    0    0 -0.14527398703E+00  0.34316253744E-01  0.56330413013E+00  0.58274689250E+00  0.51100000000E-03 0. -1.
    9000002    1    1    2    0    0  0.35287925228E+00 -0.21076047951E+00  0.12424102857E+00  0.10316121265E+01  0.93800000000E+00 0. -1.
         22    1    1    2    0    0 -0.20760526525E+00  0.17644422577E+00  0.33124548087E+01  0.33236409810E+01  0.00000000000E+00 0. -1.
</event>
<event>
 5    1  0.1461556E+002  0.1599673E+01  0.7818608E-02  0.3353718E+00
         11   -1    0    0    0    0  0.00000000000E+00  0.00000000000E+00  0.39999999674E+01  0.40000000000E+01  0.51100000000E-03 0.  1.
    9000002   -1    0    0    0    0 -0.00000000000E+00 -0.00000000000E+00  0.00000000000E+00  0.93800000000E+00  0.93800000000E+00 0.  1.
         11    1    1    2    0    0  0.42746721197E-02  0.14650758833E-02  0.84295723983E-01  0.84418300575E-01  0.51100000000E-03 0. -1.
    9000002    1    1    2    0    0 -0.20881221485E+00 -0.47361541883E-01  0.30380522338E-01  0.96260720590E+00  0.93800000000E+00 0.  1.
         22    1    1    2    0    0  0.20453754273E+00  0.45896465999E-01  0.38853237210E+01  0.38909744935E+01  0.00000000000E+00 0.  1.
</event>
<event>
 5    1  0.1461556E+002  0.1540133E+01  0.7818608E-02  0.3421020E+00
         11   -1    0    0    0    0  0.00000000000E+00  0.00000000000E+00  0.39999999674E+01  0.40000000000E+01  0.51100000000E-03 0.  1.
    9000002   -1    0    0    0    0 -0.00000000000E+00 -0.00000000000E+00  0.00000000000E+00  0.93800000000E+00  0.93800000000E+00 0.  1.
         11    1    1    2    0    0 -0.87754551620E-01  0.20780628356E+00  0.33099725009E+01  0.33176501520E+01  0.51100000000E-03 0.  1.
    9000002    1    1    2    0    0 -0.57139441428E-01 -0.43460677524E-01  0.47999725858E-01  0.94196694206E+00  0.93800000000E+00 0.  1.
         22    1    1    2    0    0  0.14489399305E+00 -0.16434560604E+00  0.64202774055E+00  0.67838290595E+00  0.00000000000E+00 0. -1.
</event>
<event>
 5    1  0.1461556E+002  0.1597692E+01  0.7818608E-02  0.3355872E+00
         11   -1    0    0    0    0  0.00000000000E+00  0.00000000000E+00  0.39999999674E+01  0.40000000000E+01  0.51100000000E-03 0.  1.
    9000002   -1    0    0    0    0 -0.00000000000E+00 -0.00000000000E+00  0.00000000000E+00  0.93800000000E+00  0.93800000000E+00 0. -1.
         11    1    1    2    0    0  0.98044936786E-02  0.26962473733E-01  0.14357226792E+00  0.14641161267E+00  0.51100000000E-03 0.  1.
    9000002    1    1    2    0    0 -0.11781320540E+00 -0.20808787318E+00  0.39464899719E-01  0.96880441403E+00  0.93800000000E+00 0. -1.
         22    1    1    2    0    0  0.10800871172E+00  0.18112539944E+00  0.38169627997E+01  0.38227839733E+01  0.00000000000E+00 0.  1.
</event>
<event>
 5    1  0.1461556E+002  0.1596819E+01  0.7818608E-02  0.3356824E+00
         11   -1    0    0    0    0  0.00000000000E+00  0.00000000000E+00  0.39999999674E+01  0.40000000000E+01  0.51100000000E-03 0.  1.
    9000002   -1    0    0    0    0 -0.00000000000E+00 -0.00000000000E+00  0.00000000000E+00  0.93800000000E+00  0.93800000000E+00 0. -1.
         11    1    1    2    0    0  0.26063308423E-01  0.82898392820E-02  0.72173446896E+00  0.72225267205E+00  0.51100000000E-03 0.  1.
    9000002    1    1    2    0    0  0.10013021933E+00 -0.16905152896E+00  0.27693958113E-01  0.95875723496E+00  0.93800000000E+00 0. -1.
         22    1    1    2    0    0 -0.12619352775E+00  0.16076168968E+00  0.32505715403E+01  0.32569900930E+01  0.00000000000E+00 0.  1.
</event>
<event>
 5    1  0.1461556E+002  0.1584093E+01  0.7818608E-02  0.3370812E+00
         11   -1    0    0    0    0  0.00000000000E+00  0.00000000000E+00  0.39999999674E+01  0.40000000000E+01  0.51100000000E-03 0. -1.
    9000002   -1    0    0    0    0 -0.00000000000E+00 -0.00000000000E+00  0.00000000000E+00  0.93800000000E+00  0.93800000000E+00 0. -1.
         11    1    1    2    0    0  0.13217042207E-02 -0.24806143042E-01  0.23897656481E-01  0.34473913920E-01  0.51100000000E-03 0. -1.
    9000002    1    1    2    0    0  0.16824067291E+00 -0.97997058259E-01  0.36837695649E-01  0.95870191575E+00  0.93800000000E+00 0. -1.
         22    1    1    2    0    0 -0.16956237714E+00  0.12280320130E+00  0.39392646152E+01  0.39448241703E+01  0.00000000000E+00 0. -1.
</event>
<event>
 5    1  0.1461556E+002  0.1599676E+01  0.7818608E-02  0.3353715E+00
         11   -1    0    0    0    0  0.00000000000E+00  0.00000000000E+00  0.39999999674E+01  0.40000000000E+01  0.51100000000E-03 0.  1.
    9000002   -1    0    0    0    0 -0.00000000000E+00 -0.00000000000E+00  0.00000000000E+00  0.93800000000E+00  0.93800000000E+00 0.  1.
         11    1    1    2    0    0  0.15232587166E-01  0.37603821489E-01  0.63604601551E+00  0.63733890049E+00  0.51100000000E-03 0.  1.
    9000002    1    1    2    0    0 -0.98003262701E-01 -0.22998753209E+00  0.41518190034E-01  0.97163093020E+00  0.93800000000E+00 0.  1.
         22    1    1    2    0    0  0.82770675536E-01  0.19238371060E+00  0.33224357618E+01  0.33290301693E+01  0.00000000000E+00 0.  1.
</event>
<event>
 5    1  0.1461556E+002  0.1599546E+01  0.7818608E-02  0.3353856E+00
         11   -1    0    0    0    0  0.00000000000E+00  0.00000000000E+00  0.39999999674E+01  0.40000000000E+01  0.51100000000E-03 0. -1.
    9000002   -1    0    0    0    0 -0.00000000000E+00 -0.00000000000E+00  0.00000000000E+00  0.93800000000E+00  0.93800000000E+00 0.  1.
         11    1    1    2    0    0  0.82099811759E-01  0.56201624891E-01  0.66017321834E+00  0.66762859515E+00  0.51100000000E-03 0. -1.
    9000002    1    1    2    0    0 -0.42026525870E+00 -0.29814610246E+00  0.18235467272E+00  0.10856386198E+01  0.93800000000E+00 0.  1.
         22    1    1    2    0    0  0.33816544694E+00  0.24194447757E+00  0.31574720763E+01  0.31847327851E+01  0.00000000000E+00 0. -1.
</event>
<event>
 5    1  0.1461556E+002  0.1599320E+01  0.7818608E-02  0.3354102E+00
         11   -1    0    0    0    0  0.00000000000E+00  0.00000000000E+00  0.39999999674E+01  0.40000000000E+01  0.51100000000E-03 0. -1.
    9000002   -1    0    0    0    0 -0.00000000000E+00 -0.00000000000E+00  0.00000000000E+00  0.93800000000E+00  0.93800000000E+00 0. -1.
         11    1    1    2    0    0  0.65152724687E-01  0.46306961988E-01  0.11102568836E+01  0.11131306397E+01  0.51100000000E-03 0. -1.
    9000002    1    1    2    0    0 -0.28409576242E+00 -0.11463736518E+00  0.62928038077E-01  0.98876491933E+00  0.93800000000E+00 0. -1.
         22    1    1    2    0    0  0.21894303774E+00  0.68330403189E-01  0.28268150457E+01  0.28361044410E+01  0.00000000000E+00 0. -1.
</event>
<event>
 5    1  0.1461556E+002  0.1599677E+01  0.7818608E-02  0.3353714E+00
         11   -1    0    0    0    0  0.00000000000E+00  0.00000000000E+00  0.39999999674E+01  0.40000000000E+01  0.51100000000E-03 0.  1.
    9000002   -1    0    0    0    0 -0.00000000000E+00 -0.00000000000E+00  0.00000000000E+00  0.93800000000E+00  0.93800000000E+00 0. -1.
         11    1    1    2    0    0 -0.17981558881E-01 -0.29174530999E-01  0.56224992161E+00  0.56329364029E+00  0.51100000000E-03 0. -1.
    9000002    1    1    2    0    0  0.12672695156E+00  0.20376753427E+00  0.38221887812E-01  0.96896121748E+00  0.93800000000E+00 0. -1.
         22    1    1    2    0    0 -0.10874539267E+00 -0.17459300327E+00  0.33995281579E+01  0.34057451422E+01  0.00000000000E+00 0.  1.
</event>
<event>
 5    1  0.1461556E+002  0.1597381E+01  0.7818608E-02  0.3356211E+00
         11   -1    0    0    0    0  0.00000000000E+00  0.00000000000E+00  0.39999999674E+01  0.40000000000E+01  0.51100000000E-03 0. -1.
    9000002   -1    0    0    0    0 -0.00000000000E+00 -0.00000000000E+00  0.00000000000E+00  0.93800000000E+00  0.93800000000E+00 0.  1.
         11    1    1    2    0    0  0.39332760112E-01  0.18691152007E-01  0.35563290763E+00  0.35828961929E+00  0.51100000000E-03 0. -1.
    9000002    1    1    2    0    0 -0.77111937216E-01 -0.28210158997E+00  0.58809458469E-01  0.98429167950E+00  0.93800000000E+00 0.  1.
         22    1    1    2    0    0  0.37779177104E-01  0.26341043797E+00  0.35855576013E+01  0.35954187012E+01  0.00000000000E+00 0. -1.
</event>
<event>
 5    1  0.1461556E+002  0.1599675E+01  0.7818608E-02  0.3353716E+00
         11   -1    0    0    0    0  0.00000000000E+00  0.00000000000E+00  0.39999999674E+01  0.40000000000E+01  0.51100000000E-03 0.  1.
    9000002   -1    0    0    0    0 -0.00000000000E+00 -0.00000000000E+00  0.00000000000E+00  0.93800000000E+00  0.93800000000E+00 0. -1.
         11    1    1    2    0    0 -0.76462768342E-01 -0.11812376883E+00  0.15614646210E+01  0.15677920154E+01  0.51100000000E-03 0.  1.
    9000002    1    1    2    0    0  0.19600822047E+00  0.29675761672E+00  0.84864063236E-01  0.10067423776E+01  0.93800000000E+00 0. -1.
         22    1    1    2    0    0 -0.11954545213E+00 -0.17863384789E+00  0.23536712831E+01  0.23634656071E+01  0.00000000000E+00 0. -1.
</event>
<event>
 5    1  0.1461556E+002  0.1539777E+01  0.7818608E-02  0.3421438E+00
         11   -1    0    0    0    0  0.00000000000E+00  0.00000000000E+00  0.39999999674E+01  0.40000000000E+01  0.51100000000E-03 0. -1.
    9000002   -1    0    0    0    0 -0.00000000000E+00 -0.00000000000E+00  0.00000000000E+00  0.93800000000E+00  0.93800000000E+00 0. -1.
         11    1    1    2    0    0  0.23389432847E-01  0.10675672397E+00  0.14480541811E+00  0.18141922146E+00  0.51100000000E-03 0. -1.
    9000002    1    1    2    0    0  0.50917526399E-01  0.18333225824E+00  0.70108823985E-01  0.95966794185E+00  0.93800000000E+00 0. -1.
         22    1    1    2    0    0 -0.74306959247E-01 -0.29008898221E+00  0.37850857253E+01  0.37969128367E+01  0.00000000000E+00 0. -1.
</event>
<event>
 5    1  0.1461556E+002  0.1596910E+01  0.7818608E-02  0.3356724E+00
         11   -1    0    0    0    0  0.00000000000E+00  0.00000000000E+00  0.39999999674E+01  0.40000000000E+01  0.51100000000E-03 0. -1.
    9000002   -1    0    0    0    0 -0.00000000000E+00 -0.00000000000E+00  0.00000000000E+00  0.93800000000E+00  0.93800000000E+00 0. -1.
         11    1    1    2    0    0  0.18296622780E+00  0.99890045184E-01  0.13627642878E+01  0.13786157648E+01  0.51100000000E-03 0. -1.
    9000002    1    1    2    0    0 -0.37474114782E+00 -0.19099578876E+00  0.12199562379E+00  0.10351991361E+01  0.93800000000E+00 0. -1.
         22    1    1    2    0    0  0.19177492002E+00  0.91105743573E-01  0.25152400558E+01  0.25241850991E+01  0.00000000000E+00 0. -1.
</event>
<event>
 5    1  0.1461556E+002  0.1598438E+01  0.7818608E-02  0.3355061E+00
         11   -1    0    0    0    0  0.00000000000E+00  0.00000000000E+00  0.39999999674E+01  0.40000000000E+01  0.51100000000E-03 0. -1.
    9000002   -1    0    0    0    0 -0.00000000000E+00 -0.00000000000E+00  0.00000000000E+00  0.93800000000E+00  0.93800000000E+00 0.  1.
         11    1    1    2    0    0  0.54107751288E-01  0.64145354627E-01  0.67559049030E+00  0.68078267235E+00  0.51100000000E-03 0. -1.
    9000002    1    1    2    0    0 -0.13803860424E+00 -0.31146648218E+00  0.78737625346E-01  0.10010542640E+01  0.93800000000E+00 0.  1.
         22    1    1    2    0    0  0.83930852951E-01  0.24732112755E+00  0.32456718517E+01  0.32561630637E+01  0.00000000000E+00 0. -1.
</event>
<event>
 5    1  0.1461556E+002  0.1580848E+01  0.7818608E-02  0.3374416E+00
         11   -1    0    0    0    0  0.00000000000E+00  0.00000000000E+00  0.39999999674E+01  0.40000000000E+01  0.51100000000E-03 0. -1.
    9000002   -1    0    0    0    0 -0.00000000000E+00 -0.00000000000E+00  0.00000000000E+00  0.93800000000E+00  0.93800000000E+00 0.  1.
         11    1    1    2    0    0 -0.10521458967E-01 -0.93595538404E-01  0.10091918857E+01  0.10135775003E+01  0.51100000000E-03 0. -1.
    9000002    1    1    2    0    0  0.33350068971E+00 -0.11451074377E+00  0.98736145046E-01  0.10069400413E+01  0.93800000000E+00 0.  1.
         22    1    1    2    0    0 -0.32297923074E+00  0.20810628218E+00  0.28920719366E+01  0.29174824583E+01  0.00000000000E+00 0. -1.
</event>
<event>
 5    1  0.1461556E+002  0.1522589E+01  0.7818608E-02  0.3441921E+00
         11   -1    0    0    0    0  0.00000000000E+00  0.00000000000E+00  0.39999999674E+01  0.40000000000E+01  0.51100000000E-03 0. -1.
    9000002   -1    0    0    0    0 -0.00000000000E+00 -0.00000000000E+00  0.00000000000E+00  0.93800000000E+00  0.93800000000E+00 0.  1.
         11    1    1    2    0    0 -0.43967744235E-01 -0.17310080497E+00  0.29663601174E+00  0.34625169429E+00  0.51100000000E-03 0. -1.
    9000002    1    1    2    0    0 -0.16888978971E+00 -0.23230242796E-02  0.78399889670E-01  0.95630523381E+00  0.93800000000E+00 0.  1.
         22    1    1    2    0    0  0.21285753394E+00  0.17542382925E+00  0.36249640659E+01  0.36354430719E+01  0.00000000000E+00 0. -1.
</event>
<event>
 5    1  0.1461556E+002  0.1439036E+01  0.7818608E-02  0.3549024E+00
         11   -1    0    0    0    0  0.00000000000E+00  0.00000000000E+00  0.39999999674E+01  0.40000000000E+01  0.51100000000E-03 0. -1.
    9000002   -1    0    0    0    0 -0.00000000000E+00 -0.00000000000E+00  0.00000000000E+00  0.93800000000E+00  0.93800000000E+00 0.  1.
         11    1    1    2    0    0 -0.10427964161E+00 -0.21617645235E+00  0.33270975029E+01  0.33357434789E+01  0.51100000000E-03 0. -1.
    9000002    1    1    2    0    0  0.24777937495E+00 -0.11807984640E+00  0.18664621791E+00  0.99499662283E+00  0.93800000000E+00 0.  1.
         22    1    1    2    0    0 -0.14349973334E+00  0.33425629875E+00  0.48625624656E+00  0.60725989826E+00  0.00000000000E+00 0. -1.
</event>
<event>
 5    1  0.1461556E+002  0.1559169E+01  0.7818608E-02  0.3398908E+00
         11   -1    0    0    0    0  0.00000000000E+00  0.00000000000E+00  0.39999999674E+01  0.40000000000E+01  0.51100000000E-03 0. -1.
    9000002   -1    0    0    0    0 -0.00000000000E+00 -0.00000000000E+00  0.00000000000E+00  0.93800000000E+00  0.93800000000E+00 0.  1.
         11    1    1    2    0    0  0.19183109483E+00 -0.15162372220E+00  0.17024755284E+01  0.17199453793E+01  0.51100000000E-03 0. -1.
    9000002    1    1    2    0    0 -0.25051668190E-01 -0.12833372270E-01  0.30453585838E-01  0.93891623823E+00  0.93800000000E+00 0.  1.
         22    1    1    2    0    0 -0.16677942664E+00  0.16445709447E+00  0.22670708531E+01  0.22791383824E+01  0.00000000000E+00 0.  1.
</event>
<event>
 5    1  0.1461556E+002  0.1598159E+01  0.7818608E-02  0.3355364E+00
         11   -1    0    0    0    0  0.00000000000E+00  0.00000000000E+00  0.39999999674E+01  0.40000000000E+01  0.51100000000E-03 0.  1.
    9000002   -1    0    0    0    0 -0.00000000000E+00 -0.00000000000E+00  0.00000000000E+00  0.93800000000E+00  0.93800000000E+00 0.  1.
         11    1    1    2    0    0  0.36806709903E-01 -0.16486188350E-01  0.25831436888E+00  0.26144426287E+00  0.51100000000E-03 0.  1.
    9000002    1    1    2    0    0 -0.24984760284E+00  0.82264007574E-01  0.47177791953E-01  0.97532606632E+00  0.93800000000E+00 0.  1.
         22    1    1    2    0    0  0.21304089293E+00 -0.65777819224E-01  0.36945078065E+01  0.37012296708E+01  0.00000000000E+00 0.  1.
</event>
<event>
 5    1  0.1461556E+002  0.1562107E+01  0.7818608E-02  0.3395547E+00
         11   -1    0    0    0    0  0.00000000000E+00  0.00000000000E+00  0.39999999674E+01  0.40000000000E+01  0.51100000000E-03 0. -1.
    9000002   -1    0    0    0    0 -0.00000000000E+00 -0.00000000000E+00  0.00000000000E+00  0.93800000000E+00  0.93800000000E+00 0. -1.
         11    1    1    2    0    0 -0.18272323571E+00  0.33984887586E-01  0.21180130963E+01  0.21261520385E+01  0.51100000000E-03 0. -1.
    9000002    1    1    2    0    0 -0.90569730643E-01 -0.11421262203E+00  0.42254879496E-01  0.95019833402E+00  0.93800000000E+00 0. -1.
         22    1    1    2    0    0  0.27329296635E+00  0.80227734441E-01  0.18397319915E+01  0.18616496275E+01  0.00000000000E+00 0. -1.
</event>
<event>
 5    1  0.1461556E+002  0.1599677E+01  0.7818608E-02  0.3353714E+00
         11   -1    0    0    0    0  0.00000000000E+00  0.00000000000E+00  0.39999999674E+01  0.40000000000E+01  0.51100000000E-03 0.  1.
    9000002   -1    0    0    0    0 -0.00000000000E+00 -0.00000000000E+00  0.00000000000E+00  0.93800000000E+00  0.93800000000E+00 0.  1.
         11    1    1    2    0    0  0.80926435032E-01  0.22881748549E-01  0.95716557334E+00  0.96085319285E+00  0.51100000000E-03 0.  1.
    9000002    1    1    2    0    0 -0.33197923058E+00 -0.95321344272E-01  0.79949294433E-01  0.10027623138E+01  0.93800000000E+00 0.  1.
         22    1    1    2    0    0  0.25105279555E+00  0.72439595723E-01  0.29628850996E+01  0.29743844934E+01  0.00000000000E+00 0.  1.
</event>
<event>
 5    1  0.1461556E+002  0.1599677E+01  0.7818608E-02  0.3353715E+00
         11   -1    0    0    0    0  0.00000000000E+00  0.00000000000E+00  0.39999999674E+01  0.40000000000E+01  0.51100000000E-03 0. -1.
    9000002   -1    0    0    0    0 -0.00000000000E+00 -0.00000000000E+00  0.00000000000E+00  0.93800000000E+00  0.93800000000E+00 0.  1.
         11    1    1    2    0    0 -0.10143306080E+00 -0.57096311507E-01  0.11486793320E+01  0.11545618751E+01  0.51100000000E-03 0. -1.
    9000002    1    1    2    0    0  0.34241492559E+00  0.19543960091E+00  0.10477435242E+00  0.10228715871E+01  0.93800000000E+00 0.  1.
         22    1    1    2    0    0 -0.24098186479E+00 -0.13834328941E+00  0.27465462829E+01  0.27605665377E+01  0.00000000000E+00 0. -1.
</event>
<event>
 5    1  0.1461556E+002  0.1599673E+01  0.7818608E-02  0.3353718E+00
         11   -1    0    0    0    0  0.00000000000E+00  0.00000000000E+00  0.39999999674E+01  0.40000000000E+01  0.51100000000E-03 0. -1.
    9000002   -1    0    0    0    0 -0.00000000000E+00 -0.00000000000E+00  0.00000000000E+00  0.93800000000E+00  0.93800000000E+00 0.  1.
         11    1    1    2    0    0 -0.27344847964E-01 -0.90932555785E-01  0.11551809176E+01  0.11590770828E+01  0.51100000000E-03 0. -1.
    9000002    1    1    2    0    0  0.85577877734E-01  0.30981894442E+00  0.69066381624E-01  0.99394442327E+00  0.93800000000E+00 0.  1.
         22    1    1    2    0    0 -0.58233029771E-01 -0.21888638863E+00  0.27757526682E+01  0.27849784940E+01  0.00000000000E+00 0. -1.
</event>
<event>
 5    1  0.1461556E+002  0.1244197E+01  0.7818608E-02  0.3894602E+00
         11   -1    0    0    0    0  0.00000000000E+00  0.00000000000E+00  0.39999999674E+01  0.40000000000E+01  0.51100000000E-03 0.  1.
    9000002   -1    0    0    0    0 -0.00000000000E+00 -0.00000000000E+00  0.00000000000E+00  0.93800000000E+00  0.93800000000E+00 0.  1.
         11    1    1    2    0    0  0.37885194355E+00  0.43405631407E+00  0.24927741386E+01  0.25584872182E+01  0.51100000000E-03 0.  1.
    9000002    1    1    2    0    0 -0.19096871247E+00 -0.78790265903E+00  0.15405766191E+01  0.19774933549E+01  0.93800000000E+00 0.  1.
         22    1    1    2    0    0 -0.18788323108E+00  0.35384634496E+00 -0.33350790324E-01  0.40201942687E+00  0.00000000000E+00 0.  1.
</event>
<event>
 5    1  0.1461556E+002  0.1599675E+01  0.7818608E-02  0.3353716E+00
         11   -1    0    0    0    0  0.00000000000E+00  0.00000000000E+00  0.39999999674E+01  0.40000000000E+01  0.51100000000E-03 0. -1.
    9000002   -1    0    0    0    0 -0.00000000000E+00 -0.00000000000E+00  0.00000000000E+00  0.93800000000E+00  0.93800000000E+00 0. -1.
         11    1    1    2    0    0 -0.83888835343E-01  0.64362878565E-01  0.10014888603E+01  0.10070551699E+01  0.51100000000E-03 0. -1.
    9000002    1    1    2    0    0  0.32331286018E+00 -0.24528207604E+00  0.11117494559E+00  0.10280556264E+01  0.93800000000E+00 0. -1.
         22    1    1    2    0    0 -0.23942402484E+00  0.18091919748E+00  0.28873361615E+01  0.29028892037E+01  0.00000000000E+00 0. -1.
</event>
<event>
 5    1  0.1461556E+002  0.1577544E+01  0.7818608E-02  0.3378103E+00
         11   -1    0    0    0    0  0.00000000000E+00  0.00000000000E+00  0.39999999674E+01  0.40000000000E+01  0.51100000000E-03 0.  1.
    9000002   -1    0    0    0    0 -0.00000000000E+00 -0.00000000000E+00  0.00000000000E+00  0.93800000000E+00  0.93800000000E+00 0. -1.
         11    1    1    2    0    0  0.28288598615E-01  0.12528658159E+00  0.14761091147E+01  0.14816866578E+01  0.51100000000E-03 0.  1.
    9000002    1    1    2    0    0 -0.20345652315E+00  0.11028633729E+00  0.52504436188E-01  0.96755276281E+00  0.93800000000E+00 0. -1.
         22    1    1    2    0    0  0.17516792453E+00 -0.23557291889E+00  0.24713864165E+01  0.24887605794E+01  0.00000000000E+00 0.  1.
</event>
<event>
 5    1  0.1461556E+002  0.1599676E+01  0.7818608E-02  0.3353715E+00
         11   -1    0    0    0    0  0.00000000000E+00  0.00000000000E+00  0.39999999674E+01  0.40000000000E+01  0.51100000000E-03 0. -1.
    9000002   -1    0    0    0    0 -0.00000000000E+00 -0.00000000000E+00  0.00000000000E+00  0.93800000000E+00  0.93800000000E+00 0. -1.
         11    1    1    2    0    0 -0.40239151320E-01  0.33453482235E-01  0.62344753740E+00  0.62564000654E+00  0.51100000000E-03 0. -1.
    9000002    1    1    2    0    0  0.24913301341E+00 -0.21133528422E+00  0.71387191783E-01  0.99582628599E+00  0.93800000000E+00 0. -1.
         22    1    1    2    0    0 -0.20889386209E+00  0.17788180199E+00  0.33051652382E+01  0.33165337075E+01  0.00000000000E+00 0. -1.
</event>
<event>
 5    1  0.1461556E+002  0.1562896E+01  0.7818608E-02  0.3394646E+00
         11   -1    0    0    0    0  0.00000000000E+00  0.00000000000E+00  0.39999999674E+01  0.40000000000E+01  0.51100000000E-03 0.  1.
    9000002   -1    0    0    0    0 -0.00000000000E+00 -0.00000000000E+00  0.00000000000E+00  0.93800000000E+00  0.93800000000E+00 0. -1.
         11    1    1    2    0    0 -0.17064184823E+00 -0.12862746984E+00  0.12152898382E+01  0.12339340819E+01  0.51100000000E-03 0.  1.
    9000002    1    1    2    0    0  0.59510012784E-01 -0.65749933502E-01  0.32479359378E-01  0.94274249091E+00  0.93800000000E+00 0. -1.
         22    1    1    2    0    0  0.11113183545E+00  0.19437740334E+00  0.27522307697E+01  0.27613234272E+01  0.00000000000E+00 0.  1.
</event>
<event>
 5    1  0.1461556E+002  0.1552515E+01  0.7818608E-02  0.3406572E+00
         11   -1    0    0    0    0  0.00000000000E+00  0.00000000000E+00  0.39999999674E+01  0.40000000000E+01  0.51100000000E-03 0.  1.
    9000002   -1    0    0    0    0 -0.00000000000E+00 -0.00000000000E+00  0.00000000000E+00  0.93800000000E+00  0.93800000000E+00 0. -1.
         11    1    1    2    0    0 -0.40243013968E-01 -0.13312183375E+00  0.38614874654E+00  0.41042909055E+00  0.51100000000E-03 0.  1.
    9000002    1    1    2    0    0  0.26908645649E+00 -0.24114329126E+00  0.12693778175E+00  0.10131706709E+01  0.93800000000E+00 0. -1.
         22    1    1    2    0    0 -0.22884344252E+00  0.37426512501E+00  0.34869134391E+01  0.35144002385E+01  0.00000000000E+00 0.  1.
</event>
<event>
 5    1  0.1461556E+002  0.1577404E+01  0.7818608E-02  0.3378260E+00
         11   -1    0    0    0    0  0.00000000000E+00  0.00000000000E+00  0.39999999674E+01  0.40000000000E+01  0.51100000000E-03 0. -1.
    9000002   -1    0    0    0    0 -0.00000000000E+00 -0.00000000000E+00  0.00000000000E+00  0.93800000000E+00  0.93800000000E+00 0.  1.
         11    1    1    2    0    0  0.10683727237E+00  0.49328726216E-01  0.82796119859E+00  0.83628197008E+00  0.51100000000E-03 0. -1.
    9000002    1    1    2    0    0  0.18226936945E+00 -0.14627202205E+00  0.53338190620E-01  0.96814595493E+00  0.93800000000E+00 0.  1.
         22    1    1    2    0    0 -0.28910664182E+00  0.96943295836E-01  0.31187005782E+01  0.31335720750E+01  0.00000000000E+00 0. -1.
</event>
<event>
 5    1  0.1461556E+002  0.1599677E+01  0.7818608E-02  0.3353714E+00
         11   -1    0    0    0    0  0.00000000000E+00  0.00000000000E+00  0.39999999674E+01  0.40000000000E+01  0.51100000000E-03 0.  1.
    9000002   -1    0    0    0    0 -0.00000000000E+00 -0.00000000000E+00  0.00000000000E+00  0.93800000000E+00  0.93800000000E+00 0.  1.
         11    1    1    2    0    0  0.92010328923E-01 -0.25956758222E+00  0.20459018937E+01  0.20643536640E+01  0.51100000000E-03 0.  1.
    9000002    1    1    2    0    0 -0.17202346441E+00  0.48323856752E+00  0.18051321165E+00  0.10842235033E+01  0.93800000000E+00 0.  1.
         22    1    1    2    0    0  0.80013135485E-01 -0.22367098529E+00  0.17735848620E+01  0.17894228327E+01  0.00000000000E+00 0.  1.
</event>
<event>
 5    1  0.1461556E+002  0.1511662E+01  0.7818608E-02  0.3455202E+00
         11   -1    0    0    0    0  0.00000000000E+00  0.00000000000E+00  0.39999999674E+01  0.40000000000E+01  0.51100000000E-03 0.  1.
    9000002   -1    0    0    0    0 -0.00000000000E+00 -0.00000000000E+00  0.00000000000E+00  0.93800000000E+00  0.93800000000E+00 0. -1.
         11    1    1    2    0    0  0.74673843212E-01  0.32104731629E+00  0.11262682102E+01  0.11735109307E+01  0.51100000000E-03 0.  1.
    9000002    1    1    2    0    0 -0.62603060404E-01 -0.69116066814E-02  0.69485179380E-01  0.94267656364E+00  0.93800000000E+00 0. -1.
         22    1    1    2    0    0 -0.12070782808E-01 -0.31413570960E+00  0.28042465778E+01  0.28218125057E+01  0.00000000000E+00 0. -1.
</event>
<event>
 5    1  0.1461556E+002  0.1568733E+01  0.7818608E-02  0.3388015E+00
         11   -1    0    0    0    0  0.00000000000E+00  0.00000000000E+00  0.39999999674E+01  0.40000000000E+01  0.51100000000E-03 0.  1.
    9000002   -1    0    0    0    0 -0.00000000000E+00 -0.00000000000E+00  0.00000000000E+00  0.93800000000E+00  0.93800000000E+00 0. -1.
         11    1    1    2    0    0  0.35011542891E-02  0.23629119162E-01  0.32972170223E-02  0.24118999043E-01  0.51100000000E-03 0.  1.
    9000002    1    1    2    0    0 -0.76976824317E-01  0.33020919851E+00  0.10217294316E+00  0.10026199961E+01  0.93800000000E+00 0. -1.
         22    1    1    2    0    0  0.73475670028E-01 -0.35383831768E+00  0.38945298072E+01  0.39112610049E+01  0.00000000000E+00 0.  1.
</event>
<event>
 5    1  0.1461556E+002  0.1599472E+01  0.7818608E-02  0.3353937E+00
         11   -1    0    0    0    0  0.00000000000E+00  0.00000000000E+00  0.39999999674E+01  0.40000000000E+01  0.51100000000E-03 0.  1.
    9000002   -1    0    0    0    0 -0.00000000000E+00 -0.00000000000E+00  0.00000000000E+00  0.93800000000E+00  0.93800000000E+00 0. -1.
         11    1    1    2    0    0  0.15196077263E+00 -0.11735761442E-01  0.17356291234E+01  0.17423083882E+01  0.51100000000E-03 0.  1.
    9000002    1    1    2    0    0 -0.37118855108E+00  0.93577963570E-03  0.92775311488E-01  0.10130316256E+01  0.93800000000E+00 0. -1.
         22    1    1    2    0    0  0.21922777845E+00  0.10799981806E-01  0.21715955325E+01  0.21826599861E+01  0.00000000000E+00 0.  1.
</event>
<event>
 5    1  0.1461556E+002  0.1599671E+01  0.7818608E-02  0.3353720E+00
         11   -1    0    0    0    0  0.00000000000E+00  0.00000000000E+00  0.39999999674E+01  0.40000000000E+01  0.51100000000E-03 0. -1.
    9000002   -1    0    0    0    0 -0.00000000000E+00 -0.00000000000E+00  0.00000000000E+00  0.93800000000E+00  0.93800000000E+00 0. -1.
         11    1    1    2    0    0  0.17279485380E+00 -0.54695697319E-01  0.17663850943E+01  0.17756593827E+01  0.51100000000E-03 0. -1.
    9000002    1    1    2    0    0 -0.37519640481E+00  0.12300410767E+00  0.10509487069E+00  0.10231281858E+01  0.93800000000E+00 0. -1.
         22    1    1    2    0    0  0.20240155101E+00 -0.68308410351E-01  0.21285200024E+01  0.21392124315E+01  0.00000000000E+00 0.  1.
</event>
<event>
 5    1  0.1461556E+002  0.1596288E+01  0.7818608E-02  0.3357403E+00
         11   -1    0    0    0    0  0.00000000000E+00  0.00000000000E+00  0.39999999674E+01  0.40000000000E+01  0.51100000000E-03 0.  1.
    9000002   -1    0    0    0    0 -0.00000000000E+00 -0.00000000000E+00  0.00000000000E+00  0.93800000000E+00  0.93800000000E+00 0. -1.
         11    1    1    2    0    0 -0.56200855824E-01  0.28989987401E-01  0.18311355026E+01  0.18322271818E+01  0.51100000000E-03 0.  1.
    9000002    1    1    2    0    0  0.13713077748E+00 -0.21288922611E+00  0.45207690085E-01  0.97263271998E+00  0.93800000000E+00 0. -1.
         22    1    1    2    0    0 -0.80929921659E-01  0.18389923870E+00  0.21236567747E+01  0.21331400983E+01  0.00000000000E+00 0.  1.
</event>
<event>
 5    1  0.1461556E+002  0.1599672E+01  0.7818608E-02  0.3353719E+00
         11   -1    0    0    0    0  0.00000000000E+00  0.00000000000E+00  0.39999999674E+01  0.40000000000E+01  0.51100000000E-03 0. -1.
    9000002   -1    0    0    0    0 -0.00000000000E+00 -0.00000000000E+00  0.00000000000E+00  0.93800000000E+00  0.93800000000E+00 0.  1.
         11    1    1    2    0    0  0.33664804431E-01  0.70037219602E-01  0.84138230575E+00  0.84496329905E+00  0.51100000000E-03 0. -1.
    9000002    1    1    2    0    0 -0.14690667727E+00 -0.32706349669E+00  0.86281588163E-01  0.10078891879E+01  0.93800000000E+00 0.  1.
         22    1    1    2    0    0  0.11324187284E+00  0.25702627709E+00  0.30723360734E+01  0.30851475130E+01  0.00000000000E+00 0. -1.
</event>
<event>
 5    1  0.1461556E+002  0.1599455E+01  0.7818608E-02  0.3353956E+00
         11   -1    0    0    0    0  0.00000000000E+00  0.00000000000E+00  0.39999999674E+01  0.40000000000E+01  0.51100000000E-03 0. -1.
    9000002   -1    0    0    0    0 -0.00000000000E+00 -0.00000000000E+00  0.00000000000E+00  0.93800000000E+00  0.93800000000E+00 0. -1.
         11    1    1    2    0    0 -0.31259533257E-01  0.59313033916E-01  0.58147048381E+00  0.58532331158E+00  0.51100000000E-03 0. -1.
    9000002    1    1    2    0    0  0.26966689522E+00 -0.33583957923E+00  0.12583485070E+00  0.10398013594E+01  0.93800000000E+00 0. -1.
         22    1    1    2    0    0 -0.23840736196E+00  0.27652654531E+00  0.32926946328E+01  0.33128753290E+01  0.00000000000E+00 0. -1.
</event>
<event>
 5    1  0.1461556E+002  0.1599603E+01  0.7818608E-02  0.3353795E+00
         11   -1    0    0    0    0  0.00000000000E+00  0.00000000000E+00  0.39999999674E+01  0.40000000000E+01  0.51100000000E-03 0.  1.
    9000002   -1    0    0    0    0 -0.00000000000E+00 -0.00000000000E+00  0.00000000000E+00  0.93800000000E+00  0.93800000000E+00 0.  1.
         11    1    1    2    0    0  0.12921182938E-01 -0.35418472977E-01  0.43230405343E+00  0.43394525107E+00  0.51100000000E-03 0.  1.
    9000002    1    1    2    0    0 -0.14015126666E+00  0.26803393983E+00  0.61102831879E-01  0.98745234139E+00  0.93800000000E+00 0.  1.
         22    1    1    2    0    0  0.12723008373E+00 -0.23261546685E+00  0.35065930821E+01  0.35166024075E+01  0.00000000000E+00 0.  1.
</event>
<event>
 5    1  0.1461556E+002  0.1526597E+01  0.7818608E-02  0.3437100E+00
         11   -1    0    0    0    0  0.00000000000E+00  0.00000000000E+00  0.39999999674E+01  0.40000000000E+01  0.51100000000E-03 0.  1.
    9000002   -1    0    0    0    0 -0.00000000000E+00 -0.00000000000E+00  0.00000000000E+00  0.93800000000E+00  0.93800000000E+00 0. -1.
         11    1    1    2    0    0 -0.79472473651E-01  0.40378940369E+00  0.19321063593E+01  0.19754485570E+01  0.51100000000E-03 0.  1.
    9000002    1    1    2    0    0  0.23944670264E-01 -0.17324936182E+00  0.76652215047E-01  0.95723991281E+00  0.93800000000E+00 0. -1.
         22    1    1    2    0    0  0.55527803387E-01 -0.23054004187E+00  0.19912413930E+01  0.20053115302E+01  0.00000000000E+00 0.  1.
</event>
<event>
 5    1  0.1461556E+002  0.1599676E+01  0.7818608E-02  0.3353716E+00
         11   -1    0    0    0    0  0.00000000000E+00  0.00000000000E+00  0.39999999674E+01  0.40000000000E+01  0.51100000000E-03 0.  1.
    9000002   -1    0    0    0    0 -0.00000000000E+00 -0.00000000000E+00  0.00000000000E+00  0.93800000000E+00  0.93800000000E+00 0. -1.
         11    1    1    2    0    0 -0.84459896037E-01 -0.12771224250E+00  0.13871225972E+01  0.13955476529E+01  0.51100000000E-03 0. -1.
    9000002    1    1    2    0    0  0.23951382412E+00  0.35827798411E+00  0.12580142036E+00  0.10399038336E+01  0.93800000000E+00 0. -1.
         22    1    1    2    0    0 -0.15505392808E+00 -0.23056574161E+00  0.24870759498E+01  0.25025485134E+01  0.00000000000E+00 0.  1.
</event>
<event>
 5    1  0.1461556E+002  0.1596257E+01  0.7818608E-02  0.3357436E+00
         11   -1    0    0    0    0  0.00000000000E+00  0.00000000000E+00  0.39999999674E+01  0.40000000000E+01  0.51100000000E-03 0.  1.
    9000002   -1    0    0    0    0 -0.00000000000E+00 -0.00000000000E+00  0.00000000000E+00  0.93800000000E+00  0.93800000000E+00 0. -1.
         11    1    1    2    0    0 -0.80111409521E-01  0.16244167821E-01  0.18806981101E+01  0.18824737325E+01  0.51100000000E-03 0.  1.
    9000002    1    1    2    0    0  0.25836045854E+00 -0.15041169705E+00  0.62296414128E-01  0.98645762624E+00  0.93800000000E+00 0. -1.
         22    1    1    2    0    0 -0.17824904902E+00  0.13416752923E+00  0.20570054431E+01  0.20690686413E+01  0.00000000000E+00 0.  1.
</event>
<event>
 5    1  0.1461556E+002  0.1599677E+01  0.7818608E-02  0.3353715E+00
         11   -1    0    0    0    0  0.00000000000E+00  0.00000000000E+00  0.39999999674E+01  0.40000000000E+01  0.51100000000E-03 0. -1.
    9000002   -1    0    0    0    0 -0.00000000000E+00 -0.00000000000E+00  0.00000000000E+00  0.93800000000E+00  0.93800000000E+00 0.  1.
         11    1    1    2    0    0  0.39861906569E-02  0.72688760660E-01  0.10349672651E+01  0.10375244800E+01  0.51100000000E-03 0. -1.
    9000002    1    1    2    0    0 -0.17654268132E-01 -0.27625966490E+00  0.51016300956E-01  0.97932514447E+00  0.93800000000E+00 0.  1.
         22    1    1    2    0    0  0.13668077475E-01  0.20357090424E+00  0.29140164013E+01  0.29211503755E+01  0.00000000000E+00 0. -1.
</event>
<event>
 5    1  0.1461556E+002  0.1599551E+01  0.7818608E-02  0.3353851E+00
         11   -1    0    0    0    0  0.00000000000E+00  0.00000000000E+00  0.39999999674E+01  0.40000000000E+01  0.51100000000E-03 0. -1.
    9000002   -1    0    0    0    0 -0.00000000000E+00 -0.00000000000E+00  0.00000000000E+00  0.93800000000E+00  0.93800000000E+00 0. -1.
         11    1    1    2    0    0 -0.92676448606E-01  0.38878842962E-01  0.12476328212E+01  0.12516742412E+01  0.51100000000E-03 0. -1.
    9000002    1    1    2    0    0  0.27813265748E+00 -0.15966231909E+00  0.68849689440E-01  0.99369719282E+00  0.93800000000E+00 0. -1.
         22    1    1    2    0    0 -0.18545620887E+00  0.12078347612E+00  0.26835174567E+01  0.26926285659E+01  0.00000000000E+00 0. -1.
</event>
<event>
 5    1  0.1461556E+002  0.1599675E+01  0.7818608E-02  0.3353717E+00
         11   -1    0    0    0    0  0.00000000000E+00  0.00000000000E+00  0.39999999674E+01  0.40000000000E+01  0.51100000000E-03 0.  1.
    9000002   -1    0    0    0    0 -0.00000000000E+00 -0.00000000000E+00  0.00000000000E+00  0.93800000000E+00  0.93800000000E+00 0.  1.
         11    1    1    2    0    0 -0.68520730988E-01  0.38977531847E-01  0.77270875132E+00  0.77671964958E+00  0.51100000000E-03 0.  1.
    9000002    1    1    2    0    0  0.35035593290E+00 -0.20099206381E+00  0.11010352998E+00  0.10271873620E+01  0.93800000000E+00 0.  1.
         22    1    1    2    0    0 -0.28183520192E+00  0.16201453197E+00  0.31171876861E+01  0.31340929884E+01  0.00000000000E+00 0.  1.
</event>
<event>
 5    1  0.1461556E+002  0.1551328E+01  0.7818608E-02  0.3407946E+00
         11   -1    0    0    0    0  0.00000000000E+00  0.00000000000E+00  0.39999999674E+01  0.40000000000E+01  0.51100000000E-03 0. -1.
    9000002   -1    0    0    0    0 -0.00000000000E+00 -0.00000000000E+00  0.00000000000E+00  0.93800000000E+00  0.93800000000E+00 0.  1.
         11    1    1    2    0    0  0.13346159872E+00 -0.24624922758E-01  0.23019555163E+00  0.26722394778E+00  0.51100000000E-03 0. -1.
    9000002    1    1    2    0    0 -0.83186715612E-01  0.22973320723E+00  0.77451391636E-01  0.97238885957E+00  0.93800000000E+00 0.  1.
         22    1    1    2    0    0 -0.50274883106E-01 -0.20510828447E+00  0.36923530241E+01  0.36983871926E+01  0.00000000000E+00 0. -1.
</event>
<event>
 5    1  0.1461556E+002  0.1599674E+01  0.7818608E-02  0.3353718E+00
         11   -1    0    0    0    0  0.00000000000E+00  0.00000000000E+00  0.39999999674E+01  0.40000000000E+01  0.51100000000E-03 0.  1.
    9000002   -1    0    0    0    0 -0.00000000000E+00 -0.00000000000E+00  0.00000000000E+00  0.93800000000E+00  0.93800000000E+00 0. -1.
         11    1    1    2    0    0 -0.78214826585E-02  0.12685045711E+00  0.14786667005E+01  0.14841184879E+01  0.51100000000E-03 0.  1.
    9000002    1    1    2    0    0  0.22972888123E-01 -0.34162698808E+00  0.78546054147E-01  0.10016237992E+01  0.93800000000E+00 0.  1.
         22    1    1    2    0    0 -0.15151405465E-01  0.21477653097E+00  0.24427872128E+01  0.24522577128E+01  0.00000000000E+00 0.  1.
</event>
<event>
 5    1  0.1461556E+002  0.1599474E+01  0.7818608E-02  0.3353934E+00
         11   -1    0    0    0    0  0.00000000000E+00  0.00000000000E+00  0.39999999674E+01  0.40000000000E+01  0.51100000000E-03 0.  1.
    9000002   -1    0    0    0    0 -0.00000000000E+00 -0.00000000000E+00  0.00000000000E+00  0.93800000000E+00  0.93800000000E+00 0. -1.
         11    1    1    2    0    0 -0.35796794628E-02 -0.50684211169E-01  0.96228372619E+00  0.96362437400E+00  0.51100000000E-03 0.  1.
    9000002    1    1    2    0    0 -0.19411467710E-01  0.25830888916E+00  0.44761188448E-01  0.97413954405E+00  0.93800000000E+00 0. -1.
         22    1    1    2    0    0  0.22991147173E-01 -0.20762467799E+00  0.29929550527E+01  0.30002360819E+01  0.00000000000E+00 0.  1.
</event>
<event>
 5    1  0.1461556E+002  0.1599575E+01  0.7818608E-02  0.3353825E+00
         11   -1    0    0    0    0  0.00000000000E+00  0.00000000000E+00  0.39999999674E+01  0.40000000000E+01  0.51100000000E-03 0.  1.
    9000002   -1    0    0    0    0 -0.00000000000E+00 -0.00000000000E+00  0.00000000000E+00  0.93800000000E+00  0.93800000000E+00 0. -1.
         11    1    1    2    0    0  0.11848143725E-01  0.52000164780E-02  0.23771013024E+00  0.23806256703E+00  0.51100000000E-03 0.  1.
    9000002    1    1    2    0    0 -0.13813946227E+00 -0.16224730403E+00  0.30161781672E-01  0.96237229375E+00  0.93800000000E+00 0. -1.
         22    1    1    2    0    0  0.12629131854E+00  0.15704728755E+00  0.37321280554E+01  0.37375651392E+01  0.00000000000E+00 0.  1.
</event>
<event>
 5    1  0.1461556E+002  0.1591865E+01  0.7818608E-02  0.3362241E+00
         11   -1    0    0    0    0  0.00000000000E+00  0.00000000000E+00  0.39999999674E+01  0.40000000000E+01  0.51100000000E-03 0. -1.
    9000002   -1    0    0    0    0 -0.00000000000E+00 -0.00000000000E+00  0.00000000000E+00  0.93800000000E+00  0.93800000000E+00 0. -1.
         11    1    1    2    0    0  0.37577756031E-01 -0.24848371110E-02  0.37709253905E+00  0.37896874052E+00  0.51100000000E-03 0. -1.
    9000002    1    1    2    0    0  0.19661020200E+00 -0.25730891278E+00  0.76337839881E-01  0.99525620517E+00  0.93800000000E+00 0. -1.
         22    1    1    2    0    0 -0.23418795803E+00  0.25979374989E+00  0.35465695884E+01  0.35637750543E+01  0.00000000000E+00 0. -1.
</event>
<event>
 5    1  0.1461556E+002  0.1599676E+01  0.7818608E-02  0.3353716E+00
         11   -1    0    0    0    0  0.00000000000E+00  0.00000000000E+00  0.39999999674E+01  0.40000000000E+01  0.51100000000E-03 0.  1.
    9000002   -1    0    0    0    0 -0.00000000000E+00 -0.00000000000E+00  0.00000000000E+00  0.93800000000E+00  0.93800000000E+00 0.  1.
         11    1    1    2    0    0  0.82571421577E-02 -0.86598144811E-02  0.20439478683E+00  0.20474536085E+00  0.51100000000E-03 0.  1.
    9000002    1    1    2    0    0 -0.16781912218E+00  0.16405614999E+00  0.36547162041E-01  0.96760393404E+00  0.93800000000E+00 0.  1.
         22    1    1    2    0    0  0.15956198002E+00 -0.15539633551E+00  0.37590580185E+01  0.37656507051E+01  0.00000000000E+00 0.  1.
</event>
<event>
 5    1  0.1461556E+002  0.1599504E+01  0.7818608E-02  0.3353902E+00
         11   -1    0    0    0    0  0.00000000000E+00  0.00000000000E+00  0.39999999674E+01  0.40000000000E+01  0.51100000000E-03 0.  1.
    9000002   -1    0    0    0    0 -0.00000000000E+00 -0.00000000000E+00  0.00000000000E+00  0.93800000000E+00  0.93800000000E+00 0.  1.
         11    1    1    2    0    0 -0.28292522588E-01  0.15645332436E-01  0.26370026358E+00  0.26567524047E+00  0.51100000000E-03 0.  1.
    9000002    1    1    2    0    0  0.36185394940E+00 -0.12815666018E+00  0.99340481313E-01  0.10183687650E+01  0.93800000000E+00 0.  1.
         22    1    1    2    0    0 -0.33356142681E+00  0.11251132774E+00  0.36369592225E+01  0.36539559946E+01  0.00000000000E+00 0.  1.
</event>
<event>
 5    1  0.1461556E+002  0.1599645E+01  0.7818608E-02  0.3353749E+00
         11   -1    0    0    0    0  0.00000000000E+00  0.00000000000E+00  0.39999999674E+01  0.40000000000E+01  0.51100000000E-03 0. -1.
    9000002   -1    0    0    0    0 -0.00000000000E+00 -0.00000000000E+00  0.00000000000E+00  0.93800000000E+00  0.93800000000E+00 0.  1.
         11    1    1    2    0    0 -0.22066331845E-01 -0.19141604511E-01  0.35137520878E+00  0.35258775147E+00  0.51100000000E-03 0. -1.
    9000002    1    1    2    0    0  0.22714082933E+00  0.25255294910E+00  0.77299959104E-01  0.10005974376E+01  0.93800000000E+00 0.  1.
         22    1    1    2    0    0 -0.20507449748E+00 -0.23341134459E+00  0.35713247995E+01  0.35848148109E+01  0.00000000000E+00 0. -1.
</event>
<event>
 5    1  0.1461556E+002  0.1599627E+01  0.7818608E-02  0.3353768E+00
         11   -1    0    0    0    0  0.00000000000E+00  0.00000000000E+00  0.39999999674E+01  0.40000000000E+01  0.51100000000E-03 0.  1.
    9000002   -1    0    0    0    0 -0.00000000000E+00 -0.00000000000E+00  0.00000000000E+00  0.93800000000E+00  0.93800000000E+00 0.  1.
         11    1    1    2    0    0  0.22557908400E-01 -0.14510405974E+00  0.14719726241E+01  0.14792794580E+01  0.51100000000E-03 0.  1.
    9000002    1    1    2    0    0 -0.81378692693E-01  0.38196616764E+00  0.10279610800E+00  0.10212402678E+01  0.93800000000E+00 0.  1.
         22    1    1    2    0    0  0.58820784293E-01 -0.23686210790E+00  0.24252312352E+01  0.24374802742E+01  0.00000000000E+00 0.  1.
</event>
<event>
 5    1  0.1461556E+002  0.1542956E+01  0.7818608E-02  0.3417703E+00
         11   -1    0    0    0    0  0.00000000000E+00  0.00000000000E+00  0.39999999674E+01  0.40000000000E+01  0.51100000000E-03 0. -1.
    9000002   -1    0    0    0    0 -0.00000000000E+00 -0.00000000000E+00  0.00000000000E+00  0.93800000000E+00  0.93800000000E+00 0.  1.
         11    1    1    2    0    0  0.22842249562E+00 -0.11412615895E+00  0.24419752261E+01  0.24552891648E+01  0.51100000000E-03 0. -1.
    9000002    1    1    2    0    0  0.67132474574E-01  0.71930403923E-01  0.48980649056E-01  0.94441720449E+00  0.93800000000E+00 0.  1.
         22    1    1    2    0    0 -0.29555497019E+00  0.42195755024E-01  0.15090440922E+01  0.15382936307E+01  0.00000000000E+00 0. -1.
</event>
<event>
 5    1  0.1461556E+002  0.1599664E+01  0.7818608E-02  0.3353728E+00
         11   -1    0    0    0    0  0.00000000000E+00  0.00000000000E+00  0.39999999674E+01  0.40000000000E+01  0.51100000000E-03 0. -1.
    9000002   -1    0    0    0    0 -0.00000000000E+00 -0.00000000000E+00  0.00000000000E+00  0.93800000000E+00  0.93800000000E+00 0.  1.
         11    1    1    2    0    0  0.29788612059E-01  0.14498210292E-01  0.49518641651E+00  0.49629367085E+00  0.51100000000E-03 0. -1.
    9000002    1    1    2    0    0 -0.22217582765E+00 -0.99816433028E-01  0.39400056505E-01  0.96990813129E+00  0.93800000000E+00 0.  1.
         22    1    1    2    0    0  0.19238721559E+00  0.85318222736E-01  0.34654134943E+01  0.34717981979E+01  0.00000000000E+00 0. -1.
</event>
<event>
 5    1  0.1461556E+002  0.1599562E+01  0.7818608E-02  0.3353838E+00
         11   -1    0    0    0    0  0.00000000000E+00  0.00000000000E+00  0.39999999674E+01  0.40000000000E+01  0.51100000000E-03 0.  1.
    9000002   -1    0    0    0    0 -0.00000000000E+00 -0.00000000000E+00  0.00000000000E+00  0.93800000000E+00  0.93800000000E+00 0.  1.
         11    1    1    2    0    0  0.31378345354E-02  0.15558411475E-02  0.27013819318E-01  0.27244709622E-01  0.51100000000E-03 0.  1.
    9000002    1    1    2    0    0 -0.25899301250E+00 -0.99804632594E-03  0.44678659459E-01  0.97412450910E+00  0.93800000000E+00 0.  1.
         22    1    1    2    0    0  0.25585517797E+00 -0.55779482157E-03  0.39283074886E+01  0.39366307813E+01  0.00000000000E+00 0.  1.
</event>
<event>
 5    1  0.1461556E+002  0.1578249E+01  0.7818608E-02  0.3377314E+00
         11   -1    0    0    0    0  0.00000000000E+00  0.00000000000E+00  0.39999999674E+01  0.40000000000E+01  0.51100000000E-03 0.  1.
    9000002   -1    0    0    0    0 -0.00000000000E+00 -0.00000000000E+00  0.00000000000E+00  0.93800000000E+00  0.93800000000E+00 0.  1.
         11    1    1    2    0    0  0.13541873198E+00  0.69673353502E-01  0.63775380798E+00  0.65568497762E+00  0.51100000000E-03 0.  1.
    9000002    1    1    2    0    0 -0.23800293740E+00  0.10997790837E+00  0.62356736382E-01  0.97594718152E+00  0.93800000000E+00 0.  1.
         22    1    1    2    0    0  0.10258420541E+00 -0.17965126187E+00  0.32998894230E+01  0.33063678409E+01  0.00000000000E+00 0.  1.
</event>
<event>
 5    1  0.1461556E+002  0.1599496E+01  0.7818608E-02  0.3353910E+00
         11   -1    0    0    0    0  0.00000000000E+00  0.00000000000E+00  0.39999999674E+01  0.40000000000E+01  0.51100000000E-03 0. -1.
    9000002   -1    0    0    0    0 -0.00000000000E+00 -0.00000000000E+00  0.00000000000E+00  0.93800000000E+00  0.93800000000E+00 0.  1.
         11    1    1    2    0    0  0.21012044867E+00  0.56994523949E-01  0.13446537056E+01  0.13621647579E+01  0.51100000000E-03 0. -1.
    9000002    1    1    2    0    0 -0.58064036022E+00 -0.20140046099E+00  0.26454360890E+00  0.11521860503E+01  0.93800000000E+00 0.  1.
         22    1    1    2    0    0  0.37051991155E+00  0.14440593704E+00  0.23908026529E+01  0.24236491917E+01  0.00000000000E+00 0. -1.
</event>
<event>
 5    1  0.1461556E+002  0.1599661E+01  0.7818608E-02  0.3353732E+00
         11   -1    0    0    0    0  0.00000000000E+00  0.00000000000E+00  0.39999999674E+01  0.40000000000E+01  0.51100000000E-03 0.  1.
    9000002   -1    0    0    0    0 -0.00000000000E+00 -0.00000000000E+00  0.00000000000E+00  0.93800000000E+00  0.93800000000E+00 0. -1.
         11    1    1    2    0    0  0.19708230116E-01 -0.10509796188E+00  0.89701005442E+00  0.90336110984E+00  0.51100000000E-03 0.  1.
    9000002    1    1    2    0    0 -0.72061786940E-01  0.44054853265E+00  0.13528774185E+00  0.10475794404E+01  0.93800000000E+00 0. -1.
         22    1    1    2    0    0  0.52353556824E-01 -0.33545057078E+00  0.29677021711E+01  0.29870594498E+01  0.00000000000E+00 0.  1.
</event>
<event>
 5    1  0.1461556E+002  0.1599676E+01  0.7818608E-02  0.3353715E+00
         11   -1    0    0    0    0  0.00000000000E+00  0.00000000000E+00  0.39999999674E+01  0.40000000000E+01  0.51100000000E-03 0. -1.
    9000002   -1    0    0    0    0 -0.00000000000E+00 -0.00000000000E+00  0.00000000000E+00  0.93800000000E+00  0.93800000000E+00 0. -1.
         11    1    1    2    0    0 -0.49048897754E-02 -0.25620205182E-01  0.37093841165E+00  0.37185483622E+00  0.51100000000E-03 0. -1.
    9000002    1    1    2    0    0  0.56004947764E-01  0.26919360194E+00  0.50323334146E-01  0.97876360142E+00  0.93800000000E+00 0. -1.
         22    1    1    2    0    0 -0.51100057988E-01 -0.24357339676E+00  0.35787382216E+01  0.35873815624E+01  0.00000000000E+00 0. -1.
</event>
<event>
 5    1  0.1461556E+002  0.1591442E+01  0.7818608E-02  0.3362704E+00
         11   -1    0    0    0    0  0.00000000000E+00  0.00000000000E+00  0.39999999674E+01  0.40000000000E+01  0.51100000000E-03 0.  1.
    9000002   -1    0    0    0    0 -0.00000000000E+00 -0.00000000000E+00  0.00000000000E+00  0.93800000000E+00  0.93800000000E+00 0.  1.
         11    1    1    2    0    0 -0.41514223970E-01  0.76259594820E-01  0.49014379242E+00  0.49777520525E+00  0.51100000000E-03 0.  1.
    9000002    1    1    2    0    0  0.32998404978E+00 -0.30779751623E-01  0.80087231812E-01  0.99804550543E+00  0.93800000000E+00 0.  1.
         22    1    1    2    0    0 -0.28846982581E+00 -0.45479843197E-01  0.34297689431E+01  0.34421792893E+01  0.00000000000E+00 0.  1.
</event>
<event>
 5    1  0.1461556E+002  0.1599674E+01  0.7818608E-02  0.3353718E+00
         11   -1    0    0    0    0  0.00000000000E+00  0.00000000000E+00  0.39999999674E+01  0.40000000000E+01  0.51100000000E-03 0. -1.
    9000002   -1    0    0    0    0 -0.00000000000E+00 -0.00000000000E+00  0.00000000000E+00  0.93800000000E+00  0.93800000000E+00 0.  1.
         11    1    1    2    0    0  0.48122403408E-01  0.68722923372E-01  0.57795469108E+00  0.58401240738E+00  0.51100000000E-03 0. -1.
    9000002    1    1    2    0    0 -0.30742548446E+00 -0.44636290918E+00  0.20259124092E+00  0.11021059323E+01  0.93800000000E+00 0.  1.
         22    1    1    2    0    0  0.25930308105E+00  0.37763998581E+00  0.32194540354E+01  0.32518816603E+01  0.00000000000E+00 0. -1.
</event>
<event>
 5    1  0.1461556E+002  0.1599670E+01  0.7818608E-02  0.3353721E+00
         11   -1    0    0    0    0  0.00000000000E+00  0.00000000000E+00  0.39999999674E+01  0.40000000000E+01  0.51100000000E-03 0. -1.
    9000002   -1    0    0    0    0 -0.00000000000E+00 -0.00000000000E+00  0.00000000000E+00  0.93800000000E+00  0.93800000000E+00 0. -1.
         11    1    1    2    0    0  0.74467916271E-02 -0.26737858881E-01  0.37827792096E+00  0.37929515474E+00  0.51100000000E-03 0. -1.
    9000002    1    1    2    0    0 -0.96030260139E-01  0.28220345204E+00  0.59274837871E-01  0.98601120968E+00  0.93800000000E+00 0. -1.
         22    1    1    2    0    0  0.88583468512E-01 -0.25546559315E+00  0.35624472085E+01  0.35726936356E+01  0.00000000000E+00 0. -1.
</event>
<event>
 5    1  0.1461556E+002  0.1598969E+01  0.7818608E-02  0.3354483E+00
         11   -1    0    0    0    0  0.00000000000E+00  0.00000000000E+00  0.39999999674E+01  0.40000000000E+01  0.51100000000E-03 0. -1.
    9000002   -1    0    0    0    0 -0.00000000000E+00 -0.00000000000E+00  0.00000000000E+00  0.93800000000E+00  0.93800000000E+00 0. -1.
         11    1    1    2    0    0  0.82504121210E-02 -0.14791276560E-01  0.13184910376E+00  0.13293343615E+00  0.51100000000E-03 0. -1.
    9000002    1    1    2    0    0 -0.20113550430E+00  0.10220223902E+00  0.34288728612E-01  0.96536029836E+00  0.93800000000E+00 0. -1.
         22    1    1    2    0    0  0.19288509217E+00 -0.87410962459E-01  0.38338621350E+01  0.38397062655E+01  0.00000000000E+00 0. -1.
</event>
<event>
 5    1  0.1461556E+002  0.1583415E+01  0.7818608E-02  0.3371563E+00
         11   -1    0    0    0    0  0.00000000000E+00  0.00000000000E+00  0.39999999674E+01  0.40000000000E+01  0.51100000000E-03 0.  1.
    9000002   -1    0    0    0    0 -0.00000000000E+00 -0.00000000000E+00  0.00000000000E+00  0.93800000000E+00  0.93800000000E+00 0.  1.
         11    1    1    2    0    0  0.24041323797E-01  0.68535746423E-01  0.26099842148E+00  0.27091616955E+00  0.51100000000E-03 0.  1.
    9000002    1    1    2    0    0  0.22110416720E+00 -0.34711712375E-01  0.45608780721E-01  0.96540981796E+00  0.93800000000E+00 0.  1.
         22    1    1    2    0    0 -0.24514549100E+00 -0.33824034047E-01  0.36933927652E+01  0.37016740125E+01  0.00000000000E+00 0.  1.
</event>
<event>
 5    1  0.1461556E+002  0.1597297E+01  0.7818608E-02  0.3356303E+00
         11   -1    0    0    0    0  0.00000000000E+00  0.00000000000E+00  0.39999999674E+01  0.40000000000E+01  0.51100000000E-03 0. -1.
    9000002   -1    0    0    0    0 -0.00000000000E+00 -0.00000000000E+00  0.00000000000E+00  0.93800000000E+00  0.93800000000E+00 0.  1.
         11    1    1    2    0    0  0.14675952158E-01 -0.24826907760E+00  0.16643888969E+01  0.16828676656E+01  0.51100000000E-03 0. -1.
    9000002    1    1    2    0    0 -0.66524356872E-01  0.44415134133E+00  0.13902770070E+00  0.10492228579E+01  0.93800000000E+00 0.  1.
         22    1    1    2    0    0  0.51848404714E-01 -0.19588226373E+00  0.21965833697E+01  0.22059094765E+01  0.00000000000E+00 0. -1.
</event>
<event>
 5    1  0.1461556E+002  0.1599469E+01  0.7818608E-02  0.3353940E+00
         11   -1    0    0    0    0  0.00000000000E+00  0.00000000000E+00  0.39999999674E+01  0.40000000000E+01  0.51100000000E-03 0.  1.
    9000002   -1    0    0    0    0 -0.00000000000E+00 -0.00000000000E+00  0.00000000000E+00  0.93800000000E+00  0.93800000000E+00 0.  1.
         11    1    1    2    0    0  0.28233873856E-01 -0.38739236917E+00  0.24060152047E+01  0.24371662696E+01  0.51100000000E-03 0.  1.
    9000002    1    1    2    0    0 -0.68388574737E-01  0.60982993327E+00  0.26372238122E+00  0.11515046848E+01  0.93800000000E+00 0.  1.
         22    1    1    2    0    0  0.40154700881E-01 -0.22243756410E+00  0.13302623814E+01  0.13493290456E+01  0.00000000000E+00 0. -1.
</event>
<event>
 5    1  0.1461556E+002  0.1599366E+01  0.7818608E-02  0.3354052E+00
         11   -1    0    0    0    0  0.00000000000E+00  0.00000000000E+00  0.39999999674E+01  0.40000000000E+01  0.51100000000E-03 0. -1.
    9000002   -1    0    0    0    0 -0.00000000000E+00 -0.00000000000E+00  0.00000000000E+00  0.93800000000E+00  0.93800000000E+00 0.  1.
         11    1    1    2    0    0 -0.45643802940E+00 -0.90028269774E-01  0.25203111792E+01  0.25628908415E+01  0.51100000000E-03 0. -1.
    9000002    1    1    2    0    0  0.66914363578E+00  0.15891232750E+00  0.33729231355E+00  0.12110394039E+01  0.93800000000E+00 0.  1.
         22    1    1    2    0    0 -0.21270560637E+00 -0.68884057722E-01  0.11423964746E+01  0.11640697546E+01  0.00000000000E+00 0. -1.
</event>
<event>
 5    1  0.1461556E+002  0.1599218E+01  0.7818608E-02  0.3354212E+00
         11   -1    0    0    0    0  0.00000000000E+00  0.00000000000E+00  0.39999999674E+01  0.40000000000E+01  0.51100000000E-03 0.  1.
    9000002   -1    0    0    0    0 -0.00000000000E+00 -0.00000000000E+00  0.00000000000E+00  0.93800000000E+00  0.93800000000E+00 0.  1.
         11    1    1    2    0    0  0.77323275257E-01  0.12413321954E+00  0.19360321424E+01  0.19415480068E+01  0.51100000000E-03 0.  1.
    9000002    1    1    2    0    0 -0.18818806869E+00 -0.29292448151E+00  0.81631683703E-01  0.10038561814E+01  0.93800000000E+00 0.  1.
         22    1    1    2    0    0  0.11086479343E+00  0.16879126197E+00  0.19823361412E+01  0.19925958119E+01  0.00000000000E+00 0.  1.
</event>
<event>
 5    1  0.1461556E+002  0.1598209E+01  0.7818608E-02  0.3355310E+00
         11   -1    0    0    0    0  0.00000000000E+00  0.00000000000E+00  0.39999999674E+01  0.40000000000E+01  0.51100000000E-03 0. -1.
    9000002   -1    0    0    0    0 -0.00000000000E+00 -0.00000000000E+00  0.00000000000E+00  0.93800000000E+00  0.93800000000E+00 0. -1.
         11    1    1    2    0    0 -0.25133710739E-01  0.35571897203E-01  0.57873029573E+00  0.58036719377E+00  0.51100000000E-03 0. -1.
    9000002    1    1    2    0    0 -0.40781168238E-01 -0.30895216142E+00  0.66015200343E-01  0.99061422784E+00  0.93800000000E+00 0. -1.
         22    1    1    2    0    0  0.65914878977E-01  0.27338026421E+00  0.33552544713E+01  0.33670185784E+01  0.00000000000E+00 0. -1.
</event>
<event>
 5    1  0.1461556E+002  0.1599666E+01  0.7818608E-02  0.3353726E+00
         11   -1    0    0    0    0  0.00000000000E+00  0.00000000000E+00  0.39999999674E+01  0.40000000000E+01  0.51100000000E-03 0. -1.
    9000002   -1    0    0    0    0 -0.00000000000E+00 -0.00000000000E+00  0.00000000000E+00  0.93800000000E+00  0.93800000000E+00 0. -1.
         11    1    1    2    0    0  0.93261476809E-01  0.13982728075E+00  0.15623507978E+01  0.15713655361E+01  0.51100000000E-03 0. -1.
    9000002    1    1    2    0    0 -0.22850660634E+00 -0.33873048823E+00  0.11274875497E+00  0.10293249703E+01  0.93800000000E+00 0. -1.
         22    1    1    2    0    0  0.13524512953E+00  0.19890320748E+00  0.23249004146E+01  0.23373094936E+01  0.00000000000E+00 0. -1.
</event>
<event>
 5    1  0.1461556E+002  0.1599593E+01  0.7818608E-02  0.3353805E+00
         11   -1    0    0    0    0  0.00000000000E+00  0.00000000000E+00  0.39999999674E+01  0.40000000000E+01  0.51100000000E-03 0. -1.
    9000002   -1    0    0    0    0 -0.00000000000E+00 -0.00000000000E+00  0.00000000000E+00  0.93800000000E+00  0.93800000000E+00 0. -1.
         11    1    1    2    0    0  0.10169755763E+00  0.12522951287E+00  0.13917199392E+01  0.14010387126E+01  0.51100000000E-03 0. -1.
    9000002    1    1    2    0    0 -0.25563266555E+00 -0.35983319320E+00  0.13223041093E+00  0.10450630929E+01  0.93800000000E+00 0. -1.
         22    1    1    2    0    0  0.15393510792E+00  0.23460368033E+00  0.24760496173E+01  0.24918981944E+01  0.00000000000E+00 0. -1.
</event>
<event>
 5    1  0.1461556E+002  0.1490452E+01  0.7818608E-02  0.3481579E+00
         11   -1    0    0    0    0  0.00000000000E+00  0.00000000000E+00  0.39999999674E+01  0.40000000000E+01  0.51100000000E-03 0. -1.
    9000002   -1    0    0    0    0 -0.00000000000E+00 -0.00000000000E+00  0.00000000000E+00  0.93800000000E+00  0.93800000000E+00 0. -1.
         11    1    1    2    0    0  0.46466514975E-01  0.42020535351E+00  0.14702271605E+01  0.15298038569E+01  0.51100000000E-03 0. -1.
    9000002    1    1    2    0    0 -0.22662473987E+00 -0.93167977251E-01  0.12836739896E+00  0.97793723409E+00  0.93800000000E+00 0. -1.
         22    1    1    2    0    0  0.18015822490E+00 -0.32703737626E+00  0.24014054079E+01  0.24302589090E+01  0.00000000000E+00 0. -1.
</event>
<event>
 5    1  0.1461556E+002  0.1581763E+01  0.7818608E-02  0.3373398E+00
         11   -1    0    0    0    0  0.00000000000E+00  0.00000000000E+00  0.39999999674E+01  0.40000000000E+01  0.51100000000E-03 0. -1.
    9000002   -1    0    0    0    0 -0.00000000000E+00 -0.00000000000E+00  0.00000000000E+00  0.93800000000E+00  0.93800000000E+00 0.  1.
         11    1    1    2    0    0 -0.16351650501E-01  0.68428021296E-01  0.13191029425E+00  0.14950035927E+00  0.51100000000E-03 0. -1.
    9000002    1    1    2    0    0  0.11082214173E+00 -0.27838065866E+00  0.74042204038E-01  0.98747333442E+00  0.93800000000E+00 0.  1.
         22    1    1    2    0    0 -0.94470491229E-01  0.20995263737E+00  0.37940474691E+01  0.38010263063E+01  0.00000000000E+00 0. -1.
</event>
<event>
 5    1  0.1461556E+002  0.1599670E+01  0.7818608E-02  0.3353721E+00
         11   -1    0    0    0    0  0.00000000000E+00  0.00000000000E+00  0.39999999674E+01  0.40000000000E+01  0.51100000000E-03 0. -1.
    9000002   -1    0    0    0    0 -0.00000000000E+00 -0.00000000000E+00  0.00000000000E+00  0.93800000000E+00  0.93800000000E+00 0.  1.
         11    1    1    2    0    0 -0.18653065957E+00 -0.34367603612E-01  0.18980077853E+01  0.19074613059E+01  0.51100000000E-03 0. -1.
    9000002    1    1    2    0    0  0.38449237733E+00  0.64250905227E-01  0.10237562651E+00  0.10209247455E+01  0.93800000000E+00 0.  1.
         22    1    1    2    0    0 -0.19796171776E+00 -0.29883301615E-01  0.19996165555E+01  0.20096139486E+01  0.00000000000E+00 0. -1.
</event>
<event>
 5    1  0.1461556E+002  0.1593420E+01  0.7818608E-02  0.3360537E+00
         11   -1    0    0    0    0  0.00000000000E+00  0.00000000000E+00  0.39999999674E+01  0.40000000000E+01  0.51100000000E-03 0.  1.
    9000002   -1    0    0    0    0 -0.00000000000E+00 -0.00000000000E+00  0.00000000000E+00  0.93800000000E+00  0.93800000000E+00 0. -1.
         11    1    1    2    0    0  0.49634656947E-01 -0.32897434477E-01  0.28701076329E+00  0.29312331830E+00  0.51100000000E-03 0.  1.
    9000002    1    1    2    0    0 -0.34108841023E+00 -0.14318802099E+00  0.97083128576E-01  0.10129724808E+01  0.93800000000E+00 0. -1.
         22    1    1    2    0    0  0.29145375328E+00  0.17608545547E+00  0.36159060755E+01  0.36319042009E+01  0.00000000000E+00 0.  1.
</event>
<event>
 5    1  0.1461556E+002  0.1599677E+01  0.7818608E-02  0.3353714E+00
         11   -1    0    0    0    0  0.00000000000E+00  0.00000000000E+00  0.39999999674E+01  0.40000000000E+01  0.51100000000E-03 0. -1.
    9000002   -1    0    0    0    0 -0.00000000000E+00 -0.00000000000E+00  0.00000000000E+00  0.93800000000E+00  0.93800000000E+00 0. -1.
         11    1    1    2    0    0 -0.15904688213E+00 -0.35679182749E-01  0.16936192486E+01  0.17014450726E+01  0.51100000000E-03 0.  1.
    9000002    1    1    2    0    0  0.36722789389E+00  0.82254664756E-01  0.95246988120E-01  0.10151542467E+01  0.93800000000E+00 0. -1.
         22    1    1    2    0    0 -0.20818101175E+00 -0.46575482007E-01  0.22111337306E+01  0.22214006806E+01  0.00000000000E+00 0. -1.
</event>
<event>
 5    1  0.1461556E+002  0.1589169E+01  0.7818608E-02  0.3365204E+00
         11   -1    0    0    0    0  0.00000000000E+00  0.00000000000E+00  0.39999999674E+01  0.40000000000E+01  0.51100000000E-03 0. -1.
    9000002   -1    0    0    0    0 -0.00000000000E+00 -0.00000000000E+00  0.00000000000E+00  0.93800000000E+00  0.93800000000E+00 0. -1.
         11    1    1    2    0    0  0.96819157818E-01  0.84236157560E-01  0.33784109356E+00  0.36139527554E+00  0.51100000000E-03 0. -1.
    9000002    1    1    2    0    0 -0.61343716973E+00 -0.25122226476E+00  0.32237073045E+00  0.11929730405E+01  0.93800000000E+00 0. -1.
         22    1    1    2    0    0  0.51661801192E+00  0.16698610720E+00  0.33397881433E+01  0.33836316840E+01  0.00000000000E+00 0. -1.
</event>
<event>
 5    1  0.1461556E+002  0.1599671E+01  0.7818608E-02  0.3353720E+00
         11   -1    0    0    0    0  0.00000000000E+00  0.00000000000E+00  0.39999999674E+01  0.40000000000E+01  0.51100000000E-03 0. -1.
    9000002   -1    0    0    0    0 -0.00000000000E+00 -0.00000000000E+00  0.00000000000E+00  0.93800000000E+00  0.93800000000E+00 0.  1.
         11    1    1    2    0    0 -0.33476457499E-01 -0.20115028806E-01  0.52194778073E+00  0.52340714030E+00  0.51100000000E-03 0. -1.
    9000002    1    1    2    0    0  0.23899136855E+00  0.14986016438E+00  0.53004167504E-01  0.98093240587E+00  0.93800000000E+00 0.  1.
         22    1    1    2    0    0 -0.20551491105E+00 -0.12974513557E+00  0.34250480191E+01  0.34336604538E+01  0.00000000000E+00 0. -1.
</event>
<event>
 5    1  0.2109305E+002  0.1589916E+01  0.7818608E-02  0.3364381E+00
         11   -1    0    0    0    0  0.00000000000E+00  0.00000000000E+00  0.39999999674E+01  0.40000000000E+01  0.51100000000E-03 0. -1.
    9000002   -1    0    0    0    0 -0.00000000000E+00 -0.00000000000E+00  0.00000000000E+00  0.93800000000E+00  0.93800000000E+00 0. -1.
         11    1    1    2    0    0  0.56307092660E-01 -0.53688839909E-02  0.32867480443E+00  0.33350667428E+00  0.51100000000E-03 0. -1.
    9000002    1    1    2    0    0  0.86882000731E-01 -0.13428894641E+00  0.24157812400E-01  0.95184536721E+00  0.93800000000E+00 0. -1.
         22    1    1    2    0    0 -0.14318909339E+00  0.13965783040E+00  0.36471673505E+01  0.36526479585E+01  0.00000000000E+00 0. -1.
</event>
<event>
 5    1  0.1461556E+002  0.1572001E+01  0.7818608E-02  0.3384325E+00
         11   -1    0    0    0    0  0.00000000000E+00  0.00000000000E+00  0.39999999674E+01  0.40000000000E+01  0.51100000000E-03 0. -1.
    9000002   -1    0    0    0    0 -0.00000000000E+00 -0.00000000000E+00  0.00000000000E+00  0.93800000000E+00  0.93800000000E+00 0. -1.
         11    1    1    2    0    0 -0.93684183619E-01  0.88531346340E-01  0.65636124626E+00  0.66889825254E+00  0.51100000000E-03 0. -1.
    9000002    1    1    2    0    0 -0.13650991135E+00  0.28352498128E-01  0.33485652758E-01  0.94889625829E+00  0.93800000000E+00 0. -1.
         22    1    1    2    0    0  0.23019409497E+00 -0.11688384447E+00  0.33101530683E+01  0.33202054892E+01  0.00000000000E+00 0. -1.
</event>
<event>
 5    1  0.1461556E+002  0.1555324E+01  0.7818608E-02  0.3403328E+00
         11   -1    0    0    0    0  0.00000000000E+00  0.00000000000E+00  0.39999999674E+01  0.40000000000E+01  0.51100000000E-03 0.  1.
    9000002   -1    0    0    0    0 -0.00000000000E+00 -0.00000000000E+00  0.00000000000E+00  0.93800000000E+00  0.93800000000E+00 0. -1.
         11    1    1    2    0    0 -0.29559773403E+00  0.17983480415E-01  0.27923094394E+01  0.28079696744E+01  0.51100000000E-03 0.  1.
    9000002    1    1    2    0    0  0.92678496835E-01 -0.55477340438E-01  0.40848210622E-01  0.94508180354E+00  0.93800000000E+00 0. -1.
         22    1    1    2    0    0  0.20291923720E+00  0.37493860024E-01  0.11668423173E+01  0.11849485220E+01  0.00000000000E+00 0.  1.
</event>
<event>
 5    1  0.1461556E+002  0.1599667E+01  0.7818608E-02  0.3353724E+00
         11   -1    0    0    0    0  0.00000000000E+00  0.00000000000E+00  0.39999999674E+01  0.40000000000E+01  0.51100000000E-03 0. -1.
    9000002   -1    0    0    0    0 -0.00000000000E+00 -0.00000000000E+00  0.00000000000E+00  0.93800000000E+00  0.93800000000E+00 0.  1.
         11    1    1    2    0    0  0.13782470427E+00 -0.21568008817E+00  0.21428567288E+01  0.21580891481E+01  0.51100000000E-03 0. -1.
    9000002    1    1    2    0    0 -0.24821057029E+00  0.39442114933E+00  0.14786777033E+00  0.10577737980E+01  0.93800000000E+00 0.  1.
         22    1    1    2    0    0  0.11038586602E+00 -0.17874106116E+00  0.17092754682E+01  0.17221370539E+01  0.00000000000E+00 0. -1.
</event>
<event>
 5    1  0.1461556E+002  0.1599668E+01  0.7818608E-02  0.3353724E+00
         11   -1    0    0    0    0  0.00000000000E+00  0.00000000000E+00  0.39999999674E+01  0.40000000000E+01  0.51100000000E-03 0.  1.
    9000002   -1    0    0    0    0 -0.00000000000E+00 -0.00000000000E+00  0.00000000000E+00  0.93800000000E+00  0.93800000000E+00 0. -1.
         11    1    1    2    0    0  0.37056162994E-01  0.95251082928E-01  0.95523706932E+00  0.96068936069E+00  0.51100000000E-03 0.  1.
    9000002    1    1    2    0    0 -0.16043258814E+00 -0.39458022529E+00  0.12281124702E+00  0.10374771187E+01  0.93800000000E+00 0. -1.
         22    1    1    2    0    0  0.12337642515E+00  0.29932914236E+00  0.29219516510E+01  0.29398335206E+01  0.00000000000E+00 0.  1.
</event>
<event>
 5    1  0.1461556E+002  0.1464841E+01  0.7818608E-02  0.3514531E+00
         11   -1    0    0    0    0  0.00000000000E+00  0.00000000000E+00  0.39999999674E+01  0.40000000000E+01  0.51100000000E-03 0. -1.
    9000002   -1    0    0    0    0 -0.00000000000E+00 -0.00000000000E+00  0.00000000000E+00  0.93800000000E+00  0.93800000000E+00 0.  1.
         11    1    1    2    0    0 -0.15957728240E+00 -0.14352982434E+00  0.34834307991E+01  0.34900366922E+01  0.51100000000E-03 0. -1.
    9000002    1    1    2    0    0 -0.10149702196E+00  0.15194132219E-01  0.11280937145E+00  0.95031703205E+00  0.93800000000E+00 0.  1.
         22    1    1    2    0    0  0.26107430436E+00  0.12833569212E+00  0.40375979684E+00  0.49764627580E+00  0.00000000000E+00 0.  1.
</event>
<event>
 5    1  0.1461556E+002  0.1599674E+01  0.7818608E-02  0.3353717E+00
         11   -1    0    0    0    0  0.00000000000E+00  0.00000000000E+00  0.39999999674E+01  0.40000000000E+01  0.51100000000E-03 0.  1.
    9000002   -1    0    0    0    0 -0.00000000000E+00 -0.00000000000E+00  0.00000000000E+00  0.93800000000E+00  0.93800000000E+00 0.  1.
         11    1    1    2    0    0  0.13934711328E-01  0.10043434251E-01  0.26058453086E+00  0.26115054201E+00  0.51100000000E-03 0.  1.
    9000002    1    1    2    0    0 -0.19744928908E+00 -0.15573950182E+00  0.42017548593E-01  0.97203420134E+00  0.93800000000E+00 0.  1.
         22    1    1    2    0    0  0.18351457775E+00  0.14569606756E+00  0.36973978879E+01  0.37048152566E+01  0.00000000000E+00 0.  1.
</event>
<event>
 5    1  0.1461556E+002  0.1599374E+01  0.7818608E-02  0.3354043E+00
         11   -1    0    0    0    0  0.00000000000E+00  0.00000000000E+00  0.39999999674E+01  0.40000000000E+01  0.51100000000E-03 0.  1.
    9000002   -1    0    0    0    0 -0.00000000000E+00 -0.00000000000E+00  0.00000000000E+00  0.93800000000E+00  0.93800000000E+00 0. -1.
         11    1    1    2    0    0 -0.29530098509E+00  0.15214196837E+00  0.16198031850E+01  0.16535151858E+01  0.51100000000E-03 0.  1.
    9000002    1    1    2    0    0  0.63834057230E+00 -0.30223599870E+00  0.35744720411E+00  0.12273702738E+01  0.93800000000E+00 0. -1.
         22    1    1    2    0    0 -0.34303958721E+00  0.15009403033E+00  0.20227495782E+01  0.20571145404E+01  0.00000000000E+00 0.  1.
</event>
<event>
 5    1  0.1461556E+002  0.1593542E+01  0.7818608E-02  0.3360403E+00
         11   -1    0    0    0    0  0.00000000000E+00  0.00000000000E+00  0.39999999674E+01  0.40000000000E+01  0.51100000000E-03 0. -1.
    9000002   -1    0    0    0    0 -0.00000000000E+00 -0.00000000000E+00  0.00000000000E+00  0.93800000000E+00  0.93800000000E+00 0.  1.
         11    1    1    2    0    0  0.89059299833E-01  0.42661551647E-01  0.85561840129E+00  0.86129825067E+00  0.51100000000E-03 0. -1.
    9000002    1    1    2    0    0 -0.10264170443E+00 -0.38005809521E+00  0.10955216004E+00  0.10231447361E+01  0.93800000000E+00 0.  1.
         22    1    1    2    0    0  0.13582404599E-01  0.33739654356E+00  0.30348294060E+01  0.30535570132E+01  0.00000000000E+00 0. -1.
</event>
<event>
 5    1  0.1461556E+002  0.1599666E+01  0.7818608E-02  0.3353726E+00
         11   -1    0    0    0    0  0.00000000000E+00  0.00000000000E+00  0.39999999674E+01  0.40000000000E+01  0.51100000000E-03 0. -1.
    9000002   -1    0    0    0    0 -0.00000000000E+00 -0.00000000000E+00  0.00000000000E+00  0.93800000000E+00  0.93800000000E+00 0. -1.
         11    1    1    2    0    0 -0.55748822359E-01  0.16787414602E-01  0.53183946758E+00  0.53501703607E+00  0.51100000000E-03 0. -1.
    9000002    1    1    2    0    0  0.39670700507E+00 -0.13958131595E+00  0.11962895259E+00  0.10348982935E+01  0.93800000000E+00 0. -1.
         22    1    1    2    0    0 -0.34095818271E+00  0.12279390135E+00  0.33485315472E+01  0.33680846704E+01  0.00000000000E+00 0. -1.
</event>
<event>
 5    1  0.1461556E+002  0.1575469E+01  0.7818608E-02  0.3380426E+00
         11   -1    0    0    0    0  0.00000000000E+00  0.00000000000E+00  0.39999999674E+01  0.40000000000E+01  0.51100000000E-03 0.  1.
    9000002   -1    0    0    0    0 -0.00000000000E+00 -0.00000000000E+00  0.00000000000E+00  0.93800000000E+00  0.93800000000E+00 0. -1.
         11    1    1    2    0    0  0.15259460220E+00 -0.40097685169E-02  0.10007289117E+01  0.10123042066E+01  0.51100000000E-03 0.  1.
    9000002    1    1    2    0    0  0.24707619739E-01 -0.12402265042E+00  0.28530375281E-01  0.94691608213E+00  0.93800000000E+00 0. -1.
         22    1    1    2    0    0 -0.17730222194E+00  0.12803241893E+00  0.29707406804E+01  0.29787797112E+01  0.00000000000E+00 0.  1.
</event>
<event>
 5    1  0.1461556E+002  0.1597086E+01  0.7818608E-02  0.3356532E+00
         11   -1    0    0    0    0  0.00000000000E+00  0.00000000000E+00  0.39999999674E+01  0.40000000000E+01  0.51100000000E-03 0. -1.
    9000002   -1    0    0    0    0 -0.00000000000E+00 -0.00000000000E+00  0.00000000000E+00  0.93800000000E+00  0.93800000000E+00 0.  1.
         11    1    1    2    0    0  0.21502311837E-01 -0.25411023881E-01  0.12311829750E+01  0.12316330008E+01  0.51100000000E-03 0. -1.
    9000002    1    1    2    0    0 -0.16933163749E+00  0.23324873398E+00  0.57381323530E-01  0.98296225342E+00  0.93800000000E+00 0.  1.
         22    1    1    2    0    0  0.14782932565E+00 -0.20783771010E+00  0.27114356689E+01  0.27234047458E+01  0.00000000000E+00 0. -1.
</event>
<event>
 5    1  0.1461556E+002  0.1537857E+01  0.7818608E-02  0.3423702E+00
         11   -1    0    0    0    0  0.00000000000E+00  0.00000000000E+00  0.39999999674E+01  0.40000000000E+01  0.51100000000E-03 0. -1.
    9000002   -1    0    0    0    0 -0.00000000000E+00 -0.00000000000E+00  0.00000000000E+00  0.93800000000E+00  0.93800000000E+00 0. -1.
         11    1    1    2    0    0 -0.12616467105E+00  0.34091418408E+00  0.22413201928E+01  0.22706070715E+01  0.51100000000E-03 0. -1.
    9000002    1    1    2    0    0  0.17738411439E+00 -0.80262505049E-01  0.72845569758E-01  0.96075890357E+00  0.93800000000E+00 0. -1.
         22    1    1    2    0    0 -0.51219443340E-01 -0.26065167903E+00  0.16858342048E+01  0.17066340249E+01  0.00000000000E+00 0.  1.
</event>
<event>
 5    1  0.1461556E+002  0.1599677E+01  0.7818608E-02  0.3353714E+00
         11   -1    0    0    0    0  0.00000000000E+00  0.00000000000E+00  0.39999999674E+01  0.40000000000E+01  0.51100000000E-03 0. -1.
    9000002   -1    0    0    0    0 -0.00000000000E+00 -0.00000000000E+00  0.00000000000E+00  0.93800000000E+00  0.93800000000E+00 0. -1.
         11    1    1    2    0    0  0.10648984999E+00  0.21890129271E-01  0.11877308496E+01  0.11926961466E+01  0.51100000000E-03 0. -1.
    9000002    1    1    2    0    0 -0.34985360672E+00 -0.72131869067E-01  0.85626453808E-01  0.10073611280E+01  0.93800000000E+00 0. -1.
         22    1    1    2    0    0  0.24336375673E+00  0.50241739795E-01  0.27266426640E+01  0.27379427254E+01  0.00000000000E+00 0. -1.
</event>
<event>
 5    1  0.1461556E+002  0.1599649E+01  0.7818608E-02  0.3353745E+00
         11   -1    0    0    0    0  0.00000000000E+00  0.00000000000E+00  0.39999999674E+01  0.40000000000E+01  0.51100000000E-03 0.  1.
    9000002   -1    0    0    0    0 -0.00000000000E+00 -0.00000000000E+00  0.00000000000E+00  0.93800000000E+00  0.93800000000E+00 0. -1.
         11    1    1    2    0    0 -0.12484421601E+00 -0.58495415643E-01  0.13219315082E+01  0.13291015632E+01  0.51100000000E-03 0.  1.
    9000002    1    1    2    0    0  0.38108367267E+00  0.16112662542E+00  0.11570055549E+00  0.10317059530E+01  0.93800000000E+00 0. -1.
         22    1    1    2    0    0 -0.25623945666E+00 -0.10263120977E+00  0.25623679037E+01  0.25771924837E+01  0.00000000000E+00 0. -1.
</event>
<event>
 5    1  0.1461556E+002  0.1526966E+01  0.7818608E-02  0.3436658E+00
         11   -1    0    0    0    0  0.00000000000E+00  0.00000000000E+00  0.39999999674E+01  0.40000000000E+01  0.51100000000E-03 0. -1.
    9000002   -1    0    0    0    0 -0.00000000000E+00 -0.00000000000E+00  0.00000000000E+00  0.93800000000E+00  0.93800000000E+00 0. -1.
         11    1    1    2    0    0 -0.30995433558E-01  0.99364133476E-01  0.65046010049E-01  0.12274034572E+00  0.51100000000E-03 0. -1.
    9000002    1    1    2    0    0 -0.11494281419E+00 -0.25405080896E+00  0.11037671343E+00  0.98477443252E+00  0.93800000000E+00 0. -1.
         22    1    1    2    0    0  0.14593824775E+00  0.15468667549E+00  0.38245772439E+01  0.38304852218E+01  0.00000000000E+00 0. -1.
</event>
<event>
 5    1  0.1596706E+002  0.1577612E+01  0.7818608E-02  0.3378027E+00
         11   -1    0    0    0    0  0.00000000000E+00  0.00000000000E+00  0.39999999674E+01  0.40000000000E+01  0.51100000000E-03 0.  1.
    9000002   -1    0    0    0    0 -0.00000000000E+00 -0.00000000000E+00  0.00000000000E+00  0.93800000000E+00  0.93800000000E+00 0.  1.
         11    1    1    2    0    0  0.93743224244E-01 -0.39715970534E-01  0.46469380770E+00  0.47571603551E+00  0.51100000000E-03 0.  1.
    9000002    1    1    2    0    0  0.11507384443E+00 -0.21303959343E-01  0.25370506474E-01  0.94561277009E+00  0.93800000000E+00 0.  1.
         22    1    1    2    0    0 -0.20881706868E+00  0.61019929877E-01  0.35099356532E+01  0.35166711944E+01  0.00000000000E+00 0.  1.
</event>
<event>
 5    1  0.1461556E+002  0.1586653E+01  0.7818608E-02  0.3367978E+00
         11   -1    0    0    0    0  0.00000000000E+00  0.00000000000E+00  0.39999999674E+01  0.40000000000E+01  0.51100000000E-03 0. -1.
    9000002   -1    0    0    0    0 -0.00000000000E+00 -0.00000000000E+00  0.00000000000E+00  0.93800000000E+00  0.93800000000E+00 0. -1.
         11    1    1    2    0    0 -0.10397240907E+00  0.10253190270E-01  0.27476852767E+00  0.29396155306E+00  0.51100000000E-03 0. -1.
    9000002    1    1    2    0    0  0.45284529595E+00  0.23433252871E-01  0.15109119864E+00  0.10527537840E+01  0.93800000000E+00 0. -1.
         22    1    1    2    0    0 -0.34887288687E+00 -0.33686443141E-01  0.35741402411E+01  0.35912846629E+01  0.00000000000E+00 0. -1.
</event>
<event>
 5    1  0.1461556E+002  0.1596466E+01  0.7818608E-02  0.3357209E+00
         11   -1    0    0    0    0  0.00000000000E+00  0.00000000000E+00  0.39999999674E+01  0.40000000000E+01  0.51100000000E-03 0.  1.
    9000002   -1    0    0    0    0 -0.00000000000E+00 -0.00000000000E+00  0.00000000000E+00  0.93800000000E+00  0.93800000000E+00 0.  1.
         11    1    1    2    0    0 -0.10398958367E+00 -0.37936600940E+00  0.20050715480E+01  0.20432925822E+01  0.51100000000E-03 0.  1.
    9000002    1    1    2    0    0  0.30189813806E+00  0.70700240725E+00  0.43489089759E+00  0.12883978355E+01  0.93800000000E+00 0.  1.
         22    1    1    2    0    0 -0.19790855439E+00 -0.32763639785E+00  0.15600375217E+01  0.16063095823E+01  0.00000000000E+00 0. -1.
</event>
<event>
 5    1  0.1461556E+002  0.1599677E+01  0.7818608E-02  0.3353714E+00
         11   -1    0    0    0    0  0.00000000000E+00  0.00000000000E+00  0.39999999674E+01  0.40000000000E+01  0.51100000000E-03 0.  1.
    9000002   -1    0    0    0    0 -0.00000000000E+00 -0.00000000000E+00  0.00000000000E+00  0.93800000000E+00  0.93800000000E+00 0.  1.
         11    1    1    2    0    0  0.28822478855E+00  0.32693068380E+00  0.24331486115E+01  0.24718757306E+01  0.51100000000E-03 0.  1.
    9000002    1    1    2    0    0 -0.43712999830E+00 -0.49563392628E+00  0.30899607331E+00  0.11883005502E+01  0.93800000000E+00 0.  1.
         22    1    1    2    0    0  0.14890520975E+00  0.16870324248E+00  0.12578552825E+01  0.12778237192E+01  0.00000000000E+00 0. -1.
</event>
<event>
 5    1  0.1461556E+002  0.1595101E+01  0.7818608E-02  0.3358697E+00
         11   -1    0    0    0    0  0.00000000000E+00  0.00000000000E+00  0.39999999674E+01  0.40000000000E+01  0.51100000000E-03 0.  1.
    9000002   -1    0    0    0    0 -0.00000000000E+00 -0.00000000000E+00  0.00000000000E+00  0.93800000000E+00  0.93800000000E+00 0. -1.
         11    1    1    2    0    0 -0.24712160131E-01 -0.54952047453E-01  0.46070948622E+00  0.46463309201E+00  0.51100000000E-03 0.  1.
    9000002    1    1    2    0    0 -0.19096368112E+00  0.27226865863E+00  0.77673158999E-01  0.99823567839E+00  0.93800000000E+00 0. -1.
         22    1    1    2    0    0  0.21567584125E+00 -0.21731661118E+00  0.34616173221E+01  0.34751312296E+01  0.00000000000E+00 0.  1.
</event>
<event>
 5    1  0.1461556E+002  0.1597131E+01  0.7818608E-02  0.3356483E+00
         11   -1    0    0    0    0  0.00000000000E+00  0.00000000000E+00  0.39999999674E+01  0.40000000000E+01  0.51100000000E-03 0.  1.
    9000002   -1    0    0    0    0 -0.00000000000E+00 -0.00000000000E+00  0.00000000000E+00  0.93800000000E+00  0.93800000000E+00 0. -1.
         11    1    1    2    0    0 -0.19705319172E+00 -0.20444971774E+00  0.14083980658E+01  0.14367376310E+01  0.51100000000E-03 0.  1.
    9000002    1    1    2    0    0  0.43403733442E+00  0.41347438146E+00  0.25322193174E+00  0.11416281437E+01  0.93800000000E+00 0. -1.
         22    1    1    2    0    0 -0.23698414270E+00 -0.20902466372E+00  0.23383799698E+01  0.23596342253E+01  0.00000000000E+00 0.  1.
</event>
<event>
 5    1  0.1461556E+002  0.1599673E+01  0.7818608E-02  0.3353718E+00
         11   -1    0    0    0    0  0.00000000000E+00  0.00000000000E+00  0.39999999674E+01  0.40000000000E+01  0.51100000000E-03 0.  1.
    9000002   -1    0    0    0    0 -0.00000000000E+00 -0.00000000000E+00  0.00000000000E+00  0.93800000000E+00  0.93800000000E+00 0.  1.
         11    1    1    2    0    0  0.25438391583E+00 -0.25165724138E+00  0.15309414940E+01  0.15722037600E+01  0.51100000000E-03 0.  1.
    9000002    1    1    2    0    0 -0.58032871729E+00  0.58064988499E+00  0.50006566138E+00  0.13430731085E+01  0.93800000000E+00 0.  1.
         22    1    1    2    0    0  0.32594480146E+00 -0.32899264361E+00  0.19689928119E+01  0.20227231315E+01  0.00000000000E+00 0.  1.
</event>
<event>
 5    1  0.1461556E+002  0.1599677E+01  0.7818608E-02  0.3353714E+00
         11   -1    0    0    0    0  0.00000000000E+00  0.00000000000E+00  0.39999999674E+01  0.40000000000E+01  0.51100000000E-03 0. -1.
    9000002   -1    0    0    0    0 -0.00000000000E+00 -0.00000000000E+00  0.00000000000E+00  0.93800000000E+00  0.93800000000E+00 0. -1.
         11    1    1    2    0    0 -0.43775339238E-01 -0.11070715278E+00  0.13722851095E+01  0.13774393042E+01  0.51100000000E-03 0. -1.
    9000002    1    1    2    0    0  0.12472325334E+00  0.31701722502E+00  0.77737817351E-01  0.10009710181E+01  0.93800000000E+00 0. -1.
         22    1    1    2    0    0 -0.80947914102E-01 -0.20631007224E+00  0.25499770405E+01  0.25595896776E+01  0.00000000000E+00 0. -1.
</event>
<event>
 5    1  0.1461556E+002  0.1599665E+01  0.7818608E-02  0.3353727E+00
         11   -1    0    0    0    0  0.00000000000E+00  0.00000000000E+00  0.39999999674E+01  0.40000000000E+01  0.51100000000E-03 0. -1.
    9000002   -1    0    0    0    0 -0.00000000000E+00 -0.00000000000E+00  0.00000000000E+00  0.93800000000E+00  0.93800000000E+00 0.  1.
         11    1    1    2    0    0 -0.33772316909E-03  0.41872374795E-02  0.59354907536E-01  0.59505572716E-01  0.51100000000E-03 0. -1.
    9000002    1    1    2    0    0  0.90876897756E-03 -0.22538908005E+00  0.33695365317E-01  0.96528775032E+00  0.93800000000E+00 0.  1.
         22    1    1    2    0    0 -0.57104580847E-03  0.22120184257E+00  0.39069496945E+01  0.39132066770E+01  0.00000000000E+00 0. -1.
</event>
<event>
 5    1  0.1461556E+002  0.1591044E+01  0.7818608E-02  0.3363141E+00
         11   -1    0    0    0    0  0.00000000000E+00  0.00000000000E+00  0.39999999674E+01  0.40000000000E+01  0.51100000000E-03 0.  1.
    9000002   -1    0    0    0    0 -0.00000000000E+00 -0.00000000000E+00  0.00000000000E+00  0.93800000000E+00  0.93800000000E+00 0. -1.
         11    1    1    2    0    0 -0.68381832414E-01 -0.23338347302E+00  0.17119309121E+01  0.17291187436E+01  0.51100000000E-03 0.  1.
    9000002    1    1    2    0    0 -0.93687006943E-01  0.49057719950E+00  0.17855516720E+00  0.10775756083E+01  0.93800000000E+00 0. -1.
         22    1    1    2    0    0  0.16206883936E+00 -0.25719372648E+00  0.21095138880E+01  0.21313056480E+01  0.00000000000E+00 0. -1.
</event>
<event>
 5    1  0.1461556E+002  0.1599675E+01  0.7818608E-02  0.3353717E+00
         11   -1    0    0    0    0  0.00000000000E+00  0.00000000000E+00  0.39999999674E+01  0.40000000000E+01  0.51100000000E-03 0. -1.
    9000002   -1    0    0    0    0 -0.00000000000E+00 -0.00000000000E+00  0.00000000000E+00  0.93800000000E+00  0.93800000000E+00 0.  1.
         11    1    1    2    0    0  0.74015801844E-01  0.80478051504E-03  0.61546865981E+00  0.61990395943E+00  0.51100000000E-03 0. -1.
    9000002    1    1    2    0    0 -0.46861006382E+00  0.12226522025E-02  0.14956913193E+00  0.10591561792E+01  0.93800000000E+00 0.  1.
         22    1    1    2    0    0  0.39459426197E+00 -0.20274327176E-02  0.32349621756E+01  0.32589398613E+01  0.00000000000E+00 0. -1.
</event>
<event>
 5    1  0.1461556E+002  0.1599666E+01  0.7818608E-02  0.3353726E+00
         11   -1    0    0    0    0  0.00000000000E+00  0.00000000000E+00  0.39999999674E+01  0.40000000000E+01  0.51100000000E-03 0. -1.
    9000002   -1    0    0    0    0 -0.00000000000E+00 -0.00000000000E+00  0.00000000000E+00  0.93800000000E+00  0.93800000000E+00 0. -1.
         11    1    1    2    0    0  0.32330460455E+00 -0.70875432078E+00  0.21518558362E+01  0.22885240562E+01  0.51100000000E-03 0. -1.
    9000002    1    1    2    0    0 -0.45265212831E+00  0.98407008091E+00  0.99699298218E+00  0.17456021540E+01  0.93800000000E+00 0. -1.
         22    1    1    2    0    0  0.12934752376E+00 -0.27531576013E+00  0.85115114895E+00  0.90387378988E+00  0.00000000000E+00 0. -1.
</event>
<event>
 5    1  0.1461556E+002  0.1599676E+01  0.7818608E-02  0.3353715E+00
         11   -1    0    0    0    0  0.00000000000E+00  0.00000000000E+00  0.39999999674E+01  0.40000000000E+01  0.51100000000E-03 0.  1.
    9000002   -1    0    0    0    0 -0.00000000000E+00 -0.00000000000E+00  0.00000000000E+00  0.93800000000E+00  0.93800000000E+00 0. -1.
         11    1    1    2    0    0 -0.97535008337E-01  0.11367062552E+00  0.99386222866E+00  0.10050853096E+01  0.51100000000E-03 0.  1.
    9000002    1    1    2    0    0  0.37454565880E+00 -0.43313810718E+00  0.22747892936E+00  0.11222672292E+01  0.93800000000E+00 0. -1.
         22    1    1    2    0    0 -0.27701065046E+00  0.31946748167E+00  0.27786588093E+01  0.28106474612E+01  0.00000000000E+00 0.  1.
</event>
<event>
 5    1  0.1461556E+002  0.1599636E+01  0.7818608E-02  0.3353758E+00
         11   -1    0    0    0    0  0.00000000000E+00  0.00000000000E+00  0.39999999674E+01  0.40000000000E+01  0.51100000000E-03 0.  1.
    9000002   -1    0    0    0    0 -0.00000000000E+00 -0.00000000000E+00  0.00000000000E+00  0.93800000000E+00  0.93800000000E+00 0.  1.
         11    1    1    2    0    0  0.63164654540E-01  0.40743837167E-01  0.54811401923E+00  0.55324413513E+00  0.51100000000E-03 0.  1.
    9000002    1    1    2    0    0 -0.41582777399E+00 -0.31234138574E+00  0.18582979549E+00  0.10885065878E+01  0.93800000000E+00 0.  1.
         22    1    1    2    0    0  0.35266311945E+00  0.27159754858E+00  0.32660561526E+01  0.32962492770E+01  0.00000000000E+00 0.  1.
</event>
<event>
 5    1  0.1623055E+002  0.1590283E+01  0.7818608E-02  0.3363978E+00
         11   -1    0    0    0    0  0.00000000000E+00  0.00000000000E+00  0.39999999674E+01  0.40000000000E+01  0.51100000000E-03 0. -1.
    9000002   -1    0    0    0    0 -0.00000000000E+00 -0.00000000000E+00  0.00000000000E+00  0.93800000000E+00  0.93800000000E+00 0. -1.
         11    1    1    2    0    0  0.67688609515E-01  0.39882792942E-02  0.12681326648E+01  0.12699442393E+01  0.51100000000E-03 0. -1.
    9000002    1    1    2    0    0  0.11410039488E+00 -0.11097292135E+00  0.23717718029E-01  0.95170395582E+00  0.93800000000E+00 0. -1.
         22    1    1    2    0    0 -0.18178900439E+00  0.10698464206E+00  0.27081495845E+01  0.27163518049E+01  0.00000000000E+00 0. -1.
</event>
<event>
 5    1  0.1461556E+002  0.1590561E+01  0.7818608E-02  0.3363673E+00
         11   -1    0    0    0    0  0.00000000000E+00  0.00000000000E+00  0.39999999674E+01  0.40000000000E+01  0.51100000000E-03 0.  1.
    9000002   -1    0    0    0    0 -0.00000000000E+00 -0.00000000000E+00  0.00000000000E+00  0.93800000000E+00  0.93800000000E+00 0. -1.
         11    1    1    2    0    0  0.12104053660E+00  0.14749711901E+00  0.67345150422E+00  0.69995957117E+00  0.51100000000E-03 0.  1.
    9000002    1    1    2    0    0 -0.57352401108E+00 -0.32262874560E+00  0.31590840997E+00  0.11885542572E+01  0.93800000000E+00 0. -1.
         22    1    1    2    0    0  0.45248347448E+00  0.17513162659E+00  0.30106400532E+01  0.30494861716E+01  0.00000000000E+00 0.  1.
</event>
<event>
 5    1  0.1461556E+002  0.1596616E+01  0.7818608E-02  0.3357044E+00
         11   -1    0    0    0    0  0.00000000000E+00  0.00000000000E+00  0.39999999674E+01  0.40000000000E+01  0.51100000000E-03 0. -1.
    9000002   -1    0    0    0    0 -0.00000000000E+00 -0.00000000000E+00  0.00000000000E+00  0.93800000000E+00  0.93800000000E+00 0. -1.
         11    1    1    2    0    0  0.47834048531E-02  0.92379063406E-02  0.25158011938E-01  0.27228781853E-01  0.51100000000E-03 0. -1.
    9000002    1    1    2    0    0  0.25858216761E+00 -0.94095326367E-01  0.52771288482E-01  0.97895223414E+00  0.93800000000E+00 0. -1.
         22    1    1    2    0    0 -0.26336557246E+00  0.84857420027E-01  0.39220706669E+01  0.39318189840E+01  0.00000000000E+00 0. -1.
</event>
<event>
 5    1  0.1461556E+002  0.1597678E+01  0.7818608E-02  0.3355888E+00
         11   -1    0    0    0    0  0.00000000000E+00  0.00000000000E+00  0.39999999674E+01  0.40000000000E+01  0.51100000000E-03 0. -1.
    9000002   -1    0    0    0    0 -0.00000000000E+00 -0.00000000000E+00  0.00000000000E+00  0.93800000000E+00  0.93800000000E+00 0.  1.
         11    1    1    2    0    0  0.13502920704E+00 -0.33102327078E-01  0.15930030585E+01  0.15990583656E+01  0.51100000000E-03 0. -1.
    9000002    1    1    2    0    0 -0.44203733127E+00  0.13745550662E+00  0.14757207376E+00  0.10563676138E+01  0.93800000000E+00 0.  1.
         22    1    1    2    0    0  0.30700812424E+00 -0.10435317955E+00  0.22594248351E+01  0.22825740206E+01  0.00000000000E+00 0. -1.
</event>
<event>
 5    1  0.1461556E+002  0.1587340E+01  0.7818608E-02  0.3367220E+00
         11   -1    0    0    0    0  0.00000000000E+00  0.00000000000E+00  0.39999999674E+01  0.40000000000E+01  0.51100000000E-03 0.  1.
    9000002   -1    0    0    0    0 -0.00000000000E+00 -0.00000000000E+00  0.00000000000E+00  0.93800000000E+00  0.93800000000E+00 0.  1.
         11    1    1    2    0    0 -0.20839739301E-01  0.16314385560E+00  0.19581320545E+01  0.19650271286E+01  0.51100000000E-03 0.  1.
    9000002    1    1    2    0    0 -0.20172473551E+00 -0.42190927049E+00  0.15982372769E+00  0.10602301285E+01  0.93800000000E+00 0.  1.
         22    1    1    2    0    0  0.22256447481E+00  0.25876541489E+00  0.18820441852E+01  0.19127427429E+01  0.00000000000E+00 0. -1.
</event>
<event>
 5    1  0.1461556E+002  0.1599629E+01  0.7818608E-02  0.3353766E+00
         11   -1    0    0    0    0  0.00000000000E+00  0.00000000000E+00  0.39999999674E+01  0.40000000000E+01  0.51100000000E-03 0. -1.
    9000002   -1    0    0    0    0 -0.00000000000E+00 -0.00000000000E+00  0.00000000000E+00  0.93800000000E+00  0.93800000000E+00 0. -1.
         11    1    1    2    0    0  0.72363873610E-02 -0.17358001004E-01  0.12083354868E+00  0.12228930087E+00  0.51100000000E-03 0.  1.
    9000002    1    1    2    0    0 -0.15206801730E+00  0.59180838216E+00  0.26116552944E+00  0.11495274146E+01  0.93800000000E+00 0. -1.
         22    1    1    2    0    0  0.14483162994E+00 -0.57445038115E+00  0.36180008892E+01  0.36661832846E+01  0.00000000000E+00 0. -1.
</event>
<event>
 5    1  0.1461556E+002  0.1570381E+01  0.7818608E-02  0.3386152E+00
         11   -1    0    0    0    0  0.00000000000E+00  0.00000000000E+00  0.39999999674E+01  0.40000000000E+01  0.51100000000E-03 0.  1.
    9000002   -1    0    0    0    0 -0.00000000000E+00 -0.00000000000E+00  0.00000000000E+00  0.93800000000E+00  0.93800000000E+00 0.  1.
         11    1    1    2    0    0 -0.27530458089E+00 -0.93690216072E-01  0.18987112784E+01  0.19208527400E+01  0.51100000000E-03 0.  1.
    9000002    1    1    2    0    0  0.20350504734E+00  0.40993019708E+00  0.16834005499E+00  0.10571846787E+01  0.93800000000E+00 0.  1.
         22    1    1    2    0    0  0.71799533548E-01 -0.31623998101E+00  0.19329486340E+01  0.19599625813E+01  0.00000000000E+00 0.  1.
</event>
<event>
 5    1  0.1461556E+002  0.1599151E+01  0.7818608E-02  0.3354286E+00
         11   -1    0    0    0    0  0.00000000000E+00  0.00000000000E+00  0.39999999674E+01  0.40000000000E+01  0.51100000000E-03 0.  1.
    9000002   -1    0    0    0    0 -0.00000000000E+00 -0.00000000000E+00  0.00000000000E+00  0.93800000000E+00  0.93800000000E+00 0.  1.
         11    1    1    2    0    0  0.14986602338E+00  0.37183185632E-02  0.12457707203E+01  0.12547583830E+01  0.51100000000E-03 0.  1.
    9000002    1    1    2    0    0 -0.52315566288E+00 -0.57619784706E-01  0.19098396910E+00  0.10923967977E+01  0.93800000000E+00 0.  1.
         22    1    1    2    0    0  0.37328963950E+00  0.53901466143E-01  0.25632452779E+01  0.25908448193E+01  0.00000000000E+00 0.  1.
</event>
<event>
 5    1  0.1461556E+002  0.1571755E+01  0.7818608E-02  0.3384602E+00
         11   -1    0    0    0    0  0.00000000000E+00  0.00000000000E+00  0.39999999674E+01  0.40000000000E+01  0.51100000000E-03 0.  1.
    9000002   -1    0    0    0    0 -0.00000000000E+00 -0.00000000000E+00  0.00000000000E+00  0.93800000000E+00  0.93800000000E+00 0. -1.
         11    1    1    2    0    0 -0.44837559439E-01 -0.14339711415E+00  0.11908385763E+01  0.12002790988E+01  0.51100000000E-03 0.  1.
    9000002    1    1    2    0    0 -0.74214417894E-01 -0.94144488870E-01  0.30226554279E-01  0.94611236605E+00  0.93800000000E+00 0. -1.
         22    1    1    2    0    0  0.11905197733E+00  0.23754160302E+00  0.27789348367E+01  0.27916085351E+01  0.00000000000E+00 0.  1.
</event>
<event>
 5    1  0.1461556E+002  0.1599301E+01  0.7818608E-02  0.3354122E+00
         11   -1    0    0    0    0  0.00000000000E+00  0.00000000000E+00  0.39999999674E+01  0.40000000000E+01  0.51100000000E-03 0. -1.
    9000002   -1    0    0    0    0 -0.00000000000E+00 -0.00000000000E+00  0.00000000000E+00  0.93800000000E+00  0.93800000000E+00 0.  1.
         11    1    1    2    0    0  0.30961571659E+00 -0.32638787184E+00  0.24995438982E+01  0.25397068522E+01  0.51100000000E-03 0. -1.
    9000002    1    1    2    0    0 -0.48636129505E+00  0.48071531898E+00  0.33319563063E+00  0.12076828456E+01  0.93800000000E+00 0.  1.
         22    1    1    2    0    0  0.17674557847E+00 -0.15432744714E+00  0.11672604385E+01  0.11906103023E+01  0.00000000000E+00 0. -1.
</event>
<event>
 5    1  0.1461556E+002  0.1599593E+01  0.7818608E-02  0.3353805E+00
         11   -1    0    0    0    0  0.00000000000E+00  0.00000000000E+00  0.39999999674E+01  0.40000000000E+01  0.51100000000E-03 0. -1.
    9000002   -1    0    0    0    0 -0.00000000000E+00 -0.00000000000E+00  0.00000000000E+00  0.93800000000E+00  0.93800000000E+00 0. -1.
         11    1    1    2    0    0  0.40453956136E-01 -0.58575720941E-01  0.85821204045E+00  0.86115957008E+00  0.51100000000E-03 0. -1.
    9000002    1    1    2    0    0 -0.16078627047E+00  0.23581548458E+00  0.54337122289E-01  0.98196623689E+00  0.93800000000E+00 0. -1.
         22    1    1    2    0    0  0.12033231434E+00 -0.17723976364E+00  0.30874508046E+01  0.30948741930E+01  0.00000000000E+00 0. -1.
</event>
<event>
 5    1  0.1461556E+002  0.1537960E+01  0.7818608E-02  0.3423581E+00
         11   -1    0    0    0    0  0.00000000000E+00  0.00000000000E+00  0.39999999674E+01  0.40000000000E+01  0.51100000000E-03 0. -1.
    9000002   -1    0    0    0    0 -0.00000000000E+00 -0.00000000000E+00  0.00000000000E+00  0.93800000000E+00  0.93800000000E+00 0.  1.
         11    1    1    2    0    0 -0.30085878809E+00 -0.17362527841E+00  0.21670670199E+01  0.21947303884E+01  0.51100000000E-03 0. -1.
    9000002    1    1    2    0    0  0.94747771037E-01  0.19316681709E-01  0.52623548521E-01  0.94443819923E+00  0.93800000000E+00 0.  1.
         22    1    1    2    0    0  0.20611101705E+00  0.15430859671E+00  0.17803093989E+01  0.17988314124E+01  0.00000000000E+00 0.  1.
</event>
<event>
 5    1  0.1461556E+002  0.1575598E+01  0.7818608E-02  0.3380281E+00
         11   -1    0    0    0    0  0.00000000000E+00  0.00000000000E+00  0.39999999674E+01  0.40000000000E+01  0.51100000000E-03 0.  1.
    9000002   -1    0    0    0    0 -0.00000000000E+00 -0.00000000000E+00  0.00000000000E+00  0.93800000000E+00  0.93800000000E+00 0. -1.
         11    1    1    2    0    0 -0.17096282139E-01 -0.11031360111E+00  0.53857685005E+00  0.55002423400E+00  0.51100000000E-03 0.  1.
    9000002    1    1    2    0    0  0.90576191473E-01 -0.13120068256E+00  0.34823300454E-01  0.95208945369E+00  0.93800000000E+00 0. -1.
         22    1    1    2    0    0 -0.73479909333E-01  0.24151428367E+00  0.34265998169E+01  0.34358863123E+01  0.00000000000E+00 0.  1.
</event>
<event>
 5    1  0.1461556E+002  0.1589549E+01  0.7818608E-02  0.3364785E+00
         11   -1    0    0    0    0  0.00000000000E+00  0.00000000000E+00  0.39999999674E+01  0.40000000000E+01  0.51100000000E-03 0.  1.
    9000002   -1    0    0    0    0 -0.00000000000E+00 -0.00000000000E+00  0.00000000000E+00  0.93800000000E+00  0.93800000000E+00 0.  1.
         11    1    1    2    0    0  0.28801152721E-01  0.63880146773E-01  0.26029692490E+00  0.26956433329E+00  0.51100000000E-03 0.  1.
    9000002    1    1    2    0    0 -0.24923005239E+00 -0.68175529275E-01  0.52188568289E-01  0.97433627073E+00  0.93800000000E+00 0.  1.
         22    1    1    2    0    0  0.22042889967E+00  0.42953825016E-02  0.36875144742E+01  0.36940993960E+01  0.00000000000E+00 0.  1.
</event>
<event>
 5    1  0.1461556E+002  0.1599674E+01  0.7818608E-02  0.3353717E+00
         11   -1    0    0    0    0  0.00000000000E+00  0.00000000000E+00  0.39999999674E+01  0.40000000000E+01  0.51100000000E-03 0. -1.
    9000002   -1    0    0    0    0 -0.00000000000E+00 -0.00000000000E+00  0.00000000000E+00  0.93800000000E+00  0.93800000000E+00 0. -1.
         11    1    1    2    0    0 -0.10403352553E+00 -0.78496443376E-01  0.13794206565E+01  0.13855635224E+01  0.51100000000E-03 0. -1.
    9000002    1    1    2    0    0  0.30026963008E+00  0.22309088399E+00  0.94087109964E-01  0.10142128857E+01  0.93800000000E+00 0. -1.
         22    1    1    2    0    0 -0.19623610455E+00 -0.14459444062E+00  0.25264922009E+01  0.25382235919E+01  0.00000000000E+00 0. -1.
</event>
<event>
 5    1  0.1461556E+002  0.1598678E+01  0.7818608E-02  0.3354800E+00
         11   -1    0    0    0    0  0.00000000000E+00  0.00000000000E+00  0.39999999674E+01  0.40000000000E+01  0.51100000000E-03 0. -1.
    9000002   -1    0    0    0    0 -0.00000000000E+00 -0.00000000000E+00  0.00000000000E+00  0.93800000000E+00  0.93800000000E+00 0. -1.
         11    1    1    2    0    0 -0.67784633182E-01  0.13579883111E+00  0.13592926756E+01  0.13677400769E+01  0.51100000000E-03 0. -1.
    9000002    1    1    2    0    0  0.10722292636E+00 -0.44369377642E+00  0.14251964999E+00  0.10528612320E+01  0.93800000000E+00 0. -1.
         22    1    1    2    0    0 -0.39438293176E-01  0.30789494531E+00  0.24981876418E+01  0.25173986911E+01  0.00000000000E+00 0. -1.
</event>
<event>
 5    1  0.2020205E+002  0.1569560E+01  0.7818608E-02  0.3387080E+00
         11   -1    0    0    0    0  0.00000000000E+00  0.00000000000E+00  0.39999999674E+01  0.40000000000E+01  0.51100000000E-03 0. -1.
    9000002   -1    0    0    0    0 -0.00000000000E+00 -0.00000000000E+00  0.00000000000E+00  0.93800000000E+00  0.93800000000E+00 0.  1.
         11    1    1    2    0    0  0.18994034328E+00  0.26751675510E-01  0.14714324381E+01  0.14838822956E+01  0.51100000000E-03 0. -1.
    9000002    1    1    2    0    0  0.31394526342E-01 -0.52817579925E-01  0.24682836189E-01  0.94033427856E+00  0.93800000000E+00 0.  1.
         22    1    1    2    0    0 -0.22133486962E+00  0.26065904415E-01  0.25038846930E+01  0.25137834258E+01  0.00000000000E+00 0. -1.
</event>
<event>
 5    1  0.1461556E+002  0.1599422E+01  0.7818608E-02  0.3353991E+00
         11   -1    0    0    0    0  0.00000000000E+00  0.00000000000E+00  0.39999999674E+01  0.40000000000E+01  0.51100000000E-03 0. -1.
    9000002   -1    0    0    0    0 -0.00000000000E+00 -0.00000000000E+00  0.00000000000E+00  0.93800000000E+00  0.93800000000E+00 0. -1.
         11    1    1    2    0    0  0.34877327029E+00  0.18083120844E+00  0.20780595835E+01  0.21148698811E+01  0.51100000000E-03 0. -1.
    9000002    1    1    2    0    0 -0.64323715537E+00 -0.31497749086E+00  0.36852829608E+00  0.12363745237E+01  0.93800000000E+00 0. -1.
         22    1    1    2    0    0  0.29446388508E+00  0.13414628241E+00  0.15534120878E+01  0.15867555953E+01  0.00000000000E+00 0. -1.
</event>
<event>
 5    1  0.1461556E+002  0.1567941E+01  0.7818608E-02  0.3388912E+00
         11   -1    0    0    0    0  0.00000000000E+00  0.00000000000E+00  0.39999999674E+01  0.40000000000E+01  0.51100000000E-03 0. -1.
    9000002   -1    0    0    0    0 -0.00000000000E+00 -0.00000000000E+00  0.00000000000E+00  0.93800000000E+00  0.93800000000E+00 0.  1.
         11    1    1    2    0    0 -0.16549602597E-01 -0.18014881102E+00  0.16412133340E+01  0.16511538245E+01  0.51100000000E-03 0. -1.
    9000002    1    1    2    0    0 -0.97720450377E-02 -0.72459663146E-01  0.26962453878E-01  0.94123157064E+00  0.93800000000E+00 0.  1.
         22    1    1    2    0    0  0.26321647635E-01  0.25260847417E+00  0.23318241795E+01  0.23456146048E+01  0.00000000000E+00 0. -1.
</event>
<event>
 5    1  0.1461556E+002  0.1598899E+01  0.7818608E-02  0.3354560E+00
         11   -1    0    0    0    0  0.00000000000E+00  0.00000000000E+00  0.39999999674E+01  0.40000000000E+01  0.51100000000E-03 0.  1.
    9000002   -1    0    0    0    0 -0.00000000000E+00 -0.00000000000E+00  0.00000000000E+00  0.93800000000E+00  0.93800000000E+00 0.  1.
         11    1    1    2    0    0 -0.57956123117E-01 -0.45181729326E-02  0.37901984890E+00  0.38345225658E+00  0.51100000000E-03 0.  1.
    9000002    1    1    2    0    0  0.38967238586E+00  0.50151449748E-01  0.10466935061E+00  0.10223303816E+01  0.93800000000E+00 0.  1.
         22    1    1    2    0    0 -0.33171626275E+00 -0.45633276816E-01  0.35163107679E+01  0.35322173618E+01  0.00000000000E+00 0.  1.
</event>
<event>
 5    1  0.1461556E+002  0.1596685E+01  0.7818608E-02  0.3356969E+00
         11   -1    0    0    0    0  0.00000000000E+00  0.00000000000E+00  0.39999999674E+01  0.40000000000E+01  0.51100000000E-03 0. -1.
    9000002   -1    0    0    0    0 -0.00000000000E+00 -0.00000000000E+00  0.00000000000E+00  0.93800000000E+00  0.93800000000E+00 0. -1.
         11    1    1    2    0    0  0.35790477452E+00  0.81738860173E-01  0.18423174529E+01  0.18785395730E+01  0.51100000000E-03 0. -1.
    9000002    1    1    2    0    0 -0.61882437992E+00 -0.25355738297E+00  0.32027363829E+00  0.11956814639E+01  0.93800000000E+00 0. -1.
         22    1    1    2    0    0  0.26091960540E+00  0.17181852280E+00  0.18374088762E+01  0.18637789632E+01  0.00000000000E+00 0. -1.
</event>
<event>
 5    1  0.1461556E+002  0.1599290E+01  0.7818608E-02  0.3354135E+00
         11   -1    0    0    0    0  0.00000000000E+00  0.00000000000E+00  0.39999999674E+01  0.40000000000E+01  0.51100000000E-03 0.  1.
    9000002   -1    0    0    0    0 -0.00000000000E+00 -0.00000000000E+00  0.00000000000E+00  0.93800000000E+00  0.93800000000E+00 0.  1.
         11    1    1    2    0    0  0.48554913913E-01  0.42292102947E-01  0.64308365572E+00  0.64629950566E+00  0.51100000000E-03 0.  1.
    9000002    1    1    2    0    0 -0.18992800718E+00 -0.26934371462E+00  0.72979555139E-01  0.99688951243E+00  0.93800000000E+00 0.  1.
         22    1    1    2    0    0  0.14137309327E+00  0.22705161168E+00  0.32839367565E+01  0.32948109819E+01  0.00000000000E+00 0. -1.
</event>
<event>
 5    1  0.1461556E+002  0.1599673E+01  0.7818608E-02  0.3353718E+00
         11   -1    0    0    0    0  0.00000000000E+00  0.00000000000E+00  0.39999999674E+01  0.40000000000E+01  0.51100000000E-03 0. -1.
    9000002   -1    0    0    0    0 -0.00000000000E+00 -0.00000000000E+00  0.00000000000E+00  0.93800000000E+00  0.93800000000E+00 0. -1.
         11    1    1    2    0    0 -0.82403583798E-02  0.22832723767E-02  0.15573976335E+00  0.15597516420E+00  0.51100000000E-03 0.  1.
    9000002    1    1    2    0    0  0.21009249434E+00 -0.37246287042E-01  0.30167463505E-01  0.96243452657E+00  0.93800000000E+00 0. -1.
         22    1    1    2    0    0 -0.20185213596E+00  0.34963014666E-01  0.38140927405E+01  0.38195903092E+01  0.00000000000E+00 0. -1.
</event>
<event>
 5    1  0.1461556E+002  0.1597386E+01  0.7818608E-02  0.3356206E+00
         11   -1    0    0    0    0  0.00000000000E+00  0.00000000000E+00  0.39999999674E+01  0.40000000000E+01  0.51100000000E-03 0. -1.
    9000002   -1    0    0    0    0 -0.00000000000E+00 -0.00000000000E+00  0.00000000000E+00  0.93800000000E+00  0.93800000000E+00 0.  1.
         11    1    1    2    0    0 -0.26238122160E-01  0.12160818518E-01  0.38892174804E+00  0.38999578432E+00  0.51100000000E-03 0. -1.
    9000002    1    1    2    0    0 -0.74684838664E-01 -0.19384809094E+00  0.30306778404E-01  0.96120622569E+00  0.93800000000E+00 0.  1.
         22    1    1    2    0    0  0.10092296082E+00  0.18168727242E+00  0.35807714409E+01  0.35867979900E+01  0.00000000000E+00 0. -1.
</event>
<event>
 5    1  0.1461556E+002  0.1599664E+01  0.7818608E-02  0.3353728E+00
         11   -1    0    0    0    0  0.00000000000E+00  0.00000000000E+00  0.39999999674E+01  0.40000000000E+01  0.51100000000E-03 0.  1.
    9000002   -1    0    0    0    0 -0.00000000000E+00 -0.00000000000E+00  0.00000000000E+00  0.93800000000E+00  0.93800000000E+00 0.  1.
         11    1    1    2    0    0  0.69380415519E-01 -0.33212759384E+00  0.23647348433E+01  0.23889523898E+01  0.51100000000E-03 0.  1.
    9000002    1    1    2    0    0 -0.10456098639E+00  0.53336584773E+00  0.20380482669E+00  0.11030831949E+01  0.93800000000E+00 0.  1.
         22    1    1    2    0    0  0.35180570868E-01 -0.20123825389E+00  0.14314602974E+01  0.14459644153E+01  0.00000000000E+00 0.  1.
</event>
<event>
 5    1  0.1461556E+002  0.1599673E+01  0.7818608E-02  0.3353718E+00
         11   -1    0    0    0    0  0.00000000000E+00  0.00000000000E+00  0.39999999674E+01  0.40000000000E+01  0.51100000000E-03 0.  1.
    9000002   -1    0    0    0    0 -0.00000000000E+00 -0.00000000000E+00  0.00000000000E+00  0.93800000000E+00  0.93800000000E+00 0.  1.
         11    1    1    2    0    0 -0.21102786397E-01  0.25104833338E-01  0.41624982888E+00  0.41754013150E+00  0.51100000000E-03 0. -1.
    9000002    1    1    2    0    0  0.20139573464E+00 -0.25008616437E+00  0.68924905386E-01  0.99382995232E+00  0.93800000000E+00 0.  1.
         22    1    1    2    0    0 -0.18029294824E+00  0.22498133104E+00  0.35148252331E+01  0.35266299162E+01  0.00000000000E+00 0.  1.
</event>
<event>
 5    1  0.1461556E+002  0.1568584E+01  0.7818608E-02  0.3388183E+00
         11   -1    0    0    0    0  0.00000000000E+00  0.00000000000E+00  0.39999999674E+01  0.40000000000E+01  0.51100000000E-03 0. -1.
    9000002   -1    0    0    0    0 -0.00000000000E+00 -0.00000000000E+00  0.00000000000E+00  0.93800000000E+00  0.93800000000E+00 0. -1.
         11    1    1    2    0    0 -0.14964390134E-01  0.13395926690E+00  0.36010269130E+00  0.38450387198E+00  0.51100000000E-03 0. -1.
    9000002    1    1    2    0    0  0.22835598011E+00 -0.10751632069E+00  0.66503697905E-01  0.97363902690E+00  0.93800000000E+00 0. -1.
         22    1    1    2    0    0 -0.21339158998E+00 -0.26442946216E-01  0.35733935782E+01  0.35798571011E+01  0.00000000000E+00 0. -1.
</event>
<event>
 5    1  0.1461556E+002  0.1581475E+01  0.7818608E-02  0.3373719E+00
         11   -1    0    0    0    0  0.00000000000E+00  0.00000000000E+00  0.39999999674E+01  0.40000000000E+01  0.51100000000E-03 0.  1.
    9000002   -1    0    0    0    0 -0.00000000000E+00 -0.00000000000E+00  0.00000000000E+00  0.93800000000E+00  0.93800000000E+00 0.  1.
         11    1    1    2    0    0 -0.15657422339E+00  0.26843381093E+00  0.19723744110E+01  0.19967056059E+01  0.51100000000E-03 0.  1.
    9000002    1    1    2    0    0  0.17762437109E-02 -0.43458726264E+00  0.14369297595E+00  0.10437245399E+01  0.93800000000E+00 0.  1.
         22    1    1    2    0    0  0.15479797968E+00  0.16615345172E+00  0.18839325804E+01  0.18975698542E+01  0.00000000000E+00 0.  1.
</event>
<event>
 5    1  0.1461556E+002  0.1599521E+01  0.7818608E-02  0.3353884E+00
         11   -1    0    0    0    0  0.00000000000E+00  0.00000000000E+00  0.39999999674E+01  0.40000000000E+01  0.51100000000E-03 0.  1.
    9000002   -1    0    0    0    0 -0.00000000000E+00 -0.00000000000E+00  0.00000000000E+00  0.93800000000E+00  0.93800000000E+00 0.  1.
         11    1    1    2    0    0  0.11246980227E-01  0.70853351359E-01  0.56474495353E+00  0.56928359858E+00  0.51100000000E-03 0.  1.
    9000002    1    1    2    0    0 -0.14604526472E+00 -0.49639340358E+00  0.18397196964E+00  0.10869339060E+01  0.93800000000E+00 0.  1.
         22    1    1    2    0    0  0.13479828450E+00  0.42554005222E+00  0.32512830442E+01  0.32817824954E+01  0.00000000000E+00 0.  1.
</event>
<event>
 5    1  0.1461556E+002  0.1599673E+01  0.7818608E-02  0.3353719E+00
         11   -1    0    0    0    0  0.00000000000E+00  0.00000000000E+00  0.39999999674E+01  0.40000000000E+01  0.51100000000E-03 0. -1.
    9000002   -1    0    0    0    0 -0.00000000000E+00 -0.00000000000E+00  0.00000000000E+00  0.93800000000E+00  0.93800000000E+00 0.  1.
         11    1    1    2    0    0 -0.26912161847E-01  0.43125397639E-01  0.64341450093E+00  0.64541966619E+00  0.51100000000E-03 0. -1.
    9000002    1    1    2    0    0  0.15504722408E+00 -0.26895245609E+00  0.64359941020E-01  0.99013194441E+00  0.93800000000E+00 0.  1.
         22    1    1    2    0    0 -0.12813506223E+00  0.22582705845E+00  0.32922255254E+01  0.33024483894E+01  0.00000000000E+00 0. -1.
</event>
<event>
 5    1  0.1461556E+002  0.1599337E+01  0.7818608E-02  0.3354084E+00
         11   -1    0    0    0    0  0.00000000000E+00  0.00000000000E+00  0.39999999674E+01  0.40000000000E+01  0.51100000000E-03 0.  1.
    9000002   -1    0    0    0    0 -0.00000000000E+00 -0.00000000000E+00  0.00000000000E+00  0.93800000000E+00  0.93800000000E+00 0. -1.
         11    1    1    2    0    0 -0.14479075528E-01  0.24389959125E-01  0.30395386875E+00  0.30527484204E+00  0.51100000000E-03 0.  1.
    9000002    1    1    2    0    0  0.39946853974E-01 -0.27544773820E+00  0.51842792837E-01  0.97979532699E+00  0.93800000000E+00 0. -1.
         22    1    1    2    0    0 -0.25467778446E-01  0.25105777908E+00  0.36442033058E+01  0.36529298310E+01  0.00000000000E+00 0.  1.
</event>
<event>
 5    1  0.1461556E+002  0.1599675E+01  0.7818608E-02  0.3353716E+00
         11   -1    0    0    0    0  0.00000000000E+00  0.00000000000E+00  0.39999999674E+01  0.40000000000E+01  0.51100000000E-03 0.  1.
    9000002   -1    0    0    0    0 -0.00000000000E+00 -0.00000000000E+00  0.00000000000E+00  0.93800000000E+00  0.93800000000E+00 0. -1.
         11    1    1    2    0    0  0.12468584800E+00  0.16800711304E+00  0.18908024439E+01  0.19023425280E+01  0.51100000000E-03 0.  1.
    9000002    1    1    2    0    0 -0.25854357643E+00 -0.34623878280E+00  0.12649721367E+00  0.10404670205E+01  0.93800000000E+00 0. -1.
         22    1    1    2    0    0  0.13385772843E+00  0.17823166975E+00  0.19827003098E+01  0.19951904516E+01  0.00000000000E+00 0.  1.
</event>
<event>
 5    1  0.1461556E+002  0.1599677E+01  0.7818608E-02  0.3353714E+00
         11   -1    0    0    0    0  0.00000000000E+00  0.00000000000E+00  0.39999999674E+01  0.40000000000E+01  0.51100000000E-03 0.  1.
    9000002   -1    0    0    0    0 -0.00000000000E+00 -0.00000000000E+00  0.00000000000E+00  0.93800000000E+00  0.93800000000E+00 0.  1.
         11    1    1    2    0    0 -0.61346660457E-01 -0.61399977806E-01  0.72332545814E+00  0.72851448135E+00  0.51100000000E-03 0.  1.
    9000002    1    1    2    0    0  0.32822292644E+00  0.32752054191E+00  0.14632513587E+00  0.10565297157E+01  0.93800000000E+00 0.  1.
         22    1    1    2    0    0 -0.26687626598E+00 -0.26612056410E+00  0.31303493733E+01  0.31529558029E+01  0.00000000000E+00 0.  1.
</event>
<event>
 5    1  0.1461556E+002  0.1599618E+01  0.7818608E-02  0.3353778E+00
         11   -1    0    0    0    0  0.00000000000E+00  0.00000000000E+00  0.39999999674E+01  0.40000000000E+01  0.51100000000E-03 0.  1.
    9000002   -1    0    0    0    0 -0.00000000000E+00 -0.00000000000E+00  0.00000000000E+00  0.93800000000E+00  0.93800000000E+00 0. -1.
         11    1    1    2    0    0 -0.16341740030E+00  0.57007253504E-01  0.14715933158E+01  0.14817362187E+01  0.51100000000E-03 0.  1.
    9000002    1    1    2    0    0  0.41449960146E+00 -0.16824273879E+00  0.13591321487E+00  0.10480610387E+01  0.93800000000E+00 0. -1.
         22    1    1    2    0    0 -0.25108220116E+00  0.11123548528E+00  0.23924934367E+01  0.24082027426E+01  0.00000000000E+00 0. -1.
</event>
<event>
 5    1  0.1903480E+002  0.1566031E+01  0.7818608E-02  0.3391078E+00
         11   -1    0    0    0    0  0.00000000000E+00  0.00000000000E+00  0.39999999674E+01  0.40000000000E+01  0.51100000000E-03 0.  1.
    9000002   -1    0    0    0    0 -0.00000000000E+00 -0.00000000000E+00  0.00000000000E+00  0.93800000000E+00  0.93800000000E+00 0. -1.
         11    1    1    2    0    0 -0.66252038727E-01 -0.17081964874E+00  0.10993481157E+01  0.11145112048E+01  0.51100000000E-03 0.  1.
    9000002    1    1    2    0    0  0.18736926260E-03 -0.55693230330E-01  0.26869104282E-01  0.94003602047E+00  0.93800000000E+00 0. -1.
         22    1    1    2    0    0  0.66064669464E-01  0.22651287907E+00  0.28737827473E+01  0.28834527747E+01  0.00000000000E+00 0.  1.
</event>
<event>
 5    1  0.1461556E+002  0.1572284E+01  0.7818608E-02  0.3384006E+00
         11   -1    0    0    0    0  0.00000000000E+00  0.00000000000E+00  0.39999999674E+01  0.40000000000E+01  0.51100000000E-03 0. -1.
    9000002   -1    0    0    0    0 -0.00000000000E+00 -0.00000000000E+00  0.00000000000E+00  0.93800000000E+00  0.93800000000E+00 0. -1.
         11    1    1    2    0    0  0.11995808498E+00 -0.84627882763E-01  0.22086014662E+01  0.22134752130E+01  0.51100000000E-03 0. -1.
    9000002    1    1    2    0    0  0.12030776236E+00  0.34582002000E-01  0.30710307600E-01  0.94681412935E+00  0.93800000000E+00 0. -1.
         22    1    1    2    0    0 -0.24026584734E+00  0.50045880763E-01  0.17606881935E+01  0.17777106577E+01  0.00000000000E+00 0. -1.
</event>
<event>
 5    1  0.1461556E+002  0.1597332E+01  0.7818608E-02  0.3356264E+00
         11   -1    0    0    0    0  0.00000000000E+00  0.00000000000E+00  0.39999999674E+01  0.40000000000E+01  0.51100000000E-03 0. -1.
    9000002   -1    0    0    0    0 -0.00000000000E+00 -0.00000000000E+00  0.00000000000E+00  0.93800000000E+00  0.93800000000E+00 0. -1.
         11    1    1    2    0    0  0.27253443881E-01  0.17691208133E-01  0.69291851785E+00  0.69368008660E+00  0.51100000000E-03 0. -1.
    9000002    1    1    2    0    0 -0.22019111283E+00  0.14345779814E+00  0.47729238871E-01  0.97528782739E+00  0.93800000000E+00 0. -1.
         22    1    1    2    0    0  0.19293766895E+00 -0.16114900628E+00  0.32593522106E+01  0.32690320860E+01  0.00000000000E+00 0. -1.
</event>
<event>
 5    1  0.1461556E+002  0.1598977E+01  0.7818608E-02  0.3354474E+00
         11   -1    0    0    0    0  0.00000000000E+00  0.00000000000E+00  0.39999999674E+01  0.40000000000E+01  0.51100000000E-03 0.  1.
    9000002   -1    0    0    0    0 -0.00000000000E+00 -0.00000000000E+00  0.00000000000E+00  0.93800000000E+00  0.93800000000E+00 0. -1.
         11    1    1    2    0    0 -0.52581243053E-01  0.10376425689E+00  0.13932059141E+01  0.13980539290E+01  0.51100000000E-03 0.  1.
    9000002    1    1    2    0    0  0.23115830178E+00 -0.27202701773E+00  0.86077646446E-01  0.10073163456E+01  0.93800000000E+00 0. -1.
         22    1    1    2    0    0 -0.17857705873E+00  0.16826276084E+00  0.25207164068E+01  0.25326297254E+01  0.00000000000E+00 0. -1.
</event>
<event>
 5    1  0.1461556E+002  0.1591925E+01  0.7818608E-02  0.3362174E+00
         11   -1    0    0    0    0  0.00000000000E+00  0.00000000000E+00  0.39999999674E+01  0.40000000000E+01  0.51100000000E-03 0. -1.
    9000002   -1    0    0    0    0 -0.00000000000E+00 -0.00000000000E+00  0.00000000000E+00  0.93800000000E+00  0.93800000000E+00 0. -1.
         11    1    1    2    0    0 -0.60829504701E-01  0.18440728498E-01  0.46326099302E+00  0.46760164444E+00  0.51100000000E-03 0. -1.
    9000002    1    1    2    0    0  0.58944904429E-01  0.19823034611E+00  0.34171955924E-01  0.96113552345E+00  0.93800000000E+00 0. -1.
         22    1    1    2    0    0  0.18846002719E-02 -0.21667107460E+00  0.35025670184E+01  0.35092628321E+01  0.00000000000E+00 0. -1.
</event>
<event>
 5    1  0.1461556E+002  0.1540253E+01  0.7818608E-02  0.3420878E+00
         11   -1    0    0    0    0  0.00000000000E+00  0.00000000000E+00  0.39999999674E+01  0.40000000000E+01  0.51100000000E-03 0.  1.
    9000002   -1    0    0    0    0 -0.00000000000E+00 -0.00000000000E+00  0.00000000000E+00  0.93800000000E+00  0.93800000000E+00 0. -1.
         11    1    1    2    0    0  0.36258691451E+00  0.28976069614E-01  0.25470995108E+01  0.25729409364E+01  0.51100000000E-03 0.  1.
    9000002    1    1    2    0    0 -0.12936557067E+00  0.59809065036E-03  0.56020198537E-01  0.94853469690E+00  0.93800000000E+00 0. -1.
         22    1    1    2    0    0 -0.23322134384E+00 -0.29574160264E-01  0.13968802581E+01  0.14165243667E+01  0.00000000000E+00 0.  1.
</event>
<event>
 5    1  0.1461556E+002  0.1599570E+01  0.7818608E-02  0.3353831E+00
         11   -1    0    0    0    0  0.00000000000E+00  0.00000000000E+00  0.39999999674E+01  0.40000000000E+01  0.51100000000E-03 0. -1.
    9000002   -1    0    0    0    0 -0.00000000000E+00 -0.00000000000E+00  0.00000000000E+00  0.93800000000E+00  0.93800000000E+00 0.  1.
         11    1    1    2    0    0  0.70076750304E-01  0.73772850651E-01  0.12347161842E+01  0.12389017318E+01  0.51100000000E-03 0. -1.
    9000002    1    1    2    0    0 -0.23705451263E+00 -0.20090093081E+00  0.64563794907E-01  0.99023659272E+00  0.93800000000E+00 0.  1.
         22    1    1    2    0    0  0.16697776233E+00  0.12712808015E+00  0.27007199883E+01  0.27088616755E+01  0.00000000000E+00 0. -1.
</event>
<event>
 5    1  0.1461556E+002  0.1598787E+01  0.7818608E-02  0.3354681E+00
         11   -1    0    0    0    0  0.00000000000E+00  0.00000000000E+00  0.39999999674E+01  0.40000000000E+01  0.51100000000E-03 0.  1.
    9000002   -1    0    0    0    0 -0.00000000000E+00 -0.00000000000E+00  0.00000000000E+00  0.93800000000E+00  0.93800000000E+00 0.  1.
         11    1    1    2    0    0 -0.23761263137E-02  0.16513300986E-01  0.19841383106E+00  0.19911465180E+00  0.51100000000E-03 0.  1.
    9000002    1    1    2    0    0  0.25399610647E+00 -0.94964721037E-01  0.49616574161E-01  0.97766974218E+00  0.93800000000E+00 0.  1.
         22    1    1    2    0    0 -0.25161998016E+00  0.78451420050E-01  0.37519695621E+01  0.37612156060E+01  0.00000000000E+00 0.  1.
</event>
<event>
 5    1  0.1461556E+002  0.1599372E+01  0.7818608E-02  0.3354045E+00
         11   -1    0    0    0    0  0.00000000000E+00  0.00000000000E+00  0.39999999674E+01  0.40000000000E+01  0.51100000000E-03 0. -1.
    9000002   -1    0    0    0    0 -0.00000000000E+00 -0.00000000000E+00  0.00000000000E+00  0.93800000000E+00  0.93800000000E+00 0. -1.
         11    1    1    2    0    0  0.22536945359E+00  0.13051444182E+00  0.20352293843E+01  0.20518246314E+01  0.51100000000E-03 0. -1.
    9000002    1    1    2    0    0 -0.46024707026E+00 -0.25398355047E+00  0.19029186585E+00  0.10919661184E+01  0.93800000000E+00 0. -1.
         22    1    1    2    0    0  0.23487761666E+00  0.12346910866E+00  0.17744787172E+01  0.17942092502E+01  0.00000000000E+00 0. -1.
</event>
<event>
 5    1  0.1461556E+002  0.1599677E+01  0.7818608E-02  0.3353715E+00
         11   -1    0    0    0    0  0.00000000000E+00  0.00000000000E+00  0.39999999674E+01  0.40000000000E+01  0.51100000000E-03 0.  1.
    9000002   -1    0    0    0    0 -0.00000000000E+00 -0.00000000000E+00  0.00000000000E+00  0.93800000000E+00  0.93800000000E+00 0. -1.
         11    1    1    2    0    0  0.39068291657E-01 -0.37386885253E-01  0.62931608563E+00  0.63163526449E+00  0.51100000000E-03 0.  1.
    9000002    1    1    2    0    0 -0.24315504257E+00  0.23616077895E+00  0.76947461925E-01  0.10003305454E+01  0.93800000000E+00 0. -1.
         22    1    1    2    0    0  0.20408675092E+00 -0.19877389370E+00  0.32937364198E+01  0.33060341901E+01  0.00000000000E+00 0.  1.
</event>
<event>
 5    1  0.1461556E+002  0.1599582E+01  0.7818608E-02  0.3353817E+00
         11   -1    0    0    0    0  0.00000000000E+00  0.00000000000E+00  0.39999999674E+01  0.40000000000E+01  0.51100000000E-03 0.  1.
    9000002   -1    0    0    0    0 -0.00000000000E+00 -0.00000000000E+00  0.00000000000E+00  0.93800000000E+00  0.93800000000E+00 0.  1.
         11    1    1    2    0    0 -0.17435745741E+00  0.21246195836E+00  0.20180825959E+01  0.20367126041E+01  0.51100000000E-03 0.  1.
    9000002    1    1    2    0    0  0.31552562502E+00 -0.41851113672E+00  0.18892688686E+00  0.10909836663E+01  0.93800000000E+00 0.  1.
         22    1    1    2    0    0 -0.14116816760E+00  0.20604917836E+00  0.17929904846E+01  0.18103037296E+01  0.00000000000E+00 0. -1.
</event>
<event>
 5    1  0.1461556E+002  0.1599468E+01  0.7818608E-02  0.3353941E+00
         11   -1    0    0    0    0  0.00000000000E+00  0.00000000000E+00  0.39999999674E+01  0.40000000000E+01  0.51100000000E-03 0. -1.
    9000002   -1    0    0    0    0 -0.00000000000E+00 -0.00000000000E+00  0.00000000000E+00  0.93800000000E+00  0.93800000000E+00 0. -1.
         11    1    1    2    0    0 -0.28427940655E+00 -0.10854636814E+00  0.14010713568E+01  0.14337357856E+01  0.51100000000E-03 0. -1.
    9000002    1    1    2    0    0  0.75574238367E+00  0.28527761439E+00  0.48222490090E+00  0.13285009307E+01  0.93800000000E+00 0. -1.
         22    1    1    2    0    0 -0.47146297712E+00 -0.17673124625E+00  0.21167037097E+01  0.21757632837E+01  0.00000000000E+00 0. -1.
</event>
<event>
 5    1  0.1461556E+002  0.1559928E+01  0.7818608E-02  0.3398038E+00
         11   -1    0    0    0    0  0.00000000000E+00  0.00000000000E+00  0.39999999674E+01  0.40000000000E+01  0.51100000000E-03 0.  1.
    9000002   -1    0    0    0    0 -0.00000000000E+00 -0.00000000000E+00  0.00000000000E+00  0.93800000000E+00  0.93800000000E+00 0. -1.
         11    1    1    2    0    0 -0.13361636913E+00 -0.63334690358E-02  0.39993042331E+00  0.42170849119E+00  0.51100000000E-03 0.  1.
    9000002    1    1    2    0    0 -0.11854158354E+00 -0.58375933989E-02  0.38997958594E-01  0.94628274067E+00  0.93800000000E+00 0. -1.
         22    1    1    2    0    0  0.25215795266E+00  0.12171062435E-01  0.35610715855E+01  0.35700087681E+01  0.00000000000E+00 0.  1.
</event>
<event>
 5    1  0.1461556E+002  0.1594086E+01  0.7818608E-02  0.3359807E+00
         11   -1    0    0    0    0  0.00000000000E+00  0.00000000000E+00  0.39999999674E+01  0.40000000000E+01  0.51100000000E-03 0.  1.
    9000002   -1    0    0    0    0 -0.00000000000E+00 -0.00000000000E+00  0.00000000000E+00  0.93800000000E+00  0.93800000000E+00 0.  1.
         11    1    1    2    0    0 -0.71385084812E-01  0.15578201518E+00  0.11090824199E+01  0.11222423721E+01  0.51100000000E-03 0.  1.
    9000002    1    1    2    0    0  0.17933194077E-01 -0.38103043264E+00  0.10252639889E+00  0.10177727902E+01  0.93800000000E+00 0.  1.
         22    1    1    2    0    0  0.53451890735E-01  0.22524841746E+00  0.27883911486E+01  0.27979848377E+01  0.00000000000E+00 0.  1.
</event>
<event>
 5    1  0.1461556E+002  0.1566243E+01  0.7818608E-02  0.3390838E+00
         11   -1    0    0    0    0  0.00000000000E+00  0.00000000000E+00  0.39999999674E+01  0.40000000000E+01  0.51100000000E-03 0. -1.
    9000002   -1    0    0    0    0 -0.00000000000E+00 -0.00000000000E+00  0.00000000000E+00  0.93800000000E+00  0.93800000000E+00 0.  1.
         11    1    1    2    0    0 -0.87442704205E-04  0.18928369453E+00  0.20058396002E+01  0.20147508748E+01  0.51100000000E-03 0. -1.
    9000002    1    1    2    0    0  0.96574752517E-02  0.60792399838E-01  0.27177911710E-01  0.94041034745E+00  0.93800000000E+00 0.  1.
         22    1    1    2    0    0 -0.95700325475E-02 -0.25007609437E+00  0.19669824554E+01  0.19828387777E+01  0.00000000000E+00 0. -1.
</event>
<event>
 5    1  0.1461556E+002  0.1595125E+01  0.7818608E-02  0.3358672E+00
         11   -1    0    0    0    0  0.00000000000E+00  0.00000000000E+00  0.39999999674E+01  0.40000000000E+01  0.51100000000E-03 0.  1.
    9000002   -1    0    0    0    0 -0.00000000000E+00 -0.00000000000E+00  0.00000000000E+00  0.93800000000E+00  0.93800000000E+00 0.  1.
         11    1    1    2    0    0  0.15728008383E+00 -0.70081714789E-01  0.11094989322E+01  0.11227807502E+01  0.51100000000E-03 0.  1.
    9000002    1    1    2    0    0 -0.29839648620E+00  0.30103832689E+00  0.12543578077E+00  0.10369390881E+01  0.93800000000E+00 0.  1.
         22    1    1    2    0    0  0.14111640237E+00 -0.23095661210E+00  0.27650652544E+01  0.27782801617E+01  0.00000000000E+00 0.  1.
</event>
<event>
 5    1  0.1461556E+002  0.1599648E+01  0.7818608E-02  0.3353745E+00
         11   -1    0    0    0    0  0.00000000000E+00  0.00000000000E+00  0.39999999674E+01  0.40000000000E+01  0.51100000000E-03 0.  1.
    9000002   -1    0    0    0    0 -0.00000000000E+00 -0.00000000000E+00  0.00000000000E+00  0.93800000000E+00  0.93800000000E+00 0. -1.
         11    1    1    2    0    0  0.63706724856E-02  0.98846096636E-02  0.24501890170E+00  0.24530147632E+00  0.51100000000E-03 0.  1.
    9000002    1    1    2    0    0 -0.10112333383E+00 -0.20974176045E+00  0.35992480199E-01  0.96713855954E+00  0.93800000000E+00 0. -1.
         22    1    1    2    0    0  0.94752661344E-01  0.19985715079E+00  0.37189885855E+01  0.37255599641E+01  0.00000000000E+00 0.  1.
</event>
<event>
 5    1  0.1461556E+002  0.1597039E+01  0.7818608E-02  0.3356583E+00
         11   -1    0    0    0    0  0.00000000000E+00  0.00000000000E+00  0.39999999674E+01  0.40000000000E+01  0.51100000000E-03 0. -1.
    9000002   -1    0    0    0    0 -0.00000000000E+00 -0.00000000000E+00  0.00000000000E+00  0.93800000000E+00  0.93800000000E+00 0. -1.
         11    1    1    2    0    0 -0.35620347137E-01 -0.88225477137E-01  0.54648397796E+00  0.55470491546E+00  0.51100000000E-03 0. -1.
    9000002    1    1    2    0    0  0.30462566495E+00  0.32237346776E+00  0.13575360679E+00  0.10464198441E+01  0.93800000000E+00 0. -1.
         22    1    1    2    0    0 -0.26900531781E+00 -0.23414799062E+00  0.33177623826E+01  0.33368752404E+01  0.00000000000E+00 0. -1.
</event>
<event>
 5    1  0.1461556E+002  0.1579929E+01  0.7818608E-02  0.3375440E+00
         11   -1    0    0    0    0  0.00000000000E+00  0.00000000000E+00  0.39999999674E+01  0.40000000000E+01  0.51100000000E-03 0. -1.
    9000002   -1    0    0    0    0 -0.00000000000E+00 -0.00000000000E+00  0.00000000000E+00  0.93800000000E+00  0.93800000000E+00 0. -1.
         11    1    1    2    0    0  0.84632069183E-01 -0.15882008483E-01  0.26644664224E+00  0.28001589171E+00  0.51100000000E-03 0. -1.
    9000002    1    1    2    0    0 -0.76642484276E-01 -0.24204586448E+00  0.58105781911E-01  0.97348885602E+00  0.93800000000E+00 0. -1.
         22    1    1    2    0    0 -0.79895849067E-02  0.25792787296E+00  0.36754475432E+01  0.36844952523E+01  0.00000000000E+00 0. -1.
</event>
<event>
 5    1  0.1461556E+002  0.1537049E+01  0.7818608E-02  0.3424657E+00
         11   -1    0    0    0    0  0.00000000000E+00  0.00000000000E+00  0.39999999674E+01  0.40000000000E+01  0.51100000000E-03 0.  1.
    9000002   -1    0    0    0    0 -0.00000000000E+00 -0.00000000000E+00  0.00000000000E+00  0.93800000000E+00  0.93800000000E+00 0. -1.
         11    1    1    2    0    0  0.15631671659E+00 -0.23841920680E-01  0.35470417919E+00  0.38835379350E+00  0.51100000000E-03 0.  1.
    9000002    1    1    2    0    0  0.16649198446E+00 -0.13685084936E+00  0.79559399706E-01  0.96572326986E+00  0.93800000000E+00 0. -1.
         22    1    1    2    0    0 -0.32280870105E+00  0.16069277004E+00  0.35657363885E+01  0.35839229366E+01  0.00000000000E+00 0.  1.
</event>
<event>
 5    1  0.1461556E+002  0.1599676E+01  0.7818608E-02  0.3353715E+00
         11   -1    0    0    0    0  0.00000000000E+00  0.00000000000E+00  0.39999999674E+01  0.40000000000E+01  0.51100000000E-03 0. -1.
    9000002   -1    0    0    0    0 -0.00000000000E+00 -0.00000000000E+00  0.00000000000E+00  0.93800000000E+00  0.93800000000E+00 0.  1.
         11    1    1    2    0    0  0.39950292584E-01 -0.28851966975E-01  0.67727570700E+00  0.67906634896E+00  0.51100000000E-03 0. -1.
    9000002    1    1    2    0    0 -0.23779126504E+00  0.16561060774E+00  0.55967150084E-01  0.98333508074E+00  0.93800000000E+00 0.  1.
         22    1    1    2    0    0  0.19784097246E+00 -0.13675864077E+00  0.32667571103E+01  0.32755985703E+01  0.00000000000E+00 0. -1.
</event>
<event>
 5    1  0.1461556E+002  0.1588677E+01  0.7818608E-02  0.3365745E+00
         11   -1    0    0    0    0  0.00000000000E+00  0.00000000000E+00  0.39999999674E+01  0.40000000000E+01  0.51100000000E-03 0. -1.
    9000002   -1    0    0    0    0 -0.00000000000E+00 -0.00000000000E+00  0.00000000000E+00  0.93800000000E+00  0.93800000000E+00 0. -1.
         11    1    1    2    0    0  0.52090166902E-01 -0.67034223957E-01  0.11691082251E+01  0.11721865362E+01  0.51100000000E-03 0. -1.
    9000002    1    1    2    0    0  0.20194533135E+00  0.13302992093E+00  0.47247100543E-01  0.96982223383E+00  0.93800000000E+00 0. -1.
         22    1    1    2    0    0 -0.25403549825E+00 -0.65995696977E-01  0.27836446417E+01  0.27959912299E+01  0.00000000000E+00 0. -1.
</event>
<event>
 5    1  0.1461556E+002  0.1598151E+01  0.7818608E-02  0.3355373E+00
         11   -1    0    0    0    0  0.00000000000E+00  0.00000000000E+00  0.39999999674E+01  0.40000000000E+01  0.51100000000E-03 0. -1.
    9000002   -1    0    0    0    0 -0.00000000000E+00 -0.00000000000E+00  0.00000000000E+00  0.93800000000E+00  0.93800000000E+00 0.  1.
         11    1    1    2    0    0 -0.13143083458E-01 -0.58870609627E-01  0.96525685793E+00  0.96713988245E+00  0.51100000000E-03 0. -1.
    9000002    1    1    2    0    0  0.21621653224E+00  0.21190352481E+00  0.62355345129E-01  0.98761575611E+00  0.93800000000E+00 0.  1.
         22    1    1    2    0    0 -0.20307344878E+00 -0.15303291519E+00  0.29723877643E+01  0.29832443614E+01  0.00000000000E+00 0. -1.
</event>
<event>
 5    1  0.1461556E+002  0.1599674E+01  0.7818608E-02  0.3353718E+00
         11   -1    0    0    0    0  0.00000000000E+00  0.00000000000E+00  0.39999999674E+01  0.40000000000E+01  0.51100000000E-03 0.  1.
    9000002   -1    0    0    0    0 -0.00000000000E+00 -0.00000000000E+00  0.00000000000E+00  0.93800000000E+00  0.93800000000E+00 0.  1.
         11    1    1    2    0    0 -0.17258834594E+00  0.10617381552E+00  0.14612257770E+01  0.14752086798E+01  0.51100000000E-03 0.  1.
    9000002    1    1    2    0    0  0.45475523031E+00 -0.27828409430E+00  0.19571643292E+00  0.10965369482E+01  0.93800000000E+00 0.  1.
         22    1    1    2    0    0 -0.28216688436E+00  0.17211027878E+00  0.23430577574E+01  0.23662543720E+01  0.00000000000E+00 0. -1.
</event>
<event>
 5    1  0.1461556E+002  0.1599677E+01  0.7818608E-02  0.3353714E+00
         11   -1    0    0    0    0  0.00000000000E+00  0.00000000000E+00  0.39999999674E+01  0.40000000000E+01  0.51100000000E-03 0.  1.
    9000002   -1    0    0    0    0 -0.00000000000E+00 -0.00000000000E+00  0.00000000000E+00  0.93800000000E+00  0.93800000000E+00 0. -1.
         11    1    1    2    0    0  0.17491758990E+00  0.62466249455E-01  0.17476308524E+01  0.17574732012E+01  0.51100000000E-03 0.  1.
    9000002    1    1    2    0    0 -0.39020941231E+00 -0.13851954765E+00  0.11586067645E+00  0.10318520955E+01  0.93800000000E+00 0. -1.
         22    1    1    2    0    0  0.21529182242E+00  0.76053298192E-01  0.21365084385E+01  0.21486747033E+01  0.00000000000E+00 0.  1.
</event>
<event>
 5    1  0.1461556E+002  0.1591441E+01  0.7818608E-02  0.3362705E+00
         11   -1    0    0    0    0  0.00000000000E+00  0.00000000000E+00  0.39999999674E+01  0.40000000000E+01  0.51100000000E-03 0. -1.
    9000002   -1    0    0    0    0 -0.00000000000E+00 -0.00000000000E+00  0.00000000000E+00  0.93800000000E+00  0.93800000000E+00 0.  1.
         11    1    1    2    0    0 -0.12957512570E-01 -0.40057275314E-01  0.20794657492E+01  0.20798919553E+01  0.51100000000E-03 0. -1.
    9000002    1    1    2    0    0 -0.18256485506E+00  0.96521319045E-01  0.34455515175E-01  0.96108140855E+00  0.93800000000E+00 0.  1.
         22    1    1    2    0    0  0.19552236762E+00 -0.56464043731E-01  0.18860787030E+01  0.18970266362E+01  0.00000000000E+00 0. -1.
</event>
<event>
 5    1  0.1461556E+002  0.1599232E+01  0.7818608E-02  0.3354197E+00
         11   -1    0    0    0    0  0.00000000000E+00  0.00000000000E+00  0.39999999674E+01  0.40000000000E+01  0.51100000000E-03 0.  1.
    9000002   -1    0    0    0    0 -0.00000000000E+00 -0.00000000000E+00  0.00000000000E+00  0.93800000000E+00  0.93800000000E+00 0.  1.
         11    1    1    2    0    0 -0.25920529210E+00 -0.66947373533E-01  0.20255790094E+01  0.20431935588E+01  0.51100000000E-03 0.  1.
    9000002    1    1    2    0    0  0.49866800775E+00  0.17223740554E+00  0.19186245047E+00  0.10931563043E+01  0.93800000000E+00 0.  1.
         22    1    1    2    0    0 -0.23946271565E+00 -0.10529003200E+00  0.17825585075E+01  0.18016501369E+01  0.00000000000E+00 0.  1.
</event>
<event>
 5    1  0.1461556E+002  0.1599086E+01  0.7818608E-02  0.3354356E+00
         11   -1    0    0    0    0  0.00000000000E+00  0.00000000000E+00  0.39999999674E+01  0.40000000000E+01  0.51100000000E-03 0.  1.
    9000002   -1    0    0    0    0 -0.00000000000E+00 -0.00000000000E+00  0.00000000000E+00  0.93800000000E+00  0.93800000000E+00 0. -1.
         11    1    1    2    0    0  0.12402298176E+00 -0.94318682253E-01  0.99324840149E+00  0.10053956246E+01  0.51100000000E-03 0.  1.
    9000002    1    1    2    0    0 -0.44139102743E+00  0.26946602438E+00  0.18415651797E+00  0.10868282295E+01  0.93800000000E+00 0. -1.
         22    1    1    2    0    0  0.31736804567E+00 -0.17514734213E+00  0.28225950479E+01  0.28457761458E+01  0.00000000000E+00 0.  1.
</event>
<event>
 5    1  0.1461556E+002  0.1599635E+01  0.7818608E-02  0.3353760E+00
         11   -1    0    0    0    0  0.00000000000E+00  0.00000000000E+00  0.39999999674E+01  0.40000000000E+01  0.51100000000E-03 0. -1.
    9000002   -1    0    0    0    0 -0.00000000000E+00 -0.00000000000E+00  0.00000000000E+00  0.93800000000E+00  0.93800000000E+00 0.  1.
         11    1    1    2    0    0 -0.31532783523E-01  0.35457902238E-01  0.58573596820E+00  0.58765505599E+00  0.51100000000E-03 0. -1.
    9000002    1    1    2    0    0  0.22104558990E+00 -0.20212080204E+00  0.59879839792E-01  0.98648039344E+00  0.93800000000E+00 0.  1.
         22    1    1    2    0    0 -0.18951280638E+00  0.16666289980E+00  0.33543841594E+01  0.33638645506E+01  0.00000000000E+00 0. -1.
</event>
<event>
 5    1  0.1461556E+002  0.1596577E+01  0.7818608E-02  0.3357087E+00
         11   -1    0    0    0    0  0.00000000000E+00  0.00000000000E+00  0.39999999674E+01  0.40000000000E+01  0.51100000000E-03 0. -1.
    9000002   -1    0    0    0    0 -0.00000000000E+00 -0.00000000000E+00  0.00000000000E+00  0.93800000000E+00  0.93800000000E+00 0. -1.
         11    1    1    2    0    0 -0.29877388581E-01  0.45830375074E-01  0.28338522766E+00  0.28861831197E+00  0.51100000000E-03 0. -1.
    9000002    1    1    2    0    0  0.60709599463E-01 -0.30549806036E+00  0.67235400726E-01  0.99064591023E+00  0.93800000000E+00 0. -1.
         22    1    1    2    0    0 -0.30832210882E-01  0.25966768528E+00  0.36493793390E+01  0.36587357778E+01  0.00000000000E+00 0. -1.
</event>
<event>
 5    1  0.1461556E+002  0.1594070E+01  0.7818608E-02  0.3359825E+00
         11   -1    0    0    0    0  0.00000000000E+00  0.00000000000E+00  0.39999999674E+01  0.40000000000E+01  0.51100000000E-03 0. -1.
    9000002   -1    0    0    0    0 -0.00000000000E+00 -0.00000000000E+00  0.00000000000E+00  0.93800000000E+00  0.93800000000E+00 0.  1.
         11    1    1    2    0    0 -0.12540826063E+00  0.91818576599E-01  0.21912215884E+01  0.21967271550E+01  0.51100000000E-03 0. -1.
    9000002    1    1    2    0    0  0.37960181921E+00 -0.13809645432E+00  0.11480890051E+00  0.10277126327E+01  0.93800000000E+00 0.  1.
         22    1    1    2    0    0 -0.25419355859E+00  0.46277877718E-01  0.16939694784E+01  0.17135602123E+01  0.00000000000E+00 0.  1.
</event>
<event>
 5    1  0.1461556E+002  0.1599647E+01  0.7818608E-02  0.3353746E+00
         11   -1    0    0    0    0  0.00000000000E+00  0.00000000000E+00  0.39999999674E+01  0.40000000000E+01  0.51100000000E-03 0.  1.
    9000002   -1    0    0    0    0 -0.00000000000E+00 -0.00000000000E+00  0.00000000000E+00  0.93800000000E+00  0.93800000000E+00 0.  1.
         11    1    1    2    0    0  0.26341736963E+00  0.21422360794E+00  0.22828998279E+01  0.23080104745E+01  0.51100000000E-03 0.  1.
    9000002    1    1    2    0    0 -0.42871765157E+00 -0.34889122434E+00  0.21116394743E+00  0.11090347713E+01  0.93800000000E+00 0.  1.
         22    1    1    2    0    0  0.16530028194E+00  0.13466761640E+00  0.15059361920E+01  0.15209547543E+01  0.00000000000E+00 0.  1.
</event>
<event>
 5    1  0.1461556E+002  0.1567161E+01  0.7818608E-02  0.3389796E+00
         11   -1    0    0    0    0  0.00000000000E+00  0.00000000000E+00  0.39999999674E+01  0.40000000000E+01  0.51100000000E-03 0. -1.
    9000002   -1    0    0    0    0 -0.00000000000E+00 -0.00000000000E+00  0.00000000000E+00  0.93800000000E+00  0.93800000000E+00 0. -1.
         11    1    1    2    0    0  0.41273592434E-01  0.92534733333E-01  0.25776620922E+00  0.27696546002E+00  0.51100000000E-03 0. -1.
    9000002    1    1    2    0    0 -0.58148698752E-01  0.14197605400E+00  0.39961448118E-01  0.95130404625E+00  0.93800000000E+00 0. -1.
         22    1    1    2    0    0  0.16875106318E-01 -0.23451078733E+00  0.37022723100E+01  0.37097304937E+01  0.00000000000E+00 0. -1.
</event>
<event>
 5    1  0.1461556E+002  0.1599670E+01  0.7818608E-02  0.3353721E+00
         11   -1    0    0    0    0  0.00000000000E+00  0.00000000000E+00  0.39999999674E+01  0.40000000000E+01  0.51100000000E-03 0.  1.
    9000002   -1    0    0    0    0 -0.00000000000E+00 -0.00000000000E+00  0.00000000000E+00  0.93800000000E+00  0.93800000000E+00 0.  1.
         11    1    1    2    0    0  0.24832368514E-01 -0.12010993386E-01  0.40019153104E+00  0.40114141288E+00  0.51100000000E-03 0.  1.
    9000002    1    1    2    0    0 -0.23459477108E+00  0.10395661065E+00  0.43765641049E-01  0.97344805452E+00  0.93800000000E+00 0.  1.
         22    1    1    2    0    0  0.20976240256E+00 -0.91945617260E-01  0.35560427953E+01  0.35634105326E+01  0.00000000000E+00 0.  1.
</event>
<event>
 5    1  0.1461556E+002  0.1518826E+01  0.7818608E-02  0.3446471E+00
         11   -1    0    0    0    0  0.00000000000E+00  0.00000000000E+00  0.39999999674E+01  0.40000000000E+01  0.51100000000E-03 0. -1.
    9000002   -1    0    0    0    0 -0.00000000000E+00 -0.00000000000E+00  0.00000000000E+00  0.93800000000E+00  0.93800000000E+00 0. -1.
         11    1    1    2    0    0 -0.25343058286E-01  0.18533471615E+00  0.42869550595E+00  0.46772997077E+00  0.51100000000E-03 0. -1.
    9000002    1    1    2    0    0 -0.17642212008E+00  0.24294634650E+00  0.12636875395E+00  0.99295556482E+00  0.93800000000E+00 0. -1.
         22    1    1    2    0    0  0.20176517837E+00 -0.42828106265E+00  0.34449357075E+01  0.34773144644E+01  0.00000000000E+00 0. -1.
</event>
<event>
 5    1  0.1461556E+002  0.1563840E+01  0.7818608E-02  0.3393570E+00
         11   -1    0    0    0    0  0.00000000000E+00  0.00000000000E+00  0.39999999674E+01  0.40000000000E+01  0.51100000000E-03 0. -1.
    9000002   -1    0    0    0    0 -0.00000000000E+00 -0.00000000000E+00  0.00000000000E+00  0.93800000000E+00  0.93800000000E+00 0.  1.
         11    1    1    2    0    0 -0.98361774209E-02 -0.20712497426E+00  0.12269835421E+01  0.12443819265E+01  0.51100000000E-03 0. -1.
    9000002    1    1    2    0    0 -0.95341614107E-01  0.26014588272E-03  0.32603515403E-01  0.94339656575E+00  0.93800000000E+00 0.  1.
         22    1    1    2    0    0  0.10517779153E+00  0.20686482838E+00  0.27404129099E+01  0.27502215078E+01  0.00000000000E+00 0. -1.
</event>
<event>
 5    1  0.1461556E+002  0.1581845E+01  0.7818608E-02  0.3373308E+00
         11   -1    0    0    0    0  0.00000000000E+00  0.00000000000E+00  0.39999999674E+01  0.40000000000E+01  0.51100000000E-03 0. -1.
    9000002   -1    0    0    0    0 -0.00000000000E+00 -0.00000000000E+00  0.00000000000E+00  0.93800000000E+00  0.93800000000E+00 0.  1.
         11    1    1    2    0    0  0.17996886327E+00  0.34817376084E-01  0.26750640488E+01  0.26813371604E+01  0.51100000000E-03 0. -1.
    9000002    1    1    2    0    0 -0.33944352250E+00  0.15290561352E+00  0.10787919162E+00  0.10149305157E+01  0.93800000000E+00 0.  1.
         22    1    1    2    0    0  0.15947465923E+00 -0.18772298961E+00  0.12170567270E+01  0.12417323240E+01  0.00000000000E+00 0. -1.
</event>
<event>
 5    1  0.1461556E+002  0.1599674E+01  0.7818608E-02  0.3353718E+00
         11   -1    0    0    0    0  0.00000000000E+00  0.00000000000E+00  0.39999999674E+01  0.40000000000E+01  0.51100000000E-03 0. -1.
    9000002   -1    0    0    0    0 -0.00000000000E+00 -0.00000000000E+00  0.00000000000E+00  0.93800000000E+00  0.93800000000E+00 0. -1.
         11    1    1    2    0    0 -0.61074131484E-04  0.27105282248E-02  0.53167253350E-01  0.53238788896E-01  0.51100000000E-03 0.  1.
    9000002    1    1    2    0    0 -0.26368542707E-02 -0.20587803573E+00  0.28077428847E-01  0.96074193237E+00  0.93800000000E+00 0. -1.
         22    1    1    2    0    0  0.26979284021E-02  0.20316750750E+00  0.39187552852E+01  0.39240192787E+01  0.00000000000E+00 0. -1.
</event>
<event>
 5    1  0.1461556E+002  0.1597145E+01  0.7818608E-02  0.3356468E+00
         11   -1    0    0    0    0  0.00000000000E+00  0.00000000000E+00  0.39999999674E+01  0.40000000000E+01  0.51100000000E-03 0.  1.
    9000002   -1    0    0    0    0 -0.00000000000E+00 -0.00000000000E+00  0.00000000000E+00  0.93800000000E+00  0.93800000000E+00 0. -1.
         11    1    1    2    0    0  0.14603291089E-01  0.46458919593E-01  0.39638531602E+00  0.39936608168E+00  0.51100000000E-03 0.  1.
    9000002    1    1    2    0    0 -0.38926286562E+00 -0.19348371785E+00  0.13022059709E+00  0.10419994873E+01  0.93800000000E+00 0. -1.
         22    1    1    2    0    0  0.37465957453E+00  0.14702479826E+00  0.34733940543E+01  0.34966344310E+01  0.00000000000E+00 0.  1.
</event>
<event>
 5    1  0.1461556E+002  0.1599677E+01  0.7818608E-02  0.3353714E+00
         11   -1    0    0    0    0  0.00000000000E+00  0.00000000000E+00  0.39999999674E+01  0.40000000000E+01  0.51100000000E-03 0.  1.
    9000002   -1    0    0    0    0 -0.00000000000E+00 -0.00000000000E+00  0.00000000000E+00  0.93800000000E+00  0.93800000000E+00 0. -1.
         11    1    1    2    0    0  0.22147913166E+00  0.48632782370E-01  0.17071247336E+01  0.17221188317E+01  0.51100000000E-03 0.  1.
    9000002    1    1    2    0    0 -0.49642409321E+00 -0.10966156979E+00  0.17718429465E+00  0.10815270752E+01  0.93800000000E+00 0. -1.
         22    1    1    2    0    0  0.27494496154E+00  0.61028787417E-01  0.21156909391E+01  0.21343540931E+01  0.00000000000E+00 0. -1.
</event>
<event>
 5    1  0.1461556E+002  0.1599381E+01  0.7818608E-02  0.3354036E+00
         11   -1    0    0    0    0  0.00000000000E+00  0.00000000000E+00  0.39999999674E+01  0.40000000000E+01  0.51100000000E-03 0. -1.
    9000002   -1    0    0    0    0 -0.00000000000E+00 -0.00000000000E+00  0.00000000000E+00  0.93800000000E+00  0.93800000000E+00 0.  1.
         11    1    1    2    0    0 -0.35264900615E-01  0.50230296951E-02  0.77356729516E+00  0.77438715467E+00  0.51100000000E-03 0. -1.
    9000002    1    1    2    0    0  0.26298844699E+00 -0.10824937456E-01  0.46297576246E-01  0.97532946643E+00  0.93800000000E+00 0.  1.
         22    1    1    2    0    0 -0.22772354637E+00  0.58019077606E-02  0.31801350959E+01  0.31882833789E+01  0.00000000000E+00 0. -1.
</event>
<event>
 5    1  0.1461556E+002  0.1482600E+01  0.7818608E-02  0.3491550E+00
         11   -1    0    0    0    0  0.00000000000E+00  0.00000000000E+00  0.39999999674E+01  0.40000000000E+01  0.51100000000E-03 0.  1.
    9000002   -1    0    0    0    0 -0.00000000000E+00 -0.00000000000E+00  0.00000000000E+00  0.93800000000E+00  0.93800000000E+00 0.  1.
         11    1    1    2    0    0 -0.38532168129E+00 -0.28497875715E+00  0.32792203345E+01  0.33140567215E+01  0.51100000000E-03 0.  1.
    9000002    1    1    2    0    0  0.42889353467E+00  0.16190995795E-02  0.23182326504E+00  0.10571368463E+01  0.93800000000E+00 0.  1.
         22    1    1    2    0    0 -0.43571853381E-01  0.28335965757E+00  0.48895636782E+00  0.56680643220E+00  0.00000000000E+00 0.  1.
</event>
<event>
 5    1  0.1461556E+002  0.1557200E+01  0.7818608E-02  0.3401169E+00
         11   -1    0    0    0    0  0.00000000000E+00  0.00000000000E+00  0.39999999674E+01  0.40000000000E+01  0.51100000000E-03 0. -1.
    9000002   -1    0    0    0    0 -0.00000000000E+00 -0.00000000000E+00  0.00000000000E+00  0.93800000000E+00  0.93800000000E+00 0.  1.
         11    1    1    2    0    0  0.28961445957E+00  0.20986905945E-01  0.26471880177E+01  0.26630662116E+01  0.51100000000E-03 0. -1.
    9000002    1    1    2    0    0 -0.49234022284E+00  0.28162763926E+00  0.26496260126E+00  0.11277243468E+01  0.93800000000E+00 0.  1.
         22    1    1    2    0    0  0.20272576327E+00 -0.30261454521E+00  0.10878493484E+01  0.11472094416E+01  0.00000000000E+00 0. -1.
</event>
<event>
 5    1  0.1461556E+002  0.1598789E+01  0.7818608E-02  0.3354679E+00
         11   -1    0    0    0    0  0.00000000000E+00  0.00000000000E+00  0.39999999674E+01  0.40000000000E+01  0.51100000000E-03 0. -1.
    9000002   -1    0    0    0    0 -0.00000000000E+00 -0.00000000000E+00  0.00000000000E+00  0.93800000000E+00  0.93800000000E+00 0. -1.
         11    1    1    2    0    0 -0.31676481485E-01 -0.26826286701E-02  0.19524240555E+00  0.19781419065E+00  0.51100000000E-03 0. -1.
    9000002    1    1    2    0    0  0.32285504312E+00  0.26802613379E-01  0.70883819091E-01  0.99489812281E+00  0.93800000000E+00 0. -1.
         22    1    1    2    0    0 -0.29117856164E+00 -0.24119984709E-01  0.37338737427E+01  0.37452876865E+01  0.00000000000E+00 0. -1.
</event>
<event>
 5    1  0.1461556E+002  0.1599674E+01  0.7818608E-02  0.3353717E+00
         11   -1    0    0    0    0  0.00000000000E+00  0.00000000000E+00  0.39999999674E+01  0.40000000000E+01  0.51100000000E-03 0. -1.
    9000002   -1    0    0    0    0 -0.00000000000E+00 -0.00000000000E+00  0.00000000000E+00  0.93800000000E+00  0.93800000000E+00 0.  1.
         11    1    1    2    0    0  0.13524297497E+00  0.78317154909E-01  0.15374863327E+01  0.15454089178E+01  0.51100000000E-03 0. -1.
    9000002    1    1    2    0    0 -0.33799287609E+00 -0.19719311358E+00  0.10317398403E+00  0.10215738736E+01  0.93800000000E+00 0.  1.
         22    1    1    2    0    0  0.20274990111E+00  0.11887595867E+00  0.23593396507E+01  0.23710172085E+01  0.00000000000E+00 0. -1.
</event>
<event>
 5    1  0.1461556E+002  0.1599625E+01  0.7818608E-02  0.3353770E+00
         11   -1    0    0    0    0  0.00000000000E+00  0.00000000000E+00  0.39999999674E+01  0.40000000000E+01  0.51100000000E-03 0.  1.
    9000002   -1    0    0    0    0 -0.00000000000E+00 -0.00000000000E+00  0.00000000000E+00  0.93800000000E+00  0.93800000000E+00 0.  1.
         11    1    1    2    0    0  0.66369384721E-02  0.64886870893E-02  0.10395788418E+00  0.10437267275E+00  0.51100000000E-03 0.  1.
    9000002    1    1    2    0    0 -0.15410938098E+00 -0.21226468676E+00  0.45791341348E-01  0.97506248287E+00  0.93800000000E+00 0.  1.
         22    1    1    2    0    0  0.14747244251E+00  0.20577599967E+00  0.38502507418E+01  0.38585648444E+01  0.00000000000E+00 0.  1.
</event>
<event>
 5    1  0.1461556E+002  0.1599543E+01  0.7818608E-02  0.3353859E+00
         11   -1    0    0    0    0  0.00000000000E+00  0.00000000000E+00  0.39999999674E+01  0.40000000000E+01  0.51100000000E-03 0. -1.
    9000002   -1    0    0    0    0 -0.00000000000E+00 -0.00000000000E+00  0.00000000000E+00  0.93800000000E+00  0.93800000000E+00 0. -1.
         11    1    1    2    0    0  0.70939130326E-02 -0.17329414194E-01  0.17458367325E+00  0.17558574055E+00  0.51100000000E-03 0. -1.
    9000002    1    1    2    0    0 -0.10057642016E+00  0.27654464910E+00  0.57840724067E-01  0.98477515637E+00  0.93800000000E+00 0. -1.
         22    1    1    2    0    0  0.93482507127E-01 -0.25921523490E+00  0.37675755700E+01  0.37776391031E+01  0.00000000000E+00 0.  1.
</event>
<event>
 5    1  0.1461556E+002  0.1544185E+01  0.7818608E-02  0.3416264E+00
         11   -1    0    0    0    0  0.00000000000E+00  0.00000000000E+00  0.39999999674E+01  0.40000000000E+01  0.51100000000E-03 0. -1.
    9000002   -1    0    0    0    0 -0.00000000000E+00 -0.00000000000E+00  0.00000000000E+00  0.93800000000E+00  0.93800000000E+00 0. -1.
         11    1    1    2    0    0 -0.45243663387E+00  0.12244561148E+00  0.50463208399E+00  0.68872754900E+00  0.51100000000E-03 0. -1.
    9000002    1    1    2    0    0  0.29230125983E+00  0.27499570545E+00  0.35566390739E+00  0.10804644740E+01  0.93800000000E+00 0. -1.
         22    1    1    2    0    0  0.16013537404E+00 -0.39744131692E+00  0.31397039760E+01  0.31688079770E+01  0.00000000000E+00 0. -1.
</event>
<event>
 5    1  0.1461556E+002  0.1555152E+01  0.7818608E-02  0.3403526E+00
         11   -1    0    0    0    0  0.00000000000E+00  0.00000000000E+00  0.39999999674E+01  0.40000000000E+01  0.51100000000E-03 0. -1.
    9000002   -1    0    0    0    0 -0.00000000000E+00 -0.00000000000E+00  0.00000000000E+00  0.93800000000E+00  0.93800000000E+00 0.  1.
         11    1    1    2    0    0 -0.95313600399E-01 -0.20877180314E+00  0.27517392509E+01  0.27612930873E+01  0.51100000000E-03 0. -1.
    9000002    1    1    2    0    0 -0.91950452608E-01  0.53264483681E-01  0.40720883294E-01  0.94487786581E+00  0.93800000000E+00 0.  1.
         22    1    1    2    0    0  0.18726405301E+00  0.15550731945E+00  0.12075398332E+01  0.12318290469E+01  0.00000000000E+00 0. -1.
</event>
<event>
 5    1  0.1461556E+002  0.1599614E+01  0.7818608E-02  0.3353782E+00
         11   -1    0    0    0    0  0.00000000000E+00  0.00000000000E+00  0.39999999674E+01  0.40000000000E+01  0.51100000000E-03 0. -1.
    9000002   -1    0    0    0    0 -0.00000000000E+00 -0.00000000000E+00  0.00000000000E+00  0.93800000000E+00  0.93800000000E+00 0. -1.
         11    1    1    2    0    0 -0.42802259659E+00 -0.25796616294E+00  0.21728067581E+01  0.22295379237E+01  0.51100000000E-03 0. -1.
    9000002    1    1    2    0    0  0.68010942257E+00  0.41835689158E+00  0.46948846557E+00  0.13182695986E+01  0.93800000000E+00 0. -1.
         22    1    1    2    0    0 -0.25208682598E+00 -0.16039072864E+00  0.13577047437E+01  0.13901924776E+01  0.00000000000E+00 0.  1.
</event>
<event>
 5    1  0.1461556E+002  0.1599657E+01  0.7818608E-02  0.3353736E+00
         11   -1    0    0    0    0  0.00000000000E+00  0.00000000000E+00  0.39999999674E+01  0.40000000000E+01  0.51100000000E-03 0.  1.
    9000002   -1    0    0    0    0 -0.00000000000E+00 -0.00000000000E+00  0.00000000000E+00  0.93800000000E+00  0.93800000000E+00 0.  1.
         11    1    1    2    0    0  0.48574265322E-02  0.22843489470E+00  0.20077140499E+01  0.20206736657E+01  0.51100000000E-03 0.  1.
    9000002    1    1    2    0    0 -0.46997782793E-02 -0.43145564532E+00  0.12612838767E+00  0.10401578880E+01  0.93800000000E+00 0.  1.
         22    1    1    2    0    0 -0.15764825296E-03  0.20302075062E+00  0.18661575298E+01  0.18771684463E+01  0.00000000000E+00 0.  1.
</event>
<event>
 5    1  0.1461556E+002  0.1599614E+01  0.7818608E-02  0.3353783E+00
         11   -1    0    0    0    0  0.00000000000E+00  0.00000000000E+00  0.39999999674E+01  0.40000000000E+01  0.51100000000E-03 0. -1.
    9000002   -1    0    0    0    0 -0.00000000000E+00 -0.00000000000E+00  0.00000000000E+00  0.93800000000E+00  0.93800000000E+00 0. -1.
         11    1    1    2    0    0  0.25204004375E-01 -0.24225657356E-02  0.34803307768E+00  0.34895328475E+00  0.51100000000E-03 0. -1.
    9000002    1    1    2    0    0 -0.27772686786E+00 -0.33420612229E-01  0.52155265563E-01  0.98021085598E+00  0.93800000000E+00 0. -1.
         22    1    1    2    0    0  0.25252286349E+00  0.35843177964E-01  0.35998116241E+01  0.36088358593E+01  0.00000000000E+00 0. -1.
</event>
<event>
 5    1  0.1461556E+002  0.1599672E+01  0.7818608E-02  0.3353719E+00
         11   -1    0    0    0    0  0.00000000000E+00  0.00000000000E+00  0.39999999674E+01  0.40000000000E+01  0.51100000000E-03 0. -1.
    9000002   -1    0    0    0    0 -0.00000000000E+00 -0.00000000000E+00  0.00000000000E+00  0.93800000000E+00  0.93800000000E+00 0. -1.
         11    1    1    2    0    0  0.40775695473E-01  0.63492000291E-01  0.61773383299E+00  0.62232567116E+00  0.51100000000E-03 0. -1.
    9000002    1    1    2    0    0 -0.26163724015E+00 -0.40394759861E+00  0.15808052591E+00  0.10660493237E+01  0.93800000000E+00 0. -1.
         22    1    1    2    0    0  0.22086154468E+00  0.34045559831E+00  0.32241856085E+01  0.32496250052E+01  0.00000000000E+00 0. -1.
</event>
<event>
 5    1  0.1461556E+002  0.1582616E+01  0.7818608E-02  0.3372451E+00
         11   -1    0    0    0    0  0.00000000000E+00  0.00000000000E+00  0.39999999674E+01  0.40000000000E+01  0.51100000000E-03 0.  1.
    9000002   -1    0    0    0    0 -0.00000000000E+00 -0.00000000000E+00  0.00000000000E+00  0.93800000000E+00  0.93800000000E+00 0.  1.
         11    1    1    2    0    0  0.84690114517E+00  0.14865914750E+00  0.19606848263E+01  0.21409405272E+01  0.51100000000E-03 0.  1.
    9000002    1    1    2    0    0 -0.10612180920E+01 -0.15935887996E+00  0.10131143867E+01  0.17486634474E+01  0.93800000000E+00 0.  1.
         22    1    1    2    0    0  0.21431694687E+00  0.10699732459E-01  0.10262007543E+01  0.10483960254E+01  0.00000000000E+00 0.  1.
</event>
<event>
 5    1  0.1461556E+002  0.1587949E+01  0.7818608E-02  0.3366548E+00
         11   -1    0    0    0    0  0.00000000000E+00  0.00000000000E+00  0.39999999674E+01  0.40000000000E+01  0.51100000000E-03 0.  1.
    9000002   -1    0    0    0    0 -0.00000000000E+00 -0.00000000000E+00  0.00000000000E+00  0.93800000000E+00  0.93800000000E+00 0.  1.
         11    1    1    2    0    0  0.54127769017E-01 -0.92082420151E-01  0.79427894358E+00  0.80142890441E+00  0.51100000000E-03 0.  1.
    9000002    1    1    2    0    0 -0.18952919190E+00 -0.55206066238E-01  0.34627568442E-01  0.95917260846E+00  0.93800000000E+00 0.  1.
         22    1    1    2    0    0  0.13540142288E+00  0.14728848639E+00  0.31710934553E+01  0.31773984871E+01  0.00000000000E+00 0.  1.
</event>
<event>
 5    1  0.1461556E+002  0.1579674E+01  0.7818608E-02  0.3375724E+00
         11   -1    0    0    0    0  0.00000000000E+00  0.00000000000E+00  0.39999999674E+01  0.40000000000E+01  0.51100000000E-03 0. -1.
    9000002   -1    0    0    0    0 -0.00000000000E+00 -0.00000000000E+00  0.00000000000E+00  0.93800000000E+00  0.93800000000E+00 0.  1.
         11    1    1    2    0    0 -0.11127334043E+00 -0.18857644050E+00  0.18023024782E+01  0.18155542719E+01  0.51100000000E-03 0. -1.
    9000002    1    1    2    0    0 -0.11844750251E+00  0.33203253282E+00  0.99661934406E-01  0.10070014473E+01  0.93800000000E+00 0.  1.
         22    1    1    2    0    0  0.22972084294E+00 -0.14345609232E+00  0.20980355547E+01  0.21154442808E+01  0.00000000000E+00 0. -1.
</event>
<event>
 5    1  0.1461556E+002  0.1599675E+01  0.7818608E-02  0.3353716E+00
         11   -1    0    0    0    0  0.00000000000E+00  0.00000000000E+00  0.39999999674E+01  0.40000000000E+01  0.51100000000E-03 0.  1.
    9000002   -1    0    0    0    0 -0.00000000000E+00 -0.00000000000E+00  0.00000000000E+00  0.93800000000E+00  0.93800000000E+00 0. -1.
         11    1    1    2    0    0 -0.68626635980E-01 -0.94289116445E-01  0.12796124719E+01  0.12849157140E+01  0.51100000000E-03 0.  1.
    9000002    1    1    2    0    0  0.21428855196E+00  0.28862161114E+00  0.86738001489E-01  0.10082606304E+01  0.93800000000E+00 0. -1.
         22    1    1    2    0    0 -0.14566191598E+00 -0.19433249470E+00  0.26336494939E+01  0.26448236556E+01  0.00000000000E+00 0.  1.
</event>
<event>
 5    1  0.1461556E+002  0.1599676E+01  0.7818608E-02  0.3353715E+00
         11   -1    0    0    0    0  0.00000000000E+00  0.00000000000E+00  0.39999999674E+01  0.40000000000E+01  0.51100000000E-03 0. -1.
    9000002   -1    0    0    0    0 -0.00000000000E+00 -0.00000000000E+00  0.00000000000E+00  0.93800000000E+00  0.93800000000E+00 0. -1.
         11    1    1    2    0    0  0.37838780003E+00  0.43664002459E+00  0.21244321992E+01  0.22016003880E+01  0.51100000000E-03 0. -1.
    9000002    1    1    2    0    0 -0.59786337863E+00 -0.69130795323E+00  0.64334600977E+00  0.14591385794E+01  0.93800000000E+00 0. -1.
         22    1    1    2    0    0  0.21947557859E+00  0.25466792864E+00  0.12322217584E+01  0.12772610325E+01  0.00000000000E+00 0. -1.
</event>
<event>
 5    1  0.1461556E+002  0.1599675E+01  0.7818608E-02  0.3353717E+00
         11   -1    0    0    0    0  0.00000000000E+00  0.00000000000E+00  0.39999999674E+01  0.40000000000E+01  0.51100000000E-03 0.  1.
    9000002   -1    0    0    0    0 -0.00000000000E+00 -0.00000000000E+00  0.00000000000E+00  0.93800000000E+00  0.93800000000E+00 0. -1.
         11    1    1    2    0    0 -0.24076837090E+00 -0.33477452011E+00  0.24514374940E+01  0.24858780010E+01  0.51100000000E-03 0.  1.
    9000002    1    1    2    0    0  0.36746117394E+00  0.51039599403E+00  0.27773411509E+00  0.11629755044E+01  0.93800000000E+00 0. -1.
         22    1    1    2    0    0 -0.12669280303E+00 -0.17562147392E+00  0.12708283583E+01  0.12891464947E+01  0.00000000000E+00 0.  1.
</event>
<event>
 5    1  0.1461556E+002  0.1599663E+01  0.7818608E-02  0.3353729E+00
         11   -1    0    0    0    0  0.00000000000E+00  0.00000000000E+00  0.39999999674E+01  0.40000000000E+01  0.51100000000E-03 0.  1.
    9000002   -1    0    0    0    0 -0.00000000000E+00 -0.00000000000E+00  0.00000000000E+00  0.93800000000E+00  0.93800000000E+00 0. -1.
         11    1    1    2    0    0  0.22985340619E+00 -0.87437029903E-02  0.18986616906E+01  0.19125442523E+01  0.51100000000E-03 0.  1.
    9000002    1    1    2    0    0 -0.46850064482E+00  0.89880906928E-02  0.14956262355E+00  0.10591442859E+01  0.93800000000E+00 0. -1.
         22    1    1    2    0    0  0.23864723864E+00 -0.24438770247E-03  0.19517756532E+01  0.19663114618E+01  0.00000000000E+00 0.  1.
</event>
<event>
 5    1  0.1461556E+002  0.1599677E+01  0.7818608E-02  0.3353715E+00
         11   -1    0    0    0    0  0.00000000000E+00  0.00000000000E+00  0.39999999674E+01  0.40000000000E+01  0.51100000000E-03 0. -1.
    9000002   -1    0    0    0    0 -0.00000000000E+00 -0.00000000000E+00  0.00000000000E+00  0.93800000000E+00  0.93800000000E+00 0.  1.
         11    1    1    2    0    0 -0.26263230332E-01  0.12930989684E-01  0.47082520846E+00  0.47173467734E+00  0.51100000000E-03 0.  1.
    9000002    1    1    2    0    0  0.21831534312E+00 -0.11011183417E+00  0.39699239702E-01  0.97015784010E+00  0.93800000000E+00 0.  1.
         22    1    1    2    0    0 -0.19205211279E+00  0.97180844490E-01  0.34894755192E+01  0.34961074826E+01  0.00000000000E+00 0. -1.
</event>
<event>
 5    1  0.1461556E+002  0.1593836E+01  0.7818608E-02  0.3360081E+00
         11   -1    0    0    0    0  0.00000000000E+00  0.00000000000E+00  0.39999999674E+01  0.40000000000E+01  0.51100000000E-03 0. -1.
    9000002   -1    0    0    0    0 -0.00000000000E+00 -0.00000000000E+00  0.00000000000E+00  0.93800000000E+00  0.93800000000E+00 0. -1.
         11    1    1    2    0    0  0.12232567115E+00 -0.16186103542E+00  0.24350949402E+01  0.24435323189E+01  0.51100000000E-03 0. -1.
    9000002    1    1    2    0    0 -0.32939519373E+00  0.20940480926E+00  0.10748131177E+00  0.10216397605E+01  0.93800000000E+00 0. -1.
         22    1    1    2    0    0  0.20706952258E+00 -0.47543773837E-01  0.14574237154E+01  0.14728279206E+01  0.00000000000E+00 0. -1.
</event>
<event>
 5    1  0.1461556E+002  0.1598321E+01  0.7818608E-02  0.3355188E+00
         11   -1    0    0    0    0  0.00000000000E+00  0.00000000000E+00  0.39999999674E+01  0.40000000000E+01  0.51100000000E-03 0.  1.
    9000002   -1    0    0    0    0 -0.00000000000E+00 -0.00000000000E+00  0.00000000000E+00  0.93800000000E+00  0.93800000000E+00 0.  1.
         11    1    1    2    0    0  0.90824153561E-02  0.30610614741E-01  0.35255123179E+00  0.35399453691E+00  0.51100000000E-03 0.  1.
    9000002    1    1    2    0    0 -0.24122027969E+00 -0.96688351519E-01  0.45939624647E-01  0.97441793383E+00  0.93800000000E+00 0.  1.
         22    1    1    2    0    0  0.23213786433E+00  0.66077736779E-01  0.36015091109E+01  0.36095875293E+01  0.00000000000E+00 0.  1.
</event>
<event>
 5    1  0.1461556E+002  0.1594041E+01  0.7818608E-02  0.3359857E+00
         11   -1    0    0    0    0  0.00000000000E+00  0.00000000000E+00  0.39999999674E+01  0.40000000000E+01  0.51100000000E-03 0.  1.
    9000002   -1    0    0    0    0 -0.00000000000E+00 -0.00000000000E+00  0.00000000000E+00  0.93800000000E+00  0.93800000000E+00 0.  1.
         11    1    1    2    0    0 -0.26252285420E+00 -0.14508995373E+00  0.15208061003E+01  0.15501034802E+01  0.51100000000E-03 0.  1.
    9000002    1    1    2    0    0  0.47200077156E+00  0.23631868655E+00  0.19689061816E+00  0.10941851605E+01  0.93800000000E+00 0.  1.
         22    1    1    2    0    0 -0.20947791736E+00 -0.91228732822E-01  0.22823032490E+01  0.22937113593E+01  0.00000000000E+00 0.  1.
</event>
<event>
 5    1  0.1461556E+002  0.1526779E+01  0.7818608E-02  0.3436882E+00
         11   -1    0    0    0    0  0.00000000000E+00  0.00000000000E+00  0.39999999674E+01  0.40000000000E+01  0.51100000000E-03 0. -1.
    9000002   -1    0    0    0    0 -0.00000000000E+00 -0.00000000000E+00  0.00000000000E+00  0.93800000000E+00  0.93800000000E+00 0.  1.
         11    1    1    2    0    0 -0.15573307601E+00 -0.25369951760E+00  0.92590807936E+00  0.97258535293E+00  0.51100000000E-03 0. -1.
    9000002    1    1    2    0    0  0.60399669941E-01  0.63502430938E-01  0.60182621466E-01  0.94400562858E+00  0.93800000000E+00 0.  1.
         22    1    1    2    0    0  0.95333406073E-01  0.19019708666E+00  0.30139092665E+01  0.30214090185E+01  0.00000000000E+00 0. -1.
</event>
<event>
 5    1  0.1461556E+002  0.1599677E+01  0.7818608E-02  0.3353715E+00
         11   -1    0    0    0    0  0.00000000000E+00  0.00000000000E+00  0.39999999674E+01  0.40000000000E+01  0.51100000000E-03 0. -1.
    9000002   -1    0    0    0    0 -0.00000000000E+00 -0.00000000000E+00  0.00000000000E+00  0.93800000000E+00  0.93800000000E+00 0. -1.
         11    1    1    2    0    0 -0.23447085135E-01  0.28106527814E+00  0.16919511985E+01  0.17152978096E+01  0.51100000000E-03 0. -1.
    9000002    1    1    2    0    0  0.50155657432E-01 -0.62045832359E+00  0.27168454106E+00  0.11580762545E+01  0.93800000000E+00 0. -1.
         22    1    1    2    0    0 -0.26708572297E-01  0.33939304545E+00  0.20363642278E+01  0.20646259359E+01  0.00000000000E+00 0. -1.
</event>
<event>
 5    1  0.1461556E+002  0.1599674E+01  0.7818608E-02  0.3353717E+00
         11   -1    0    0    0    0  0.00000000000E+00  0.00000000000E+00  0.39999999674E+01  0.40000000000E+01  0.51100000000E-03 0. -1.
    9000002   -1    0    0    0    0 -0.00000000000E+00 -0.00000000000E+00  0.00000000000E+00  0.93800000000E+00  0.93800000000E+00 0.  1.
         11    1    1    2    0    0  0.29050228451E+00 -0.23841154358E-01  0.20821227171E+01  0.21024260386E+01  0.51100000000E-03 0. -1.
    9000002    1    1    2    0    0 -0.53373559271E+00  0.41561255545E-01  0.19741808811E+00  0.10979157173E+01  0.93800000000E+00 0.  1.
         22    1    1    2    0    0  0.24323330820E+00 -0.17720101187E-01  0.17204591622E+01  0.17376582440E+01  0.00000000000E+00 0. -1.
</event>
<event>
 5    1  0.1461556E+002  0.1599676E+01  0.7818608E-02  0.3353715E+00
         11   -1    0    0    0    0  0.00000000000E+00  0.00000000000E+00  0.39999999674E+01  0.40000000000E+01  0.51100000000E-03 0. -1.
    9000002   -1    0    0    0    0 -0.00000000000E+00 -0.00000000000E+00  0.00000000000E+00  0.93800000000E+00  0.93800000000E+00 0. -1.
         11    1    1    2    0    0 -0.62537797334E-01 -0.46265568840E-01  0.76536401024E+00  0.76930735617E+00  0.51100000000E-03 0. -1.
    9000002    1    1    2    0    0  0.32169742732E+00  0.23882032691E+00  0.10828703134E+00  0.10257165615E+01  0.93800000000E+00 0. -1.
         22    1    1    2    0    0 -0.25915962999E+00 -0.19255475807E+00  0.31263489258E+01  0.31429760824E+01  0.00000000000E+00 0. -1.
</event>
<event>
 5    1  0.1461556E+002  0.1517859E+01  0.7818608E-02  0.3447644E+00
         11   -1    0    0    0    0  0.00000000000E+00  0.00000000000E+00  0.39999999674E+01  0.40000000000E+01  0.51100000000E-03 0. -1.
    9000002   -1    0    0    0    0 -0.00000000000E+00 -0.00000000000E+00  0.00000000000E+00  0.93800000000E+00  0.93800000000E+00 0. -1.
         11    1    1    2    0    0 -0.15751058234E+00 -0.12878608447E+00  0.33158598519E+00  0.38903080315E+00  0.51100000000E-03 0. -1.
    9000002    1    1    2    0    0  0.14744036249E+00 -0.80246573091E-01  0.81966098885E-01  0.95642073082E+00  0.93800000000E+00 0. -1.
         22    1    1    2    0    0  0.10070219847E-01  0.20903265756E+00  0.35864478833E+01  0.35925484660E+01  0.00000000000E+00 0. -1.
</event>
<event>
 5    1  0.1461556E+002  0.1595032E+01  0.7818608E-02  0.3358773E+00
         11   -1    0    0    0    0  0.00000000000E+00  0.00000000000E+00  0.39999999674E+01  0.40000000000E+01  0.51100000000E-03 0.  1.
    9000002   -1    0    0    0    0 -0.00000000000E+00 -0.00000000000E+00  0.00000000000E+00  0.93800000000E+00  0.93800000000E+00 0.  1.
         11    1    1    2    0    0  0.16506007781E-01 -0.32274395833E+00  0.21504894873E+01  0.21746359252E+01  0.51100000000E-03 0.  1.
    9000002    1    1    2    0    0 -0.54537393079E-01  0.68621757069E+00  0.34276385148E+00  0.12129303110E+01  0.93800000000E+00 0.  1.
         22    1    1    2    0    0  0.38031385299E-01 -0.36347361236E+00  0.15067466286E+01  0.15504337638E+01  0.00000000000E+00 0.  1.
</event>
<event>
 5    1  0.1461556E+002  0.1598489E+01  0.7818608E-02  0.3355005E+00
         11   -1    0    0    0    0  0.00000000000E+00  0.00000000000E+00  0.39999999674E+01  0.40000000000E+01  0.51100000000E-03 0.  1.
    9000002   -1    0    0    0    0 -0.00000000000E+00 -0.00000000000E+00  0.00000000000E+00  0.93800000000E+00  0.93800000000E+00 0.  1.
         11    1    1    2    0    0  0.10132247953E+00  0.55665726071E-01  0.10979585101E+01  0.11040281106E+01  0.51100000000E-03 0.  1.
    9000002    1    1    2    0    0 -0.38635817804E+00 -0.67865772268E-01  0.10467591515E+00  0.10220956178E+01  0.93800000000E+00 0.  1.
         22    1    1    2    0    0  0.28503569851E+00  0.12200046197E-01  0.27973655421E+01  0.28118762716E+01  0.00000000000E+00 0. -1.
</event>
<event>
 5    1  0.1461556E+002  0.1584289E+01  0.7818608E-02  0.3370594E+00
         11   -1    0    0    0    0  0.00000000000E+00  0.00000000000E+00  0.39999999674E+01  0.40000000000E+01  0.51100000000E-03 0.  1.
    9000002   -1    0    0    0    0 -0.00000000000E+00 -0.00000000000E+00  0.00000000000E+00  0.93800000000E+00  0.93800000000E+00 0.  1.
         11    1    1    2    0    0  0.79154045375E-01  0.29073101081E-01  0.11033775843E+01  0.11065952118E+01  0.51100000000E-03 0.  1.
    9000002    1    1    2    0    0  0.66149593574E-01  0.22426155688E+00  0.48044665292E-01  0.96789529624E+00  0.93800000000E+00 0.  1.
         22    1    1    2    0    0 -0.14530363895E+00 -0.25333465796E+00  0.28485777178E+01  0.28635094920E+01  0.00000000000E+00 0.  1.
</event>
<event>
 5    1  0.1461556E+002  0.1599676E+01  0.7818608E-02  0.3353715E+00
         11   -1    0    0    0    0  0.00000000000E+00  0.00000000000E+00  0.39999999674E+01  0.40000000000E+01  0.51100000000E-03 0. -1.
    9000002   -1    0    0    0    0 -0.00000000000E+00 -0.00000000000E+00  0.00000000000E+00  0.93800000000E+00  0.93800000000E+00 0.  1.
         11    1    1    2    0    0 -0.20397365036E+00 -0.26278856215E+00  0.18396760075E+01  0.18695109393E+01  0.51100000000E-03 0. -1.
    9000002    1    1    2    0    0  0.40916608166E+00  0.52863351635E+00  0.31676635758E+00  0.11945941580E+01  0.93800000000E+00 0.  1.
         22    1    1    2    0    0 -0.20519243130E+00 -0.26584495420E+00  0.18435576023E+01  0.18738949027E+01  0.00000000000E+00 0. -1.
</event>
<event>
 5    1  0.1461556E+002  0.1597519E+01  0.7818608E-02  0.3356061E+00
         11   -1    0    0    0    0  0.00000000000E+00  0.00000000000E+00  0.39999999674E+01  0.40000000000E+01  0.51100000000E-03 0. -1.
    9000002   -1    0    0    0    0 -0.00000000000E+00 -0.00000000000E+00  0.00000000000E+00  0.93800000000E+00  0.93800000000E+00 0. -1.
         11    1    1    2    0    0  0.26781216144E-01  0.82021728867E-02  0.21214932700E+00  0.21399090458E+00  0.51100000000E-03 0. -1.
    9000002    1    1    2    0    0 -0.40968473315E-01 -0.25812693961E+00  0.47076198422E-01  0.97486824813E+00  0.93800000000E+00 0. -1.
         22    1    1    2    0    0  0.14187257171E-01  0.24992476673E+00  0.37407744419E+01  0.37491408473E+01  0.00000000000E+00 0. -1.
</event>
<event>
 5    1  0.1461556E+002  0.1599674E+01  0.7818608E-02  0.3353717E+00
         11   -1    0    0    0    0  0.00000000000E+00  0.00000000000E+00  0.39999999674E+01  0.40000000000E+01  0.51100000000E-03 0.  1.
    9000002   -1    0    0    0    0 -0.00000000000E+00 -0.00000000000E+00  0.00000000000E+00  0.93800000000E+00  0.93800000000E+00 0. -1.
         11    1    1    2    0    0 -0.87592768810E-01  0.17942085088E+00  0.19244400597E+01  0.19347697897E+01  0.51100000000E-03 0.  1.
    9000002    1    1    2    0    0  0.17412818367E+00 -0.36033523873E+00  0.10803748742E+00  0.10255136310E+01  0.93800000000E+00 0. -1.
         22    1    1    2    0    0 -0.86535414858E-01  0.18091438785E+00  0.19675224203E+01  0.19777165793E+01  0.00000000000E+00 0.  1.
</event>
<event>
 5    1  0.1461556E+002  0.1599664E+01  0.7818608E-02  0.3353728E+00
         11   -1    0    0    0    0  0.00000000000E+00  0.00000000000E+00  0.39999999674E+01  0.40000000000E+01  0.51100000000E-03 0.  1.
    9000002   -1    0    0    0    0 -0.00000000000E+00 -0.00000000000E+00  0.00000000000E+00  0.93800000000E+00  0.93800000000E+00 0.  1.
         11    1    1    2    0    0  0.38274932693E-01  0.36527086339E+00  0.24062664057E+01  0.24341335317E+01  0.51100000000E-03 0.  1.
    9000002    1    1    2    0    0 -0.65047656872E-01 -0.57584739235E+00  0.23332198740E+00  0.11269935966E+01  0.93800000000E+00 0.  1.
         22    1    1    2    0    0  0.26772724178E-01  0.21057652896E+00  0.13604115743E+01  0.13768728717E+01  0.00000000000E+00 0. -1.
</event>
<event>
 5    1  0.1461556E+002  0.1598667E+01  0.7818608E-02  0.3354812E+00
         11   -1    0    0    0    0  0.00000000000E+00  0.00000000000E+00  0.39999999674E+01  0.40000000000E+01  0.51100000000E-03 0.  1.
    9000002   -1    0    0    0    0 -0.00000000000E+00 -0.00000000000E+00  0.00000000000E+00  0.93800000000E+00  0.93800000000E+00 0. -1.
         11    1    1    2    0    0  0.97226876838E-01 -0.14789855330E+00  0.12911997110E+01  0.13032743389E+01  0.51100000000E-03 0.  1.
    9000002    1    1    2    0    0 -0.23533400701E+00  0.35115591970E+00  0.12175015989E+00  0.10360307313E+01  0.93800000000E+00 0. -1.
         22    1    1    2    0    0  0.13810713017E+00 -0.20325736639E+00  0.25870500965E+01  0.25986949298E+01  0.00000000000E+00 0.  1.
</event>
<event>
 5    1  0.1461556E+002  0.1599677E+01  0.7818608E-02  0.3353714E+00
         11   -1    0    0    0    0  0.00000000000E+00  0.00000000000E+00  0.39999999674E+01  0.40000000000E+01  0.51100000000E-03 0. -1.
    9000002   -1    0    0    0    0 -0.00000000000E+00 -0.00000000000E+00  0.00000000000E+00  0.93800000000E+00  0.93800000000E+00 0. -1.
         11    1    1    2    0    0 -0.48160316435E-01  0.10312439111E+00  0.10793732909E+01  0.10853575533E+01  0.51100000000E-03 0. -1.
    9000002    1    1    2    0    0  0.17169902538E+00 -0.37126655800E+00  0.11299334911E+00  0.10295294602E+01  0.93800000000E+00 0. -1.
         22    1    1    2    0    0 -0.12353870895E+00  0.26814216689E+00  0.28076333273E+01  0.28231129866E+01  0.00000000000E+00 0. -1.
</event>
<event>
 5    1  0.1461556E+002  0.1541522E+01  0.7818608E-02  0.3419386E+00
         11   -1    0    0    0    0  0.00000000000E+00  0.00000000000E+00  0.39999999674E+01  0.40000000000E+01  0.51100000000E-03 0. -1.
    9000002   -1    0    0    0    0 -0.00000000000E+00 -0.00000000000E+00  0.00000000000E+00  0.93800000000E+00  0.93800000000E+00 0. -1.
         11    1    1    2    0    0  0.13754310044E+00  0.85141362130E-01  0.30963337452E+00  0.34934258796E+00  0.51100000000E-03 0. -1.
    9000002    1    1    2    0    0  0.82074115894E-01 -0.18272265520E+00  0.71489962763E-01  0.96181003530E+00  0.93800000000E+00 0. -1.
         22    1    1    2    0    0 -0.21961721634E+00  0.97581293069E-01  0.36188766301E+01  0.36268473767E+01  0.00000000000E+00 0. -1.
</event>
<event>
 5    1  0.1461556E+002  0.1599676E+01  0.7818608E-02  0.3353715E+00
         11   -1    0    0    0    0  0.00000000000E+00  0.00000000000E+00  0.39999999674E+01  0.40000000000E+01  0.51100000000E-03 0.  1.
    9000002   -1    0    0    0    0 -0.00000000000E+00 -0.00000000000E+00  0.00000000000E+00  0.93800000000E+00  0.93800000000E+00 0.  1.
         11    1    1    2    0    0 -0.17147084619E+00  0.24011198622E+00  0.20120970469E+01  0.20336152056E+01  0.51100000000E-03 0.  1.
    9000002    1    1    2    0    0  0.32435902417E+00 -0.45019666931E+00  0.21285607004E+00  0.11104222279E+01  0.93800000000E+00 0.  1.
         22    1    1    2    0    0 -0.15288817798E+00  0.21008468309E+00  0.17750468504E+01  0.17939625665E+01  0.00000000000E+00 0.  1.
</event>
<event>
 5    1  0.1461556E+002  0.1599608E+01  0.7818608E-02  0.3353789E+00
         11   -1    0    0    0    0  0.00000000000E+00  0.00000000000E+00  0.39999999674E+01  0.40000000000E+01  0.51100000000E-03 0.  1.
    9000002   -1    0    0    0    0 -0.00000000000E+00 -0.00000000000E+00  0.00000000000E+00  0.93800000000E+00  0.93800000000E+00 0. -1.
         11    1    1    2    0    0 -0.42389757644E-01 -0.20313839387E+00  0.17978486467E+01  0.18097851022E+01  0.51100000000E-03 0.  1.
    9000002    1    1    2    0    0  0.11086949941E+00  0.42826641899E+00  0.13283110029E+00  0.10455583545E+01  0.93800000000E+00 0. -1.
         22    1    1    2    0    0 -0.68479741770E-01 -0.22512802512E+00  0.20693202204E+01  0.20826565433E+01  0.00000000000E+00 0.  1.
</event>
<event>
 5    1  0.1461556E+002  0.1531749E+01  0.7818608E-02  0.3430944E+00
         11   -1    0    0    0    0  0.00000000000E+00  0.00000000000E+00  0.39999999674E+01  0.40000000000E+01  0.51100000000E-03 0. -1.
    9000002   -1    0    0    0    0 -0.00000000000E+00 -0.00000000000E+00  0.00000000000E+00  0.93800000000E+00  0.93800000000E+00 0.  1.
         11    1    1    2    0    0 -0.96902780304E-02  0.27283317625E+00  0.48958993058E+00  0.56056257884E+00  0.51100000000E-03 0. -1.
    9000002    1    1    2    0    0  0.20071064358E+00 -0.42175873785E+00  0.21067918739E+00  0.10688287587E+01  0.93800000000E+00 0.  1.
         22    1    1    2    0    0 -0.19102036555E+00  0.14892556159E+00  0.32997308494E+01  0.33086086625E+01  0.00000000000E+00 0. -1.
</event>
<event>
 5    1  0.1461556E+002  0.1540411E+01  0.7818608E-02  0.3420693E+00
         11   -1    0    0    0    0  0.00000000000E+00  0.00000000000E+00  0.39999999674E+01  0.40000000000E+01  0.51100000000E-03 0.  1.
    9000002   -1    0    0    0    0 -0.00000000000E+00 -0.00000000000E+00  0.00000000000E+00  0.93800000000E+00  0.93800000000E+00 0.  1.
         11    1    1    2    0    0 -0.31332960176E+00 -0.36935078256E+00  0.25606250773E+01  0.26060307918E+01  0.51100000000E-03 0.  1.
    9000002    1    1    2    0    0  0.54609668000E+00  0.75131227419E+00  0.77403309903E+00  0.15302493116E+01  0.93800000000E+00 0.  1.
         22    1    1    2    0    0 -0.23276707824E+00 -0.38196149163E+00  0.66534179101E+00  0.80171989663E+00  0.00000000000E+00 0.  1.
</event>
<event>
 5    1  0.1461556E+002  0.1599667E+01  0.7818608E-02  0.3353725E+00
         11   -1    0    0    0    0  0.00000000000E+00  0.00000000000E+00  0.39999999674E+01  0.40000000000E+01  0.51100000000E-03 0.  1.
    9000002   -1    0    0    0    0 -0.00000000000E+00 -0.00000000000E+00  0.00000000000E+00  0.93800000000E+00  0.93800000000E+00 0. -1.
         11    1    1    2    0    0 -0.45154477290E-01 -0.45688212994E-01  0.92609709612E+00  0.92832237514E+00  0.51100000000E-03 0.  1.
    9000002    1    1    2    0    0  0.18961462022E+00  0.20825374844E+00  0.52838064495E-01  0.98079518198E+00  0.93800000000E+00 0. -1.
         22    1    1    2    0    0 -0.14446014293E+00 -0.16256553545E+00  0.30210648067E+01  0.30288824429E+01  0.00000000000E+00 0.  1.
</event>
<event>
 5    1  0.1461556E+002  0.1599670E+01  0.7818608E-02  0.3353722E+00
         11   -1    0    0    0    0  0.00000000000E+00  0.00000000000E+00  0.39999999674E+01  0.40000000000E+01  0.51100000000E-03 0.  1.
    9000002   -1    0    0    0    0 -0.00000000000E+00 -0.00000000000E+00  0.00000000000E+00  0.93800000000E+00  0.93800000000E+00 0. -1.
         11    1    1    2    0    0  0.95208693384E-01  0.73861550830E-02  0.10821311413E+01  0.10863366507E+01  0.51100000000E-03 0.  1.
    9000002    1    1    2    0    0 -0.34468438729E+00 -0.16544309061E-01  0.79807654408E-01  0.10026436569E+01  0.93800000000E+00 0. -1.
         22    1    1    2    0    0  0.24947569391E+00  0.91581539780E-02  0.28380611717E+01  0.28490196924E+01  0.00000000000E+00 0.  1.
</event>
<event>
 5    1  0.1461556E+002  0.1599658E+01  0.7818608E-02  0.3353735E+00
         11   -1    0    0    0    0  0.00000000000E+00  0.00000000000E+00  0.39999999674E+01  0.40000000000E+01  0.51100000000E-03 0.  1.
    9000002   -1    0    0    0    0 -0.00000000000E+00 -0.00000000000E+00  0.00000000000E+00  0.93800000000E+00  0.93800000000E+00 0.  1.
         11    1    1    2    0    0  0.78854414718E-01 -0.11042095179E+00  0.11899508733E+01  0.11976619503E+01  0.51100000000E-03 0.  1.
    9000002    1    1    2    0    0 -0.24584188214E+00  0.34838409849E+00  0.12308265246E+00  0.10376912115E+01  0.93800000000E+00 0.  1.
         22    1    1    2    0    0  0.16698746742E+00 -0.23796314670E+00  0.26869664416E+01  0.27026468382E+01  0.00000000000E+00 0.  1.
</event>
<event>
 5    1  0.1461556E+002  0.1599675E+01  0.7818608E-02  0.3353717E+00
         11   -1    0    0    0    0  0.00000000000E+00  0.00000000000E+00  0.39999999674E+01  0.40000000000E+01  0.51100000000E-03 0.  1.
    9000002   -1    0    0    0    0 -0.00000000000E+00 -0.00000000000E+00  0.00000000000E+00  0.93800000000E+00  0.93800000000E+00 0.  1.
         11    1    1    2    0    0 -0.12374017705E-01  0.42092157224E-03  0.85339041326E-01  0.86234022199E-01  0.51100000000E-03 0.  1.
    9000002    1    1    2    0    0  0.54027721383E+00 -0.24275888602E-01  0.20167670489E+00  0.11013656431E+01  0.93800000000E+00 0.  1.
         22    1    1    2    0    0 -0.52790319613E+00  0.23854967030E-01  0.37129842211E+01  0.37504003347E+01  0.00000000000E+00 0.  1.
</event>
<event>
 5    1  0.1461556E+002  0.1599676E+01  0.7818608E-02  0.3353715E+00
         11   -1    0    0    0    0  0.00000000000E+00  0.00000000000E+00  0.39999999674E+01  0.40000000000E+01  0.51100000000E-03 0. -1.
    9000002   -1    0    0    0    0 -0.00000000000E+00 -0.00000000000E+00  0.00000000000E+00  0.93800000000E+00  0.93800000000E+00 0. -1.
         11    1    1    2    0    0 -0.42001227911E-01 -0.60552360210E-01  0.94508395635E+00  0.94795286652E+00  0.51100000000E-03 0. -1.
    9000002    1    1    2    0    0  0.17652257962E+00  0.24950790937E+00  0.62351409044E-01  0.98850701371E+00  0.93800000000E+00 0. -1.
         22    1    1    2    0    0 -0.13452135171E+00 -0.18895554916E+00  0.29925646020E+01  0.30015401198E+01  0.00000000000E+00 0. -1.
</event>
<event>
 5    1  0.1461556E+002  0.1599677E+01  0.7818608E-02  0.3353714E+00
         11   -1    0    0    0    0  0.00000000000E+00  0.00000000000E+00  0.39999999674E+01  0.40000000000E+01  0.51100000000E-03 0.  1.
    9000002   -1    0    0    0    0 -0.00000000000E+00 -0.00000000000E+00  0.00000000000E+00  0.93800000000E+00  0.93800000000E+00 0.  1.
         11    1    1    2    0    0  0.72199327830E-01 -0.25094873934E+00  0.75244840046E+00  0.79647151185E+00  0.51100000000E-03 0.  1.
    9000002    1    1    2    0    0 -0.29333280645E+00  0.10209141302E+01  0.94418866869E+00  0.17028347068E+01  0.93800000000E+00 0.  1.
         22    1    1    2    0    0  0.22113347862E+00 -0.76996539083E+00  0.23033628982E+01  0.24386937814E+01  0.00000000000E+00 0.  1.
</event>
<event>
 5    1  0.1461556E+002  0.1599658E+01  0.7818608E-02  0.3353735E+00
         11   -1    0    0    0    0  0.00000000000E+00  0.00000000000E+00  0.39999999674E+01  0.40000000000E+01  0.51100000000E-03 0. -1.
    9000002   -1    0    0    0    0 -0.00000000000E+00 -0.00000000000E+00  0.00000000000E+00  0.93800000000E+00  0.93800000000E+00 0. -1.
         11    1    1    2    0    0 -0.10125312063E-01  0.23228131727E-02  0.14946107614E+00  0.14982253438E+00  0.51100000000E-03 0. -1.
    9000002    1    1    2    0    0  0.21884086369E+00 -0.75663699273E-01  0.35582938861E-01  0.96681252813E+00  0.93800000000E+00 0. -1.
         22    1    1    2    0    0 -0.20871555163E+00  0.73340886100E-01  0.38149559524E+01  0.38213649375E+01  0.00000000000E+00 0. -1.
</event>
<event>
 5    1  0.1461556E+002  0.1596549E+01  0.7818608E-02  0.3357118E+00
         11   -1    0    0    0    0  0.00000000000E+00  0.00000000000E+00  0.39999999674E+01  0.40000000000E+01  0.51100000000E-03 0.  1.
    9000002   -1    0    0    0    0 -0.00000000000E+00 -0.00000000000E+00  0.00000000000E+00  0.93800000000E+00  0.93800000000E+00 0. -1.
         11    1    1    2    0    0 -0.18787607703E-01  0.65828904797E-02  0.11792768572E+00  0.11959727768E+00  0.51100000000E-03 0.  1.
    9000002    1    1    2    0    0 -0.13655086380E+00 -0.16921788348E+00  0.33698304736E-01  0.96346271658E+00  0.93800000000E+00 0. -1.
         22    1    1    2    0    0  0.15533847151E+00  0.16263499300E+00  0.38483739769E+01  0.38549400057E+01  0.00000000000E+00 0.  1.
</event>
<event>
 5    1  0.1461556E+002  0.1599369E+01  0.7818608E-02  0.3354048E+00
         11   -1    0    0    0    0  0.00000000000E+00  0.00000000000E+00  0.39999999674E+01  0.40000000000E+01  0.51100000000E-03 0.  1.
    9000002   -1    0    0    0    0 -0.00000000000E+00 -0.00000000000E+00  0.00000000000E+00  0.93800000000E+00  0.93800000000E+00 0. -1.
         11    1    1    2    0    0  0.83706522564E-01  0.53151220156E-01  0.13104096034E+01  0.13141557838E+01  0.51100000000E-03 0.  1.
    9000002    1    1    2    0    0 -0.24247116362E+00 -0.21844573738E+00  0.71481848829E-01  0.99572308403E+00  0.93800000000E+00 0. -1.
         22    1    1    2    0    0  0.15876464105E+00  0.16529451722E+00  0.26181085151E+01  0.26281211322E+01  0.00000000000E+00 0.  1.
</event>
<event>
 5    1  0.1461556E+002  0.1424160E+01  0.7818608E-02  0.3569528E+00
         11   -1    0    0    0    0  0.00000000000E+00  0.00000000000E+00  0.39999999674E+01  0.40000000000E+01  0.51100000000E-03 0. -1.
    9000002   -1    0    0    0    0 -0.00000000000E+00 -0.00000000000E+00  0.00000000000E+00  0.93800000000E+00  0.93800000000E+00 0.  1.
         11    1    1    2    0    0 -0.54329051255E+00  0.33923717073E-01  0.26115090605E+01  0.26676385126E+01  0.51100000000E-03 0. -1.
    9000002    1    1    2    0    0  0.12125492878E+00  0.97190117327E-01  0.15916875404E+00  0.96401627005E+00  0.93800000000E+00 0.  1.
         22    1    1    2    0    0  0.42203558377E+00 -0.13111383440E+00  0.12293221528E+01  0.13063452174E+01  0.00000000000E+00 0. -1.
</event>
<event>
 5    1  0.1461556E+002  0.1599616E+01  0.7818608E-02  0.3353780E+00
         11   -1    0    0    0    0  0.00000000000E+00  0.00000000000E+00  0.39999999674E+01  0.40000000000E+01  0.51100000000E-03 0. -1.
    9000002   -1    0    0    0    0 -0.00000000000E+00 -0.00000000000E+00  0.00000000000E+00  0.93800000000E+00  0.93800000000E+00 0.  1.
         11    1    1    2    0    0 -0.16347368331E-01  0.11611951699E+00  0.97535355614E+00  0.98237762560E+00  0.51100000000E-03 0. -1.
    9000002    1    1    2    0    0  0.96595415952E-01 -0.45437050436E+00  0.14693042610E+00  0.10569842855E+01  0.93800000000E+00 0.  1.
         22    1    1    2    0    0 -0.80248047621E-01  0.33825098736E+00  0.28777159851E+01  0.28986380889E+01  0.00000000000E+00 0. -1.
</event>
<event>
 5    1  0.1461556E+002  0.1599576E+01  0.7818608E-02  0.3353824E+00
         11   -1    0    0    0    0  0.00000000000E+00  0.00000000000E+00  0.39999999674E+01  0.40000000000E+01  0.51100000000E-03 0.  1.
    9000002   -1    0    0    0    0 -0.00000000000E+00 -0.00000000000E+00  0.00000000000E+00  0.93800000000E+00  0.93800000000E+00 0. -1.
         11    1    1    2    0    0 -0.25060687716E-01 -0.37011639063E-01  0.59409169452E+00  0.59577101484E+00  0.51100000000E-03 0.  1.
    9000002    1    1    2    0    0  0.15601924065E+00  0.18999110123E+00  0.40213545402E-01  0.97051519887E+00  0.93800000000E+00 0. -1.
         22    1    1    2    0    0 -0.13095855293E+00 -0.15297946217E+00  0.33656947274E+01  0.33717137863E+01  0.00000000000E+00 0.  1.
</event>
<event>
 5    1  0.1461556E+002  0.1597528E+01  0.7818608E-02  0.3356051E+00
         11   -1    0    0    0    0  0.00000000000E+00  0.00000000000E+00  0.39999999674E+01  0.40000000000E+01  0.51100000000E-03 0. -1.
    9000002   -1    0    0    0    0 -0.00000000000E+00 -0.00000000000E+00  0.00000000000E+00  0.93800000000E+00  0.93800000000E+00 0. -1.
         11    1    1    2    0    0  0.15115772426E-01  0.25718417955E-01  0.27728933547E+00  0.27888987124E+00  0.51100000000E-03 0. -1.
    9000002    1    1    2    0    0  0.19042040663E+00 -0.36953795256E+00  0.11862024913E+00  0.10328276687E+01  0.93800000000E+00 0. -1.
         22    1    1    2    0    0 -0.20553617906E+00  0.34381953461E+00  0.36040903828E+01  0.36262824601E+01  0.00000000000E+00 0. -1.
</event>
<event>
 5    1  0.1461556E+002  0.1599374E+01  0.7818608E-02  0.3354043E+00
         11   -1    0    0    0    0  0.00000000000E+00  0.00000000000E+00  0.39999999674E+01  0.40000000000E+01  0.51100000000E-03 0.  1.
    9000002   -1    0    0    0    0 -0.00000000000E+00 -0.00000000000E+00  0.00000000000E+00  0.93800000000E+00  0.93800000000E+00 0.  1.
         11    1    1    2    0    0  0.35636631616E-01  0.35999250290E-01  0.46780918962E+00  0.47054395602E+00  0.51100000000E-03 0.  1.
    9000002    1    1    2    0    0 -0.30937598294E+00 -0.18776713802E+00  0.88180338647E-01  0.10092520840E+01  0.93800000000E+00 0.  1.
         22    1    1    2    0    0  0.27373935133E+00  0.15176788773E+00  0.34440104391E+01  0.34582039600E+01  0.00000000000E+00 0.  1.
</event>
<event>
 5    1  0.1461556E+002  0.1599369E+01  0.7818608E-02  0.3354049E+00
         11   -1    0    0    0    0  0.00000000000E+00  0.00000000000E+00  0.39999999674E+01  0.40000000000E+01  0.51100000000E-03 0.  1.
    9000002   -1    0    0    0    0 -0.00000000000E+00 -0.00000000000E+00  0.00000000000E+00  0.93800000000E+00  0.93800000000E+00 0. -1.
         11    1    1    2    0    0  0.13335424829E-01 -0.22886891047E-02  0.13150784228E+00  0.13220304594E+00  0.51100000000E-03 0.  1.
    9000002    1    1    2    0    0 -0.19106442915E+00  0.15634173079E+00  0.40713069855E-01  0.97079859236E+00  0.93800000000E+00 0. -1.
         22    1    1    2    0    0  0.17772900432E+00 -0.15405304169E+00  0.38277790552E+01  0.38349983617E+01  0.00000000000E+00 0.  1.
</event>
<event>
 5    1  0.1461556E+002  0.1599293E+01  0.7818608E-02  0.3354131E+00
         11   -1    0    0    0    0  0.00000000000E+00  0.00000000000E+00  0.39999999674E+01  0.40000000000E+01  0.51100000000E-03 0.  1.
    9000002   -1    0    0    0    0 -0.00000000000E+00 -0.00000000000E+00  0.00000000000E+00  0.93800000000E+00  0.93800000000E+00 0.  1.
         11    1    1    2    0    0 -0.14310529190E+00  0.16722804847E+00  0.16498373399E+01  0.16644542211E+01  0.51100000000E-03 0.  1.
    9000002    1    1    2    0    0  0.38254438199E+00 -0.39177924045E+00  0.20735995098E+00  0.11057455976E+01  0.93800000000E+00 0.  1.
         22    1    1    2    0    0 -0.23943909009E+00  0.22455119197E+00  0.21428026765E+01  0.21678001813E+01  0.00000000000E+00 0.  1.
</event>
<event>
 5    1  0.1768706E+002  0.1530013E+01  0.7818608E-02  0.3433013E+00
         11   -1    0    0    0    0  0.00000000000E+00  0.00000000000E+00  0.39999999674E+01  0.40000000000E+01  0.51100000000E-03 0.  1.
    9000002   -1    0    0    0    0 -0.00000000000E+00 -0.00000000000E+00  0.00000000000E+00  0.93800000000E+00  0.93800000000E+00 0.  1.
         11    1    1    2    0    0 -0.12422195972E+00 -0.95213492588E-01  0.24221449617E+00  0.28838312662E+00  0.51100000000E-03 0.  1.
    9000002    1    1    2    0    0  0.27171169053E-01 -0.85423599485E-01  0.57897269631E-01  0.94405061178E+00  0.93800000000E+00 0.  1.
         22    1    1    2    0    0  0.97050790666E-01  0.18063709207E+00  0.36998882016E+01  0.37055662616E+01  0.00000000000E+00 0.  1.
</event>
<event>
 5    1  0.1461556E+002  0.1599339E+01  0.7818608E-02  0.3354081E+00
         11   -1    0    0    0    0  0.00000000000E+00  0.00000000000E+00  0.39999999674E+01  0.40000000000E+01  0.51100000000E-03 0. -1.
    9000002   -1    0    0    0    0 -0.00000000000E+00 -0.00000000000E+00  0.00000000000E+00  0.93800000000E+00  0.93800000000E+00 0.  1.
         11    1    1    2    0    0 -0.68851941533E-01 -0.89240638029E-01  0.15645819873E+01  0.15686368406E+01  0.51100000000E-03 0. -1.
    9000002    1    1    2    0    0  0.16236611845E+00  0.27765593205E+00  0.69428902209E-01  0.99404222520E+00  0.93800000000E+00 0.  1.
         22    1    1    2    0    0 -0.93514176922E-01 -0.18841529402E+00  0.23659890778E+01  0.23753209342E+01  0.00000000000E+00 0. -1.
</event>
<event>
 5    1  0.1461556E+002  0.1599677E+01  0.7818608E-02  0.3353714E+00
         11   -1    0    0    0    0  0.00000000000E+00  0.00000000000E+00  0.39999999674E+01  0.40000000000E+01  0.51100000000E-03 0.  1.
    9000002   -1    0    0    0    0 -0.00000000000E+00 -0.00000000000E+00  0.00000000000E+00  0.93800000000E+00  0.93800000000E+00 0. -1.
         11    1    1    2    0    0 -0.27222898689E-01  0.35451153227E-01  0.57831119809E+00  0.58003618287E+00  0.51100000000E-03 0.  1.
    9000002    1    1    2    0    0  0.18708683305E+00 -0.24073344149E+00  0.62039449111E-01  0.98825450477E+00  0.93800000000E+00 0. -1.
         22    1    1    2    0    0 -0.15986393436E+00  0.20528228826E+00  0.33596493202E+01  0.33697093124E+01  0.00000000000E+00 0.  1.
</event>
<event>
 5    1  0.1461556E+002  0.1599669E+01  0.7818608E-02  0.3353722E+00
         11   -1    0    0    0    0  0.00000000000E+00  0.00000000000E+00  0.39999999674E+01  0.40000000000E+01  0.51100000000E-03 0. -1.
    9000002   -1    0    0    0    0 -0.00000000000E+00 -0.00000000000E+00  0.00000000000E+00  0.93800000000E+00  0.93800000000E+00 0. -1.
         11    1    1    2    0    0 -0.11765513902E+00 -0.77917366323E-01  0.14605601802E+01  0.14673616285E+01  0.51100000000E-03 0. -1.
    9000002    1    1    2    0    0  0.30633808011E+00  0.21026265180E+00  0.92800399338E-01  0.10131679605E+01  0.93800000000E+00 0. -1.
         22    1    1    2    0    0 -0.18868294109E+00 -0.13234528548E+00  0.24466393878E+01  0.24574704110E+01  0.00000000000E+00 0. -1.
</event>
<event>
 5    1  0.1461556E+002  0.1599658E+01  0.7818608E-02  0.3353735E+00
         11   -1    0    0    0    0  0.00000000000E+00  0.00000000000E+00  0.39999999674E+01  0.40000000000E+01  0.51100000000E-03 0.  1.
    9000002   -1    0    0    0    0 -0.00000000000E+00 -0.00000000000E+00  0.00000000000E+00  0.93800000000E+00  0.93800000000E+00 0.  1.
         11    1    1    2    0    0 -0.27820635054E-02  0.41795356266E-01  0.43751931244E+00  0.43952019471E+00  0.51100000000E-03 0.  1.
    9000002    1    1    2    0    0  0.29955010313E-01 -0.34501527177E+00  0.80399339701E-01  0.10031155936E+01  0.93800000000E+00 0.  1.
         22    1    1    2    0    0 -0.27172946807E-01  0.30321991550E+00  0.34820813152E+01  0.34953642116E+01  0.00000000000E+00 0.  1.
</event>
<event>
 5    1  0.1461556E+002  0.1599676E+01  0.7818608E-02  0.3353715E+00
         11   -1    0    0    0    0  0.00000000000E+00  0.00000000000E+00  0.39999999674E+01  0.40000000000E+01  0.51100000000E-03 0.  1.
    9000002   -1    0    0    0    0 -0.00000000000E+00 -0.00000000000E+00  0.00000000000E+00  0.93800000000E+00  0.93800000000E+00 0. -1.
         11    1    1    2    0    0  0.28455587152E-01 -0.15205031425E+00  0.15499520694E+01  0.15576523030E+01  0.51100000000E-03 0.  1.
    9000002    1    1    2    0    0 -0.69563978388E-01  0.38163160174E+00  0.10134890608E+00  0.10200967735E+01  0.93800000000E+00 0. -1.
         22    1    1    2    0    0  0.41108391236E-01 -0.22958128749E+00  0.23486989918E+01  0.23602509235E+01  0.00000000000E+00 0.  1.
</event>
<event>
 5    1  0.2445482E+002  0.1511454E+01  0.7818608E-02  0.3455456E+00
         11   -1    0    0    0    0  0.00000000000E+00  0.00000000000E+00  0.39999999674E+01  0.40000000000E+01  0.51100000000E-03 0.  1.
    9000002   -1    0    0    0    0 -0.00000000000E+00 -0.00000000000E+00  0.00000000000E+00  0.93800000000E+00  0.93800000000E+00 0. -1.
         11    1    1    2    0    0 -0.29043349153E-01  0.81741062627E-01  0.29502124255E-01  0.91628346629E-01  0.51100000000E-03 0.  1.
    9000002    1    1    2    0    0 -0.14770551893E+00  0.19789554002E-01  0.82836187655E-01  0.95337001251E+00  0.93800000000E+00 0. -1.
         22    1    1    2    0    0  0.17674886808E+00 -0.10153061663E+00  0.38876616554E+01  0.38930016409E+01  0.00000000000E+00 0.  1.
</event>
<event>
 5    1  0.1461556E+002  0.1561740E+01  0.7818608E-02  0.3395966E+00
         11   -1    0    0    0    0  0.00000000000E+00  0.00000000000E+00  0.39999999674E+01  0.40000000000E+01  0.51100000000E-03 0.  1.
    9000002   -1    0    0    0    0 -0.00000000000E+00 -0.00000000000E+00  0.00000000000E+00  0.93800000000E+00  0.93800000000E+00 0.  1.
         11    1    1    2    0    0  0.16653192969E+00 -0.11948087105E+00  0.58400227766E+00  0.61892445709E+00  0.51100000000E-03 0.  1.
    9000002    1    1    2    0    0 -0.22748865057E-01  0.45347119396E+00  0.17374572490E+00  0.10564966690E+01  0.93800000000E+00 0.  1.
         22    1    1    2    0    0 -0.14378306463E+00 -0.33399032291E+00  0.32422519648E+01  0.32625788739E+01  0.00000000000E+00 0.  1.
</event>
<event>
 5    1  0.1461556E+002  0.1599448E+01  0.7818608E-02  0.3353963E+00
         11   -1    0    0    0    0  0.00000000000E+00  0.00000000000E+00  0.39999999674E+01  0.40000000000E+01  0.51100000000E-03 0.  1.
    9000002   -1    0    0    0    0 -0.00000000000E+00 -0.00000000000E+00  0.00000000000E+00  0.93800000000E+00  0.93800000000E+00 0. -1.
         11    1    1    2    0    0 -0.32288494509E-01 -0.89772499592E-02  0.60072234361E+00  0.60165665718E+00  0.51100000000E-03 0.  1.
    9000002    1    1    2    0    0  0.29441848580E+00  0.34959529104E-01  0.58801895994E-01  0.98549788251E+00  0.93800000000E+00 0. -1.
         22    1    1    2    0    0 -0.26212999129E+00 -0.25982279145E-01  0.33404757278E+01  0.33508454603E+01  0.00000000000E+00 0.  1.
</event>
<event>
 5    1  0.1461556E+002  0.1567058E+01  0.7818608E-02  0.3389913E+00
         11   -1    0    0    0    0  0.00000000000E+00  0.00000000000E+00  0.39999999674E+01  0.40000000000E+01  0.51100000000E-03 0. -1.
    9000002   -1    0    0    0    0 -0.00000000000E+00 -0.00000000000E+00  0.00000000000E+00  0.93800000000E+00  0.93800000000E+00 0. -1.
         11    1    1    2    0    0  0.18614276748E+00  0.15094990356E+00  0.13451496908E+01  0.13663319344E+01  0.51100000000E-03 0. -1.
    9000002    1    1    2    0    0  0.24203293376E-01 -0.23887229333E+00  0.63513074887E-01  0.97032143263E+00  0.93800000000E+00 0. -1.
         22    1    1    2    0    0 -0.21034606086E+00  0.87922389778E-01  0.25913372017E+01  0.26013466329E+01  0.00000000000E+00 0. -1.
</event>
<event>
 5    1  0.1461556E+002  0.1510638E+01  0.7818608E-02  0.3456456E+00
         11   -1    0    0    0    0  0.00000000000E+00  0.00000000000E+00  0.39999999674E+01  0.40000000000E+01  0.51100000000E-03 0.  1.
    9000002   -1    0    0    0    0 -0.00000000000E+00 -0.00000000000E+00  0.00000000000E+00  0.93800000000E+00  0.93800000000E+00 0. -1.
         11    1    1    2    0    0  0.12902187959E+00  0.52102590425E+00  0.27876116253E+01  0.28388190278E+01  0.51100000000E-03 0.  1.
    9000002    1    1    2    0    0 -0.97983551346E-01 -0.28330386538E+00  0.13322352116E+00  0.99370738302E+00  0.93800000000E+00 0. -1.
         22    1    1    2    0    0 -0.31038328249E-01 -0.23772203887E+00  0.10791648209E+01  0.11054735891E+01  0.00000000000E+00 0.  1.
</event>
<event>
 5    1  0.1461556E+002  0.1589947E+01  0.7818608E-02  0.3364348E+00
         11   -1    0    0    0    0  0.00000000000E+00  0.00000000000E+00  0.39999999674E+01  0.40000000000E+01  0.51100000000E-03 0. -1.
    9000002   -1    0    0    0    0 -0.00000000000E+00 -0.00000000000E+00  0.00000000000E+00  0.93800000000E+00  0.93800000000E+00 0.  1.
         11    1    1    2    0    0 -0.48567205010E-01 -0.19396395093E-01  0.25048169244E+00  0.25588343619E+00  0.51100000000E-03 0. -1.
    9000002    1    1    2    0    0 -0.13330305443E+00  0.14317329488E+00  0.32644213106E-01  0.95873768119E+00  0.93800000000E+00 0.  1.
         22    1    1    2    0    0  0.18187025944E+00 -0.12377689978E+00  0.37168740618E+01  0.37233788826E+01  0.00000000000E+00 0. -1.
</event>
<event>
 5    1  0.1461556E+002  0.1543824E+01  0.7818608E-02  0.3416686E+00
         11   -1    0    0    0    0  0.00000000000E+00  0.00000000000E+00  0.39999999674E+01  0.40000000000E+01  0.51100000000E-03 0.  1.
    9000002   -1    0    0    0    0 -0.00000000000E+00 -0.00000000000E+00  0.00000000000E+00  0.93800000000E+00  0.93800000000E+00 0. -1.
         11    1    1    2    0    0  0.21873317416E+00  0.17863830269E+00  0.14946189335E+01  0.15210660282E+01  0.51100000000E-03 0.  1.
    9000002    1    1    2    0    0  0.62013792716E-02 -0.35771540736E-01  0.42483541263E-01  0.93966319046E+00  0.93800000000E+00 0. -1.
         22    1    1    2    0    0 -0.22493455343E+00 -0.14286676195E+00  0.24628974926E+01  0.24772707813E+01  0.00000000000E+00 0.  1.
</event>
<event>
 5    1  0.1461556E+002  0.1589763E+01  0.7818608E-02  0.3364550E+00
         11   -1    0    0    0    0  0.00000000000E+00  0.00000000000E+00  0.39999999674E+01  0.40000000000E+01  0.51100000000E-03 0.  1.
    9000002   -1    0    0    0    0 -0.00000000000E+00 -0.00000000000E+00  0.00000000000E+00  0.93800000000E+00  0.93800000000E+00 0. -1.
         11    1    1    2    0    0  0.82520827622E-02 -0.70127650589E-01  0.12282474530E+01  0.12302755996E+01  0.51100000000E-03 0.  1.
    9000002    1    1    2    0    0  0.22982218777E-01 -0.12796712660E+00  0.18469708295E-01  0.94714776988E+00  0.93800000000E+00 0. -1.
         22    1    1    2    0    0 -0.31234301539E-01  0.19809477719E+00  0.27532828061E+01  0.27605766305E+01  0.00000000000E+00 0.  1.
</event>
<event>
 5    1  0.1461556E+002  0.1589632E+01  0.7818608E-02  0.3364694E+00
         11   -1    0    0    0    0  0.00000000000E+00  0.00000000000E+00  0.39999999674E+01  0.40000000000E+01  0.51100000000E-03 0.  1.
    9000002   -1    0    0    0    0 -0.00000000000E+00 -0.00000000000E+00  0.00000000000E+00  0.93800000000E+00  0.93800000000E+00 0.  1.
         11    1    1    2    0    0  0.49541464170E-01  0.60384528761E-01  0.17777040575E+01  0.17794191820E+01  0.51100000000E-03 0.  1.
    9000002    1    1    2    0    0 -0.18600031435E+00  0.12195732924E+00  0.40425825454E-01  0.96485644241E+00  0.93800000000E+00 0.  1.
         22    1    1    2    0    0  0.13645885018E+00 -0.18234185800E+00  0.21818700844E+01  0.21937243756E+01  0.00000000000E+00 0.  1.
</event>
<event>
 5    1  0.1461556E+002  0.1541897E+01  0.7818608E-02  0.3418946E+00
         11   -1    0    0    0    0  0.00000000000E+00  0.00000000000E+00  0.39999999674E+01  0.40000000000E+01  0.51100000000E-03 0. -1.
    9000002   -1    0    0    0    0 -0.00000000000E+00 -0.00000000000E+00  0.00000000000E+00  0.93800000000E+00  0.93800000000E+00 0.  1.
         11    1    1    2    0    0 -0.29933857349E-01  0.30463738875E+00  0.17751337089E+01  0.18013328177E+01  0.51100000000E-03 0. -1.
    9000002    1    1    2    0    0 -0.11345868797E+00 -0.63174950754E-01  0.54827643310E-01  0.94853256072E+00  0.93800000000E+00 0.  1.
         22    1    1    2    0    0  0.14339254532E+00 -0.24146243800E+00  0.21700386151E+01  0.21881346216E+01  0.00000000000E+00 0. -1.
</event>
<event>
 5    1  0.1461556E+002  0.1567887E+01  0.7818608E-02  0.3388973E+00
         11   -1    0    0    0    0  0.00000000000E+00  0.00000000000E+00  0.39999999674E+01  0.40000000000E+01  0.51100000000E-03 0. -1.
    9000002   -1    0    0    0    0 -0.00000000000E+00 -0.00000000000E+00  0.00000000000E+00  0.93800000000E+00  0.93800000000E+00 0. -1.
         11    1    1    2    0    0 -0.48347787526E-01 -0.66125005021E-01  0.13210621191E+00  0.15544239188E+00  0.51100000000E-03 0. -1.
    9000002    1    1    2    0    0  0.21617842541E+00 -0.88956856614E-01  0.60787683919E-01  0.96859980202E+00  0.93800000000E+00 0. -1.
         22    1    1    2    0    0 -0.16783063789E+00  0.15508186163E+00  0.38071060715E+01  0.38139578061E+01  0.00000000000E+00 0. -1.
</event>
<event>
 5    1  0.1461556E+002  0.1598686E+01  0.7818608E-02  0.3354791E+00
         11   -1    0    0    0    0  0.00000000000E+00  0.00000000000E+00  0.39999999674E+01  0.40000000000E+01  0.51100000000E-03 0.  1.
    9000002   -1    0    0    0    0 -0.00000000000E+00 -0.00000000000E+00  0.00000000000E+00  0.93800000000E+00  0.93800000000E+00 0.  1.
         11    1    1    2    0    0  0.47795559433E+00  0.63322194033E-01  0.26617991479E+01  0.27051111281E+01  0.51100000000E-03 0.  1.
    9000002    1    1    2    0    0 -0.70083855846E+00 -0.87385154264E-01  0.35821401416E+00  0.12275879317E+01  0.93800000000E+00 0.  1.
         22    1    1    2    0    0  0.22288296413E+00  0.24062960231E-01  0.97998680531E+00  0.10053009402E+01  0.00000000000E+00 0.  1.
</event>
<event>
 5    1  0.1662261E+002  0.1566055E+01  0.7818608E-02  0.3391051E+00
         11   -1    0    0    0    0  0.00000000000E+00  0.00000000000E+00  0.39999999674E+01  0.40000000000E+01  0.51100000000E-03 0.  1.
    9000002   -1    0    0    0    0 -0.00000000000E+00 -0.00000000000E+00  0.00000000000E+00  0.93800000000E+00  0.93800000000E+00 0.  1.
         11    1    1    2    0    0  0.60690744615E-01 -0.15264512842E+00  0.82374856867E+00  0.83996777749E+00  0.51100000000E-03 0.  1.
    9000002    1    1    2    0    0  0.39973259033E-01 -0.61694317994E-01  0.28418780648E-01  0.94130530510E+00  0.93800000000E+00 0.  1.
         22    1    1    2    0    0 -0.10066400365E+00  0.21433944641E+00  0.31478326180E+01  0.31567269174E+01  0.00000000000E+00 0.  1.
</event>
<event>
 5    1  0.1461556E+002  0.1580954E+01  0.7818608E-02  0.3374299E+00
         11   -1    0    0    0    0  0.00000000000E+00  0.00000000000E+00  0.39999999674E+01  0.40000000000E+01  0.51100000000E-03 0.  1.
    9000002   -1    0    0    0    0 -0.00000000000E+00 -0.00000000000E+00  0.00000000000E+00  0.93800000000E+00  0.93800000000E+00 0.  1.
         11    1    1    2    0    0  0.15705319650E+00  0.73144908625E-01  0.14049811937E+01  0.14156229371E+01  0.51100000000E-03 0.  1.
    9000002    1    1    2    0    0 -0.16083371850E+00  0.13727377724E+00  0.43844604600E-01  0.96253723267E+00  0.93800000000E+00 0.  1.
         22    1    1    2    0    0  0.37805220035E-02 -0.21041868586E+00  0.25511741690E+01  0.25598398302E+01  0.00000000000E+00 0.  1.
</event>
<event>
 5    1  0.1461556E+002  0.1508741E+01  0.7818608E-02  0.3458786E+00
         11   -1    0    0    0    0  0.00000000000E+00  0.00000000000E+00  0.39999999674E+01  0.40000000000E+01  0.51100000000E-03 0.  1.
    9000002   -1    0    0    0    0 -0.00000000000E+00 -0.00000000000E+00  0.00000000000E+00  0.93800000000E+00  0.93800000000E+00 0.  1.
         11    1    1    2    0    0  0.21050610719E+00  0.75166122114E-01  0.24575042634E+00  0.33219918760E+00  0.51100000000E-03 0.  1.
    9000002    1    1    2    0    0 -0.37435415498E+00 -0.21956044192E+00  0.20977906157E+00  0.10546084940E+01  0.93800000000E+00 0.  1.
         22    1    1    2    0    0  0.16384804780E+00  0.14439431981E+00  0.35444704794E+01  0.35511923184E+01  0.00000000000E+00 0.  1.
</event>
<event>
 5    1  0.1461556E+002  0.1598531E+01  0.7818608E-02  0.3354960E+00
         11   -1    0    0    0    0  0.00000000000E+00  0.00000000000E+00  0.39999999674E+01  0.40000000000E+01  0.51100000000E-03 0.  1.
    9000002   -1    0    0    0    0 -0.00000000000E+00 -0.00000000000E+00  0.00000000000E+00  0.93800000000E+00  0.93800000000E+00 0. -1.
         11    1    1    2    0    0  0.58670380243E-01  0.59366838601E-01  0.77869849077E+00  0.78315913817E+00  0.51100000000E-03 0.  1.
    9000002    1    1    2    0    0 -0.27142893063E+00 -0.13771972071E+00  0.62726768744E-01  0.98813917713E+00  0.93800000000E+00 0. -1.
         22    1    1    2    0    0  0.21275855038E+00  0.78352882109E-01  0.31585747078E+01  0.31667016847E+01  0.00000000000E+00 0.  1.
</event>
<event>
 5    1  0.1461556E+002  0.1599268E+01  0.7818608E-02  0.3354159E+00
         11   -1    0    0    0    0  0.00000000000E+00  0.00000000000E+00  0.39999999674E+01  0.40000000000E+01  0.51100000000E-03 0. -1.
    9000002   -1    0    0    0    0 -0.00000000000E+00 -0.00000000000E+00  0.00000000000E+00  0.93800000000E+00  0.93800000000E+00 0. -1.
         11    1    1    2    0    0 -0.48647527813E-01 -0.11147991520E-01  0.31128638091E+00  0.31526232211E+00  0.51100000000E-03 0. -1.
    9000002    1    1    2    0    0  0.43769260731E+00  0.12599006790E+00  0.14136527230E+00  0.10522720446E+01  0.93800000000E+00 0. -1.
         22    1    1    2    0    0 -0.38904507950E+00 -0.11484207638E+00  0.35473483141E+01  0.35704656333E+01  0.00000000000E+00 0. -1.
</event>
<event>
 5    1  0.1461556E+002  0.1598437E+01  0.7818608E-02  0.3355062E+00
         11   -1    0    0    0    0  0.00000000000E+00  0.00000000000E+00  0.39999999674E+01  0.40000000000E+01  0.51100000000E-03 0.  1.
    9000002   -1    0    0    0    0 -0.00000000000E+00 -0.00000000000E+00  0.00000000000E+00  0.93800000000E+00  0.93800000000E+00 0.  1.
         11    1    1    2    0    0 -0.22370977053E+00  0.37882100565E+00  0.24205611547E+01  0.24602170596E+01  0.51100000000E-03 0.  1.
    9000002    1    1    2    0    0  0.39688940153E+00 -0.55507821050E+00  0.33259248017E+00  0.12066875216E+01  0.93800000000E+00 0.  1.
         22    1    1    2    0    0 -0.17317963101E+00  0.17625720486E+00  0.12468463325E+01  0.12710954188E+01  0.00000000000E+00 0. -1.
</event>
<event>
 5    1  0.1461556E+002  0.1580888E+01  0.7818608E-02  0.3374372E+00
         11   -1    0    0    0    0  0.00000000000E+00  0.00000000000E+00  0.39999999674E+01  0.40000000000E+01  0.51100000000E-03 0. -1.
    9000002   -1    0    0    0    0 -0.00000000000E+00 -0.00000000000E+00  0.00000000000E+00  0.93800000000E+00  0.93800000000E+00 0.  1.
         11    1    1    2    0    0 -0.20203198456E-01 -0.86908813892E-01  0.24805509622E+01  0.24821552426E+01  0.51100000000E-03 0. -1.
    9000002    1    1    2    0    0 -0.19461356449E+00  0.21711979152E-01  0.39573878210E-01  0.95903907186E+00  0.93800000000E+00 0.  1.
         22    1    1    2    0    0  0.21481676295E+00  0.65196834739E-01  0.14798751270E+01  0.14968056856E+01  0.00000000000E+00 0. -1.
</event>
<event>
 5    1  0.1461556E+002  0.1599672E+01  0.7818608E-02  0.3353720E+00
         11   -1    0    0    0    0  0.00000000000E+00  0.00000000000E+00  0.39999999674E+01  0.40000000000E+01  0.51100000000E-03 0. -1.
    9000002   -1    0    0    0    0 -0.00000000000E+00 -0.00000000000E+00  0.00000000000E+00  0.93800000000E+00  0.93800000000E+00 0. -1.
         11    1    1    2    0    0 -0.55425546113E-02 -0.17339751489E-02  0.82835412213E-01  0.83040310807E-01  0.51100000000E-03 0. -1.
    9000002    1    1    2    0    0  0.23650195744E+00  0.73170081832E-01  0.40708892699E-01  0.97097283726E+00  0.93800000000E+00 0. -1.
         22    1    1    2    0    0 -0.23095940282E+00 -0.71436106683E-01  0.38764556624E+01  0.38839868519E+01  0.00000000000E+00 0. -1.
</event>
<event>
 5    1  0.1461556E+002  0.1596571E+01  0.7818608E-02  0.3357094E+00
         11   -1    0    0    0    0  0.00000000000E+00  0.00000000000E+00  0.39999999674E+01  0.40000000000E+01  0.51100000000E-03 0. -1.
    9000002   -1    0    0    0    0 -0.00000000000E+00 -0.00000000000E+00  0.00000000000E+00  0.93800000000E+00  0.93800000000E+00 0.  1.
         11    1    1    2    0    0 -0.77639562361E-01 -0.21355083877E-01  0.63140983834E+00  0.63652383013E+00  0.51100000000E-03 0. -1.
    9000002    1    1    2    0    0  0.20800045756E+00  0.26978444491E+00  0.80223524585E-01  0.10011631490E+01  0.93800000000E+00 0.  1.
         22    1    1    2    0    0 -0.13036089520E+00 -0.24842936103E+00  0.32883666044E+01  0.33003130209E+01  0.00000000000E+00 0. -1.
</event>
<event>
 5    1  0.1461556E+002  0.1596352E+01  0.7818608E-02  0.3357332E+00
         11   -1    0    0    0    0  0.00000000000E+00  0.00000000000E+00  0.39999999674E+01  0.40000000000E+01  0.51100000000E-03 0. -1.
    9000002   -1    0    0    0    0 -0.00000000000E+00 -0.00000000000E+00  0.00000000000E+00  0.93800000000E+00  0.93800000000E+00 0. -1.
         11    1    1    2    0    0  0.64813306281E-01 -0.23350753061E-01  0.88041857455E+00  0.88310993079E+00  0.51100000000E-03 0. -1.
    9000002    1    1    2    0    0 -0.15073234638E+00  0.32172258043E+00  0.87375972465E-01  0.10068287936E+01  0.93800000000E+00 0. -1.
         22    1    1    2    0    0  0.85919040098E-01 -0.29837182737E+00  0.30322054203E+01  0.30480612756E+01  0.00000000000E+00 0. -1.
</event>
<event>
 5    1  0.1461556E+002  0.1599677E+01  0.7818608E-02  0.3353714E+00
         11   -1    0    0    0    0  0.00000000000E+00  0.00000000000E+00  0.39999999674E+01  0.40000000000E+01  0.51100000000E-03 0. -1.
    9000002   -1    0    0    0    0 -0.00000000000E+00 -0.00000000000E+00  0.00000000000E+00  0.93800000000E+00  0.93800000000E+00 0. -1.
         11    1    1    2    0    0  0.94179126453E-01  0.85138660490E-01  0.11138821617E+01  0.11210941221E+01  0.51100000000E-03 0. -1.
    9000002    1    1    2    0    0 -0.32790680297E+00 -0.29356244968E+00  0.13137041729E+00  0.10444156116E+01  0.93800000000E+00 0. -1.
         22    1    1    2    0    0  0.23372767652E+00  0.20842378919E+00  0.27547473884E+01  0.27724902662E+01  0.00000000000E+00 0. -1.
</event>
<event>
 5    1  0.1461556E+002  0.1469218E+01  0.7818608E-02  0.3508810E+00
         11   -1    0    0    0    0  0.00000000000E+00  0.00000000000E+00  0.39999999674E+01  0.40000000000E+01  0.51100000000E-03 0.  1.
    9000002   -1    0    0    0    0 -0.00000000000E+00 -0.00000000000E+00  0.00000000000E+00  0.93800000000E+00  0.93800000000E+00 0.  1.
         11    1    1    2    0    0  0.31113276018E+00 -0.18783453051E+00  0.11147745868E+01  0.11725220876E+01  0.51100000000E-03 0.  1.
    9000002    1    1    2    0    0 -0.15914766193E-01 -0.21128528623E+00  0.13530417045E+00  0.97110554035E+00  0.93800000000E+00 0.  1.
         22    1    1    2    0    0 -0.29521799399E+00  0.39911981674E+00  0.27499212101E+01  0.27943723721E+01  0.00000000000E+00 0.  1.
</event>
<event>
 5    1  0.1461556E+002  0.1599674E+01  0.7818608E-02  0.3353717E+00
         11   -1    0    0    0    0  0.00000000000E+00  0.00000000000E+00  0.39999999674E+01  0.40000000000E+01  0.51100000000E-03 0.  1.
    9000002   -1    0    0    0    0 -0.00000000000E+00 -0.00000000000E+00  0.00000000000E+00  0.93800000000E+00  0.93800000000E+00 0. -1.
         11    1    1    2    0    0  0.18103717773E+00  0.18779827835E+00  0.14133226695E+01  0.14371930567E+01  0.51100000000E-03 0. -1.
    9000002    1    1    2    0    0 -0.47240739039E+00 -0.49236692005E+00  0.33120630953E+00  0.12062899925E+01  0.93800000000E+00 0. -1.
         22    1    1    2    0    0  0.29137021266E+00  0.30456864171E+00  0.22554709883E+01  0.22945169508E+01  0.00000000000E+00 0.  1.
</event>
<event>
 5    1  0.1461556E+002  0.1599664E+01  0.7818608E-02  0.3353728E+00
         11   -1    0    0    0    0  0.00000000000E+00  0.00000000000E+00  0.39999999674E+01  0.40000000000E+01  0.51100000000E-03 0.  1.
    9000002   -1    0    0    0    0 -0.00000000000E+00 -0.00000000000E+00  0.00000000000E+00  0.93800000000E+00  0.93800000000E+00 0. -1.
         11    1    1    2    0    0  0.15139122575E+00  0.20151661714E+00  0.16120145356E+01  0.16316002495E+01  0.51100000000E-03 0.  1.
    9000002    1    1    2    0    0 -0.34847945353E+00 -0.47841647839E+00  0.24401045612E+00  0.11356519533E+01  0.93800000000E+00 0. -1.
         22    1    1    2    0    0  0.19708822777E+00  0.27689986125E+00  0.21439749757E+01  0.21707477972E+01  0.00000000000E+00 0. -1.
</event>
<event>
 5    1  0.1461556E+002  0.1599665E+01  0.7818608E-02  0.3353727E+00
         11   -1    0    0    0    0  0.00000000000E+00  0.00000000000E+00  0.39999999674E+01  0.40000000000E+01  0.51100000000E-03 0.  1.
    9000002   -1    0    0    0    0 -0.00000000000E+00 -0.00000000000E+00  0.00000000000E+00  0.93800000000E+00  0.93800000000E+00 0. -1.
         11    1    1    2    0    0  0.12726116103E-01  0.67204471972E-02  0.21537860999E+00  0.21585950339E+00  0.51100000000E-03 0.  1.
    9000002    1    1    2    0    0 -0.25360870049E+00 -0.95671911759E-01  0.48897519214E-01  0.97760188986E+00  0.93800000000E+00 0. -1.
         22    1    1    2    0    0  0.24088258439E+00  0.88951464561E-01  0.37357238382E+01  0.37445386068E+01  0.00000000000E+00 0.  1.
</event>
<event>
 5    1  0.1461556E+002  0.1596992E+01  0.7818608E-02  0.3356634E+00
         11   -1    0    0    0    0  0.00000000000E+00  0.00000000000E+00  0.39999999674E+01  0.40000000000E+01  0.51100000000E-03 0. -1.
    9000002   -1    0    0    0    0 -0.00000000000E+00 -0.00000000000E+00  0.00000000000E+00  0.93800000000E+00  0.93800000000E+00 0. -1.
         11    1    1    2    0    0  0.34278841651E+00 -0.24153129987E-02  0.23718228696E+01  0.23964669241E+01  0.51100000000E-03 0. -1.
    9000002    1    1    2    0    0 -0.56336529931E+00 -0.90366653564E-01  0.22834819422E+00  0.11213980071E+01  0.93800000000E+00 0. -1.
         22    1    1    2    0    0  0.22057688280E+00  0.92781966563E-01  0.13998289035E+01  0.14201350688E+01  0.00000000000E+00 0.  1.
</event>
<event>
 5    1  0.1461556E+002  0.1597853E+01  0.7818608E-02  0.3355697E+00
         11   -1    0    0    0    0  0.00000000000E+00  0.00000000000E+00  0.39999999674E+01  0.40000000000E+01  0.51100000000E-03 0. -1.
    9000002   -1    0    0    0    0 -0.00000000000E+00 -0.00000000000E+00  0.00000000000E+00  0.93800000000E+00  0.93800000000E+00 0. -1.
         11    1    1    2    0    0 -0.27747685277E-01  0.12358548922E-01  0.86300408964E+00  0.86353864281E+00  0.51100000000E-03 0. -1.
    9000002    1    1    2    0    0  0.17559098724E+00 -0.24439137139E+00  0.61847977215E-01  0.98703014620E+00  0.93800000000E+00 0. -1.
         22    1    1    2    0    0 -0.14784330197E+00  0.23203282247E+00  0.30751479005E+01  0.30874312110E+01  0.00000000000E+00 0. -1.
</event>
<event>
 5    1  0.1461556E+002  0.1599676E+01  0.7818608E-02  0.3353715E+00
         11   -1    0    0    0    0  0.00000000000E+00  0.00000000000E+00  0.39999999674E+01  0.40000000000E+01  0.51100000000E-03 0. -1.
    9000002   -1    0    0    0    0 -0.00000000000E+00 -0.00000000000E+00  0.00000000000E+00  0.93800000000E+00  0.93800000000E+00 0.  1.
         11    1    1    2    0    0  0.12987486309E+00 -0.32141437718E-01  0.13118815922E+01  0.13186865151E+01  0.51100000000E-03 0. -1.
    9000002    1    1    2    0    0 -0.38770426893E+00  0.96998931873E-01  0.10773245496E+00  0.10252676113E+01  0.93800000000E+00 0.  1.
         22    1    1    2    0    0  0.25782940583E+00 -0.64857494155E-01  0.25803859203E+01  0.25940458736E+01  0.00000000000E+00 0. -1.
</event>
<event>
 5    1  0.1461556E+002  0.1554278E+01  0.7818608E-02  0.3404534E+00
         11   -1    0    0    0    0  0.00000000000E+00  0.00000000000E+00  0.39999999674E+01  0.40000000000E+01  0.51100000000E-03 0.  1.
    9000002   -1    0    0    0    0 -0.00000000000E+00 -0.00000000000E+00  0.00000000000E+00  0.93800000000E+00  0.93800000000E+00 0.  1.
         11    1    1    2    0    0  0.44501268693E-01 -0.13118427366E+00  0.35237604834E+00  0.37862754408E+00  0.51100000000E-03 0.  1.
    9000002    1    1    2    0    0  0.30213137073E-01 -0.10018469492E+00  0.41153206383E-01  0.94471550911E+00  0.93800000000E+00 0.  1.
         22    1    1    2    0    0 -0.74714405766E-01  0.23136896858E+00  0.36064707126E+01  0.36146569468E+01  0.00000000000E+00 0.  1.
</event>
<event>
 5    1  0.1461556E+002  0.1566998E+01  0.7818608E-02  0.3389981E+00
         11   -1    0    0    0    0  0.00000000000E+00  0.00000000000E+00  0.39999999674E+01  0.40000000000E+01  0.51100000000E-03 0.  1.
    9000002   -1    0    0    0    0 -0.00000000000E+00 -0.00000000000E+00  0.00000000000E+00  0.93800000000E+00  0.93800000000E+00 0. -1.
         11    1    1    2    0    0  0.22282603583E+00 -0.16920124614E+00  0.17401832728E+01  0.17625318686E+01  0.51100000000E-03 0.  1.
    9000002    1    1    2    0    0 -0.25181824818E-01  0.28125401275E+00  0.78906305211E-01  0.98275538614E+00  0.93800000000E+00 0. -1.
         22    1    1    2    0    0 -0.19764421101E+00 -0.11205276661E+00  0.21809103894E+01  0.21927127453E+01  0.00000000000E+00 0.  1.
</event>
<event>
 5    1  0.1461556E+002  0.1580274E+01  0.7818608E-02  0.3375056E+00
         11   -1    0    0    0    0  0.00000000000E+00  0.00000000000E+00  0.39999999674E+01  0.40000000000E+01  0.51100000000E-03 0.  1.
    9000002   -1    0    0    0    0 -0.00000000000E+00 -0.00000000000E+00  0.00000000000E+00  0.93800000000E+00  0.93800000000E+00 0.  1.
         11    1    1    2    0    0  0.46052542489E-01 -0.63114050949E-03  0.61298239012E-01  0.76674443167E-01  0.51100000000E-03 0.  1.
    9000002    1    1    2    0    0 -0.13623451936E+00 -0.19022636797E+00  0.51199820156E-01  0.96809676010E+00  0.93800000000E+00 0.  1.
         22    1    1    2    0    0  0.90181976869E-01  0.19085750848E+00  0.38875019082E+01  0.38932287967E+01  0.00000000000E+00 0.  1.
</event>
<event>
 5    1  0.1461556E+002  0.1598846E+01  0.7818608E-02  0.3354617E+00
         11   -1    0    0    0    0  0.00000000000E+00  0.00000000000E+00  0.39999999674E+01  0.40000000000E+01  0.51100000000E-03 0. -1.
    9000002   -1    0    0    0    0 -0.00000000000E+00 -0.00000000000E+00  0.00000000000E+00  0.93800000000E+00  0.93800000000E+00 0. -1.
         11    1    1    2    0    0 -0.13639800061E+00  0.14609160129E+00  0.17265433793E+01  0.17380734945E+01  0.51100000000E-03 0. -1.
    9000002    1    1    2    0    0  0.36935923728E+00 -0.28472318277E+00  0.14881066072E+00  0.10580558349E+01  0.93800000000E+00 0. -1.
         22    1    1    2    0    0 -0.23296123666E+00  0.13863158148E+00  0.21246459274E+01  0.21418706707E+01  0.00000000000E+00 0. -1.
</event>
<event>
 5    1  0.1461556E+002  0.1536508E+01  0.7818608E-02  0.3425296E+00
         11   -1    0    0    0    0  0.00000000000E+00  0.00000000000E+00  0.39999999674E+01  0.40000000000E+01  0.51100000000E-03 0. -1.
    9000002   -1    0    0    0    0 -0.00000000000E+00 -0.00000000000E+00  0.00000000000E+00  0.93800000000E+00  0.93800000000E+00 0. -1.
         11    1    1    2    0    0  0.28795062920E+00  0.17590009958E+00  0.26773032938E+01  0.26984828326E+01  0.51100000000E-03 0. -1.
    9000002    1    1    2    0    0 -0.11122493108E+00  0.15466135678E-01  0.56045524962E-01  0.94635896335E+00  0.93800000000E+00 0. -1.
         22    1    1    2    0    0 -0.17672569812E+00 -0.19136623526E+00  0.12666511486E+01  0.12931582040E+01  0.00000000000E+00 0. -1.
</event>
<event>
 5    1  0.1461556E+002  0.1560158E+01  0.7818608E-02  0.3397776E+00
         11   -1    0    0    0    0  0.00000000000E+00  0.00000000000E+00  0.39999999674E+01  0.40000000000E+01  0.51100000000E-03 0.  1.
    9000002   -1    0    0    0    0 -0.00000000000E+00 -0.00000000000E+00  0.00000000000E+00  0.93800000000E+00  0.93800000000E+00 0. -1.
         11    1    1    2    0    0  0.93378693319E-01  0.10557496066E+00  0.44230926606E+00  0.46422343828E+00  0.51100000000E-03 0.  1.
    9000002    1    1    2    0    0 -0.95204395292E-01  0.19689231173E+00  0.62137191012E-01  0.96516086214E+00  0.93800000000E+00 0. -1.
         22    1    1    2    0    0  0.18257019731E-02 -0.30246727239E+00  0.34955535103E+01  0.35086156996E+01  0.00000000000E+00 0.  1.
</event>
<event>
 5    1  0.1461556E+002  0.1599667E+01  0.7818608E-02  0.3353725E+00
         11   -1    0    0    0    0  0.00000000000E+00  0.00000000000E+00  0.39999999674E+01  0.40000000000E+01  0.51100000000E-03 0. -1.
    9000002   -1    0    0    0    0 -0.00000000000E+00 -0.00000000000E+00  0.00000000000E+00  0.93800000000E+00  0.93800000000E+00 0. -1.
         11    1    1    2    0    0  0.65163625219E-02  0.17780706902E-01  0.27467306897E+00  0.27532557537E+00  0.51100000000E-03 0. -1.
    9000002    1    1    2    0    0 -0.67085840335E-01 -0.26237383126E+00  0.48808463795E-01  0.97753097314E+00  0.93800000000E+00 0. -1.
         22    1    1    2    0    0  0.60569477813E-01  0.24459312435E+00  0.36765184346E+01  0.36851434515E+01  0.00000000000E+00 0. -1.
</event>
<event>
 5    1  0.1461556E+002  0.1599475E+01  0.7818608E-02  0.3353933E+00
         11   -1    0    0    0    0  0.00000000000E+00  0.00000000000E+00  0.39999999674E+01  0.40000000000E+01  0.51100000000E-03 0.  1.
    9000002   -1    0    0    0    0 -0.00000000000E+00 -0.00000000000E+00  0.00000000000E+00  0.93800000000E+00  0.93800000000E+00 0. -1.
         11    1    1    2    0    0  0.14482205902E-01  0.10303134900E-02  0.22057302838E+00  0.22105093939E+00  0.51100000000E-03 0.  1.
    9000002    1    1    2    0    0 -0.25528435857E+00  0.12184010855E+00  0.53453327902E-01  0.98118111175E+00  0.93800000000E+00 0. -1.
         22    1    1    2    0    0  0.24080215267E+00 -0.12287042204E+00  0.37259736111E+01  0.37357679489E+01  0.00000000000E+00 0.  1.
</event>
<event>
 5    1  0.1461556E+002  0.1556506E+01  0.7818608E-02  0.3401967E+00
         11   -1    0    0    0    0  0.00000000000E+00  0.00000000000E+00  0.39999999674E+01  0.40000000000E+01  0.51100000000E-03 0.  1.
    9000002   -1    0    0    0    0 -0.00000000000E+00 -0.00000000000E+00  0.00000000000E+00  0.93800000000E+00  0.93800000000E+00 0. -1.
         11    1    1    2    0    0 -0.99196612824E-01  0.17806898971E+00  0.14594562343E+01  0.14736218287E+01  0.51100000000E-03 0.  1.
    9000002    1    1    2    0    0 -0.18356757873E-01  0.10480449809E+00  0.39706701280E-01  0.94485002805E+00  0.93800000000E+00 0. -1.
         22    1    1    2    0    0  0.11755337070E+00 -0.28287348780E+00  0.25008370318E+01  0.25195281432E+01  0.00000000000E+00 0.  1.
</event>
<event>
 5    1  0.1461556E+002  0.1599676E+01  0.7818608E-02  0.3353715E+00
         11   -1    0    0    0    0  0.00000000000E+00  0.00000000000E+00  0.39999999674E+01  0.40000000000E+01  0.51100000000E-03 0. -1.
    9000002   -1    0    0    0    0 -0.00000000000E+00 -0.00000000000E+00  0.00000000000E+00  0.93800000000E+00  0.93800000000E+00 0.  1.
         11    1    1    2    0    0  0.50103640842E-01 -0.18490200652E-01  0.72502015299E+00  0.72698469427E+00  0.51100000000E-03 0. -1.
    9000002    1    1    2    0    0 -0.27193326393E+00  0.10569985480E+00  0.56742661702E-01  0.98396335754E+00  0.93800000000E+00 0.  1.
         22    1    1    2    0    0  0.22182962308E+00 -0.87209654145E-01  0.32182371527E+01  0.32270519482E+01  0.00000000000E+00 0. -1.
</event>
<event>
 5    1  0.1461556E+002  0.1599677E+01  0.7818608E-02  0.3353714E+00
         11   -1    0    0    0    0  0.00000000000E+00  0.00000000000E+00  0.39999999674E+01  0.40000000000E+01  0.51100000000E-03 0.  1.
    9000002   -1    0    0    0    0 -0.00000000000E+00 -0.00000000000E+00  0.00000000000E+00  0.93800000000E+00  0.93800000000E+00 0.  1.
         11    1    1    2    0    0 -0.29339064009E-01 -0.29396275890E+00  0.21296894401E+01  0.21500819186E+01  0.51100000000E-03 0.  1.
    9000002    1    1    2    0    0  0.53027788533E-01  0.52604617725E+00  0.19231713703E+00  0.10937853574E+01  0.93800000000E+00 0.  1.
         22    1    1    2    0    0 -0.23688724524E-01 -0.23208341835E+00  0.16779933902E+01  0.16941327240E+01  0.00000000000E+00 0.  1.
</event>
<event>
 5    1  0.1461556E+002  0.1599591E+01  0.7818608E-02  0.3353808E+00
         11   -1    0    0    0    0  0.00000000000E+00  0.00000000000E+00  0.39999999674E+01  0.40000000000E+01  0.51100000000E-03 0. -1.
    9000002   -1    0    0    0    0 -0.00000000000E+00 -0.00000000000E+00  0.00000000000E+00  0.93800000000E+00  0.93800000000E+00 0.  1.
         11    1    1    2    0    0 -0.25870091458E-01  0.11592212489E+00  0.13777819806E+01  0.13828921316E+01  0.51100000000E-03 0. -1.
    9000002    1    1    2    0    0  0.44326224348E-01 -0.32297132614E+00  0.71145842054E-01  0.99558074636E+00  0.93800000000E+00 0.  1.
         22    1    1    2    0    0 -0.18456132890E-01  0.20704920125E+00  0.25510721447E+01  0.25595271220E+01  0.00000000000E+00 0. -1.
</event>
<event>
 5    1  0.1461556E+002  0.1598252E+01  0.7818608E-02  0.3355263E+00
         11   -1    0    0    0    0  0.00000000000E+00  0.00000000000E+00  0.39999999674E+01  0.40000000000E+01  0.51100000000E-03 0. -1.
    9000002   -1    0    0    0    0 -0.00000000000E+00 -0.00000000000E+00  0.00000000000E+00  0.93800000000E+00  0.93800000000E+00 0.  1.
         11    1    1    2    0    0 -0.70489808627E-02 -0.17088900330E-01  0.16090736096E+00  0.16196653536E+00  0.51100000000E-03 0. -1.
    9000002    1    1    2    0    0  0.31288780323E+00  0.86622153315E-03  0.66514352097E-01  0.99104373606E+00  0.93800000000E+00 0.  1.
         22    1    1    2    0    0 -0.30583882237E+00  0.16222678797E-01  0.37725782543E+01  0.37849897286E+01  0.00000000000E+00 0. -1.
</event>
<event>
 5    1  0.1461556E+002  0.1599120E+01  0.7818608E-02  0.3354319E+00
         11   -1    0    0    0    0  0.00000000000E+00  0.00000000000E+00  0.39999999674E+01  0.40000000000E+01  0.51100000000E-03 0. -1.
    9000002   -1    0    0    0    0 -0.00000000000E+00 -0.00000000000E+00  0.00000000000E+00  0.93800000000E+00  0.93800000000E+00 0. -1.
         11    1    1    2    0    0 -0.57500937137E-01 -0.55470368954E-01  0.68393797228E+00  0.68858894171E+00  0.51100000000E-03 0. -1.
    9000002    1    1    2    0    0  0.20475158975E+00  0.31497813336E+00  0.95367851634E-01  0.10149253495E+01  0.93800000000E+00 0. -1.
         22    1    1    2    0    0 -0.14725065261E+00 -0.25950776441E+00  0.32206941434E+01  0.32344857088E+01  0.00000000000E+00 0. -1.
</event>
<event>
 5    1  0.1461556E+002  0.1599677E+01  0.7818608E-02  0.3353714E+00
         11   -1    0    0    0    0  0.00000000000E+00  0.00000000000E+00  0.39999999674E+01  0.40000000000E+01  0.51100000000E-03 0.  1.
    9000002   -1    0    0    0    0 -0.00000000000E+00 -0.00000000000E+00  0.00000000000E+00  0.93800000000E+00  0.93800000000E+00 0. -1.
         11    1    1    2    0    0  0.50704844980E-01  0.13542619576E+00  0.11439032085E+01  0.11530073926E+01  0.51100000000E-03 0.  1.
    9000002    1    1    2    0    0 -0.16886300754E+00 -0.45550728968E+00  0.16117868087E+00  0.10685617312E+01  0.93800000000E+00 0. -1.
         22    1    1    2    0    0  0.11815816257E+00  0.32008109392E+00  0.26949180780E+01  0.27164308762E+01  0.00000000000E+00 0.  1.
</event>
<event>
 5    1  0.1461556E+002  0.1573386E+01  0.7818608E-02  0.3382766E+00
         11   -1    0    0    0    0  0.00000000000E+00  0.00000000000E+00  0.39999999674E+01  0.40000000000E+01  0.51100000000E-03 0. -1.
    9000002   -1    0    0    0    0 -0.00000000000E+00 -0.00000000000E+00  0.00000000000E+00  0.93800000000E+00  0.93800000000E+00 0.  1.
         11    1    1    2    0    0 -0.79972747057E-01  0.14523671793E+00  0.22748465261E+01  0.22808806025E+01  0.51100000000E-03 0. -1.
    9000002    1    1    2    0    0 -0.14573204721E+00 -0.74513436725E-01  0.37436454162E-01  0.95290900402E+00  0.93800000000E+00 0.  1.
         22    1    1    2    0    0  0.22570479427E+00 -0.70723281204E-01  0.16877169871E+01  0.17042103935E+01  0.00000000000E+00 0. -1.
</event>
<event>
 5    1  0.1461556E+002  0.1599674E+01  0.7818608E-02  0.3353718E+00
         11   -1    0    0    0    0  0.00000000000E+00  0.00000000000E+00  0.39999999674E+01  0.40000000000E+01  0.51100000000E-03 0.  1.
    9000002   -1    0    0    0    0 -0.00000000000E+00 -0.00000000000E+00  0.00000000000E+00  0.93800000000E+00  0.93800000000E+00 0. -1.
         11    1    1    2    0    0 -0.37570887743E-02 -0.75515901859E-02  0.14865812592E+00  0.14889809184E+00  0.51100000000E-03 0.  1.
    9000002    1    1    2    0    0  0.11491564465E+00  0.21231757629E+00  0.38695328648E-01  0.96934291509E+00  0.93800000000E+00 0. -1.
         22    1    1    2    0    0 -0.11115855587E+00 -0.20476598610E+00  0.38126465128E+01  0.38197589931E+01  0.00000000000E+00 0.  1.
</event>
<event>
 5    1  0.1461556E+002  0.1599674E+01  0.7818608E-02  0.3353718E+00
         11   -1    0    0    0    0  0.00000000000E+00  0.00000000000E+00  0.39999999674E+01  0.40000000000E+01  0.51100000000E-03 0. -1.
    9000002   -1    0    0    0    0 -0.00000000000E+00 -0.00000000000E+00  0.00000000000E+00  0.93800000000E+00  0.93800000000E+00 0. -1.
         11    1    1    2    0    0 -0.18332909683E-01  0.10203615784E-01  0.36597990386E+00  0.36658117860E+00  0.51100000000E-03 0.  1.
    9000002    1    1    2    0    0  0.19684938187E+00 -0.12318625396E+00  0.35777064308E-01  0.96697907456E+00  0.93800000000E+00 0. -1.
         22    1    1    2    0    0 -0.17851647219E+00  0.11298263818E+00  0.35982429992E+01  0.36044397468E+01  0.00000000000E+00 0. -1.
</event>
<event>
 5    1  0.1461556E+002  0.1599677E+01  0.7818608E-02  0.3353714E+00
         11   -1    0    0    0    0  0.00000000000E+00  0.00000000000E+00  0.39999999674E+01  0.40000000000E+01  0.51100000000E-03 0.  1.
    9000002   -1    0    0    0    0 -0.00000000000E+00 -0.00000000000E+00  0.00000000000E+00  0.93800000000E+00  0.93800000000E+00 0.  1.
         11    1    1    2    0    0 -0.36401206636E-01  0.10320386608E-01  0.57561511492E+00  0.57685750396E+00  0.51100000000E-03 0. -1.
    9000002    1    1    2    0    0  0.24882421670E+00 -0.70235950785E-01  0.44435316707E-01  0.97399439268E+00  0.93800000000E+00 0.  1.
         22    1    1    2    0    0 -0.21242301006E+00  0.59915564177E-01  0.33799495357E+01  0.33871481034E+01  0.00000000000E+00 0.  1.
</event>
<event>
 5    1  0.1461556E+002  0.1596878E+01  0.7818608E-02  0.3356759E+00
         11   -1    0    0    0    0  0.00000000000E+00  0.00000000000E+00  0.39999999674E+01  0.40000000000E+01  0.51100000000E-03 0.  1.
    9000002   -1    0    0    0    0 -0.00000000000E+00 -0.00000000000E+00  0.00000000000E+00  0.93800000000E+00  0.93800000000E+00 0.  1.
         11    1    1    2    0    0  0.37390977215E-01  0.46189600165E-02  0.44053218018E+00  0.44214056913E+00  0.51100000000E-03 0.  1.
    9000002    1    1    2    0    0 -0.10549364709E+00  0.23483194879E+00  0.46200462844E-01  0.97378305413E+00  0.93800000000E+00 0.  1.
         22    1    1    2    0    0  0.68102669874E-01 -0.23945090881E+00  0.35132673243E+01  0.35220763767E+01  0.00000000000E+00 0.  1.
</event>
<event>
 5    1  0.1461556E+002  0.1492326E+01  0.7818608E-02  0.3479216E+00
         11   -1    0    0    0    0  0.00000000000E+00  0.00000000000E+00  0.39999999674E+01  0.40000000000E+01  0.51100000000E-03 0.  1.
    9000002   -1    0    0    0    0 -0.00000000000E+00 -0.00000000000E+00  0.00000000000E+00  0.93800000000E+00  0.93800000000E+00 0. -1.
         11    1    1    2    0    0 -0.21494394253E+00 -0.28300006738E+00  0.33221635356E+01  0.33411166928E+01  0.51100000000E-03 0.  1.
    9000002    1    1    2    0    0  0.28854352487E-01  0.81435809249E-01  0.87631084112E-01  0.94603782778E+00  0.93800000000E+00 0. -1.
         22    1    1    2    0    0  0.18608959004E+00  0.20156425814E+00  0.59020534764E+00  0.65084547940E+00  0.00000000000E+00 0.  1.
</event>
<event>
 5    1  0.1461556E+002  0.1595264E+01  0.7818608E-02  0.3358520E+00
         11   -1    0    0    0    0  0.00000000000E+00  0.00000000000E+00  0.39999999674E+01  0.40000000000E+01  0.51100000000E-03 0. -1.
    9000002   -1    0    0    0    0 -0.00000000000E+00 -0.00000000000E+00  0.00000000000E+00  0.93800000000E+00  0.93800000000E+00 0.  1.
         11    1    1    2    0    0 -0.48958105452E-02 -0.18112341547E-01  0.61856798537E-01  0.64641708854E-01  0.51100000000E-03 0. -1.
    9000002    1    1    2    0    0 -0.20631400661E+00 -0.89804421222E-02  0.31566138955E-01  0.96098206996E+00  0.93800000000E+00 0.  1.
         22    1    1    2    0    0  0.21120981715E+00  0.27092783669E-01  0.39065770299E+01  0.39123762212E+01  0.00000000000E+00 0. -1.
</event>
<event>
 5    1  0.1461556E+002  0.1528816E+01  0.7818608E-02  0.3434444E+00
         11   -1    0    0    0    0  0.00000000000E+00  0.00000000000E+00  0.39999999674E+01  0.40000000000E+01  0.51100000000E-03 0. -1.
    9000002   -1    0    0    0    0 -0.00000000000E+00 -0.00000000000E+00  0.00000000000E+00  0.93800000000E+00  0.93800000000E+00 0. -1.
         11    1    1    2    0    0 -0.58445368607E-01 -0.35794158215E+00  0.27877353796E+01  0.28112287074E+01  0.51100000000E-03 0. -1.
    9000002    1    1    2    0    0  0.49636310216E-01  0.94945774451E-01  0.61275758756E-01  0.94608518749E+00  0.93800000000E+00 0. -1.
         22    1    1    2    0    0  0.88090583914E-02  0.26299580770E+00  0.11509888290E+01  0.11806861051E+01  0.00000000000E+00 0. -1.
</event>
<event>
 5    1  0.1461556E+002  0.1536312E+01  0.7818608E-02  0.3425528E+00
         11   -1    0    0    0    0  0.00000000000E+00  0.00000000000E+00  0.39999999674E+01  0.40000000000E+01  0.51100000000E-03 0.  1.
    9000002   -1    0    0    0    0 -0.00000000000E+00 -0.00000000000E+00  0.00000000000E+00  0.93800000000E+00  0.93800000000E+00 0.  1.
         11    1    1    2    0    0  0.20394954389E+00  0.22839198774E+00  0.14875733281E+01  0.15187603445E+01  0.51100000000E-03 0.  1.
    9000002    1    1    2    0    0  0.33413481934E-01 -0.78937004994E-01  0.52497551682E-01  0.94337029022E+00  0.93800000000E+00 0.  1.
         22    1    1    2    0    0 -0.23736302582E+00 -0.14945498275E+00  0.24599290876E+01  0.24758693652E+01  0.00000000000E+00 0.  1.
</event>
<event>
 5    1  0.1461556E+002  0.1599676E+01  0.7818608E-02  0.3353715E+00
         11   -1    0    0    0    0  0.00000000000E+00  0.00000000000E+00  0.39999999674E+01  0.40000000000E+01  0.51100000000E-03 0.  1.
    9000002   -1    0    0    0    0 -0.00000000000E+00 -0.00000000000E+00  0.00000000000E+00  0.93800000000E+00  0.93800000000E+00 0. -1.
         11    1    1    2    0    0  0.99214340434E-01  0.51042761958E-01  0.11347005244E+01  0.11401729650E+01  0.51100000000E-03 0.  1.
    9000002    1    1    2    0    0 -0.33913361820E+00 -0.17932514160E+00  0.99066113183E-01  0.10182471273E+01  0.93800000000E+00 0. -1.
         22    1    1    2    0    0  0.23991927777E+00  0.12828237964E+00  0.27662333297E+01  0.27795799077E+01  0.00000000000E+00 0.  1.
</event>
<event>
 5    1  0.1461556E+002  0.1509211E+01  0.7818608E-02  0.3458208E+00
         11   -1    0    0    0    0  0.00000000000E+00  0.00000000000E+00  0.39999999674E+01  0.40000000000E+01  0.51100000000E-03 0. -1.
    9000002   -1    0    0    0    0 -0.00000000000E+00 -0.00000000000E+00  0.00000000000E+00  0.93800000000E+00  0.93800000000E+00 0. -1.
         11    1    1    2    0    0 -0.19851482475E+00 -0.19293588561E+00  0.24045621391E+01  0.24204445322E+01  0.51100000000E-03 0. -1.
    9000002    1    1    2    0    0  0.26237758846E-01 -0.17805982586E+00  0.92075882906E-01  0.95953931123E+00  0.93800000000E+00 0. -1.
         22    1    1    2    0    0  0.17227706591E+00  0.37099571147E+00  0.15033619454E+01  0.15580161566E+01  0.00000000000E+00 0. -1.
</event>
<event>
 5    1  0.1461556E+002  0.1469291E+01  0.7818608E-02  0.3508716E+00
         11   -1    0    0    0    0  0.00000000000E+00  0.00000000000E+00  0.39999999674E+01  0.40000000000E+01  0.51100000000E-03 0. -1.
    9000002   -1    0    0    0    0 -0.00000000000E+00 -0.00000000000E+00  0.00000000000E+00  0.93800000000E+00  0.93800000000E+00 0. -1.
         11    1    1    2    0    0 -0.42874529670E+00 -0.14775194108E+00  0.18523239825E+01  0.19070284640E+01  0.51100000000E-03 0. -1.
    9000002    1    1    2    0    0  0.36768765183E-01  0.19010658277E-01  0.10238027882E+00  0.94447819917E+00  0.93800000000E+00 0. -1.
         22    1    1    2    0    0  0.39197653152E+00  0.12874128281E+00  0.20452957061E+01  0.20864933368E+01  0.00000000000E+00 0. -1.
</event>
<event>
 5    1  0.1461556E+002  0.1599671E+01  0.7818608E-02  0.3353721E+00
         11   -1    0    0    0    0  0.00000000000E+00  0.00000000000E+00  0.39999999674E+01  0.40000000000E+01  0.51100000000E-03 0. -1.
    9000002   -1    0    0    0    0 -0.00000000000E+00 -0.00000000000E+00  0.00000000000E+00  0.93800000000E+00  0.93800000000E+00 0.  1.
         11    1    1    2    0    0 -0.15809219853E-01 -0.58074766692E-01  0.47354127135E+00  0.47735124044E+00  0.51100000000E-03 0. -1.
    9000002    1    1    2    0    0  0.12943340307E+00  0.48498300266E+00  0.17254417048E+00  0.10777648210E+01  0.93800000000E+00 0.  1.
         22    1    1    2    0    0 -0.11362418322E+00 -0.42690823597E+00  0.33539145255E+01  0.33828839385E+01  0.00000000000E+00 0. -1.
</event>
<event>
 5    1  0.1461556E+002  0.1556087E+01  0.7818608E-02  0.3402449E+00
         11   -1    0    0    0    0  0.00000000000E+00  0.00000000000E+00  0.39999999674E+01  0.40000000000E+01  0.51100000000E-03 0. -1.
    9000002   -1    0    0    0    0 -0.00000000000E+00 -0.00000000000E+00  0.00000000000E+00  0.93800000000E+00  0.93800000000E+00 0. -1.
         11    1    1    2    0    0  0.86712257400E-02 -0.31507846910E+00  0.22745470676E+01  0.22962827038E+01  0.51100000000E-03 0. -1.
    9000002    1    1    2    0    0  0.13867173699E+00  0.14427398454E+00  0.59920094177E-01  0.96097827808E+00  0.93800000000E+00 0. -1.
         22    1    1    2    0    0 -0.14734296273E+00  0.17080448457E+00  0.16655328056E+01  0.16807390182E+01  0.00000000000E+00 0. -1.
</event>
<event>
 5    1  0.1461556E+002  0.1599589E+01  0.7818608E-02  0.3353810E+00
         11   -1    0    0    0    0  0.00000000000E+00  0.00000000000E+00  0.39999999674E+01  0.40000000000E+01  0.51100000000E-03 0.  1.
    9000002   -1    0    0    0    0 -0.00000000000E+00 -0.00000000000E+00  0.00000000000E+00  0.93800000000E+00  0.93800000000E+00 0. -1.
         11    1    1    2    0    0  0.25058502249E+00 -0.23899031417E+00  0.11571291473E+01  0.12078316722E+01  0.51100000000E-03 0.  1.
    9000002    1    1    2    0    0 -0.69133820143E+00  0.69693702976E+00  0.76753915404E+00  0.15596890989E+01  0.93800000000E+00 0. -1.
         22    1    1    2    0    0  0.44075317894E+00 -0.45794671559E+00  0.20753316660E+01  0.21704792289E+01  0.00000000000E+00 0.  1.
</event>
<event>
 5    1  0.1461556E+002  0.1597830E+01  0.7818608E-02  0.3355722E+00
         11   -1    0    0    0    0  0.00000000000E+00  0.00000000000E+00  0.39999999674E+01  0.40000000000E+01  0.51100000000E-03 0.  1.
    9000002   -1    0    0    0    0 -0.00000000000E+00 -0.00000000000E+00  0.00000000000E+00  0.93800000000E+00  0.93800000000E+00 0. -1.
         11    1    1    2    0    0 -0.10675308403E+00  0.93366196274E-01  0.21784776239E+01  0.21830892072E+01  0.51100000000E-03 0.  1.
    9000002    1    1    2    0    0  0.24203133877E+00 -0.24613032399E+00  0.81339942806E-01  0.10028058095E+01  0.93800000000E+00 0. -1.
         22    1    1    2    0    0 -0.13527825474E+00  0.15276412771E+00  0.17401824006E+01  0.17521049832E+01  0.00000000000E+00 0.  1.
</event>
<event>
 5    1  0.1461556E+002  0.1599672E+01  0.7818608E-02  0.3353720E+00
         11   -1    0    0    0    0  0.00000000000E+00  0.00000000000E+00  0.39999999674E+01  0.40000000000E+01  0.51100000000E-03 0. -1.
    9000002   -1    0    0    0    0 -0.00000000000E+00 -0.00000000000E+00  0.00000000000E+00  0.93800000000E+00  0.93800000000E+00 0. -1.
         11    1    1    2    0    0 -0.12763641701E+00 -0.15565354664E+00  0.16065481814E+01  0.16191097559E+01  0.51100000000E-03 0. -1.
    9000002    1    1    2    0    0  0.30217155464E+00  0.37788391555E+00  0.15983654459E+00  0.10674716029E+01  0.93800000000E+00 0. -1.
         22    1    1    2    0    0 -0.17453513763E+00 -0.22223036891E+00  0.22336152414E+01  0.22514186412E+01  0.00000000000E+00 0. -1.
</event>
<event>
 5    1  0.1461556E+002  0.1599071E+01  0.7818608E-02  0.3354372E+00
         11   -1    0    0    0    0  0.00000000000E+00  0.00000000000E+00  0.39999999674E+01  0.40000000000E+01  0.51100000000E-03 0.  1.
    9000002   -1    0    0    0    0 -0.00000000000E+00 -0.00000000000E+00  0.00000000000E+00  0.93800000000E+00  0.93800000000E+00 0. -1.
         11    1    1    2    0    0  0.25757310629E+00  0.10073966557E+00  0.13998487886E+01  0.14269089941E+01  0.51100000000E-03 0.  1.
    9000002    1    1    2    0    0 -0.65413013079E+00 -0.33369700454E+00  0.38981319080E+00  0.12534106440E+01  0.93800000000E+00 0. -1.
         22    1    1    2    0    0  0.39655702450E+00  0.23295733896E+00  0.22103379879E+01  0.22576803618E+01  0.00000000000E+00 0.  1.
</event>
<event>
 5    1  0.1461556E+002  0.1599651E+01  0.7818608E-02  0.3353742E+00
         11   -1    0    0    0    0  0.00000000000E+00  0.00000000000E+00  0.39999999674E+01  0.40000000000E+01  0.51100000000E-03 0. -1.
    9000002   -1    0    0    0    0 -0.00000000000E+00 -0.00000000000E+00  0.00000000000E+00  0.93800000000E+00  0.93800000000E+00 0.  1.
         11    1    1    2    0    0 -0.22419580027E+00 -0.11898291246E+00  0.14891999579E+01  0.15106745070E+01  0.51100000000E-03 0. -1.
    9000002    1    1    2    0    0  0.55008606263E+00  0.28793512373E+00  0.27022329629E+00  0.11568776693E+01  0.93800000000E+00 0.  1.
         22    1    1    2    0    0 -0.32589026236E+00 -0.16895221127E+00  0.22405767132E+01  0.22704478237E+01  0.00000000000E+00 0. -1.
</event>
<event>
 5    1  0.1461556E+002  0.1599675E+01  0.7818608E-02  0.3353716E+00
         11   -1    0    0    0    0  0.00000000000E+00  0.00000000000E+00  0.39999999674E+01  0.40000000000E+01  0.51100000000E-03 0.  1.
    9000002   -1    0    0    0    0 -0.00000000000E+00 -0.00000000000E+00  0.00000000000E+00  0.93800000000E+00  0.93800000000E+00 0. -1.
         11    1    1    2    0    0 -0.28693852446E+00 -0.20650604486E+00  0.21198678155E+01  0.21491436154E+01  0.51100000000E-03 0.  1.
    9000002    1    1    2    0    0  0.50268128608E+00  0.36506853695E+00  0.27054521120E+00  0.11571526362E+01  0.93800000000E+00 0. -1.
         22    1    1    2    0    0 -0.21574276163E+00 -0.15856249209E+00  0.16095869407E+01  0.16317037485E+01  0.00000000000E+00 0.  1.
</event>
<event>
 5    1  0.1461556E+002  0.1599581E+01  0.7818608E-02  0.3353818E+00
         11   -1    0    0    0    0  0.00000000000E+00  0.00000000000E+00  0.39999999674E+01  0.40000000000E+01  0.51100000000E-03 0.  1.
    9000002   -1    0    0    0    0 -0.00000000000E+00 -0.00000000000E+00  0.00000000000E+00  0.93800000000E+00  0.93800000000E+00 0. -1.
         11    1    1    2    0    0  0.96622851400E-02 -0.19452391597E-01  0.38458491553E+00  0.38519809666E+00  0.51100000000E-03 0.  1.
    9000002    1    1    2    0    0 -0.30366250165E-01  0.21940726426E+00  0.32596809795E-01  0.96434859297E+00  0.93800000000E+00 0. -1.
         22    1    1    2    0    0  0.20703965025E-01 -0.19995487266E+00  0.35828182420E+01  0.35884533104E+01  0.00000000000E+00 0.  1.
</event>
<event>
 5    1  0.1461556E+002  0.1599606E+01  0.7818608E-02  0.3353791E+00
         11   -1    0    0    0    0  0.00000000000E+00  0.00000000000E+00  0.39999999674E+01  0.40000000000E+01  0.51100000000E-03 0.  1.
    9000002   -1    0    0    0    0 -0.00000000000E+00 -0.00000000000E+00  0.00000000000E+00  0.93800000000E+00  0.93800000000E+00 0.  1.
         11    1    1    2    0    0  0.45658535127E-01 -0.27373596793E-01  0.88634350266E+00  0.88794092228E+00  0.51100000000E-03 0.  1.
    9000002    1    1    2    0    0 -0.21946736250E+00  0.15634025375E+00  0.48362728361E-01  0.97713415232E+00  0.93800000000E+00 0.  1.
         22    1    1    2    0    0  0.17380882737E+00 -0.12896665696E+00  0.30652937363E+01  0.30729249254E+01  0.00000000000E+00 0.  1.
</event>
<event>
 5    1  0.1461556E+002  0.1599583E+01  0.7818608E-02  0.3353817E+00
         11   -1    0    0    0    0  0.00000000000E+00  0.00000000000E+00  0.39999999674E+01  0.40000000000E+01  0.51100000000E-03 0. -1.
    9000002   -1    0    0    0    0 -0.00000000000E+00 -0.00000000000E+00  0.00000000000E+00  0.93800000000E+00  0.93800000000E+00 0.  1.
         11    1    1    2    0    0 -0.24781671827E+00  0.25388180013E+00  0.23253529699E+01  0.23522618455E+01  0.51100000000E-03 0. -1.
    9000002    1    1    2    0    0  0.40240210774E+00 -0.39412476376E+00  0.21978455440E+00  0.11159798547E+01  0.93800000000E+00 0.  1.
         22    1    1    2    0    0 -0.15458538948E+00  0.14024296363E+00  0.14548624431E+01  0.14697582998E+01  0.00000000000E+00 0.  1.
</event>
<event>
 5    1  0.1461556E+002  0.1459298E+01  0.7818608E-02  0.3521828E+00
         11   -1    0    0    0    0  0.00000000000E+00  0.00000000000E+00  0.39999999674E+01  0.40000000000E+01  0.51100000000E-03 0.  1.
    9000002   -1    0    0    0    0 -0.00000000000E+00 -0.00000000000E+00  0.00000000000E+00  0.93800000000E+00  0.93800000000E+00 0.  1.
         11    1    1    2    0    0 -0.72208944512E-01  0.46472196563E+00  0.12234518734E+01  0.13107308590E+01  0.51100000000E-03 0.  1.
    9000002    1    1    2    0    0 -0.61348183214E-02 -0.49615109578E-01  0.13125365799E+00  0.94845707221E+00  0.93800000000E+00 0.  1.
         22    1    1    2    0    0  0.78343762833E-01 -0.41510685605E+00  0.26452944359E+01  0.26788120688E+01  0.00000000000E+00 0.  1.
</event>
<event>
 5    1  0.1461556E+002  0.1599041E+01  0.7818608E-02  0.3354405E+00
         11   -1    0    0    0    0  0.00000000000E+00  0.00000000000E+00  0.39999999674E+01  0.40000000000E+01  0.51100000000E-03 0. -1.
    9000002   -1    0    0    0    0 -0.00000000000E+00 -0.00000000000E+00  0.00000000000E+00  0.93800000000E+00  0.93800000000E+00 0. -1.
         11    1    1    2    0    0 -0.29881888673E-01 -0.35260864163E-01  0.94461174796E+00  0.94574196868E+00  0.51100000000E-03 0. -1.
    9000002    1    1    2    0    0  0.21724080409E+00  0.20325304363E+00  0.59526535955E-01  0.98584622289E+00  0.93800000000E+00 0. -1.
         22    1    1    2    0    0 -0.18735891542E+00 -0.16799217946E+00  0.29958616834E+01  0.30064118084E+01  0.00000000000E+00 0. -1.
</event>
<event>
 5    1  0.1461556E+002  0.1599645E+01  0.7818608E-02  0.3353748E+00
         11   -1    0    0    0    0  0.00000000000E+00  0.00000000000E+00  0.39999999674E+01  0.40000000000E+01  0.51100000000E-03 0.  1.
    9000002   -1    0    0    0    0 -0.00000000000E+00 -0.00000000000E+00  0.00000000000E+00  0.93800000000E+00  0.93800000000E+00 0.  1.
         11    1    1    2    0    0  0.16898643951E-01 -0.74910498062E-02  0.25601348103E+00  0.25668043086E+00  0.51100000000E-03 0.  1.
    9000002    1    1    2    0    0 -0.21672216881E+00  0.14093986689E+00  0.44449974959E-01  0.97398785660E+00  0.93800000000E+00 0.  1.
         22    1    1    2    0    0  0.19982352486E+00 -0.13344881708E+00  0.36995365114E+01  0.37073317125E+01  0.00000000000E+00 0.  1.
</event>
<event>
 5    1  0.1483444E+002  0.1453631E+01  0.7818608E-02  0.3529351E+00
         11   -1    0    0    0    0  0.00000000000E+00  0.00000000000E+00  0.39999999674E+01  0.40000000000E+01  0.51100000000E-03 0. -1.
    9000002   -1    0    0    0    0 -0.00000000000E+00 -0.00000000000E+00  0.00000000000E+00  0.93800000000E+00  0.93800000000E+00 0.  1.
         11    1    1    2    0    0  0.26079778418E+00  0.63308691825E-01  0.29971402165E+00  0.40230862604E+00  0.51100000000E-03 0. -1.
    9000002    1    1    2    0    0 -0.83253384213E-01  0.46280204845E-01  0.12126082908E+00  0.95058990738E+00  0.93800000000E+00 0.  1.
         22    1    1    2    0    0 -0.17754439996E+00 -0.10958889667E+00  0.35790251166E+01  0.35851014666E+01  0.00000000000E+00 0. -1.
</event>
<event>
 5    1  0.1461556E+002  0.1599415E+01  0.7818608E-02  0.3353999E+00
         11   -1    0    0    0    0  0.00000000000E+00  0.00000000000E+00  0.39999999674E+01  0.40000000000E+01  0.51100000000E-03 0. -1.
    9000002   -1    0    0    0    0 -0.00000000000E+00 -0.00000000000E+00  0.00000000000E+00  0.93800000000E+00  0.93800000000E+00 0. -1.
         11    1    1    2    0    0  0.69313047241E-01  0.92608571900E-01  0.13770274936E+01  0.13818775725E+01  0.51100000000E-03 0. -1.
    9000002    1    1    2    0    0 -0.22492206041E+00 -0.21875427046E+00  0.65965932201E-01  0.99128142740E+00  0.93800000000E+00 0. -1.
         22    1    1    2    0    0  0.15560901317E+00  0.12614569856E+00  0.25570065415E+01  0.25648410001E+01  0.00000000000E+00 0. -1.
</event>
<event>
 5    1  0.1461556E+002  0.1599411E+01  0.7818608E-02  0.3354003E+00
         11   -1    0    0    0    0  0.00000000000E+00  0.00000000000E+00  0.39999999674E+01  0.40000000000E+01  0.51100000000E-03 0. -1.
    9000002   -1    0    0    0    0 -0.00000000000E+00 -0.00000000000E+00  0.00000000000E+00  0.93800000000E+00  0.93800000000E+00 0. -1.
         11    1    1    2    0    0  0.49122797939E-01 -0.23931089815E+00  0.19813086219E+01  0.19963133200E+01  0.51100000000E-03 0. -1.
    9000002    1    1    2    0    0 -0.13189878518E+00  0.45390159105E+00  0.15250378809E+00  0.10613789848E+01  0.93800000000E+00 0. -1.
         22    1    1    2    0    0  0.82775987242E-01 -0.21459069290E+00  0.18661875574E+01  0.18803076953E+01  0.00000000000E+00 0. -1.
</event>
<event>
 5    1  0.1461556E+002  0.1599677E+01  0.7818608E-02  0.3353715E+00
         11   -1    0    0    0    0  0.00000000000E+00  0.00000000000E+00  0.39999999674E+01  0.40000000000E+01  0.51100000000E-03 0. -1.
    9000002   -1    0    0    0    0 -0.00000000000E+00 -0.00000000000E+00  0.00000000000E+00  0.93800000000E+00  0.93800000000E+00 0.  1.
         11    1    1    2    0    0 -0.30317895588E-01  0.12950079757E-01  0.29734353870E+00  0.29916604167E+00  0.51100000000E-03 0.  1.
    9000002    1    1    2    0    0  0.39557199377E+00 -0.16888385770E+00  0.12529052267E+00  0.10394905842E+01  0.93800000000E+00 0.  1.
         22    1    1    2    0    0 -0.36525409818E+00  0.15593377794E+00  0.35773659060E+01  0.35993433741E+01  0.00000000000E+00 0. -1.
</event>
<event>
 5    1  0.1461556E+002  0.1599071E+01  0.7818608E-02  0.3354372E+00
         11   -1    0    0    0    0  0.00000000000E+00  0.00000000000E+00  0.39999999674E+01  0.40000000000E+01  0.51100000000E-03 0.  1.
    9000002   -1    0    0    0    0 -0.00000000000E+00 -0.00000000000E+00  0.00000000000E+00  0.93800000000E+00  0.93800000000E+00 0.  1.
         11    1    1    2    0    0 -0.84953683624E-01  0.22612514857E-01  0.87906898635E+00  0.88345401582E+00  0.51100000000E-03 0.  1.
    9000002    1    1    2    0    0  0.41609848438E+00  0.17466944229E-02  0.11754451173E+00  0.10328609354E+01  0.93800000000E+00 0.  1.
         22    1    1    2    0    0 -0.33114480076E+00 -0.24359209280E-01  0.30033864693E+01  0.30216850488E+01  0.00000000000E+00 0.  1.
</event>
<event>
 5    1  0.1461556E+002  0.1596897E+01  0.7818608E-02  0.3356739E+00
         11   -1    0    0    0    0  0.00000000000E+00  0.00000000000E+00  0.39999999674E+01  0.40000000000E+01  0.51100000000E-03 0. -1.
    9000002   -1    0    0    0    0 -0.00000000000E+00 -0.00000000000E+00  0.00000000000E+00  0.93800000000E+00  0.93800000000E+00 0.  1.
         11    1    1    2    0    0  0.50366266348E-02  0.98577947755E-02  0.43142722982E-01  0.44543230608E-01  0.51100000000E-03 0. -1.
    9000002    1    1    2    0    0  0.18200068691E+00  0.12361850808E+00  0.34188280177E-01  0.96406359960E+00  0.93800000000E+00 0.  1.
         22    1    1    2    0    0 -0.18703731355E+00 -0.13347630286E+00  0.39226689642E+01  0.39293931698E+01  0.00000000000E+00 0. -1.
</event>
<event>
 5    1  0.1461556E+002  0.1515019E+01  0.7818608E-02  0.3451100E+00
         11   -1    0    0    0    0  0.00000000000E+00  0.00000000000E+00  0.39999999674E+01  0.40000000000E+01  0.51100000000E-03 0.  1.
    9000002   -1    0    0    0    0 -0.00000000000E+00 -0.00000000000E+00  0.00000000000E+00  0.93800000000E+00  0.93800000000E+00 0. -1.
         11    1    1    2    0    0 -0.44891705060E+00  0.81535091188E-01  0.11884090355E+01  0.12729849905E+01  0.51100000000E-03 0.  1.
    9000002    1    1    2    0    0  0.39324229997E+00 -0.52571387266E+00  0.40086029340E+00  0.12130735993E+01  0.93800000000E+00 0. -1.
         22    1    1    2    0    0  0.55674750630E-01  0.44417878147E+00  0.24107306385E+01  0.24519414102E+01  0.00000000000E+00 0.  1.
</event>
<event>
 5    1  0.1461556E+002  0.1599188E+01  0.7818608E-02  0.3354245E+00
         11   -1    0    0    0    0  0.00000000000E+00  0.00000000000E+00  0.39999999674E+01  0.40000000000E+01  0.51100000000E-03 0. -1.
    9000002   -1    0    0    0    0 -0.00000000000E+00 -0.00000000000E+00  0.00000000000E+00  0.93800000000E+00  0.93800000000E+00 0. -1.
         11    1    1    2    0    0 -0.71392839649E-02 -0.39699365568E-01  0.10142188827E+01  0.10150207940E+01  0.51100000000E-03 0. -1.
    9000002    1    1    2    0    0  0.26618379568E-01  0.24576069648E+00  0.40957315579E-01  0.97089049834E+00  0.93800000000E+00 0. -1.
         22    1    1    2    0    0 -0.19479095603E-01 -0.20606133091E+00  0.29448237691E+01  0.29520887077E+01  0.00000000000E+00 0. -1.
</event>
<event>
 5    1  0.1461556E+002  0.1599677E+01  0.7818608E-02  0.3353714E+00
         11   -1    0    0    0    0  0.00000000000E+00  0.00000000000E+00  0.39999999674E+01  0.40000000000E+01  0.51100000000E-03 0.  1.
    9000002   -1    0    0    0    0 -0.00000000000E+00 -0.00000000000E+00  0.00000000000E+00  0.93800000000E+00  0.93800000000E+00 0. -1.
         11    1    1    2    0    0  0.32901397884E-01 -0.36996408259E-01  0.77523080838E+00  0.77681033952E+00  0.51100000000E-03 0.  1.
    9000002    1    1    2    0    0 -0.16696680098E+00  0.18942801197E+00  0.42364032697E-01  0.97231661285E+00  0.93800000000E+00 0. -1.
         22    1    1    2    0    0  0.13406540310E+00 -0.15243160371E+00  0.31824051263E+01  0.31888730476E+01  0.00000000000E+00 0.  1.
</event>
<event>
 5    1  0.1461556E+002  0.1567942E+01  0.7818608E-02  0.3388911E+00
         11   -1    0    0    0    0  0.00000000000E+00  0.00000000000E+00  0.39999999674E+01  0.40000000000E+01  0.51100000000E-03 0. -1.
    9000002   -1    0    0    0    0 -0.00000000000E+00 -0.00000000000E+00  0.00000000000E+00  0.93800000000E+00  0.93800000000E+00 0. -1.
         11    1    1    2    0    0 -0.62483351460E-01 -0.65827048275E-01  0.19234384834E+01  0.19255786741E+01  0.51100000000E-03 0. -1.
    9000002    1    1    2    0    0 -0.11136244241E+00 -0.23344007378E+00  0.69222811928E-01  0.97546484269E+00  0.93800000000E+00 0. -1.
         22    1    1    2    0    0  0.17384579387E+00  0.29926712205E+00  0.20073386720E+01  0.20369564832E+01  0.00000000000E+00 0. -1.
</event>
<event>
 5    1  0.1461556E+002  0.1599677E+01  0.7818608E-02  0.3353715E+00
         11   -1    0    0    0    0  0.00000000000E+00  0.00000000000E+00  0.39999999674E+01  0.40000000000E+01  0.51100000000E-03 0. -1.
    9000002   -1    0    0    0    0 -0.00000000000E+00 -0.00000000000E+00  0.00000000000E+00  0.93800000000E+00  0.93800000000E+00 0. -1.
         11    1    1    2    0    0 -0.11510052899E-01  0.34472779312E-01  0.46117487349E+00  0.46260499229E+00  0.51100000000E-03 0. -1.
    9000002    1    1    2    0    0  0.99292930443E-01 -0.29700592320E+00  0.65507261491E-01  0.99106347211E+00  0.93800000000E+00 0. -1.
         22    1    1    2    0    0 -0.87782877545E-01  0.26253314389E+00  0.34733178324E+01  0.34843315356E+01  0.00000000000E+00 0. -1.
</event>
<event>
 5    1  0.1461556E+002  0.1581785E+01  0.7818608E-02  0.3373374E+00
         11   -1    0    0    0    0  0.00000000000E+00  0.00000000000E+00  0.39999999674E+01  0.40000000000E+01  0.51100000000E-03 0.  1.
    9000002   -1    0    0    0    0 -0.00000000000E+00 -0.00000000000E+00  0.00000000000E+00  0.93800000000E+00  0.93800000000E+00 0.  1.
         11    1    1    2    0    0 -0.19862482257E-01 -0.82190611496E-02  0.10815977366E-01  0.24069018571E-01  0.51100000000E-03 0.  1.
    9000002    1    1    2    0    0  0.15157743641E+00 -0.27276077700E+00  0.79264517574E-01  0.99171620156E+00  0.93800000000E+00 0.  1.
         22    1    1    2    0    0 -0.13171495415E+00  0.28097983815E+00  0.39099194724E+01  0.39222147799E+01  0.00000000000E+00 0.  1.
</event>
<event>
 5    1  0.1461556E+002  0.1599677E+01  0.7818608E-02  0.3353715E+00
         11   -1    0    0    0    0  0.00000000000E+00  0.00000000000E+00  0.39999999674E+01  0.40000000000E+01  0.51100000000E-03 0.  1.
    9000002   -1    0    0    0    0 -0.00000000000E+00 -0.00000000000E+00  0.00000000000E+00  0.93800000000E+00  0.93800000000E+00 0.  1.
         11    1    1    2    0    0  0.18797451979E+00  0.11081718698E+00  0.12604504738E+01  0.12791991741E+01  0.51100000000E-03 0.  1.
    9000002    1    1    2    0    0 -0.55421699218E+00 -0.32417160565E+00  0.29035126611E+00  0.11731971540E+01  0.93800000000E+00 0.  1.
         22    1    1    2    0    0  0.36624247239E+00  0.21335441867E+00  0.24491982275E+01  0.24856036719E+01  0.00000000000E+00 0.  1.
</event>
<event>
 5    1  0.1461556E+002  0.1599676E+01  0.7818608E-02  0.3353715E+00
         11   -1    0    0    0    0  0.00000000000E+00  0.00000000000E+00  0.39999999674E+01  0.40000000000E+01  0.51100000000E-03 0. -1.
    9000002   -1    0    0    0    0 -0.00000000000E+00 -0.00000000000E+00  0.00000000000E+00  0.93800000000E+00  0.93800000000E+00 0. -1.
         11    1    1    2    0    0  0.86368329610E-02 -0.13727272010E-01  0.17489428315E+00  0.17564539356E+00  0.51100000000E-03 0.  1.
    9000002    1    1    2    0    0 -0.19854138209E+00  0.30731123548E+00  0.89915890945E-01  0.10108351712E+01  0.93800000000E+00 0. -1.
         22    1    1    2    0    0  0.18990454913E+00 -0.29358396346E+00  0.37351897933E+01  0.37515194353E+01  0.00000000000E+00 0. -1.
</event>
<event>
 5    1  0.1461556E+002  0.1583980E+01  0.7818608E-02  0.3370937E+00
         11   -1    0    0    0    0  0.00000000000E+00  0.00000000000E+00  0.39999999674E+01  0.40000000000E+01  0.51100000000E-03 0.  1.
    9000002   -1    0    0    0    0 -0.00000000000E+00 -0.00000000000E+00  0.00000000000E+00  0.93800000000E+00  0.93800000000E+00 0.  1.
         11    1    1    2    0    0  0.29223221382E-01 -0.80700713175E-01  0.35649475905E+00  0.36668157320E+00  0.51100000000E-03 0.  1.
    9000002    1    1    2    0    0  0.18247048055E+00  0.77516788980E-01  0.37867076035E-01  0.95946977248E+00  0.93800000000E+00 0.  1.
         22    1    1    2    0    0 -0.21169370194E+00  0.31839241954E-02  0.36056381323E+01  0.36118486543E+01  0.00000000000E+00 0.  1.
</event>
<event>
 5    1  0.1461556E+002  0.1599677E+01  0.7818608E-02  0.3353714E+00
         11   -1    0    0    0    0  0.00000000000E+00  0.00000000000E+00  0.39999999674E+01  0.40000000000E+01  0.51100000000E-03 0. -1.
    9000002   -1    0    0    0    0 -0.00000000000E+00 -0.00000000000E+00  0.00000000000E+00  0.93800000000E+00  0.93800000000E+00 0. -1.
         11    1    1    2    0    0  0.14315520825E+00 -0.15604201847E-01  0.14690928696E+01  0.14761338101E+01  0.51100000000E-03 0. -1.
    9000002    1    1    2    0    0 -0.37917295381E+00  0.41749336695E-01  0.97925929340E-01  0.10173242471E+01  0.93800000000E+00 0. -1.
         22    1    1    2    0    0  0.23601774557E+00 -0.26145134848E-01  0.24329811684E+01  0.24445419428E+01  0.00000000000E+00 0. -1.
</event>
<event>
 5    1  0.1461556E+002  0.1468180E+01  0.7818608E-02  0.3510164E+00
         11   -1    0    0    0    0  0.00000000000E+00  0.00000000000E+00  0.39999999674E+01  0.40000000000E+01  0.51100000000E-03 0. -1.
    9000002   -1    0    0    0    0 -0.00000000000E+00 -0.00000000000E+00  0.00000000000E+00  0.93800000000E+00  0.93800000000E+00 0. -1.
         11    1    1    2    0    0 -0.35186320754E+00  0.18543633288E+00  0.56566816792E+00  0.69150205183E+00  0.51100000000E-03 0. -1.
    9000002    1    1    2    0    0 -0.16434973699E-01 -0.43981508516E+00  0.29763464894E+00  0.10780249541E+01  0.93800000000E+00 0. -1.
         22    1    1    2    0    0  0.36829818124E+00  0.25437875229E+00  0.31366971505E+01  0.31684729940E+01  0.00000000000E+00 0. -1.
</event>
<event>
 5    1  0.1461556E+002  0.1599675E+01  0.7818608E-02  0.3353716E+00
         11   -1    0    0    0    0  0.00000000000E+00  0.00000000000E+00  0.39999999674E+01  0.40000000000E+01  0.51100000000E-03 0. -1.
    9000002   -1    0    0    0    0 -0.00000000000E+00 -0.00000000000E+00  0.00000000000E+00  0.93800000000E+00  0.93800000000E+00 0.  1.
         11    1    1    2    0    0  0.72357726524E-01  0.36766613609E-01  0.85003053959E+00  0.85389671730E+00  0.51100000000E-03 0. -1.
    9000002    1    1    2    0    0 -0.32733230444E+00 -0.17313374611E+00  0.92156176724E-01  0.10126492445E+01  0.93800000000E+00 0.  1.
         22    1    1    2    0    0  0.25497457791E+00  0.13636713250E+00  0.30578132510E+01  0.30714540382E+01  0.00000000000E+00 0. -1.
</event>
<event>
 5    1  0.1461556E+002  0.1556382E+01  0.7818608E-02  0.3402110E+00
         11   -1    0    0    0    0  0.00000000000E+00  0.00000000000E+00  0.39999999674E+01  0.40000000000E+01  0.51100000000E-03 0. -1.
    9000002   -1    0    0    0    0 -0.00000000000E+00 -0.00000000000E+00  0.00000000000E+00  0.93800000000E+00  0.93800000000E+00 0. -1.
         11    1    1    2    0    0 -0.10493645248E+00 -0.21799804253E+00  0.14281410170E+01  0.14484894999E+01  0.51100000000E-03 0. -1.
    9000002    1    1    2    0    0 -0.38472313798E-01  0.24609443616E-01  0.33447080274E-01  0.93970657698E+00  0.93800000000E+00 0. -1.
         22    1    1    2    0    0  0.14340876628E+00  0.19338859891E+00  0.25384118701E+01  0.25498039232E+01  0.00000000000E+00 0. -1.
</event>
<event>
 5    1  0.1461556E+002  0.1599669E+01  0.7818608E-02  0.3353723E+00
         11   -1    0    0    0    0  0.00000000000E+00  0.00000000000E+00  0.39999999674E+01  0.40000000000E+01  0.51100000000E-03 0. -1.
    9000002   -1    0    0    0    0 -0.00000000000E+00 -0.00000000000E+00  0.00000000000E+00  0.93800000000E+00  0.93800000000E+00 0.  1.
         11    1    1    2    0    0  0.81727274796E-01 -0.38148513243E-01  0.84545598816E+00  0.85025334198E+00  0.51100000000E-03 0. -1.
    9000002    1    1    2    0    0 -0.38195004236E+00  0.18563833018E+00  0.12205442811E+00  0.10368648455E+01  0.93800000000E+00 0.  1.
         22    1    1    2    0    0  0.30022276757E+00 -0.14748981693E+00  0.30324895511E+01  0.30508818125E+01  0.00000000000E+00 0. -1.
</event>
<event>
 5    1  0.1461556E+002  0.1599663E+01  0.7818608E-02  0.3353729E+00
         11   -1    0    0    0    0  0.00000000000E+00  0.00000000000E+00  0.39999999674E+01  0.40000000000E+01  0.51100000000E-03 0. -1.
    9000002   -1    0    0    0    0 -0.00000000000E+00 -0.00000000000E+00  0.00000000000E+00  0.93800000000E+00  0.93800000000E+00 0.  1.
         11    1    1    2    0    0  0.45349672039E-01 -0.75818087674E-01  0.10042973716E+01  0.10081758015E+01  0.51100000000E-03 0. -1.
    9000002    1    1    2    0    0 -0.18104544353E+00  0.28158134100E+00  0.75028925542E-01  0.99876866385E+00  0.93800000000E+00 0.  1.
         22    1    1    2    0    0  0.13569577149E+00 -0.20576325332E+00  0.29206736703E+01  0.29310555346E+01  0.00000000000E+00 0. -1.
</event>
<event>
 5    1  0.1461556E+002  0.1598910E+01  0.7818608E-02  0.3354548E+00
         11   -1    0    0    0    0  0.00000000000E+00  0.00000000000E+00  0.39999999674E+01  0.40000000000E+01  0.51100000000E-03 0.  1.
    9000002   -1    0    0    0    0 -0.00000000000E+00 -0.00000000000E+00  0.00000000000E+00  0.93800000000E+00  0.93800000000E+00 0. -1.
         11    1    1    2    0    0  0.20021275951E+00  0.29145565634E-01  0.22121849789E+01  0.22214178479E+01  0.51100000000E-03 0.  1.
    9000002    1    1    2    0    0 -0.39411250818E+00 -0.91481467130E-01  0.11112079760E+00  0.10275628251E+01  0.93800000000E+00 0. -1.
         22    1    1    2    0    0  0.19389974867E+00  0.62335901496E-01  0.16766941909E+01  0.16890193270E+01  0.00000000000E+00 0.  1.
</event>
<event>
 5    1  0.1461556E+002  0.1572758E+01  0.7818608E-02  0.3383473E+00
         11   -1    0    0    0    0  0.00000000000E+00  0.00000000000E+00  0.39999999674E+01  0.40000000000E+01  0.51100000000E-03 0.  1.
    9000002   -1    0    0    0    0 -0.00000000000E+00 -0.00000000000E+00  0.00000000000E+00  0.93800000000E+00  0.93800000000E+00 0.  1.
         11    1    1    2    0    0 -0.47874677547E-01 -0.14477188968E+00  0.23485864948E+01  0.23535313190E+01  0.51100000000E-03 0.  1.
    9000002    1    1    2    0    0 -0.15710804398E+00  0.18939969026E-01  0.36724059211E-01  0.95196340078E+00  0.93800000000E+00 0.  1.
         22    1    1    2    0    0  0.20498272153E+00  0.12583192066E+00  0.16146894134E+01  0.16325052803E+01  0.00000000000E+00 0.  1.
</event>
<event>
 5    1  0.1461556E+002  0.1598405E+01  0.7818608E-02  0.3355097E+00
         11   -1    0    0    0    0  0.00000000000E+00  0.00000000000E+00  0.39999999674E+01  0.40000000000E+01  0.51100000000E-03 0.  1.
    9000002   -1    0    0    0    0 -0.00000000000E+00 -0.00000000000E+00  0.00000000000E+00  0.93800000000E+00  0.93800000000E+00 0. -1.
         11    1    1    2    0    0 -0.12864292291E-01 -0.39689108689E-01  0.10134410234E+01  0.10142996028E+01  0.51100000000E-03 0.  1.
    9000002    1    1    2    0    0 -0.79226153228E-01  0.22354955299E+00  0.38298927999E-01  0.96827784953E+00  0.93800000000E+00 0. -1.
         22    1    1    2    0    0  0.92090445519E-01 -0.18386044430E+00  0.29482600160E+01  0.29554225476E+01  0.00000000000E+00 0.  1.
</event>
<event>
 5    1  0.1461556E+002  0.1595347E+01  0.7818608E-02  0.3358429E+00
         11   -1    0    0    0    0  0.00000000000E+00  0.00000000000E+00  0.39999999674E+01  0.40000000000E+01  0.51100000000E-03 0. -1.
    9000002   -1    0    0    0    0 -0.00000000000E+00 -0.00000000000E+00  0.00000000000E+00  0.93800000000E+00  0.93800000000E+00 0.  1.
         11    1    1    2    0    0 -0.10284838617E-01  0.19688492275E-02  0.10478325667E+00  0.10530643984E+00  0.51100000000E-03 0. -1.
    9000002    1    1    2    0    0 -0.54415116715E+00  0.13453859788E+00  0.22160058756E+00  0.11149672405E+01  0.93800000000E+00 0.  1.
         22    1    1    2    0    0  0.55443600576E+00 -0.13650744711E+00  0.36736161231E+01  0.37177263196E+01  0.00000000000E+00 0. -1.
</event>
<event>
 5    1  0.1461556E+002  0.1598542E+01  0.7818608E-02  0.3354947E+00
         11   -1    0    0    0    0  0.00000000000E+00  0.00000000000E+00  0.39999999674E+01  0.40000000000E+01  0.51100000000E-03 0.  1.
    9000002   -1    0    0    0    0 -0.00000000000E+00 -0.00000000000E+00  0.00000000000E+00  0.93800000000E+00  0.93800000000E+00 0.  1.
         11    1    1    2    0    0 -0.11356531894E-01  0.18287388309E-01  0.31377583082E+00  0.31451380337E+00  0.51100000000E-03 0.  1.
    9000002    1    1    2    0    0 -0.13038992542E+00 -0.26723430554E+00  0.59856323494E-01  0.98582071705E+00  0.93800000000E+00 0.  1.
         22    1    1    2    0    0  0.14174645731E+00  0.24894691723E+00  0.36263678131E+01  0.36376654796E+01  0.00000000000E+00 0.  1.
</event>
<event>
 5    1  0.1461556E+002  0.1599662E+01  0.7818608E-02  0.3353731E+00
         11   -1    0    0    0    0  0.00000000000E+00  0.00000000000E+00  0.39999999674E+01  0.40000000000E+01  0.51100000000E-03 0.  1.
    9000002   -1    0    0    0    0 -0.00000000000E+00 -0.00000000000E+00  0.00000000000E+00  0.93800000000E+00  0.93800000000E+00 0.  1.
         11    1    1    2    0    0 -0.19959594997E+00  0.68168743695E-01  0.18105546924E+01  0.18227984190E+01  0.51100000000E-03 0.  1.
    9000002    1    1    2    0    0  0.43040159273E+00 -0.15388162285E+00  0.14206153155E+00  0.10530672170E+01  0.93800000000E+00 0.  1.
         22    1    1    2    0    0 -0.23080564276E+00  0.85712879151E-01  0.20473837434E+01  0.20621343640E+01  0.00000000000E+00 0.  1.
</event>
<event>
 5    1  0.1461556E+002  0.1599677E+01  0.7818608E-02  0.3353714E+00
         11   -1    0    0    0    0  0.00000000000E+00  0.00000000000E+00  0.39999999674E+01  0.40000000000E+01  0.51100000000E-03 0.  1.
    9000002   -1    0    0    0    0 -0.00000000000E+00 -0.00000000000E+00  0.00000000000E+00  0.93800000000E+00  0.93800000000E+00 0.  1.
         11    1    1    2    0    0 -0.33780513545E+00 -0.20022086810E+00  0.14844511028E+01  0.15355116552E+01  0.51100000000E-03 0.  1.
    9000002    1    1    2    0    0  0.77044011140E+00  0.45843230251E+00  0.61427294015E+00  0.14355881674E+01  0.93800000000E+00 0.  1.
         22    1    1    2    0    0 -0.43263497595E+00 -0.25821143441E+00  0.19012759244E+01  0.19669001775E+01  0.00000000000E+00 0.  1.
</event>
<event>
 5    1  0.1461556E+002  0.1599675E+01  0.7818608E-02  0.3353717E+00
         11   -1    0    0    0    0  0.00000000000E+00  0.00000000000E+00  0.39999999674E+01  0.40000000000E+01  0.51100000000E-03 0. -1.
    9000002   -1    0    0    0    0 -0.00000000000E+00 -0.00000000000E+00  0.00000000000E+00  0.93800000000E+00  0.93800000000E+00 0.  1.
         11    1    1    2    0    0  0.16404199689E-02  0.80564462859E-02  0.13921201198E+00  0.13945552232E+00  0.51100000000E-03 0.  1.
    9000002    1    1    2    0    0 -0.60130147529E-01 -0.23477799048E+00  0.38997403152E-01  0.96958812746E+00  0.93800000000E+00 0.  1.
         22    1    1    2    0    0  0.58489727560E-01  0.22672154419E+00  0.38217905522E+01  0.38289563502E+01  0.00000000000E+00 0. -1.
</event>
<event>
 5    1  0.1461556E+002  0.1594737E+01  0.7818608E-02  0.3359095E+00
         11   -1    0    0    0    0  0.00000000000E+00  0.00000000000E+00  0.39999999674E+01  0.40000000000E+01  0.51100000000E-03 0. -1.
    9000002   -1    0    0    0    0 -0.00000000000E+00 -0.00000000000E+00  0.00000000000E+00  0.93800000000E+00  0.93800000000E+00 0.  1.
         11    1    1    2    0    0  0.36181561736E-01 -0.13213713597E-02  0.51976586053E+00  0.52102558702E+00  0.51100000000E-03 0. -1.
    9000002    1    1    2    0    0  0.12929787240E+00 -0.14905246266E+00  0.29478853529E-01  0.95898257504E+00  0.93800000000E+00 0.  1.
         22    1    1    2    0    0 -0.16547943414E+00  0.15037383402E+00  0.34507552533E+01  0.34579918379E+01  0.00000000000E+00 0. -1.
</event>
<event>
 5    1  0.1461556E+002  0.1599660E+01  0.7818608E-02  0.3353732E+00
         11   -1    0    0    0    0  0.00000000000E+00  0.00000000000E+00  0.39999999674E+01  0.40000000000E+01  0.51100000000E-03 0.  1.
    9000002   -1    0    0    0    0 -0.00000000000E+00 -0.00000000000E+00  0.00000000000E+00  0.93800000000E+00  0.93800000000E+00 0.  1.
         11    1    1    2    0    0  0.11847304384E-01 -0.61186467964E-01  0.59636114396E+00  0.59960905399E+00  0.51100000000E-03 0.  1.
    9000002    1    1    2    0    0 -0.56781562981E-01  0.40894525485E+00  0.11518645078E+00  0.10312964103E+01  0.93800000000E+00 0.  1.
         22    1    1    2    0    0  0.44934258596E-01 -0.34775878688E+00  0.32884523726E+01  0.33070945358E+01  0.00000000000E+00 0.  1.
</event>
<event>
 5    1  0.1461556E+002  0.1599647E+01  0.7818608E-02  0.3353747E+00
         11   -1    0    0    0    0  0.00000000000E+00  0.00000000000E+00  0.39999999674E+01  0.40000000000E+01  0.51100000000E-03 0.  1.
    9000002   -1    0    0    0    0 -0.00000000000E+00 -0.00000000000E+00  0.00000000000E+00  0.93800000000E+00  0.93800000000E+00 0.  1.
         11    1    1    2    0    0  0.73803404176E-01  0.34560731953E+00  0.23797276754E+01  0.24058253121E+01  0.51100000000E-03 0.  1.
    9000002    1    1    2    0    0 -0.12697402144E+00 -0.55156571257E+00  0.22197917669E+00  0.11177951030E+01  0.93800000000E+00 0.  1.
         22    1    1    2    0    0  0.53170617263E-01  0.20595839304E+00  0.13982931152E+01  0.14143795849E+01  0.00000000000E+00 0.  1.
</event>
<event>
 5    1  0.1461556E+002  0.1546370E+01  0.7818608E-02  0.3413711E+00
         11   -1    0    0    0    0  0.00000000000E+00  0.00000000000E+00  0.39999999674E+01  0.40000000000E+01  0.51100000000E-03 0. -1.
    9000002   -1    0    0    0    0 -0.00000000000E+00 -0.00000000000E+00  0.00000000000E+00  0.93800000000E+00  0.93800000000E+00 0.  1.
         11    1    1    2    0    0 -0.23513467984E+00  0.24257639508E+00  0.13667545475E+01  0.14078884470E+01  0.51100000000E-03 0. -1.
    9000002    1    1    2    0    0  0.30814854178E-01 -0.28405294582E+00  0.97028271326E-01  0.98533959461E+00  0.93800000000E+00 0.  1.
         22    1    1    2    0    0  0.20431982566E+00  0.41476550737E-01  0.25362171486E+01  0.25447719584E+01  0.00000000000E+00 0. -1.
</event>
<event>
 5    1  0.1461556E+002  0.1552783E+01  0.7818608E-02  0.3406262E+00
         11   -1    0    0    0    0  0.00000000000E+00  0.00000000000E+00  0.39999999674E+01  0.40000000000E+01  0.51100000000E-03 0.  1.
    9000002   -1    0    0    0    0 -0.00000000000E+00 -0.00000000000E+00  0.00000000000E+00  0.93800000000E+00  0.93800000000E+00 0. -1.
         11    1    1    2    0    0 -0.15891433720E+00  0.22766521219E+00  0.47915273521E+00  0.55378048015E+00  0.51100000000E-03 0.  1.
    9000002    1    1    2    0    0  0.46830310230E+00 -0.50767838165E+00  0.39405061224E+00  0.12297011913E+01  0.93800000000E+00 0. -1.
         22    1    1    2    0    0 -0.30938876510E+00  0.28001316946E+00  0.31267966199E+01  0.31545183286E+01  0.00000000000E+00 0.  1.
</event>
<event>
 5    1  0.1461556E+002  0.1595249E+01  0.7818608E-02  0.3358536E+00
         11   -1    0    0    0    0  0.00000000000E+00  0.00000000000E+00  0.39999999674E+01  0.40000000000E+01  0.51100000000E-03 0. -1.
    9000002   -1    0    0    0    0 -0.00000000000E+00 -0.00000000000E+00  0.00000000000E+00  0.93800000000E+00  0.93800000000E+00 0. -1.
         11    1    1    2    0    0  0.10532411909E-01 -0.82877558893E-01  0.40492372751E+00  0.41345266681E+00  0.51100000000E-03 0. -1.
    9000002    1    1    2    0    0 -0.10180486425E+00  0.32591436605E+00  0.81653981608E-01  0.10015466924E+01  0.93800000000E+00 0. -1.
         22    1    1    2    0    0  0.91272452340E-01 -0.24303680715E+00  0.35134222582E+01  0.35230006408E+01  0.00000000000E+00 0. -1.
</event>
<event>
 5    1  0.1461556E+002  0.1598336E+01  0.7818608E-02  0.3355172E+00
         11   -1    0    0    0    0  0.00000000000E+00  0.00000000000E+00  0.39999999674E+01  0.40000000000E+01  0.51100000000E-03 0.  1.
    9000002   -1    0    0    0    0 -0.00000000000E+00 -0.00000000000E+00  0.00000000000E+00  0.93800000000E+00  0.93800000000E+00 0.  1.
         11    1    1    2    0    0  0.12966787897E+00  0.85180379347E-01  0.10234974065E+01  0.10351891895E+01  0.51100000000E-03 0.  1.
    9000002    1    1    2    0    0 -0.39583121842E+00 -0.20711251466E+00  0.13664174701E+00  0.10478992863E+01  0.93800000000E+00 0.  1.
         22    1    1    2    0    0  0.26616333944E+00  0.12193213531E+00  0.28398608139E+01  0.28549115242E+01  0.00000000000E+00 0.  1.
</event>
<event>
 5    1  0.1461556E+002  0.1599655E+01  0.7818608E-02  0.3353738E+00
         11   -1    0    0    0    0  0.00000000000E+00  0.00000000000E+00  0.39999999674E+01  0.40000000000E+01  0.51100000000E-03 0. -1.
    9000002   -1    0    0    0    0 -0.00000000000E+00 -0.00000000000E+00  0.00000000000E+00  0.93800000000E+00  0.93800000000E+00 0.  1.
         11    1    1    2    0    0 -0.14659670781E+00  0.13216224376E+00  0.19314629588E+01  0.19415217938E+01  0.51100000000E-03 0. -1.
    9000002    1    1    2    0    0  0.30648201473E+00 -0.26417215007E+00  0.11051564057E+00  0.10275095411E+01  0.93800000000E+00 0.  1.
         22    1    1    2    0    0 -0.15988530691E+00  0.13200990631E+00  0.19580213680E+01  0.19689686651E+01  0.00000000000E+00 0. -1.
</event>
<event>
 5    1  0.1461556E+002  0.1598791E+01  0.7818608E-02  0.3354677E+00
         11   -1    0    0    0    0  0.00000000000E+00  0.00000000000E+00  0.39999999674E+01  0.40000000000E+01  0.51100000000E-03 0. -1.
    9000002   -1    0    0    0    0 -0.00000000000E+00 -0.00000000000E+00  0.00000000000E+00  0.93800000000E+00  0.93800000000E+00 0.  1.
         11    1    1    2    0    0  0.39818057915E-01  0.85357843450E-01  0.14223927424E+01  0.14255079144E+01  0.51100000000E-03 0. -1.
    9000002    1    1    2    0    0 -0.38994858779E-01 -0.29968697134E+00  0.61636548712E-01  0.98740870157E+00  0.93800000000E+00 0.  1.
         22    1    1    2    0    0 -0.82319913594E-03  0.21432912789E+00  0.25159706762E+01  0.25250833840E+01  0.00000000000E+00 0.  1.
</event>
<event>
 5    1  0.1461556E+002  0.1585510E+01  0.7818608E-02  0.3369243E+00
         11   -1    0    0    0    0  0.00000000000E+00  0.00000000000E+00  0.39999999674E+01  0.40000000000E+01  0.51100000000E-03 0. -1.
    9000002   -1    0    0    0    0 -0.00000000000E+00 -0.00000000000E+00  0.00000000000E+00  0.93800000000E+00  0.93800000000E+00 0. -1.
         11    1    1    2    0    0  0.14856328464E+00 -0.19590707436E+00  0.12798562085E+01  0.13032585342E+01  0.51100000000E-03 0. -1.
    9000002    1    1    2    0    0 -0.43433508109E+00  0.18139897625E+00  0.16349873793E+00  0.10621338845E+01  0.93800000000E+00 0. -1.
         22    1    1    2    0    0  0.28577179645E+00  0.14508098109E-01  0.25566450209E+01  0.25726075813E+01  0.00000000000E+00 0. -1.
</event>
<event>
 5    1  0.1461556E+002  0.1595246E+01  0.7818608E-02  0.3358539E+00
         11   -1    0    0    0    0  0.00000000000E+00  0.00000000000E+00  0.39999999674E+01  0.40000000000E+01  0.51100000000E-03 0. -1.
    9000002   -1    0    0    0    0 -0.00000000000E+00 -0.00000000000E+00  0.00000000000E+00  0.93800000000E+00  0.93800000000E+00 0.  1.
         11    1    1    2    0    0  0.69489226048E-01  0.27350920736E-01  0.40873067576E+00  0.41549711411E+00  0.51100000000E-03 0. -1.
    9000002    1    1    2    0    0 -0.29653613885E+00  0.28158415097E-01  0.62651135965E-01  0.98615198769E+00  0.93800000000E+00 0.  1.
         22    1    1    2    0    0  0.22704691280E+00 -0.55509335833E-01  0.35286181556E+01  0.35363508982E+01  0.00000000000E+00 0. -1.
</event>
<event>
 5    1  0.1461556E+002  0.1599670E+01  0.7818608E-02  0.3353722E+00
         11   -1    0    0    0    0  0.00000000000E+00  0.00000000000E+00  0.39999999674E+01  0.40000000000E+01  0.51100000000E-03 0. -1.
    9000002   -1    0    0    0    0 -0.00000000000E+00 -0.00000000000E+00  0.00000000000E+00  0.93800000000E+00  0.93800000000E+00 0. -1.
         11    1    1    2    0    0 -0.63351255545E-01 -0.68364926588E-01  0.90310518357E+00  0.90790218552E+00  0.51100000000E-03 0. -1.
    9000002    1    1    2    0    0  0.26260346471E+00  0.29978326812E+00  0.10712025256E+00  0.10247679425E+01  0.93800000000E+00 0. -1.
         22    1    1    2    0    0 -0.19925220917E+00 -0.23141834153E+00  0.29897745312E+01  0.30053298719E+01  0.00000000000E+00 0. -1.
</event>
<event>
 5    1  0.1461556E+002  0.1599662E+01  0.7818608E-02  0.3353730E+00
         11   -1    0    0    0    0  0.00000000000E+00  0.00000000000E+00  0.39999999674E+01  0.40000000000E+01  0.51100000000E-03 0. -1.
    9000002   -1    0    0    0    0 -0.00000000000E+00 -0.00000000000E+00  0.00000000000E+00  0.93800000000E+00  0.93800000000E+00 0. -1.
         11    1    1    2    0    0  0.12019267183E-01 -0.99278522039E-01  0.11011566994E+01  0.11056884849E+01  0.51100000000E-03 0. -1.
    9000002    1    1    2    0    0 -0.32550265921E-01  0.34275663214E+00  0.79445742196E-01  0.10023458758E+01  0.93800000000E+00 0. -1.
         22    1    1    2    0    0  0.20530998738E-01 -0.24347811010E+00  0.28193975257E+01  0.28299656394E+01  0.00000000000E+00 0. -1.
</event>
<event>
 5    1  0.1461556E+002  0.1598940E+01  0.7818608E-02  0.3354514E+00
         11   -1    0    0    0    0  0.00000000000E+00  0.00000000000E+00  0.39999999674E+01  0.40000000000E+01  0.51100000000E-03 0.  1.
    9000002   -1    0    0    0    0 -0.00000000000E+00 -0.00000000000E+00  0.00000000000E+00  0.93800000000E+00  0.93800000000E+00 0.  1.
         11    1    1    2    0    0 -0.28132965888E-01  0.43110988873E-01  0.52682060602E+00  0.52932998515E+00  0.51100000000E-03 0.  1.
    9000002    1    1    2    0    0  0.22382626528E+00 -0.15699844538E+00  0.50316310661E-01  0.97832634637E+00  0.93800000000E+00 0.  1.
         22    1    1    2    0    0 -0.19569329939E+00  0.11388745651E+00  0.34228630507E+01  0.34303436685E+01  0.00000000000E+00 0.  1.
</event>
<event>
 5    1  0.1461556E+002  0.1599629E+01  0.7818608E-02  0.3353766E+00
         11   -1    0    0    0    0  0.00000000000E+00  0.00000000000E+00  0.39999999674E+01  0.40000000000E+01  0.51100000000E-03 0. -1.
    9000002   -1    0    0    0    0 -0.00000000000E+00 -0.00000000000E+00  0.00000000000E+00  0.93800000000E+00  0.93800000000E+00 0. -1.
         11    1    1    2    0    0 -0.19807249693E-02 -0.41622366621E-01  0.48192432734E+00  0.48372271300E+00  0.51100000000E-03 0. -1.
    9000002    1    1    2    0    0 -0.12047933518E-01  0.37172960875E+00  0.93021873269E-01  0.10133238000E+01  0.93800000000E+00 0. -1.
         22    1    1    2    0    0  0.14028658487E-01 -0.33010724213E+00  0.34250537668E+01  0.34409534870E+01  0.00000000000E+00 0. -1.
</event>
<event>
 5    1  0.1461556E+002  0.1543792E+01  0.7818608E-02  0.3416724E+00
         11   -1    0    0    0    0  0.00000000000E+00  0.00000000000E+00  0.39999999674E+01  0.40000000000E+01  0.51100000000E-03 0. -1.
    9000002   -1    0    0    0    0 -0.00000000000E+00 -0.00000000000E+00  0.00000000000E+00  0.93800000000E+00  0.93800000000E+00 0. -1.
         11    1    1    2    0    0  0.24996588799E+00  0.21848057999E+00  0.27660582345E+01  0.27859101075E+01  0.51100000000E-03 0. -1.
    9000002    1    1    2    0    0 -0.24333301585E-01 -0.14493253634E+00  0.56665234157E-01  0.95113221921E+00  0.93800000000E+00 0. -1.
         22    1    1    2    0    0 -0.22563258640E+00 -0.73548043655E-01  0.11772764987E+01  0.12009576733E+01  0.00000000000E+00 0. -1.
</event>
<event>
 5    1  0.1461556E+002  0.1564384E+01  0.7818608E-02  0.3392951E+00
         11   -1    0    0    0    0  0.00000000000E+00  0.00000000000E+00  0.39999999674E+01  0.40000000000E+01  0.51100000000E-03 0. -1.
    9000002   -1    0    0    0    0 -0.00000000000E+00 -0.00000000000E+00  0.00000000000E+00  0.93800000000E+00  0.93800000000E+00 0. -1.
         11    1    1    2    0    0 -0.66561352602E+00  0.57835665461E+00  0.26694422624E+01  0.28113093105E+01  0.51100000000E-03 0. -1.
    9000002    1    1    2    0    0  0.87956338880E+00 -0.53005371734E+00  0.93981083653E+00  0.16785937885E+01  0.93800000000E+00 0. -1.
         22    1    1    2    0    0 -0.21394986278E+00 -0.48302937270E-01  0.39074686844E+00  0.44809690105E+00  0.00000000000E+00 0.  1.
</event>
<event>
 5    1  0.1461556E+002  0.1599677E+01  0.7818608E-02  0.3353714E+00
         11   -1    0    0    0    0  0.00000000000E+00  0.00000000000E+00  0.39999999674E+01  0.40000000000E+01  0.51100000000E-03 0. -1.
    9000002   -1    0    0    0    0 -0.00000000000E+00 -0.00000000000E+00  0.00000000000E+00  0.93800000000E+00  0.93800000000E+00 0.  1.
         11    1    1    2    0    0 -0.10557696843E+00 -0.49893526072E-01  0.13519240378E+01  0.13569578937E+01  0.51100000000E-03 0.  1.
    9000002    1    1    2    0    0  0.30667377274E+00  0.14458389153E+00  0.76985968522E-01  0.10003620064E+01  0.93800000000E+00 0.  1.
         22    1    1    2    0    0 -0.20109680431E+00 -0.94690365457E-01  0.25710899610E+01  0.25806800998E+01  0.00000000000E+00 0. -1.
</event>
<event>
 5    1  0.1461556E+002  0.1599677E+01  0.7818608E-02  0.3353714E+00
         11   -1    0    0    0    0  0.00000000000E+00  0.00000000000E+00  0.39999999674E+01  0.40000000000E+01  0.51100000000E-03 0.  1.
    9000002   -1    0    0    0    0 -0.00000000000E+00 -0.00000000000E+00  0.00000000000E+00  0.93800000000E+00  0.93800000000E+00 0.  1.
         11    1    1    2    0    0 -0.47464768225E-01 -0.12596205300E+00  0.11560299768E+01  0.11638405868E+01  0.51100000000E-03 0.  1.
    9000002    1    1    2    0    0  0.15752177661E+00  0.41967814526E+00  0.13644261889E+00  0.10485244127E+01  0.93800000000E+00 0.  1.
         22    1    1    2    0    0 -0.11005700839E+00 -0.29371609226E+00  0.27075273717E+01  0.27256350006E+01  0.00000000000E+00 0.  1.
</event>
<event>
 5    1  0.1461556E+002  0.1599605E+01  0.7818608E-02  0.3353792E+00
         11   -1    0    0    0    0  0.00000000000E+00  0.00000000000E+00  0.39999999674E+01  0.40000000000E+01  0.51100000000E-03 0.  1.
    9000002   -1    0    0    0    0 -0.00000000000E+00 -0.00000000000E+00  0.00000000000E+00  0.93800000000E+00  0.93800000000E+00 0.  1.
         11    1    1    2    0    0 -0.20604393955E+00  0.12115510327E+00  0.11757504157E+01  0.11998008023E+01  0.51100000000E-03 0.  1.
    9000002    1    1    2    0    0  0.64368296026E+00 -0.34493682814E+00  0.38445482794E+00  0.12493833213E+01  0.93800000000E+00 0.  1.
         22    1    1    2    0    0 -0.43763902072E+00  0.22378172487E+00  0.24397947237E+01  0.24888158765E+01  0.00000000000E+00 0.  1.
</event>
<event>
 5    1  0.1461556E+002  0.1599677E+01  0.7818608E-02  0.3353714E+00
         11   -1    0    0    0    0  0.00000000000E+00  0.00000000000E+00  0.39999999674E+01  0.40000000000E+01  0.51100000000E-03 0.  1.
    9000002   -1    0    0    0    0 -0.00000000000E+00 -0.00000000000E+00  0.00000000000E+00  0.93800000000E+00  0.93800000000E+00 0.  1.
         11    1    1    2    0    0  0.52100038795E-01  0.42047796270E+00  0.17842343908E+01  0.18338507992E+01  0.51100000000E-03 0.  1.
    9000002    1    1    2    0    0 -0.10066209577E+00 -0.82275911061E+00  0.51126434880E+00  0.13521466806E+01  0.93800000000E+00 0.  1.
         22    1    1    2    0    0  0.48562056973E-01  0.40228114791E+00  0.17045012277E+01  0.17520025202E+01  0.00000000000E+00 0.  1.
</event>
<event>
 5    1  0.1461556E+002  0.1599665E+01  0.7818608E-02  0.3353727E+00
         11   -1    0    0    0    0  0.00000000000E+00  0.00000000000E+00  0.39999999674E+01  0.40000000000E+01  0.51100000000E-03 0.  1.
    9000002   -1    0    0    0    0 -0.00000000000E+00 -0.00000000000E+00  0.00000000000E+00  0.93800000000E+00  0.93800000000E+00 0.  1.
         11    1    1    2    0    0  0.14945966198E+00  0.11386320198E+00  0.18359346139E+01  0.18455240954E+01  0.51100000000E-03 0.  1.
    9000002    1    1    2    0    0 -0.32549862941E+00 -0.23992051693E+00  0.11036402682E+00  0.10273925397E+01  0.93800000000E+00 0.  1.
         22    1    1    2    0    0  0.17603896743E+00  0.12605731495E+00  0.20537013267E+01  0.20650833649E+01  0.00000000000E+00 0.  1.
</event>
<event>
 5    1  0.1461556E+002  0.1587003E+01  0.7818608E-02  0.3367592E+00
         11   -1    0    0    0    0  0.00000000000E+00  0.00000000000E+00  0.39999999674E+01  0.40000000000E+01  0.51100000000E-03 0. -1.
    9000002   -1    0    0    0    0 -0.00000000000E+00 -0.00000000000E+00  0.00000000000E+00  0.93800000000E+00  0.93800000000E+00 0.  1.
         11    1    1    2    0    0 -0.54357403772E-01 -0.56974632448E-01  0.42990226733E+00  0.43705498129E+00  0.51100000000E-03 0. -1.
    9000002    1    1    2    0    0  0.21219804577E+00 -0.19902944884E+00  0.66358026565E-01  0.98432114669E+00  0.93800000000E+00 0.  1.
         22    1    1    2    0    0 -0.15784064200E+00  0.25600408128E+00  0.35037396735E+01  0.35166238720E+01  0.00000000000E+00 0. -1.
</event>
<event>
 5    1  0.1461556E+002  0.1599675E+01  0.7818608E-02  0.3353716E+00
         11   -1    0    0    0    0  0.00000000000E+00  0.00000000000E+00  0.39999999674E+01  0.40000000000E+01  0.51100000000E-03 0. -1.
    9000002   -1    0    0    0    0 -0.00000000000E+00 -0.00000000000E+00  0.00000000000E+00  0.93800000000E+00  0.93800000000E+00 0. -1.
         11    1    1    2    0    0 -0.22506235661E+00 -0.24595634591E+00  0.13376784221E+01  0.13785976246E+01  0.51100000000E-03 0. -1.
    9000002    1    1    2    0    0  0.57889064168E+00  0.63672927294E+00  0.55767930385E+00  0.13897441304E+01  0.93800000000E+00 0. -1.
         22    1    1    2    0    0 -0.35382828507E+00 -0.39077292702E+00  0.21046422414E+01  0.21696582450E+01  0.00000000000E+00 0. -1.
</event>
<event>
 5    1  0.1461556E+002  0.1594444E+01  0.7818608E-02  0.3359416E+00
         11   -1    0    0    0    0  0.00000000000E+00  0.00000000000E+00  0.39999999674E+01  0.40000000000E+01  0.51100000000E-03 0.  1.
    9000002   -1    0    0    0    0 -0.00000000000E+00 -0.00000000000E+00  0.00000000000E+00  0.93800000000E+00  0.93800000000E+00 0.  1.
         11    1    1    2    0    0  0.13554507192E+00 -0.41155541180E+00  0.20968413892E+01  0.21411432451E+01  0.51100000000E-03 0.  1.
    9000002    1    1    2    0    0 -0.11347994638E+00  0.63816981994E+00  0.30185701091E+00  0.11794490546E+01  0.93800000000E+00 0.  1.
         22    1    1    2    0    0 -0.22065125535E-01 -0.22661440814E+00  0.16013015673E+01  0.16174077003E+01  0.00000000000E+00 0. -1.
</event>
<event>
 5    1  0.1461556E+002  0.1348571E+01  0.7818608E-02  0.3693032E+00
         11   -1    0    0    0    0  0.00000000000E+00  0.00000000000E+00  0.39999999674E+01  0.40000000000E+01  0.51100000000E-03 0.  1.
    9000002   -1    0    0    0    0 -0.00000000000E+00 -0.00000000000E+00  0.00000000000E+00  0.93800000000E+00  0.93800000000E+00 0.  1.
         11    1    1    2    0    0  0.30203444099E+00  0.23746376255E+00 -0.76160667609E-01  0.39168169536E+00  0.51100000000E-03 0.  1.
    9000002    1    1    2    0    0 -0.33250568881E+00 -0.87828096414E+00  0.22696661369E+01  0.26292899912E+01  0.93800000000E+00 0.  1.
         22    1    1    2    0    0  0.30471247812E-01  0.64081720159E+00  0.18064944981E+01  0.19170283134E+01  0.00000000000E+00 0.  1.
</event>
<event>
 5    1  0.1461556E+002  0.1597214E+01  0.7818608E-02  0.3356392E+00
         11   -1    0    0    0    0  0.00000000000E+00  0.00000000000E+00  0.39999999674E+01  0.40000000000E+01  0.51100000000E-03 0. -1.
    9000002   -1    0    0    0    0 -0.00000000000E+00 -0.00000000000E+00  0.00000000000E+00  0.93800000000E+00  0.93800000000E+00 0.  1.
         11    1    1    2    0    0  0.15774608797E-01  0.49973574629E-01  0.14508744984E+01  0.14518206733E+01  0.51100000000E-03 0. -1.
    9000002    1    1    2    0    0  0.58981658593E-01 -0.25553126000E+00  0.47625147267E-01  0.97513446024E+00  0.93800000000E+00 0.  1.
         22    1    1    2    0    0 -0.74756267391E-01  0.20555768537E+00  0.25015003217E+01  0.25110448664E+01  0.00000000000E+00 0. -1.
</event>
<event>
 5    1  0.1461556E+002  0.1599655E+01  0.7818608E-02  0.3353738E+00
         11   -1    0    0    0    0  0.00000000000E+00  0.00000000000E+00  0.39999999674E+01  0.40000000000E+01  0.51100000000E-03 0. -1.
    9000002   -1    0    0    0    0 -0.00000000000E+00 -0.00000000000E+00  0.00000000000E+00  0.93800000000E+00  0.93800000000E+00 0.  1.
         11    1    1    2    0    0 -0.13097547197E-01 -0.43408265456E-01  0.64018097275E+00  0.64178482551E+00  0.51100000000E-03 0. -1.
    9000002    1    1    2    0    0  0.10630076454E+00  0.26979356579E+00  0.56062384918E-01  0.98339992459E+00  0.93800000000E+00 0.  1.
         22    1    1    2    0    0 -0.93203217348E-01 -0.22638530033E+00  0.33037566097E+01  0.33128152499E+01  0.00000000000E+00 0. -1.
</event>
<event>
 5    1  0.1461556E+002  0.1599602E+01  0.7818608E-02  0.3353795E+00
         11   -1    0    0    0    0  0.00000000000E+00  0.00000000000E+00  0.39999999674E+01  0.40000000000E+01  0.51100000000E-03 0.  1.
    9000002   -1    0    0    0    0 -0.00000000000E+00 -0.00000000000E+00  0.00000000000E+00  0.93800000000E+00  0.93800000000E+00 0. -1.
         11    1    1    2    0    0 -0.16074504734E-01  0.34093230606E-01  0.56591004616E+00  0.56716415573E+00  0.51100000000E-03 0.  1.
    9000002    1    1    2    0    0  0.16274981968E+00 -0.24062252328E+00  0.56304703626E-01  0.98356541326E+00  0.93800000000E+00 0. -1.
         22    1    1    2    0    0 -0.14667531495E+00  0.20652929267E+00  0.33777852176E+01  0.33872704310E+01  0.00000000000E+00 0.  1.
</event>
<event>
 5    1  0.1461556E+002  0.1593145E+01  0.7818608E-02  0.3360838E+00
         11   -1    0    0    0    0  0.00000000000E+00  0.00000000000E+00  0.39999999674E+01  0.40000000000E+01  0.51100000000E-03 0.  1.
    9000002   -1    0    0    0    0 -0.00000000000E+00 -0.00000000000E+00  0.00000000000E+00  0.93800000000E+00  0.93800000000E+00 0. -1.
         11    1    1    2    0    0  0.24151999128E-01 -0.40565748364E-01  0.17187880522E+00  0.17824557164E+00  0.51100000000E-03 0.  1.
    9000002    1    1    2    0    0 -0.40929995393E+00  0.15175639510E-01  0.11878880270E+00  0.10303938722E+01  0.93800000000E+00 0. -1.
         22    1    1    2    0    0  0.38514795480E+00  0.25390108854E-01  0.37093323594E+01  0.37293605561E+01  0.00000000000E+00 0.  1.
</event>
<event>
 5    1  0.1461556E+002  0.1551244E+01  0.7818608E-02  0.3408043E+00
         11   -1    0    0    0    0  0.00000000000E+00  0.00000000000E+00  0.39999999674E+01  0.40000000000E+01  0.51100000000E-03 0.  1.
    9000002   -1    0    0    0    0 -0.00000000000E+00 -0.00000000000E+00  0.00000000000E+00  0.93800000000E+00  0.93800000000E+00 0.  1.
         11    1    1    2    0    0 -0.75854426090E-01  0.76530273257E-01  0.58190901440E+00  0.59180160429E+00  0.51100000000E-03 0.  1.
    9000002    1    1    2    0    0 -0.45496877959E+00  0.30449649538E+00  0.25405044522E+00  0.11153924578E+01  0.93800000000E+00 0.  1.
         22    1    1    2    0    0  0.53082320568E+00 -0.38102676863E+00  0.31640405077E+01  0.32308059380E+01  0.00000000000E+00 0.  1.
</event>
<event>
 5    1  0.1461556E+002  0.1565219E+01  0.7818608E-02  0.3392000E+00
         11   -1    0    0    0    0  0.00000000000E+00  0.00000000000E+00  0.39999999674E+01  0.40000000000E+01  0.51100000000E-03 0. -1.
    9000002   -1    0    0    0    0 -0.00000000000E+00 -0.00000000000E+00  0.00000000000E+00  0.93800000000E+00  0.93800000000E+00 0. -1.
         11    1    1    2    0    0  0.15536563701E+00 -0.35441367294E-01  0.86470771307E+00  0.87926916348E+00  0.51100000000E-03 0. -1.
    9000002    1    1    2    0    0  0.93017647763E-01 -0.99222019813E-01  0.37991283001E-01  0.94856978109E+00  0.93800000000E+00 0. -1.
         22    1    1    2    0    0 -0.24838328478E+00  0.13466338711E+00  0.30973009713E+01  0.31101610554E+01  0.00000000000E+00 0. -1.
</event>
<event>
 5    1  0.1461556E+002  0.1599480E+01  0.7818608E-02  0.3353928E+00
         11   -1    0    0    0    0  0.00000000000E+00  0.00000000000E+00  0.39999999674E+01  0.40000000000E+01  0.51100000000E-03 0.  1.
    9000002   -1    0    0    0    0 -0.00000000000E+00 -0.00000000000E+00  0.00000000000E+00  0.93800000000E+00  0.93800000000E+00 0. -1.
         11    1    1    2    0    0  0.96083682981E-02  0.38649477123E-01  0.43626232862E+00  0.43807668657E+00  0.51100000000E-03 0.  1.
    9000002    1    1    2    0    0 -0.99291411475E-01 -0.25471814363E+00  0.49894685309E-01  0.97830138337E+00  0.93800000000E+00 0. -1.
         22    1    1    2    0    0  0.89683043177E-01  0.21606866651E+00  0.35138429534E+01  0.35216219301E+01  0.00000000000E+00 0.  1.
</event>
<event>
 5    1  0.1461556E+002  0.1598880E+01  0.7818608E-02  0.3354579E+00
         11   -1    0    0    0    0  0.00000000000E+00  0.00000000000E+00  0.39999999674E+01  0.40000000000E+01  0.51100000000E-03 0. -1.
    9000002   -1    0    0    0    0 -0.00000000000E+00 -0.00000000000E+00  0.00000000000E+00  0.93800000000E+00  0.93800000000E+00 0.  1.
         11    1    1    2    0    0 -0.12149516776E+00 -0.22637805173E+00  0.19233533596E+01  0.19404371944E+01  0.51100000000E-03 0. -1.
    9000002    1    1    2    0    0  0.18390523394E+00  0.48481042127E+00  0.18536784063E+00  0.10876890714E+01  0.93800000000E+00 0.  1.
         22    1    1    2    0    0 -0.62410066182E-01 -0.25843236954E+00  0.18912787671E+01  0.19098737343E+01  0.00000000000E+00 0. -1.
</event>
<event>
 5    1  0.1461556E+002  0.1511824E+01  0.7818608E-02  0.3455003E+00
         11   -1    0    0    0    0  0.00000000000E+00  0.00000000000E+00  0.39999999674E+01  0.40000000000E+01  0.51100000000E-03 0. -1.
    9000002   -1    0    0    0    0 -0.00000000000E+00 -0.00000000000E+00  0.00000000000E+00  0.93800000000E+00  0.93800000000E+00 0.  1.
         11    1    1    2    0    0  0.82467236678E-01 -0.25273695795E-01  0.32356135819E-01  0.92123750849E-01  0.51100000000E-03 0. -1.
    9000002    1    1    2    0    0  0.14258487011E+00 -0.10071021651E+00  0.88536757381E-01  0.95820444076E+00  0.93800000000E+00 0.  1.
         22    1    1    2    0    0 -0.22505210678E+00  0.12598391230E+00  0.38791070742E+01  0.38876718084E+01  0.00000000000E+00 0. -1.
</event>
<event>
 5    1  0.1461556E+002  0.1599638E+01  0.7818608E-02  0.3353756E+00
         11   -1    0    0    0    0  0.00000000000E+00  0.00000000000E+00  0.39999999674E+01  0.40000000000E+01  0.51100000000E-03 0.  1.
    9000002   -1    0    0    0    0 -0.00000000000E+00 -0.00000000000E+00  0.00000000000E+00  0.93800000000E+00  0.93800000000E+00 0.  1.
         11    1    1    2    0    0 -0.26866092365E-01 -0.36484588844E-01  0.48135302910E+00  0.48348103571E+00  0.51100000000E-03 0.  1.
    9000002    1    1    2    0    0  0.21681982492E+00  0.33504468885E+00  0.10744772248E+00  0.10250145331E+01  0.93800000000E+00 0.  1.
         22    1    1    2    0    0 -0.18995373255E+00 -0.29856010000E+00  0.34111992158E+01  0.34295044312E+01  0.00000000000E+00 0.  1.
</event>
<event>
 5    1  0.1461556E+002  0.1599546E+01  0.7818608E-02  0.3353856E+00
         11   -1    0    0    0    0  0.00000000000E+00  0.00000000000E+00  0.39999999674E+01  0.40000000000E+01  0.51100000000E-03 0. -1.
    9000002   -1    0    0    0    0 -0.00000000000E+00 -0.00000000000E+00  0.00000000000E+00  0.93800000000E+00  0.93800000000E+00 0.  1.
         11    1    1    2    0    0 -0.23946045312E+00 -0.52338202915E-01  0.12744329507E+01  0.12977905082E+01  0.51100000000E-03 0. -1.
    9000002    1    1    2    0    0  0.69841900207E+00  0.18240728562E+00  0.37479136761E+00  0.12415208776E+01  0.93800000000E+00 0.  1.
         22    1    1    2    0    0 -0.45895854895E+00 -0.13006908271E+00  0.23507756490E+01  0.23986886142E+01  0.00000000000E+00 0. -1.
</event>
<event>
 5    1  0.1461556E+002  0.1599632E+01  0.7818608E-02  0.3353762E+00
         11   -1    0    0    0    0  0.00000000000E+00  0.00000000000E+00  0.39999999674E+01  0.40000000000E+01  0.51100000000E-03 0.  1.
    9000002   -1    0    0    0    0 -0.00000000000E+00 -0.00000000000E+00  0.00000000000E+00  0.93800000000E+00  0.93800000000E+00 0. -1.
         11    1    1    2    0    0  0.24883575927E-01  0.23970195392E-02  0.47234223532E+00  0.47300357974E+00  0.51100000000E-03 0.  1.
    9000002    1    1    2    0    0 -0.24179646489E+00 -0.48330017410E-01  0.40413229630E-01  0.97071033277E+00  0.93800000000E+00 0. -1.
         22    1    1    2    0    0  0.21691288896E+00  0.45932997870E-01  0.34872445024E+01  0.34942860875E+01  0.00000000000E+00 0.  1.
</event>
<event>
 5    1  0.1461556E+002  0.1568639E+01  0.7818608E-02  0.3388121E+00
         11   -1    0    0    0    0  0.00000000000E+00  0.00000000000E+00  0.39999999674E+01  0.40000000000E+01  0.51100000000E-03 0.  1.
    9000002   -1    0    0    0    0 -0.00000000000E+00 -0.00000000000E+00  0.00000000000E+00  0.93800000000E+00  0.93800000000E+00 0.  1.
         11    1    1    2    0    0  0.91244872894E-01  0.22608738439E+00  0.29742000905E+01  0.29841761965E+01  0.51100000000E-03 0.  1.
    9000002    1    1    2    0    0  0.11874023189E+00 -0.28893787678E+00  0.90046564657E-01  0.99274202244E+00  0.93800000000E+00 0.  1.
         22    1    1    2    0    0 -0.20998510478E+00  0.62850492389E-01  0.93575331220E+00  0.96108178108E+00  0.00000000000E+00 0.  1.
</event>
<event>
 5    1  0.1461556E+002  0.1599677E+01  0.7818608E-02  0.3353714E+00
         11   -1    0    0    0    0  0.00000000000E+00  0.00000000000E+00  0.39999999674E+01  0.40000000000E+01  0.51100000000E-03 0. -1.
    9000002   -1    0    0    0    0 -0.00000000000E+00 -0.00000000000E+00  0.00000000000E+00  0.93800000000E+00  0.93800000000E+00 0. -1.
         11    1    1    2    0    0 -0.74079645983E-01  0.14870548688E+00  0.16326206720E+01  0.16410519905E+01  0.51100000000E-03 0. -1.
    9000002    1    1    2    0    0  0.17741697670E+00 -0.35436315206E+00  0.10588334729E+00  0.10237701453E+01  0.93800000000E+00 0. -1.
         22    1    1    2    0    0 -0.10333733072E+00  0.20565766518E+00  0.22614959481E+01  0.22731778642E+01  0.00000000000E+00 0. -1.
</event>
<event>
 5    1  0.1461556E+002  0.1599673E+01  0.7818608E-02  0.3353719E+00
         11   -1    0    0    0    0  0.00000000000E+00  0.00000000000E+00  0.39999999674E+01  0.40000000000E+01  0.51100000000E-03 0.  1.
    9000002   -1    0    0    0    0 -0.00000000000E+00 -0.00000000000E+00  0.00000000000E+00  0.93800000000E+00  0.93800000000E+00 0. -1.
         11    1    1    2    0    0  0.34242567393E-01  0.19754612533E-01  0.18181227177E+00  0.18606117656E+00  0.51100000000E-03 0. -1.
    9000002    1    1    2    0    0 -0.68604008490E+00 -0.37712807132E+00  0.44890020375E+00  0.13016266643E+01  0.93800000000E+00 0. -1.
         22    1    1    2    0    0  0.65179751750E+00  0.35737345879E+00  0.33692874918E+01  0.34503121591E+01  0.00000000000E+00 0.  1.
</event>
<event>
 5    1  0.1461556E+002  0.1599650E+01  0.7818608E-02  0.3353744E+00
         11   -1    0    0    0    0  0.00000000000E+00  0.00000000000E+00  0.39999999674E+01  0.40000000000E+01  0.51100000000E-03 0. -1.
    9000002   -1    0    0    0    0 -0.00000000000E+00 -0.00000000000E+00  0.00000000000E+00  0.93800000000E+00  0.93800000000E+00 0. -1.
         11    1    1    2    0    0  0.48854138052E-01 -0.93807996134E-02  0.41638218477E+00  0.41934366708E+00  0.51100000000E-03 0. -1.
    9000002    1    1    2    0    0 -0.42033619304E+00  0.99241405771E-01  0.12638264006E+00  0.10403595261E+01  0.93800000000E+00 0. -1.
         22    1    1    2    0    0  0.37148205499E+00 -0.89860606158E-01  0.34572351425E+01  0.34782968068E+01  0.00000000000E+00 0. -1.
</event>
<event>
 5    1  0.1461556E+002  0.1547459E+01  0.7818608E-02  0.3412441E+00
         11   -1    0    0    0    0  0.00000000000E+00  0.00000000000E+00  0.39999999674E+01  0.40000000000E+01  0.51100000000E-03 0.  1.
    9000002   -1    0    0    0    0 -0.00000000000E+00 -0.00000000000E+00  0.00000000000E+00  0.93800000000E+00  0.93800000000E+00 0.  1.
         11    1    1    2    0    0  0.71114882855E-01 -0.54009789239E-01  0.75712091484E-01  0.11707675181E+00  0.51100000000E-03 0.  1.
    9000002    1    1    2    0    0 -0.29771829098E+00 -0.99891098411E-01  0.10826079060E+00  0.99507728901E+00  0.93800000000E+00 0.  1.
         22    1    1    2    0    0  0.22660340813E+00  0.15390088765E+00  0.38160270853E+01  0.38258459592E+01  0.00000000000E+00 0.  1.
</event>
<event>
 5    1  0.1461556E+002  0.1579913E+01  0.7818608E-02  0.3375457E+00
         11   -1    0    0    0    0  0.00000000000E+00  0.00000000000E+00  0.39999999674E+01  0.40000000000E+01  0.51100000000E-03 0. -1.
    9000002   -1    0    0    0    0 -0.00000000000E+00 -0.00000000000E+00  0.00000000000E+00  0.93800000000E+00  0.93800000000E+00 0. -1.
         11    1    1    2    0    0 -0.36580718980E-01 -0.97183868462E-01  0.53928403037E+00  0.54919065890E+00  0.51100000000E-03 0. -1.
    9000002    1    1    2    0    0  0.15993188233E+00 -0.13332662336E+00  0.43719748884E-01  0.96182618592E+00  0.93800000000E+00 0. -1.
         22    1    1    2    0    0 -0.12335116335E+00  0.23051049182E+00  0.34169961881E+01  0.34269831552E+01  0.00000000000E+00 0. -1.
</event>
<event>
 5    1  0.1461556E+002  0.1594830E+01  0.7818608E-02  0.3358994E+00
         11   -1    0    0    0    0  0.00000000000E+00  0.00000000000E+00  0.39999999674E+01  0.40000000000E+01  0.51100000000E-03 0. -1.
    9000002   -1    0    0    0    0 -0.00000000000E+00 -0.00000000000E+00  0.00000000000E+00  0.93800000000E+00  0.93800000000E+00 0.  1.
         11    1    1    2    0    0 -0.42792699575E-01  0.91992446439E-01  0.61985128120E+00  0.62810006947E+00  0.51100000000E-03 0. -1.
    9000002    1    1    2    0    0 -0.25992816307E-01 -0.33175642655E+00  0.77986733758E-01  0.99833054831E+00  0.93800000000E+00 0.  1.
         22    1    1    2    0    0  0.68785515882E-01  0.23976398011E+00  0.33021619524E+01  0.33115693822E+01  0.00000000000E+00 0. -1.
</event>
<event>
 5    1  0.1461556E+002  0.1461835E+01  0.7818608E-02  0.3518481E+00
         11   -1    0    0    0    0  0.00000000000E+00  0.00000000000E+00  0.39999999674E+01  0.40000000000E+01  0.51100000000E-03 0. -1.
    9000002   -1    0    0    0    0 -0.00000000000E+00 -0.00000000000E+00  0.00000000000E+00  0.93800000000E+00  0.93800000000E+00 0. -1.
         11    1    1    2    0    0  0.33968080256E+00 -0.28289775470E+00  0.25766553948E+01  0.26143005703E+01  0.51100000000E-03 0. -1.
    9000002    1    1    2    0    0  0.19575813797E-01  0.73091806649E-01  0.11169652227E+00  0.94765275168E+00  0.93800000000E+00 0. -1.
         22    1    1    2    0    0 -0.35925661636E+00  0.20980594805E+00  0.13116480503E+01  0.13760466780E+01  0.00000000000E+00 0.  1.
</event>
<event>
 5    1  0.1461556E+002  0.1599675E+01  0.7818608E-02  0.3353716E+00
         11   -1    0    0    0    0  0.00000000000E+00  0.00000000000E+00  0.39999999674E+01  0.40000000000E+01  0.51100000000E-03 0. -1.
    9000002   -1    0    0    0    0 -0.00000000000E+00 -0.00000000000E+00  0.00000000000E+00  0.93800000000E+00  0.93800000000E+00 0. -1.
         11    1    1    2    0    0  0.25762638049E-01 -0.14540828227E-01  0.32061678013E+00  0.32197908321E+00  0.51100000000E-03 0. -1.
    9000002    1    1    2    0    0 -0.30915130267E+00  0.16929280760E+00  0.83324936743E-01  0.10054957124E+01  0.93800000000E+00 0. -1.
         22    1    1    2    0    0  0.28338866462E+00 -0.15475197937E+00  0.35960582505E+01  0.36105252044E+01  0.00000000000E+00 0. -1.
</event>
<event>
 5    1  0.1461556E+002  0.1565107E+01  0.7818608E-02  0.3392128E+00
         11   -1    0    0    0    0  0.00000000000E+00  0.00000000000E+00  0.39999999674E+01  0.40000000000E+01  0.51100000000E-03 0.  1.
    9000002   -1    0    0    0    0 -0.00000000000E+00 -0.00000000000E+00  0.00000000000E+00  0.93800000000E+00  0.93800000000E+00 0.  1.
         11    1    1    2    0    0  0.38833665610E-01  0.20676125149E+00  0.20752241434E+01  0.20858604400E+01  0.51100000000E-03 0.  1.
    9000002    1    1    2    0    0 -0.51006682681E-01  0.31415767435E-01  0.27894382359E-01  0.94032479957E+00  0.93800000000E+00 0.  1.
         22    1    1    2    0    0  0.12173017071E-01 -0.23817701893E+00  0.18968814416E+01  0.19118147604E+01  0.00000000000E+00 0.  1.
</event>
<event>
 5    1  0.1461556E+002  0.1597994E+01  0.7818608E-02  0.3355544E+00
         11   -1    0    0    0    0  0.00000000000E+00  0.00000000000E+00  0.39999999674E+01  0.40000000000E+01  0.51100000000E-03 0. -1.
    9000002   -1    0    0    0    0 -0.00000000000E+00 -0.00000000000E+00  0.00000000000E+00  0.93800000000E+00  0.93800000000E+00 0. -1.
         11    1    1    2    0    0 -0.16962686976E+00 -0.13254623266E-01  0.16809634094E+01  0.16895523682E+01  0.51100000000E-03 0. -1.
    9000002    1    1    2    0    0  0.37084278865E+00 -0.80389819397E-01  0.98256147435E-01  0.10166047253E+01  0.93800000000E+00 0. -1.
         22    1    1    2    0    0 -0.20121591889E+00  0.93644442663E-01  0.22207804105E+01  0.22318429065E+01  0.00000000000E+00 0. -1.
</event>
<event>
 5    1  0.1461556E+002  0.1582263E+01  0.7818608E-02  0.3372842E+00
         11   -1    0    0    0    0  0.00000000000E+00  0.00000000000E+00  0.39999999674E+01  0.40000000000E+01  0.51100000000E-03 0.  1.
    9000002   -1    0    0    0    0 -0.00000000000E+00 -0.00000000000E+00  0.00000000000E+00  0.93800000000E+00  0.93800000000E+00 0. -1.
         11    1    1    2    0    0 -0.28262945888E-01  0.43771359398E-01  0.25047781241E+01  0.25053200271E+01  0.51100000000E-03 0.  1.
    9000002    1    1    2    0    0 -0.14191200202E-01  0.16663171744E+00  0.31508426649E-01  0.95331227852E+00  0.93800000000E+00 0. -1.
         22    1    1    2    0    0  0.42454146090E-01 -0.21040307684E+00  0.14637134166E+01  0.14793676944E+01  0.00000000000E+00 0. -1.
</event>
<event>
 5    1  0.1461556E+002  0.1599671E+01  0.7818608E-02  0.3353720E+00
         11   -1    0    0    0    0  0.00000000000E+00  0.00000000000E+00  0.39999999674E+01  0.40000000000E+01  0.51100000000E-03 0.  1.
    9000002   -1    0    0    0    0 -0.00000000000E+00 -0.00000000000E+00  0.00000000000E+00  0.93800000000E+00  0.93800000000E+00 0. -1.
         11    1    1    2    0    0  0.84643969731E-01 -0.23763688960E+00  0.21040810035E+01  0.21191491272E+01  0.51100000000E-03 0.  1.
    9000002    1    1    2    0    0 -0.15344956629E+00  0.43068126333E+00  0.14212931446E+00  0.10531276570E+01  0.93800000000E+00 0. -1.
         22    1    1    2    0    0  0.68805596561E-01 -0.19304437372E+00  0.17537896494E+01  0.17657232157E+01  0.00000000000E+00 0.  1.
</event>
<event>
 5    1  0.1461556E+002  0.1598721E+01  0.7818608E-02  0.3354753E+00
         11   -1    0    0    0    0  0.00000000000E+00  0.00000000000E+00  0.39999999674E+01  0.40000000000E+01  0.51100000000E-03 0. -1.
    9000002   -1    0    0    0    0 -0.00000000000E+00 -0.00000000000E+00  0.00000000000E+00  0.93800000000E+00  0.93800000000E+00 0.  1.
         11    1    1    2    0    0 -0.38516279344E+00  0.76110087485E-01  0.21187414248E+01  0.21548105739E+01  0.51100000000E-03 0. -1.
    9000002    1    1    2    0    0  0.65662301922E+00 -0.69992376753E-01  0.30949315435E+00  0.11881425566E+01  0.93800000000E+00 0.  1.
         22    1    1    2    0    0 -0.27146022577E+00 -0.61177107325E-02  0.15717653882E+01  0.15950468695E+01  0.00000000000E+00 0. -1.
</event>
<event>
 5    1  0.1461556E+002  0.1599550E+01  0.7818608E-02  0.3353852E+00
         11   -1    0    0    0    0  0.00000000000E+00  0.00000000000E+00  0.39999999674E+01  0.40000000000E+01  0.51100000000E-03 0. -1.
    9000002   -1    0    0    0    0 -0.00000000000E+00 -0.00000000000E+00  0.00000000000E+00  0.93800000000E+00  0.93800000000E+00 0.  1.
         11    1    1    2    0    0 -0.36071739308E-01  0.67935247368E-01  0.10100895153E+01  0.10130140465E+01  0.51100000000E-03 0. -1.
    9000002    1    1    2    0    0  0.16916270286E+00 -0.22870150804E+00  0.54006056291E-01  0.98167257980E+00  0.93800000000E+00 0.  1.
         22    1    1    2    0    0 -0.13309096355E+00  0.16076626067E+00  0.29359043957E+01  0.29433133737E+01  0.00000000000E+00 0. -1.
</event>
<event>
 5    1  0.1461556E+002  0.1599661E+01  0.7818608E-02  0.3353732E+00
         11   -1    0    0    0    0  0.00000000000E+00  0.00000000000E+00  0.39999999674E+01  0.40000000000E+01  0.51100000000E-03 0.  1.
    9000002   -1    0    0    0    0 -0.00000000000E+00 -0.00000000000E+00  0.00000000000E+00  0.93800000000E+00  0.93800000000E+00 0.  1.
         11    1    1    2    0    0  0.15304804696E+00  0.74558157510E-01  0.12713080034E+01  0.12826561988E+01  0.51100000000E-03 0.  1.
    9000002    1    1    2    0    0 -0.46721661831E+00 -0.21236331575E+00  0.18072705376E+00  0.10843872990E+01  0.93800000000E+00 0.  1.
         22    1    1    2    0    0  0.31416857135E+00  0.13780515824E+00  0.25479649102E+01  0.25709565022E+01  0.00000000000E+00 0. -1.
</event>
<event>
 5    1  0.1461556E+002  0.1597337E+01  0.7818608E-02  0.3356259E+00
         11   -1    0    0    0    0  0.00000000000E+00  0.00000000000E+00  0.39999999674E+01  0.40000000000E+01  0.51100000000E-03 0. -1.
    9000002   -1    0    0    0    0 -0.00000000000E+00 -0.00000000000E+00  0.00000000000E+00  0.93800000000E+00  0.93800000000E+00 0.  1.
         11    1    1    2    0    0 -0.17584253677E-01  0.14176155955E-01  0.53288781995E+00  0.53336653359E+00  0.51100000000E-03 0. -1.
    9000002    1    1    2    0    0  0.13032082597E+00  0.18995767684E+00  0.36977331723E-01  0.96658096388E+00  0.93800000000E+00 0.  1.
         22    1    1    2    0    0 -0.11273657229E+00 -0.20413383279E+00  0.34301348157E+01  0.34380525025E+01  0.00000000000E+00 0. -1.
</event>
<event>
 5    1  0.1461556E+002  0.1599673E+01  0.7818608E-02  0.3353719E+00
         11   -1    0    0    0    0  0.00000000000E+00  0.00000000000E+00  0.39999999674E+01  0.40000000000E+01  0.51100000000E-03 0.  1.
    9000002   -1    0    0    0    0 -0.00000000000E+00 -0.00000000000E+00  0.00000000000E+00  0.93800000000E+00  0.93800000000E+00 0. -1.
         11    1    1    2    0    0  0.82113552381E-02 -0.79795826407E-03  0.66007805754E-01  0.66523339015E-01  0.51100000000E-03 0.  1.
    9000002    1    1    2    0    0 -0.45611542155E+00  0.36758601039E-01  0.14238094688E+00  0.10533322394E+01  0.93800000000E+00 0. -1.
         22    1    1    2    0    0  0.44790406631E+00 -0.35960642775E-01  0.37916112147E+01  0.38181444216E+01  0.00000000000E+00 0.  1.
</event>
<event>
 5    1  0.1461556E+002  0.1580666E+01  0.7818608E-02  0.3374619E+00
         11   -1    0    0    0    0  0.00000000000E+00  0.00000000000E+00  0.39999999674E+01  0.40000000000E+01  0.51100000000E-03 0.  1.
    9000002   -1    0    0    0    0 -0.00000000000E+00 -0.00000000000E+00  0.00000000000E+00  0.93800000000E+00  0.93800000000E+00 0.  1.
         11    1    1    2    0    0  0.18064539945E-02 -0.83724150295E-01  0.35915945392E+00  0.36879367006E+00  0.51100000000E-03 0.  1.
    9000002    1    1    2    0    0 -0.10176674129E+00 -0.12735327162E+00  0.31773674668E-01  0.95259062132E+00  0.93800000000E+00 0.  1.
         22    1    1    2    0    0  0.99960287291E-01  0.21107742192E+00  0.36090668388E+01  0.36166157086E+01  0.00000000000E+00 0.  1.
</event>
<event>
 5    1  0.1461556E+002  0.1599198E+01  0.7818608E-02  0.3354235E+00
         11   -1    0    0    0    0  0.00000000000E+00  0.00000000000E+00  0.39999999674E+01  0.40000000000E+01  0.51100000000E-03 0.  1.
    9000002   -1    0    0    0    0 -0.00000000000E+00 -0.00000000000E+00  0.00000000000E+00  0.93800000000E+00  0.93800000000E+00 0. -1.
         11    1    1    2    0    0 -0.11680347834E-01 -0.18394741911E-01  0.31749688668E+00  0.31824413778E+00  0.51100000000E-03 0.  1.
    9000002    1    1    2    0    0  0.31521193928E+00  0.18071774273E+00  0.89041556498E-01  0.10098464576E+01  0.93800000000E+00 0. -1.
         22    1    1    2    0    0 -0.30353159145E+00 -0.16232300082E+00  0.35934615242E+01  0.36099094046E+01  0.00000000000E+00 0.  1.
</event>
<event>
 5    1  0.1461556E+002  0.1599677E+01  0.7818608E-02  0.3353714E+00
         11   -1    0    0    0    0  0.00000000000E+00  0.00000000000E+00  0.39999999674E+01  0.40000000000E+01  0.51100000000E-03 0.  1.
    9000002   -1    0    0    0    0 -0.00000000000E+00 -0.00000000000E+00  0.00000000000E+00  0.93800000000E+00  0.93800000000E+00 0. -1.
         11    1    1    2    0    0  0.23217186426E-01 -0.82228320637E-01  0.10539592790E+01  0.10574171161E+01  0.51100000000E-03 0. -1.
    9000002    1    1    2    0    0 -0.86445301407E-01  0.30667287613E+00  0.67847438555E-01  0.99295937380E+00  0.93800000000E+00 0. -1.
         22    1    1    2    0    0  0.63228114981E-01 -0.22444455550E+00  0.28781932498E+01  0.28876235101E+01  0.00000000000E+00 0.  1.
</event>
<event>
 5    1  0.1461556E+002  0.1599607E+01  0.7818608E-02  0.3353790E+00
         11   -1    0    0    0    0  0.00000000000E+00  0.00000000000E+00  0.39999999674E+01  0.40000000000E+01  0.51100000000E-03 0.  1.
    9000002   -1    0    0    0    0 -0.00000000000E+00 -0.00000000000E+00  0.00000000000E+00  0.93800000000E+00  0.93800000000E+00 0.  1.
         11    1    1    2    0    0  0.30299276849E+00 -0.91899631077E-01  0.22261684769E+01  0.22485721044E+01  0.51100000000E-03 0.  1.
    9000002    1    1    2    0    0 -0.53022114015E+00  0.16466527322E+00  0.21318575022E+00  0.11106490327E+01  0.93800000000E+00 0.  1.
         22    1    1    2    0    0  0.22722837167E+00 -0.72765642143E-01  0.15606457402E+01  0.15787788629E+01  0.00000000000E+00 0.  1.
</event>
<event>
 5    1  0.1461556E+002  0.1599669E+01  0.7818608E-02  0.3353723E+00
         11   -1    0    0    0    0  0.00000000000E+00  0.00000000000E+00  0.39999999674E+01  0.40000000000E+01  0.51100000000E-03 0.  1.
    9000002   -1    0    0    0    0 -0.00000000000E+00 -0.00000000000E+00  0.00000000000E+00  0.93800000000E+00  0.93800000000E+00 0. -1.
         11    1    1    2    0    0  0.22609940662E-01 -0.21354884942E+00  0.18110560200E+01  0.18237429888E+01  0.51100000000E-03 0.  1.
    9000002    1    1    2    0    0 -0.51033113684E-01  0.46123581740E+00  0.14657391827E+00  0.10567264412E+01  0.93800000000E+00 0. -1.
         22    1    1    2    0    0  0.28423173022E-01 -0.24768696798E+00  0.20423700291E+01  0.20575305700E+01  0.00000000000E+00 0.  1.
</event>
<event>
 5    1  0.1461556E+002  0.1599669E+01  0.7818608E-02  0.3353722E+00
         11   -1    0    0    0    0  0.00000000000E+00  0.00000000000E+00  0.39999999674E+01  0.40000000000E+01  0.51100000000E-03 0. -1.
    9000002   -1    0    0    0    0 -0.00000000000E+00 -0.00000000000E+00  0.00000000000E+00  0.93800000000E+00  0.93800000000E+00 0.  1.
         11    1    1    2    0    0 -0.20499635466E+00 -0.22350201112E-01  0.17428256546E+01  0.17549827807E+01  0.51100000000E-03 0. -1.
    9000002    1    1    2    0    0  0.44863641172E+00  0.54390265537E-01  0.13875781863E+00  0.10503954794E+01  0.93800000000E+00 0.  1.
         22    1    1    2    0    0 -0.24364005706E+00 -0.32040064425E-01  0.21184164941E+01  0.21326217399E+01  0.00000000000E+00 0. -1.
</event>
<event>
 5    1  0.1461556E+002  0.1594259E+01  0.7818608E-02  0.3359618E+00
         11   -1    0    0    0    0  0.00000000000E+00  0.00000000000E+00  0.39999999674E+01  0.40000000000E+01  0.51100000000E-03 0. -1.
    9000002   -1    0    0    0    0 -0.00000000000E+00 -0.00000000000E+00  0.00000000000E+00  0.93800000000E+00  0.93800000000E+00 0. -1.
         11    1    1    2    0    0  0.24206824368E-01  0.28643760089E-01  0.67838795167E+00  0.67942395411E+00  0.51100000000E-03 0. -1.
    9000002    1    1    2    0    0  0.87309993744E-02  0.19242624437E+00  0.28614057259E-01  0.95800148964E+00  0.93800000000E+00 0. -1.
         22    1    1    2    0    0 -0.32937823742E-01 -0.22107000446E+00  0.32929979584E+01  0.33005745562E+01  0.00000000000E+00 0. -1.
</event>
<event>
 5    1  0.1461556E+002  0.1599677E+01  0.7818608E-02  0.3353714E+00
         11   -1    0    0    0    0  0.00000000000E+00  0.00000000000E+00  0.39999999674E+01  0.40000000000E+01  0.51100000000E-03 0. -1.
    9000002   -1    0    0    0    0 -0.00000000000E+00 -0.00000000000E+00  0.00000000000E+00  0.93800000000E+00  0.93800000000E+00 0. -1.
         11    1    1    2    0    0  0.40111581887E-02  0.27449460698E+00  0.16333503941E+01  0.16562599886E+01  0.51100000000E-03 0.  1.
    9000002    1    1    2    0    0 -0.93270047300E-02 -0.62618455580E+00  0.27522111283E+00  0.11609413215E+01  0.93800000000E+00 0. -1.
         22    1    1    2    0    0  0.53158465413E-02  0.35168994882E+00  0.20914284604E+01  0.21207986899E+01  0.00000000000E+00 0. -1.
</event>
<event>
 5    1  0.1461556E+002  0.1599667E+01  0.7818608E-02  0.3353725E+00
         11   -1    0    0    0    0  0.00000000000E+00  0.00000000000E+00  0.39999999674E+01  0.40000000000E+01  0.51100000000E-03 0. -1.
    9000002   -1    0    0    0    0 -0.00000000000E+00 -0.00000000000E+00  0.00000000000E+00  0.93800000000E+00  0.93800000000E+00 0. -1.
         11    1    1    2    0    0 -0.86575672140E-02 -0.10601696216E+00  0.10230111690E+01  0.10285264521E+01  0.51100000000E-03 0. -1.
    9000002    1    1    2    0    0  0.35266426775E-01  0.39094165578E+00  0.10383949159E+00  0.10221084772E+01  0.93800000000E+00 0. -1.
         22    1    1    2    0    0 -0.26608859561E-01 -0.28492469362E+00  0.28731493068E+01  0.28873650707E+01  0.00000000000E+00 0. -1.
</event>
<event>
 5    1  0.1461556E+002  0.1599677E+01  0.7818608E-02  0.3353714E+00
         11   -1    0    0    0    0  0.00000000000E+00  0.00000000000E+00  0.39999999674E+01  0.40000000000E+01  0.51100000000E-03 0.  1.
    9000002   -1    0    0    0    0 -0.00000000000E+00 -0.00000000000E+00  0.00000000000E+00  0.93800000000E+00  0.93800000000E+00 0. -1.
         11    1    1    2    0    0  0.85767267555E-01 -0.11974539040E+00  0.16430076758E+01  0.16495967588E+01  0.51100000000E-03 0.  1.
    9000002    1    1    2    0    0 -0.20482372378E+00  0.28492976679E+00  0.82573452277E-01  0.10048881056E+01  0.93800000000E+00 0. -1.
         22    1    1    2    0    0  0.11905645623E+00 -0.16518437639E+00  0.22744188392E+01  0.22835151356E+01  0.00000000000E+00 0.  1.
</event>
<event>
 5    1  0.1461556E+002  0.1595378E+01  0.7818608E-02  0.3358395E+00
         11   -1    0    0    0    0  0.00000000000E+00  0.00000000000E+00  0.39999999674E+01  0.40000000000E+01  0.51100000000E-03 0.  1.
    9000002   -1    0    0    0    0 -0.00000000000E+00 -0.00000000000E+00  0.00000000000E+00  0.93800000000E+00  0.93800000000E+00 0.  1.
         11    1    1    2    0    0  0.14507916568E+00 -0.33758330787E-01  0.14984362926E+01  0.15058217601E+01  0.51100000000E-03 0.  1.
    9000002    1    1    2    0    0 -0.39762239381E+00 -0.11040813699E+00  0.11867440051E+00  0.10316109432E+01  0.93800000000E+00 0.  1.
         22    1    1    2    0    0  0.25254322813E+00  0.14416646778E+00  0.23828892743E+01  0.24005672967E+01  0.00000000000E+00 0.  1.
</event>
<event>
 5    1  0.1461556E+002  0.1599025E+01  0.7818608E-02  0.3354422E+00
         11   -1    0    0    0    0  0.00000000000E+00  0.00000000000E+00  0.39999999674E+01  0.40000000000E+01  0.51100000000E-03 0. -1.
    9000002   -1    0    0    0    0 -0.00000000000E+00 -0.00000000000E+00  0.00000000000E+00  0.93800000000E+00  0.93800000000E+00 0.  1.
         11    1    1    2    0    0  0.56776935488E-01  0.78124395821E-01  0.13340238802E+01  0.13375152394E+01  0.51100000000E-03 0. -1.
    9000002    1    1    2    0    0 -0.24321533840E+00 -0.19002762647E+00  0.64116660217E-01  0.98955502413E+00  0.93800000000E+00 0.  1.
         22    1    1    2    0    0  0.18643840291E+00  0.11190323065E+00  0.26018594269E+01  0.26109297364E+01  0.00000000000E+00 0.  1.
</event>
<event>
 5    1  0.1461556E+002  0.1599613E+01  0.7818608E-02  0.3353784E+00
         11   -1    0    0    0    0  0.00000000000E+00  0.00000000000E+00  0.39999999674E+01  0.40000000000E+01  0.51100000000E-03 0. -1.
    9000002   -1    0    0    0    0 -0.00000000000E+00 -0.00000000000E+00  0.00000000000E+00  0.93800000000E+00  0.93800000000E+00 0.  1.
         11    1    1    2    0    0 -0.30735227382E-01 -0.26559641028E-01  0.33666531707E+00  0.33910745432E+00  0.51100000000E-03 0. -1.
    9000002    1    1    2    0    0  0.29240372320E+00  0.31831838551E+00  0.12662027443E+00  0.10405302618E+01  0.93800000000E+00 0.  1.
         22    1    1    2    0    0 -0.26166849582E+00 -0.29175874449E+00  0.35367143759E+01  0.35583622838E+01  0.00000000000E+00 0. -1.
</event>
<event>
 5    1  0.1461556E+002  0.1599224E+01  0.7818608E-02  0.3354206E+00
         11   -1    0    0    0    0  0.00000000000E+00  0.00000000000E+00  0.39999999674E+01  0.40000000000E+01  0.51100000000E-03 0. -1.
    9000002   -1    0    0    0    0 -0.00000000000E+00 -0.00000000000E+00  0.00000000000E+00  0.93800000000E+00  0.93800000000E+00 0. -1.
         11    1    1    2    0    0  0.30874845613E+00  0.14775362427E+00  0.17257480269E+01  0.17593644466E+01  0.51100000000E-03 0. -1.
    9000002    1    1    2    0    0 -0.60253587801E+00 -0.32732536093E+00  0.33526363568E+00  0.12093126484E+01  0.93800000000E+00 0. -1.
         22    1    1    2    0    0  0.29378742187E+00  0.17957173666E+00  0.19389883048E+01  0.19693229050E+01  0.00000000000E+00 0. -1.
</event>
<event>
 5    1  0.1461556E+002  0.1590594E+01  0.7818608E-02  0.3363636E+00
         11   -1    0    0    0    0  0.00000000000E+00  0.00000000000E+00  0.39999999674E+01  0.40000000000E+01  0.51100000000E-03 0.  1.
    9000002   -1    0    0    0    0 -0.00000000000E+00 -0.00000000000E+00  0.00000000000E+00  0.93800000000E+00  0.93800000000E+00 0. -1.
         11    1    1    2    0    0 -0.68685251771E-02  0.46042413607E-01  0.10166297324E+00  0.11181548076E+00  0.51100000000E-03 0.  1.
    9000002    1    1    2    0    0  0.58257234547E-01 -0.33550322092E+00  0.84977615014E-01  0.10015096164E+01  0.93800000000E+00 0. -1.
         22    1    1    2    0    0 -0.51388709370E-01  0.28946080732E+00  0.38133593791E+01  0.38246749029E+01  0.00000000000E+00 0.  1.
</event>
<event>
 5    1  0.2113133E+002  0.1580219E+01  0.7818608E-02  0.3375117E+00
         11   -1    0    0    0    0  0.00000000000E+00  0.00000000000E+00  0.39999999674E+01  0.40000000000E+01  0.51100000000E-03 0. -1.
    9000002   -1    0    0    0    0 -0.00000000000E+00 -0.00000000000E+00  0.00000000000E+00  0.93800000000E+00  0.93800000000E+00 0.  1.
         11    1    1    2    0    0 -0.11540386646E+00 -0.59094298355E-01  0.14200801410E+01  0.14259866958E+01  0.51100000000E-03 0. -1.
    9000002    1    1    2    0    0 -0.69219381564E-01 -0.55624911196E-01  0.19512250034E-01  0.94239597910E+00  0.93800000000E+00 0.  1.
         22    1    1    2    0    0  0.18462324802E+00  0.11471920955E+00  0.25604075763E+01  0.25696173251E+01  0.00000000000E+00 0. -1.
</event>
<event>
 5    1  0.1461556E+002  0.1592605E+01  0.7818608E-02  0.3361429E+00
         11   -1    0    0    0    0  0.00000000000E+00  0.00000000000E+00  0.39999999674E+01  0.40000000000E+01  0.51100000000E-03 0.  1.
    9000002   -1    0    0    0    0 -0.00000000000E+00 -0.00000000000E+00  0.00000000000E+00  0.93800000000E+00  0.93800000000E+00 0. -1.
         11    1    1    2    0    0  0.42922666884E+00  0.38973077754E-01  0.23022919771E+01  0.23422858585E+01  0.51100000000E-03 0.  1.
    9000002    1    1    2    0    0 -0.66407200974E+00 -0.21564019121E+00  0.35618022155E+00  0.12223750146E+01  0.93800000000E+00 0. -1.
         22    1    1    2    0    0  0.23484534090E+00  0.17666711346E+00  0.13415277687E+01  0.13733391269E+01  0.00000000000E+00 0.  1.
</event>
<event>
 5    1  0.1461556E+002  0.1599675E+01  0.7818608E-02  0.3353717E+00
         11   -1    0    0    0    0  0.00000000000E+00  0.00000000000E+00  0.39999999674E+01  0.40000000000E+01  0.51100000000E-03 0. -1.
    9000002   -1    0    0    0    0 -0.00000000000E+00 -0.00000000000E+00  0.00000000000E+00  0.93800000000E+00  0.93800000000E+00 0. -1.
         11    1    1    2    0    0  0.38853136698E-01  0.51190467355E-01  0.81521686137E+00  0.81774618456E+00  0.51100000000E-03 0. -1.
    9000002    1    1    2    0    0 -0.18099558695E+00 -0.24945601360E+00  0.63418360511E-01  0.98937030159E+00  0.93800000000E+00 0. -1.
         22    1    1    2    0    0  0.14214245025E+00  0.19826554624E+00  0.31213647455E+01  0.31308835138E+01  0.00000000000E+00 0. -1.
</event>
<event>
 5    1  0.1461556E+002  0.1599677E+01  0.7818608E-02  0.3353714E+00
         11   -1    0    0    0    0  0.00000000000E+00  0.00000000000E+00  0.39999999674E+01  0.40000000000E+01  0.51100000000E-03 0. -1.
    9000002   -1    0    0    0    0 -0.00000000000E+00 -0.00000000000E+00  0.00000000000E+00  0.93800000000E+00  0.93800000000E+00 0.  1.
         11    1    1    2    0    0 -0.55406713032E-01 -0.16150860397E+00  0.17052529767E+01  0.17137802977E+01  0.51100000000E-03 0. -1.
    9000002    1    1    2    0    0  0.12500050802E+00  0.36921484911E+00  0.10235792916E+00  0.10209142361E+01  0.93800000000E+00 0.  1.
         22    1    1    2    0    0 -0.69593794984E-01 -0.20770624513E+00  0.21923890615E+01  0.22033054662E+01  0.00000000000E+00 0. -1.
</event>
<event>
 5    1  0.1461556E+002  0.1597027E+01  0.7818608E-02  0.3356597E+00
         11   -1    0    0    0    0  0.00000000000E+00  0.00000000000E+00  0.39999999674E+01  0.40000000000E+01  0.51100000000E-03 0. -1.
    9000002   -1    0    0    0    0 -0.00000000000E+00 -0.00000000000E+00  0.00000000000E+00  0.93800000000E+00  0.93800000000E+00 0.  1.
         11    1    1    2    0    0  0.70490399424E-03 -0.28356416757E-01  0.59693582780E+00  0.59760959405E+00  0.51100000000E-03 0. -1.
    9000002    1    1    2    0    0  0.24829009361E+00  0.32906669516E+00  0.11703403850E+00  0.10312486735E+01  0.93800000000E+00 0.  1.
         22    1    1    2    0    0 -0.24899499760E+00 -0.30071027840E+00  0.32860301011E+01  0.33091417324E+01  0.00000000000E+00 0. -1.
</event>
<event>
 5    1  0.1461556E+002  0.1599672E+01  0.7818608E-02  0.3353720E+00
         11   -1    0    0    0    0  0.00000000000E+00  0.00000000000E+00  0.39999999674E+01  0.40000000000E+01  0.51100000000E-03 0.  1.
    9000002   -1    0    0    0    0 -0.00000000000E+00 -0.00000000000E+00  0.00000000000E+00  0.93800000000E+00  0.93800000000E+00 0. -1.
         11    1    1    2    0    0 -0.38586432862E-01 -0.29898566353E-01  0.57555919609E+00  0.57762573211E+00  0.51100000000E-03 0.  1.
    9000002    1    1    2    0    0  0.27615033888E+00  0.20443246610E+00  0.79103796060E-01  0.10020743752E+01  0.93800000000E+00 0. -1.
         22    1    1    2    0    0 -0.23756390602E+00 -0.17453389975E+00  0.33453369752E+01  0.33582998927E+01  0.00000000000E+00 0. -1.
</event>
<event>
 5    1  0.1461556E+002  0.1599656E+01  0.7818608E-02  0.3353737E+00
         11   -1    0    0    0    0  0.00000000000E+00  0.00000000000E+00  0.39999999674E+01  0.40000000000E+01  0.51100000000E-03 0.  1.
    9000002   -1    0    0    0    0 -0.00000000000E+00 -0.00000000000E+00  0.00000000000E+00  0.93800000000E+00  0.93800000000E+00 0. -1.
         11    1    1    2    0    0 -0.22199267011E+00 -0.10393665671E-01  0.16922390107E+01  0.17067694351E+01  0.51100000000E-03 0.  1.
    9000002    1    1    2    0    0  0.49151161658E+00  0.28661897101E-01  0.16574790568E+00  0.10722506898E+01  0.93800000000E+00 0. -1.
         22    1    1    2    0    0 -0.26951894647E+00 -0.18268231430E-01  0.21420130509E+01  0.21589798751E+01  0.00000000000E+00 0. -1.
</event>
<event>
 5    1  0.1461556E+002  0.1599615E+01  0.7818608E-02  0.3353781E+00
         11   -1    0    0    0    0  0.00000000000E+00  0.00000000000E+00  0.39999999674E+01  0.40000000000E+01  0.51100000000E-03 0.  1.
    9000002   -1    0    0    0    0 -0.00000000000E+00 -0.00000000000E+00  0.00000000000E+00  0.93800000000E+00  0.93800000000E+00 0. -1.
         11    1    1    2    0    0  0.57672571112E-01 -0.17660509335E+00  0.17795962456E+01  0.17892675996E+01  0.51100000000E-03 0.  1.
    9000002    1    1    2    0    0 -0.10548487239E+00  0.38657433733E+00  0.10836688449E+00  0.10257456596E+01  0.93800000000E+00 0. -1.
         22    1    1    2    0    0  0.47812301281E-01 -0.20996924398E+00  0.21120368373E+01  0.21229867408E+01  0.00000000000E+00 0.  1.
</event>
<event>
 5    1  0.1461556E+002  0.1453998E+01  0.7818608E-02  0.3528861E+00
         11   -1    0    0    0    0  0.00000000000E+00  0.00000000000E+00  0.39999999674E+01  0.40000000000E+01  0.51100000000E-03 0.  1.
    9000002   -1    0    0    0    0 -0.00000000000E+00 -0.00000000000E+00  0.00000000000E+00  0.93800000000E+00  0.93800000000E+00 0.  1.
         11    1    1    2    0    0  0.75025229718E-01  0.26334650438E+00  0.33291066302E+00  0.43105676788E+00  0.51100000000E-03 0.  1.
    9000002    1    1    2    0    0 -0.80811309205E-01  0.15336049104E-02  0.11898964226E+00  0.94896541275E+00  0.93800000000E+00 0.  1.
         22    1    1    2    0    0  0.57860794873E-02 -0.26488010929E+00  0.35480996621E+01  0.35579778194E+01  0.00000000000E+00 0. -1.
</event>
<event>
 5    1  0.1461556E+002  0.1599533E+01  0.7818608E-02  0.3353870E+00
         11   -1    0    0    0    0  0.00000000000E+00  0.00000000000E+00  0.39999999674E+01  0.40000000000E+01  0.51100000000E-03 0. -1.
    9000002   -1    0    0    0    0 -0.00000000000E+00 -0.00000000000E+00  0.00000000000E+00  0.93800000000E+00  0.93800000000E+00 0. -1.
         11    1    1    2    0    0  0.12857904344E-01 -0.20586108132E-01  0.44769835107E+00  0.44835609534E+00  0.51100000000E-03 0. -1.
    9000002    1    1    2    0    0 -0.14922729488E+00  0.25358273688E+00  0.57835611827E-01  0.98476492016E+00  0.93800000000E+00 0. -1.
         22    1    1    2    0    0  0.13636939054E+00 -0.23299662875E+00  0.34944660045E+01  0.35048789845E+01  0.00000000000E+00 0. -1.
</event>
<event>
 5    1  0.1461556E+002  0.1599674E+01  0.7818608E-02  0.3353718E+00
         11   -1    0    0    0    0  0.00000000000E+00  0.00000000000E+00  0.39999999674E+01  0.40000000000E+01  0.51100000000E-03 0. -1.
    9000002   -1    0    0    0    0 -0.00000000000E+00 -0.00000000000E+00  0.00000000000E+00  0.93800000000E+00  0.93800000000E+00 0. -1.
         11    1    1    2    0    0 -0.62267777698E-01 -0.86832034098E-01  0.78561589530E+00  0.79284908674E+00  0.51100000000E-03 0. -1.
    9000002    1    1    2    0    0  0.30976552477E+00  0.42444607766E+00  0.18985121409E+00  0.10917859848E+01  0.93800000000E+00 0. -1.
         22    1    1    2    0    0 -0.24749774707E+00 -0.33761404356E+00  0.30245328580E+01  0.30533649284E+01  0.00000000000E+00 0. -1.
</event>
<event>
 5    1  0.1637537E+002  0.1561685E+01  0.7818608E-02  0.3396029E+00
         11   -1    0    0    0    0  0.00000000000E+00  0.00000000000E+00  0.39999999674E+01  0.40000000000E+01  0.51100000000E-03 0.  1.
    9000002   -1    0    0    0    0 -0.00000000000E+00 -0.00000000000E+00  0.00000000000E+00  0.93800000000E+00  0.93800000000E+00 0. -1.
         11    1    1    2    0    0 -0.15725556513E+00  0.89861805272E-01  0.86154401023E+00  0.88037651007E+00  0.51100000000E-03 0.  1.
    9000002    1    1    2    0    0 -0.26442585842E-01  0.68933526030E-01  0.31743821199E-01  0.94143651488E+00  0.93800000000E+00 0. -1.
         22    1    1    2    0    0  0.18369815097E+00 -0.15879533130E+00  0.31067121359E+01  0.31161869751E+01  0.00000000000E+00 0.  1.
</event>
<event>
 5    1  0.1461556E+002  0.1599676E+01  0.7818608E-02  0.3353715E+00
         11   -1    0    0    0    0  0.00000000000E+00  0.00000000000E+00  0.39999999674E+01  0.40000000000E+01  0.51100000000E-03 0. -1.
    9000002   -1    0    0    0    0 -0.00000000000E+00 -0.00000000000E+00  0.00000000000E+00  0.93800000000E+00  0.93800000000E+00 0.  1.
         11    1    1    2    0    0 -0.27904225401E+00  0.22065450194E+00  0.21989558290E+01  0.22275457320E+01  0.51100000000E-03 0. -1.
    9000002    1    1    2    0    0  0.47330846984E+00 -0.37658509496E+00  0.25551107646E+00  0.11449747384E+01  0.93800000000E+00 0.  1.
         22    1    1    2    0    0 -0.19426621582E+00  0.15593059302E+00  0.15455330619E+01  0.15654795297E+01  0.00000000000E+00 0.  1.
</event>
<event>
 5    1  0.1461556E+002  0.1598405E+01  0.7818608E-02  0.3355096E+00
         11   -1    0    0    0    0  0.00000000000E+00  0.00000000000E+00  0.39999999674E+01  0.40000000000E+01  0.51100000000E-03 0. -1.
    9000002   -1    0    0    0    0 -0.00000000000E+00 -0.00000000000E+00  0.00000000000E+00  0.93800000000E+00  0.93800000000E+00 0.  1.
         11    1    1    2    0    0 -0.14063429078E+00  0.42664072779E+00  0.25408205490E+01  0.25802266640E+01  0.51100000000E-03 0. -1.
    9000002    1    1    2    0    0  0.18179405725E+00 -0.66785071469E+00  0.34307767908E+00  0.12151625201E+01  0.93800000000E+00 0.  1.
         22    1    1    2    0    0 -0.41159766468E-01  0.24120998690E+00  0.11161017393E+01  0.11426108159E+01  0.00000000000E+00 0. -1.
</event>
<event>
 5    1  0.1461556E+002  0.1516747E+01  0.7818608E-02  0.3448995E+00
         11   -1    0    0    0    0  0.00000000000E+00  0.00000000000E+00  0.39999999674E+01  0.40000000000E+01  0.51100000000E-03 0.  1.
    9000002   -1    0    0    0    0 -0.00000000000E+00 -0.00000000000E+00  0.00000000000E+00  0.93800000000E+00  0.93800000000E+00 0. -1.
         11    1    1    2    0    0 -0.30738484584E+00  0.15786357375E+00  0.13605903797E+01  0.14037851665E+01  0.51100000000E-03 0.  1.
    9000002    1    1    2    0    0  0.17705315145E+00  0.18363803551E+00  0.10970462975E+00  0.97823813681E+00  0.93800000000E+00 0. -1.
         22    1    1    2    0    0  0.13033169439E+00 -0.34150160925E+00  0.25297049579E+01  0.25559766967E+01  0.00000000000E+00 0.  1.
</event>
<event>
 5    1  0.1461556E+002  0.1587329E+01  0.7818608E-02  0.3367232E+00
         11   -1    0    0    0    0  0.00000000000E+00  0.00000000000E+00  0.39999999674E+01  0.40000000000E+01  0.51100000000E-03 0. -1.
    9000002   -1    0    0    0    0 -0.00000000000E+00 -0.00000000000E+00  0.00000000000E+00  0.93800000000E+00  0.93800000000E+00 0.  1.
         11    1    1    2    0    0  0.14194861693E-01  0.71874136815E-01  0.15695219361E+01  0.15712309680E+01  0.51100000000E-03 0. -1.
    9000002    1    1    2    0    0 -0.82614085220E-01  0.14575167860E+00  0.27763465668E-01  0.95324889138E+00  0.93800000000E+00 0.  1.
         22    1    1    2    0    0  0.68419223526E-01 -0.21762581542E+00  0.24027145655E+01  0.24135201406E+01  0.00000000000E+00 0. -1.
</event>
<event>
 5    1  0.1461556E+002  0.1599643E+01  0.7818608E-02  0.3353751E+00
         11   -1    0    0    0    0  0.00000000000E+00  0.00000000000E+00  0.39999999674E+01  0.40000000000E+01  0.51100000000E-03 0. -1.
    9000002   -1    0    0    0    0 -0.00000000000E+00 -0.00000000000E+00  0.00000000000E+00  0.93800000000E+00  0.93800000000E+00 0.  1.
         11    1    1    2    0    0  0.11645908609E-01 -0.91678924053E-03  0.14142117935E+00  0.14190376591E+00  0.51100000000E-03 0. -1.
    9000002    1    1    2    0    0 -0.25630123371E+00  0.66921844630E-02  0.43715037446E-01  0.97339103768E+00  0.93800000000E+00 0.  1.
         22    1    1    2    0    0  0.24465532510E+00 -0.57753952225E-02  0.38148637506E+01  0.38227051964E+01  0.00000000000E+00 0. -1.
</event>
<event>
 5    1  0.1461556E+002  0.1561970E+01  0.7818608E-02  0.3395703E+00
         11   -1    0    0    0    0  0.00000000000E+00  0.00000000000E+00  0.39999999674E+01  0.40000000000E+01  0.51100000000E-03 0. -1.
    9000002   -1    0    0    0    0 -0.00000000000E+00 -0.00000000000E+00  0.00000000000E+00  0.93800000000E+00  0.93800000000E+00 0.  1.
         11    1    1    2    0    0  0.12598825428E+00  0.25079534222E+00  0.25455705894E+01  0.25609961403E+01  0.51100000000E-03 0. -1.
    9000002    1    1    2    0    0  0.13975926520E+00 -0.31017955470E+00  0.10834866938E+00  0.10036570343E+01  0.93800000000E+00 0.  1.
         22    1    1    2    0    0 -0.26574751949E+00  0.59384212476E-01  0.13460807086E+01  0.13733468254E+01  0.00000000000E+00 0. -1.
</event>
<event>
 5    1  0.1461556E+002  0.1536145E+01  0.7818608E-02  0.3425725E+00
         11   -1    0    0    0    0  0.00000000000E+00  0.00000000000E+00  0.39999999674E+01  0.40000000000E+01  0.51100000000E-03 0. -1.
    9000002   -1    0    0    0    0 -0.00000000000E+00 -0.00000000000E+00  0.00000000000E+00  0.93800000000E+00  0.93800000000E+00 0.  1.
         11    1    1    2    0    0  0.80615157263E-01 -0.32394546621E+00  0.22548604283E+01  0.22794374922E+01  0.51100000000E-03 0. -1.
    9000002    1    1    2    0    0  0.92717413422E-01  0.96546392579E-01  0.60068408248E-01  0.94940504440E+00  0.93800000000E+00 0.  1.
         22    1    1    2    0    0 -0.17333257069E+00  0.22739907363E+00  0.16850711308E+01  0.17091574634E+01  0.00000000000E+00 0. -1.
</event>
<event>
 5    1  0.1461556E+002  0.1599512E+01  0.7818608E-02  0.3353893E+00
         11   -1    0    0    0    0  0.00000000000E+00  0.00000000000E+00  0.39999999674E+01  0.40000000000E+01  0.51100000000E-03 0.  1.
    9000002   -1    0    0    0    0 -0.00000000000E+00 -0.00000000000E+00  0.00000000000E+00  0.93800000000E+00  0.93800000000E+00 0.  1.
         11    1    1    2    0    0  0.89059746568E-01 -0.50447586875E-01  0.10716212714E+01  0.10764984941E+01  0.51100000000E-03 0.  1.
    9000002    1    1    2    0    0 -0.27987752921E+00  0.16521567209E+00  0.70768200265E-01  0.99522851036E+00  0.93800000000E+00 0.  1.
         22    1    1    2    0    0  0.19081778264E+00 -0.11476808522E+00  0.28576104957E+01  0.28662729955E+01  0.00000000000E+00 0.  1.
</event>
<event>
 5    1  0.1461556E+002  0.1599669E+01  0.7818608E-02  0.3353723E+00
         11   -1    0    0    0    0  0.00000000000E+00  0.00000000000E+00  0.39999999674E+01  0.40000000000E+01  0.51100000000E-03 0.  1.
    9000002   -1    0    0    0    0 -0.00000000000E+00 -0.00000000000E+00  0.00000000000E+00  0.93800000000E+00  0.93800000000E+00 0.  1.
         11    1    1    2    0    0  0.17520409743E-01 -0.68434289785E-01  0.94047043347E+00  0.94311988323E+00  0.51100000000E-03 0.  1.
    9000002    1    1    2    0    0 -0.62327542299E-01  0.28259141018E+00  0.55817678644E-01  0.98321017127E+00  0.93800000000E+00 0.  1.
         22    1    1    2    0    0  0.44807132555E-01 -0.21415712040E+00  0.30037118552E+01  0.30116699455E+01  0.00000000000E+00 0.  1.
</event>
<event>
 5    1  0.1461556E+002  0.1599588E+01  0.7818608E-02  0.3353811E+00
         11   -1    0    0    0    0  0.00000000000E+00  0.00000000000E+00  0.39999999674E+01  0.40000000000E+01  0.51100000000E-03 0. -1.
    9000002   -1    0    0    0    0 -0.00000000000E+00 -0.00000000000E+00  0.00000000000E+00  0.93800000000E+00  0.93800000000E+00 0. -1.
         11    1    1    2    0    0 -0.11623433551E+00 -0.16726180190E+00  0.15258307015E+01  0.15393656232E+01  0.51100000000E-03 0. -1.
    9000002    1    1    2    0    0  0.27783405220E+00  0.44272775531E+00  0.18783644756E+00  0.10901037368E+01  0.93800000000E+00 0. -1.
         22    1    1    2    0    0 -0.16159971669E+00 -0.27546595341E+00  0.22863328183E+01  0.23085306400E+01  0.00000000000E+00 0. -1.
</event>
<event>
 5    1  0.1461556E+002  0.1599025E+01  0.7818608E-02  0.3354422E+00
         11   -1    0    0    0    0  0.00000000000E+00  0.00000000000E+00  0.39999999674E+01  0.40000000000E+01  0.51100000000E-03 0.  1.
    9000002   -1    0    0    0    0 -0.00000000000E+00 -0.00000000000E+00  0.00000000000E+00  0.93800000000E+00  0.93800000000E+00 0. -1.
         11    1    1    2    0    0  0.54001202930E-01  0.22548502675E-01  0.83874453037E+00  0.84078368992E+00  0.51100000000E-03 0.  1.
    9000002    1    1    2    0    0 -0.34384698341E+00 -0.31030773779E-01  0.80402342968E-01  0.10027473229E+01  0.93800000000E+00 0. -1.
         22    1    1    2    0    0  0.28984578048E+00  0.84822711034E-02  0.30808530940E+01  0.30944689871E+01  0.00000000000E+00 0.  1.
</event>
<event>
 5    1  0.1461556E+002  0.1599509E+01  0.7818608E-02  0.3353897E+00
         11   -1    0    0    0    0  0.00000000000E+00  0.00000000000E+00  0.39999999674E+01  0.40000000000E+01  0.51100000000E-03 0.  1.
    9000002   -1    0    0    0    0 -0.00000000000E+00 -0.00000000000E+00  0.00000000000E+00  0.93800000000E+00  0.93800000000E+00 0.  1.
         11    1    1    2    0    0  0.16887029192E-01  0.86712327807E-02  0.26489373530E+00  0.26557355695E+00  0.51100000000E-03 0.  1.
    9000002    1    1    2    0    0 -0.23130414107E+00 -0.15200750177E-01  0.35773998351E-01  0.96687974818E+00  0.93800000000E+00 0.  1.
         22    1    1    2    0    0  0.21441711187E+00  0.65295173967E-02  0.36993322337E+01  0.37055466949E+01  0.00000000000E+00 0.  1.
</event>
<event>
 5    1  0.1461556E+002  0.1599677E+01  0.7818608E-02  0.3353714E+00
         11   -1    0    0    0    0  0.00000000000E+00  0.00000000000E+00  0.39999999674E+01  0.40000000000E+01  0.51100000000E-03 0. -1.
    9000002   -1    0    0    0    0 -0.00000000000E+00 -0.00000000000E+00  0.00000000000E+00  0.93800000000E+00  0.93800000000E+00 0.  1.
         11    1    1    2    0    0  0.60027401134E-01  0.18032986477E+00  0.18212998302E+01  0.18311896357E+01  0.51100000000E-03 0. -1.
    9000002    1    1    2    0    0 -0.12866355231E+00 -0.38428939210E+00  0.11085362596E+00  0.10277962702E+01  0.93800000000E+00 0.  1.
         22    1    1    2    0    0  0.68636151172E-01  0.20395952733E+00  0.20678465112E+01  0.20790140942E+01  0.00000000000E+00 0. -1.
</event>
<event>
 5    1  0.1461556E+002  0.1573524E+01  0.7818608E-02  0.3382610E+00
         11   -1    0    0    0    0  0.00000000000E+00  0.00000000000E+00  0.39999999674E+01  0.40000000000E+01  0.51100000000E-03 0. -1.
    9000002   -1    0    0    0    0 -0.00000000000E+00 -0.00000000000E+00  0.00000000000E+00  0.93800000000E+00  0.93800000000E+00 0.  1.
         11    1    1    2    0    0  0.14371633756E+00  0.12133195921E-01  0.72387939245E+00  0.73810787563E+00  0.51100000000E-03 0. -1.
    9000002    1    1    2    0    0  0.15669437618E-01 -0.26442025329E+00  0.67061400915E-01  0.97698763202E+00  0.93800000000E+00 0.  1.
         22    1    1    2    0    0 -0.15938577518E+00  0.25228705737E+00  0.32090591740E+01  0.32229044924E+01  0.00000000000E+00 0. -1.
</event>
<event>
 5    1  0.1461556E+002  0.1596400E+01  0.7818608E-02  0.3357280E+00
         11   -1    0    0    0    0  0.00000000000E+00  0.00000000000E+00  0.39999999674E+01  0.40000000000E+01  0.51100000000E-03 0. -1.
    9000002   -1    0    0    0    0 -0.00000000000E+00 -0.00000000000E+00  0.00000000000E+00  0.93800000000E+00  0.93800000000E+00 0.  1.
         11    1    1    2    0    0 -0.65019441352E-02  0.10027116887E+00  0.82463236898E+00  0.83073183860E+00  0.51100000000E-03 0. -1.
    9000002    1    1    2    0    0  0.19810507722E+00 -0.26842662506E+00  0.77112970598E-01  0.99854338158E+00  0.93800000000E+00 0.  1.
         22    1    1    2    0    0 -0.19160313308E+00  0.16815545619E+00  0.30982546278E+01  0.31087247798E+01  0.00000000000E+00 0. -1.
</event>
<event>
 5    1  0.1461556E+002  0.1599524E+01  0.7818608E-02  0.3353880E+00
         11   -1    0    0    0    0  0.00000000000E+00  0.00000000000E+00  0.39999999674E+01  0.40000000000E+01  0.51100000000E-03 0.  1.
    9000002   -1    0    0    0    0 -0.00000000000E+00 -0.00000000000E+00  0.00000000000E+00  0.93800000000E+00  0.93800000000E+00 0. -1.
         11    1    1    2    0    0 -0.14657967000E+00  0.85736300878E-03  0.14511766975E+01  0.14585610729E+01  0.51100000000E-03 0.  1.
    9000002    1    1    2    0    0  0.35983974952E+00  0.13829893803E-01  0.87171463851E-01  0.10085230664E+01  0.93800000000E+00 0. -1.
         22    1    1    2    0    0 -0.21326007953E+00 -0.14687256812E-01  0.24616518060E+01  0.24709158608E+01  0.00000000000E+00 0.  1.
</event>
<event>
 5    1  0.1461556E+002  0.1596710E+01  0.7818608E-02  0.3356942E+00
         11   -1    0    0    0    0  0.00000000000E+00  0.00000000000E+00  0.39999999674E+01  0.40000000000E+01  0.51100000000E-03 0.  1.
    9000002   -1    0    0    0    0 -0.00000000000E+00 -0.00000000000E+00  0.00000000000E+00  0.93800000000E+00  0.93800000000E+00 0.  1.
         11    1    1    2    0    0 -0.78218412553E-01 -0.14280548304E-01  0.62901834503E+00  0.63402396928E+00  0.51100000000E-03 0.  1.
    9000002    1    1    2    0    0  0.26086324324E+00 -0.10584498513E+00  0.55086813075E-01  0.98088294385E+00  0.93800000000E+00 0.  1.
         22    1    1    2    0    0 -0.18264483069E+00  0.12012553343E+00  0.33158948093E+01  0.33230930869E+01  0.00000000000E+00 0.  1.
</event>
<event>
 5    1  0.1461556E+002  0.1598691E+01  0.7818608E-02  0.3354785E+00
         11   -1    0    0    0    0  0.00000000000E+00  0.00000000000E+00  0.39999999674E+01  0.40000000000E+01  0.51100000000E-03 0.  1.
    9000002   -1    0    0    0    0 -0.00000000000E+00 -0.00000000000E+00  0.00000000000E+00  0.93800000000E+00  0.93800000000E+00 0. -1.
         11    1    1    2    0    0 -0.86788765755E-02  0.19472981787E-01  0.53542955799E+00  0.53585407772E+00  0.51100000000E-03 0.  1.
    9000002    1    1    2    0    0 -0.12389334348E+00 -0.17859695771E+00  0.32056091047E-01  0.96338882433E+00  0.93800000000E+00 0. -1.
         22    1    1    2    0    0  0.13257222005E+00  0.15912397593E+00  0.34325143183E+01  0.34387570980E+01  0.00000000000E+00 0.  1.
</event>
<event>
 5    1  0.1667071E+002  0.1574015E+01  0.7818608E-02  0.3382059E+00
         11   -1    0    0    0    0  0.00000000000E+00  0.00000000000E+00  0.39999999674E+01  0.40000000000E+01  0.51100000000E-03 0.  1.
    9000002   -1    0    0    0    0 -0.00000000000E+00 -0.00000000000E+00  0.00000000000E+00  0.93800000000E+00  0.93800000000E+00 0.  1.
         11    1    1    2    0    0  0.14829383928E+00 -0.35709726263E-01  0.19498087498E+01  0.19557660057E+01  0.51100000000E-03 0.  1.
    9000002    1    1    2    0    0  0.79891807621E-01 -0.18567527748E-01  0.23352418374E-01  0.94186877507E+00  0.93800000000E+00 0.  1.
         22    1    1    2    0    0 -0.22818564690E+00  0.54277254011E-01  0.20268387992E+01  0.20403652192E+01  0.00000000000E+00 0.  1.
</event>
<event>
 5    1  0.1461556E+002  0.1540715E+01  0.7818608E-02  0.3420334E+00
         11   -1    0    0    0    0  0.00000000000E+00  0.00000000000E+00  0.39999999674E+01  0.40000000000E+01  0.51100000000E-03 0.  1.
    9000002   -1    0    0    0    0 -0.00000000000E+00 -0.00000000000E+00  0.00000000000E+00  0.93800000000E+00  0.93800000000E+00 0. -1.
         11    1    1    2    0    0 -0.89809398707E-01  0.19045224988E+00  0.22393930874E+01  0.22492708704E+01  0.51100000000E-03 0.  1.
    9000002    1    1    2    0    0  0.78759144280E-01  0.16833535940E+00  0.68188342893E-01  0.95866232123E+00  0.93800000000E+00 0. -1.
         22    1    1    2    0    0  0.11050254427E-01 -0.35878760929E+00  0.16924185371E+01  0.17300668084E+01  0.00000000000E+00 0.  1.
</event>
<event>
 5    1  0.1461556E+002  0.1592746E+01  0.7818608E-02  0.3361274E+00
         11   -1    0    0    0    0  0.00000000000E+00  0.00000000000E+00  0.39999999674E+01  0.40000000000E+01  0.51100000000E-03 0. -1.
    9000002   -1    0    0    0    0 -0.00000000000E+00 -0.00000000000E+00  0.00000000000E+00  0.93800000000E+00  0.93800000000E+00 0. -1.
         11    1    1    2    0    0 -0.15120754011E-01  0.29589186021E-02  0.17033743502E-01  0.22973940451E-01  0.51100000000E-03 0. -1.
    9000002    1    1    2    0    0  0.25911576840E+00  0.73230822543E-01  0.53599397600E-01  0.97735389201E+00  0.93800000000E+00 0. -1.
         22    1    1    2    0    0 -0.24399501439E+00 -0.76189741145E-01  0.39293668263E+01  0.39376721675E+01  0.00000000000E+00 0. -1.
</event>
<event>
 5    1  0.1461556E+002  0.1599571E+01  0.7818608E-02  0.3353830E+00
         11   -1    0    0    0    0  0.00000000000E+00  0.00000000000E+00  0.39999999674E+01  0.40000000000E+01  0.51100000000E-03 0.  1.
    9000002   -1    0    0    0    0 -0.00000000000E+00 -0.00000000000E+00  0.00000000000E+00  0.93800000000E+00  0.93800000000E+00 0. -1.
         11    1    1    2    0    0 -0.10029978199E+00  0.27232343044E+00  0.20291280318E+01  0.20497758237E+01  0.51100000000E-03 0.  1.
    9000002    1    1    2    0    0  0.18700454238E+00 -0.48817921978E+00  0.18791735189E+00  0.10901589704E+01  0.93800000000E+00 0. -1.
         22    1    1    2    0    0 -0.86704760392E-01  0.21585578934E+00  0.17829545837E+01  0.17980652059E+01  0.00000000000E+00 0.  1.
</event>
<event>
 5    1  0.1461556E+002  0.1599674E+01  0.7818608E-02  0.3353717E+00
         11   -1    0    0    0    0  0.00000000000E+00  0.00000000000E+00  0.39999999674E+01  0.40000000000E+01  0.51100000000E-03 0.  1.
    9000002   -1    0    0    0    0 -0.00000000000E+00 -0.00000000000E+00  0.00000000000E+00  0.93800000000E+00  0.93800000000E+00 0.  1.
         11    1    1    2    0    0  0.88976990603E+00 -0.11967025448E-01  0.24246566770E+01  0.25827880203E+01  0.51100000000E-03 0.  1.
    9000002    1    1    2    0    0 -0.10920089267E+01  0.16132053386E-01  0.10205275197E+01  0.17646711188E+01  0.93800000000E+00 0.  1.
         22    1    1    2    0    0  0.20223902071E+00 -0.41650279377E-02  0.55481577063E+00  0.59054086082E+00  0.00000000000E+00 0.  1.
</event>
<event>
 5    1  0.1461556E+002  0.1599206E+01  0.7818608E-02  0.3354226E+00
         11   -1    0    0    0    0  0.00000000000E+00  0.00000000000E+00  0.39999999674E+01  0.40000000000E+01  0.51100000000E-03 0. -1.
    9000002   -1    0    0    0    0 -0.00000000000E+00 -0.00000000000E+00  0.00000000000E+00  0.93800000000E+00  0.93800000000E+00 0. -1.
         11    1    1    2    0    0 -0.20330305723E-01  0.87234605948E-01  0.11253089329E+01  0.11288683065E+01  0.51100000000E-03 0. -1.
    9000002    1    1    2    0    0  0.13821182048E+00 -0.25719506614E+00  0.57198076663E-01  0.98405661897E+00  0.93800000000E+00 0. -1.
         22    1    1    2    0    0 -0.11788151476E+00  0.16996046020E+00  0.28174929578E+01  0.28250750746E+01  0.00000000000E+00 0.  1.
</event>
<event>
 5    1  0.1461556E+002  0.1533516E+01  0.7818608E-02  0.3428842E+00
         11   -1    0    0    0    0  0.00000000000E+00  0.00000000000E+00  0.39999999674E+01  0.40000000000E+01  0.51100000000E-03 0.  1.
    9000002   -1    0    0    0    0 -0.00000000000E+00 -0.00000000000E+00  0.00000000000E+00  0.93800000000E+00  0.93800000000E+00 0.  1.
         11    1    1    2    0    0  0.93314803431E-01 -0.27070295952E+00  0.56628683668E+00  0.63456188614E+00  0.51100000000E-03 0.  1.
    9000002    1    1    2    0    0  0.34413633631E+00  0.58954695663E+00  0.40811273340E+00  0.12297948753E+01  0.93800000000E+00 0.  1.
         22    1    1    2    0    0 -0.43745113974E+00 -0.31884399711E+00  0.30256003973E+01  0.30736432386E+01  0.00000000000E+00 0.  1.
</event>
<event>
 5    1  0.1461556E+002  0.1531738E+01  0.7818608E-02  0.3430957E+00
         11   -1    0    0    0    0  0.00000000000E+00  0.00000000000E+00  0.39999999674E+01  0.40000000000E+01  0.51100000000E-03 0.  1.
    9000002   -1    0    0    0    0 -0.00000000000E+00 -0.00000000000E+00  0.00000000000E+00  0.93800000000E+00  0.93800000000E+00 0.  1.
         11    1    1    2    0    0 -0.48757292981E+00 -0.62416184798E-01  0.17304413354E+01  0.17989026151E+01  0.51100000000E-03 0.  1.
    9000002    1    1    2    0    0  0.38871855372E+00  0.24304012550E+00  0.20459779740E+00  0.10638960829E+01  0.93800000000E+00 0.  1.
         22    1    1    2    0    0  0.98854376097E-01 -0.18062394070E+00  0.20649608345E+01  0.20752013020E+01  0.00000000000E+00 0.  1.
</event>
<event>
 5    1  0.1461556E+002  0.1589483E+01  0.7818608E-02  0.3364857E+00
         11   -1    0    0    0    0  0.00000000000E+00  0.00000000000E+00  0.39999999674E+01  0.40000000000E+01  0.51100000000E-03 0.  1.
    9000002   -1    0    0    0    0 -0.00000000000E+00 -0.00000000000E+00  0.00000000000E+00  0.93800000000E+00  0.93800000000E+00 0. -1.
         11    1    1    2    0    0  0.27650796483E-01  0.35158733731E+00  0.19232026487E+01  0.19552715697E+01  0.51100000000E-03 0.  1.
    9000002    1    1    2    0    0 -0.22963364847E+00 -0.52717255852E+00  0.23943067864E+00  0.11259722771E+01  0.93800000000E+00 0. -1.
         22    1    1    2    0    0  0.20198285199E+00  0.17558522122E+00  0.18373666400E+01  0.18567561531E+01  0.00000000000E+00 0. -1.
</event>
<event>
 5    1  0.1461556E+002  0.1569172E+01  0.7818608E-02  0.3387518E+00
         11   -1    0    0    0    0  0.00000000000E+00  0.00000000000E+00  0.39999999674E+01  0.40000000000E+01  0.51100000000E-03 0.  1.
    9000002   -1    0    0    0    0 -0.00000000000E+00 -0.00000000000E+00  0.00000000000E+00  0.93800000000E+00  0.93800000000E+00 0.  1.
         11    1    1    2    0    0 -0.50998286268E-01 -0.15794032143E+00  0.20439800539E+01  0.20507073638E+01  0.51100000000E-03 0.  1.
    9000002    1    1    2    0    0  0.55781101317E-01 -0.99037920125E-01  0.31188085579E-01  0.94537650572E+00  0.93800000000E+00 0.  1.
         22    1    1    2    0    0 -0.47828150491E-02  0.25697824155E+00  0.19248318279E+01  0.19419161304E+01  0.00000000000E+00 0.  1.
</event>
<event>
 5    1  0.1461556E+002  0.1583282E+01  0.7818608E-02  0.3371710E+00
         11   -1    0    0    0    0  0.00000000000E+00  0.00000000000E+00  0.39999999674E+01  0.40000000000E+01  0.51100000000E-03 0.  1.
    9000002   -1    0    0    0    0 -0.00000000000E+00 -0.00000000000E+00  0.00000000000E+00  0.93800000000E+00  0.93800000000E+00 0. -1.
         11    1    1    2    0    0 -0.70696482801E-01  0.56000093595E-01  0.16812496861E+01  0.16836670607E+01  0.51100000000E-03 0.  1.
    9000002    1    1    2    0    0 -0.62921704389E-01  0.14439404600E+00  0.28610616496E-01  0.95156258269E+00  0.93800000000E+00 0. -1.
         22    1    1    2    0    0  0.13361818719E+00 -0.20039413960E+00  0.22901396648E+01  0.23027703566E+01  0.00000000000E+00 0.  1.
</event>
<event>
 5    1  0.1461556E+002  0.1599501E+01  0.7818608E-02  0.3353905E+00
         11   -1    0    0    0    0  0.00000000000E+00  0.00000000000E+00  0.39999999674E+01  0.40000000000E+01  0.51100000000E-03 0.  1.
    9000002   -1    0    0    0    0 -0.00000000000E+00 -0.00000000000E+00  0.00000000000E+00  0.93800000000E+00  0.93800000000E+00 0. -1.
         11    1    1    2    0    0  0.51046315798E-02 -0.26602345120E-01  0.30498303444E+00  0.30618402056E+00  0.51100000000E-03 0.  1.
    9000002    1    1    2    0    0  0.34674986044E-01  0.29881975371E+00  0.60513173570E-01  0.98691511491E+00  0.93800000000E+00 0. -1.
         22    1    1    2    0    0 -0.39779617624E-01 -0.27221740859E+00  0.36345037594E+01  0.36449008645E+01  0.00000000000E+00 0.  1.
</event>
<event>
 5    1  0.1461556E+002  0.1599676E+01  0.7818608E-02  0.3353716E+00
         11   -1    0    0    0    0  0.00000000000E+00  0.00000000000E+00  0.39999999674E+01  0.40000000000E+01  0.51100000000E-03 0.  1.
    9000002   -1    0    0    0    0 -0.00000000000E+00 -0.00000000000E+00  0.00000000000E+00  0.93800000000E+00  0.93800000000E+00 0.  1.
         11    1    1    2    0    0  0.20953321496E+00 -0.70340683225E-01  0.19830341292E+01  0.19953136592E+01  0.51100000000E-03 0.  1.
    9000002    1    1    2    0    0 -0.40891778847E+00  0.14017125039E+00  0.12659118159E+00  0.10405436389E+01  0.93800000000E+00 0.  1.
         22    1    1    2    0    0  0.19938457351E+00 -0.69830567163E-01  0.18903746565E+01  0.19021427019E+01  0.00000000000E+00 0. -1.
</event>
<event>
 5    1  0.1461556E+002  0.1590597E+01  0.7818608E-02  0.3363633E+00
         11   -1    0    0    0    0  0.00000000000E+00  0.00000000000E+00  0.39999999674E+01  0.40000000000E+01  0.51100000000E-03 0.  1.
    9000002   -1    0    0    0    0 -0.00000000000E+00 -0.00000000000E+00  0.00000000000E+00  0.93800000000E+00  0.93800000000E+00 0.  1.
         11    1    1    2    0    0  0.20079747128E+00  0.99642179107E-01  0.19193077628E+01  0.19323536783E+01  0.51100000000E-03 0.  1.
    9000002    1    1    2    0    0 -0.58903604338E+00 -0.28487335946E+00  0.31208397323E+00  0.11854774134E+01  0.93800000000E+00 0.  1.
         22    1    1    2    0    0  0.38823857210E+00  0.18523118036E+00  0.17686082313E+01  0.18201689083E+01  0.00000000000E+00 0.  1.
</event>
<event>
 5    1  0.1461556E+002  0.1580245E+01  0.7818608E-02  0.3375087E+00
         11   -1    0    0    0    0  0.00000000000E+00  0.00000000000E+00  0.39999999674E+01  0.40000000000E+01  0.51100000000E-03 0.  1.
    9000002   -1    0    0    0    0 -0.00000000000E+00 -0.00000000000E+00  0.00000000000E+00  0.93800000000E+00  0.93800000000E+00 0. -1.
         11    1    1    2    0    0 -0.13955944288E+00 -0.35678295785E-01  0.11626981135E+01  0.11715873605E+01  0.51100000000E-03 0.  1.
    9000002    1    1    2    0    0  0.13248923695E+00 -0.27031812023E+00  0.75839032720E-01  0.98803888735E+00  0.93800000000E+00 0. -1.
         22    1    1    2    0    0  0.70702059259E-02  0.30599641601E+00  0.27614628211E+01  0.27783737522E+01  0.00000000000E+00 0.  1.
</event>
<event>
 5    1  0.1461556E+002  0.1584626E+01  0.7818608E-02  0.3370221E+00
         11   -1    0    0    0    0  0.00000000000E+00  0.00000000000E+00  0.39999999674E+01  0.40000000000E+01  0.51100000000E-03 0. -1.
    9000002   -1    0    0    0    0 -0.00000000000E+00 -0.00000000000E+00  0.00000000000E+00  0.93800000000E+00  0.93800000000E+00 0. -1.
         11    1    1    2    0    0 -0.57261085795E-01 -0.98798052589E-01  0.56834153600E+00  0.57970013784E+00  0.51100000000E-03 0. -1.
    9000002    1    1    2    0    0 -0.18396337093E+00  0.25521758787E+00  0.78091414185E-01  0.99243176489E+00  0.93800000000E+00 0. -1.
         22    1    1    2    0    0  0.24122445672E+00 -0.15641953528E+00  0.33535670172E+01  0.33658680973E+01  0.00000000000E+00 0. -1.
</event>
<event>
 5    1  0.1461556E+002  0.1594589E+01  0.7818608E-02  0.3359257E+00
         11   -1    0    0    0    0  0.00000000000E+00  0.00000000000E+00  0.39999999674E+01  0.40000000000E+01  0.51100000000E-03 0.  1.
    9000002   -1    0    0    0    0 -0.00000000000E+00 -0.00000000000E+00  0.00000000000E+00  0.93800000000E+00  0.93800000000E+00 0. -1.
         11    1    1    2    0    0  0.67954973812E-01 -0.38191928876E+00  0.22669620048E+01  0.22999124361E+01  0.51100000000E-03 0.  1.
    9000002    1    1    2    0    0 -0.20788528723E+00  0.53210398298E+00  0.23126905600E+00  0.11223548091E+01  0.93800000000E+00 0. -1.
         22    1    1    2    0    0  0.13993031342E+00 -0.15018469422E+00  0.15017689066E+01  0.15157327547E+01  0.00000000000E+00 0.  1.
</event>
<event>
 5    1  0.1461556E+002  0.1599656E+01  0.7818608E-02  0.3353737E+00
         11   -1    0    0    0    0  0.00000000000E+00  0.00000000000E+00  0.39999999674E+01  0.40000000000E+01  0.51100000000E-03 0.  1.
    9000002   -1    0    0    0    0 -0.00000000000E+00 -0.00000000000E+00  0.00000000000E+00  0.93800000000E+00  0.93800000000E+00 0.  1.
         11    1    1    2    0    0  0.83172936211E-01  0.49444865392E-02  0.76236131046E+00  0.76690104581E+00  0.51100000000E-03 0.  1.
    9000002    1    1    2    0    0 -0.41189622848E+00 -0.62222045864E-02  0.11466067637E+00  0.10308677362E+01  0.93800000000E+00 0.  1.
         22    1    1    2    0    0  0.32872329227E+00  0.12777180471E-02  0.31229779805E+01  0.31402312180E+01  0.00000000000E+00 0.  1.
</event>
<event>
 5    1  0.1461556E+002  0.1599676E+01  0.7818608E-02  0.3353715E+00
         11   -1    0    0    0    0  0.00000000000E+00  0.00000000000E+00  0.39999999674E+01  0.40000000000E+01  0.51100000000E-03 0. -1.
    9000002   -1    0    0    0    0 -0.00000000000E+00 -0.00000000000E+00  0.00000000000E+00  0.93800000000E+00  0.93800000000E+00 0. -1.
         11    1    1    2    0    0  0.14238961047E+00 -0.70310104239E-01  0.13643103401E+01  0.13735214877E+01  0.51100000000E-03 0. -1.
    9000002    1    1    2    0    0 -0.40009901311E+00  0.20040323551E+00  0.13595094753E+00  0.10481256305E+01  0.93800000000E+00 0. -1.
         22    1    1    2    0    0  0.25770940264E+00 -0.13009313127E+00  0.24997386797E+01  0.25163528818E+01  0.00000000000E+00 0. -1.
</event>
<event>
 5    1  0.1461556E+002  0.1584113E+01  0.7818608E-02  0.3370789E+00
         11   -1    0    0    0    0  0.00000000000E+00  0.00000000000E+00  0.39999999674E+01  0.40000000000E+01  0.51100000000E-03 0. -1.
    9000002   -1    0    0    0    0 -0.00000000000E+00 -0.00000000000E+00  0.00000000000E+00  0.93800000000E+00  0.93800000000E+00 0. -1.
         11    1    1    2    0    0 -0.33311595825E-01  0.11131175973E+00  0.22647163325E+01  0.22676949305E+01  0.51100000000E-03 0. -1.
    9000002    1    1    2    0    0 -0.17629002265E+00 -0.82168811307E-01  0.36768891520E-01  0.95865835261E+00  0.93800000000E+00 0. -1.
         22    1    1    2    0    0  0.20960161848E+00 -0.29142948418E-01  0.16985147434E+01  0.17116467168E+01  0.00000000000E+00 0. -1.
</event>
<event>
 5    1  0.1461556E+002  0.1597732E+01  0.7818608E-02  0.3355829E+00
         11   -1    0    0    0    0  0.00000000000E+00  0.00000000000E+00  0.39999999674E+01  0.40000000000E+01  0.51100000000E-03 0.  1.
    9000002   -1    0    0    0    0 -0.00000000000E+00 -0.00000000000E+00  0.00000000000E+00  0.93800000000E+00  0.93800000000E+00 0.  1.
         11    1    1    2    0    0 -0.45268298882E-01 -0.10809876692E+00  0.18157545621E+01  0.18195327568E+01  0.51100000000E-03 0.  1.
    9000002    1    1    2    0    0  0.11263135577E+00  0.34616439006E+00  0.90575519550E-01  0.10102294452E+01  0.93800000000E+00 0.  1.
         22    1    1    2    0    0 -0.67363056889E-01 -0.23806562313E+00  0.20936698857E+01  0.21082377979E+01  0.00000000000E+00 0.  1.
</event>
<event>
 5    1  0.1461556E+002  0.1599669E+01  0.7818608E-02  0.3353722E+00
         11   -1    0    0    0    0  0.00000000000E+00  0.00000000000E+00  0.39999999674E+01  0.40000000000E+01  0.51100000000E-03 0.  1.
    9000002   -1    0    0    0    0 -0.00000000000E+00 -0.00000000000E+00  0.00000000000E+00  0.93800000000E+00  0.93800000000E+00 0.  1.
         11    1    1    2    0    0  0.14682402066E-01 -0.99581504143E-02  0.29315226407E+00  0.29368903409E+00  0.51100000000E-03 0. -1.
    9000002    1    1    2    0    0 -0.19057844480E+00  0.11354337596E+00  0.32630682687E-01  0.96442781135E+00  0.93800000000E+00 0.  1.
         22    1    1    2    0    0  0.17589604274E+00 -0.10358522555E+00  0.36742170206E+01  0.36798831546E+01  0.00000000000E+00 0.  1.
</event>
<event>
 5    1  0.1461556E+002  0.1599677E+01  0.7818608E-02  0.3353714E+00
         11   -1    0    0    0    0  0.00000000000E+00  0.00000000000E+00  0.39999999674E+01  0.40000000000E+01  0.51100000000E-03 0. -1.
    9000002   -1    0    0    0    0 -0.00000000000E+00 -0.00000000000E+00  0.00000000000E+00  0.93800000000E+00  0.93800000000E+00 0.  1.
         11    1    1    2    0    0 -0.22906421233E-01  0.10246199082E+00  0.12731853082E+01  0.12775070465E+01  0.51100000000E-03 0. -1.
    9000002    1    1    2    0    0  0.71595295127E-01 -0.31680612536E+00  0.70545043434E-01  0.99514451740E+00  0.93800000000E+00 0.  1.
         22    1    1    2    0    0 -0.48688873894E-01  0.21434413455E+00  0.26562696157E+01  0.26653484361E+01  0.00000000000E+00 0. -1.
</event>
<event>
 5    1  0.1461556E+002  0.1584412E+01  0.7818608E-02  0.3370458E+00
         11   -1    0    0    0    0  0.00000000000E+00  0.00000000000E+00  0.39999999674E+01  0.40000000000E+01  0.51100000000E-03 0.  1.
    9000002   -1    0    0    0    0 -0.00000000000E+00 -0.00000000000E+00  0.00000000000E+00  0.93800000000E+00  0.93800000000E+00 0. -1.
         11    1    1    2    0    0 -0.92583741197E-01  0.11335502124E+00  0.25535850208E+01  0.25577759537E+01  0.51100000000E-03 0.  1.
    9000002    1    1    2    0    0  0.28867123162E+00 -0.11397657546E-01  0.67597511772E-01  0.98380608362E+00  0.93800000000E+00 0. -1.
         22    1    1    2    0    0 -0.19608749042E+00 -0.10195736369E+00  0.13788174348E+01  0.13964179626E+01  0.00000000000E+00 0.  1.
</event>
<event>
 5    1  0.1461556E+002  0.1588233E+01  0.7818608E-02  0.3366235E+00
         11   -1    0    0    0    0  0.00000000000E+00  0.00000000000E+00  0.39999999674E+01  0.40000000000E+01  0.51100000000E-03 0.  1.
    9000002   -1    0    0    0    0 -0.00000000000E+00 -0.00000000000E+00  0.00000000000E+00  0.93800000000E+00  0.93800000000E+00 0.  1.
         11    1    1    2    0    0 -0.74061991062E-01 -0.15428949397E+00  0.11994663408E+01  0.12116147038E+01  0.51100000000E-03 0.  1.
    9000002    1    1    2    0    0 -0.11943144597E+00  0.36107649059E+00  0.10677854355E+00  0.10177847315E+01  0.93800000000E+00 0.  1.
         22    1    1    2    0    0  0.19349343703E+00 -0.20678699662E+00  0.26937550830E+01  0.27086005647E+01  0.00000000000E+00 0.  1.
</event>
<event>
 5    1  0.1461556E+002  0.1599676E+01  0.7818608E-02  0.3353715E+00
         11   -1    0    0    0    0  0.00000000000E+00  0.00000000000E+00  0.39999999674E+01  0.40000000000E+01  0.51100000000E-03 0. -1.
    9000002   -1    0    0    0    0 -0.00000000000E+00 -0.00000000000E+00  0.00000000000E+00  0.93800000000E+00  0.93800000000E+00 0.  1.
         11    1    1    2    0    0  0.19035527537E+00  0.61819472181E-03  0.15275396965E+01  0.15393548319E+01  0.51100000000E-03 0. -1.
    9000002    1    1    2    0    0 -0.47732497727E+00 -0.28259355996E-02  0.15539887922E+00  0.10638796603E+01  0.93800000000E+00 0.  1.
         22    1    1    2    0    0  0.28696970190E+00  0.22077408778E-02  0.23170613916E+01  0.23347655078E+01  0.00000000000E+00 0. -1.
</event>
<event>
 5    1  0.1461556E+002  0.1598705E+01  0.7818608E-02  0.3354770E+00
         11   -1    0    0    0    0  0.00000000000E+00  0.00000000000E+00  0.39999999674E+01  0.40000000000E+01  0.51100000000E-03 0. -1.
    9000002   -1    0    0    0    0 -0.00000000000E+00 -0.00000000000E+00  0.00000000000E+00  0.93800000000E+00  0.93800000000E+00 0.  1.
         11    1    1    2    0    0  0.10446534065E+00 -0.24919606117E-01  0.82854031640E+00  0.83547190928E+00  0.51100000000E-03 0. -1.
    9000002    1    1    2    0    0 -0.49980860168E+00 -0.26596058191E-01  0.17238365791E+00  0.10770682959E+01  0.93800000000E+00 0.  1.
         22    1    1    2    0    0  0.39534326103E+00  0.51515664308E-01  0.29990759931E+01  0.30254597948E+01  0.00000000000E+00 0. -1.
</event>
<event>
 5    1  0.1461556E+002  0.1556168E+01  0.7818608E-02  0.3402355E+00
         11   -1    0    0    0    0  0.00000000000E+00  0.00000000000E+00  0.39999999674E+01  0.40000000000E+01  0.51100000000E-03 0.  1.
    9000002   -1    0    0    0    0 -0.00000000000E+00 -0.00000000000E+00  0.00000000000E+00  0.93800000000E+00  0.93800000000E+00 0. -1.
         11    1    1    2    0    0 -0.26590253073E+00  0.51981602591E-01  0.17125070827E+01  0.17338070862E+01  0.51100000000E-03 0.  1.
    9000002    1    1    2    0    0  0.42749754866E-01 -0.61090365600E-01  0.35997121057E-01  0.94164715634E+00  0.93800000000E+00 0. -1.
         22    1    1    2    0    0  0.22315277587E+00  0.91087630089E-02  0.22514957636E+01  0.22625457574E+01  0.00000000000E+00 0.  1.
</event>
<event>
 5    1  0.1461556E+002  0.1595166E+01  0.7818608E-02  0.3358626E+00
         11   -1    0    0    0    0  0.00000000000E+00  0.00000000000E+00  0.39999999674E+01  0.40000000000E+01  0.51100000000E-03 0. -1.
    9000002   -1    0    0    0    0 -0.00000000000E+00 -0.00000000000E+00  0.00000000000E+00  0.93800000000E+00  0.93800000000E+00 0. -1.
         11    1    1    2    0    0 -0.40115277559E-01  0.11784278546E-02  0.70655379558E+00  0.70769283687E+00  0.51100000000E-03 0. -1.
    9000002    1    1    2    0    0 -0.41456999038E-02 -0.26689196260E+00  0.50874625342E-01  0.97656578582E+00  0.93800000000E+00 0. -1.
         22    1    1    2    0    0  0.44260977462E-01  0.26571353474E+00  0.32425715464E+01  0.32537413773E+01  0.00000000000E+00 0. -1.
</event>
<event>
 5    1  0.1461556E+002  0.1599642E+01  0.7818608E-02  0.3353752E+00
         11   -1    0    0    0    0  0.00000000000E+00  0.00000000000E+00  0.39999999674E+01  0.40000000000E+01  0.51100000000E-03 0. -1.
    9000002   -1    0    0    0    0 -0.00000000000E+00 -0.00000000000E+00  0.00000000000E+00  0.93800000000E+00  0.93800000000E+00 0. -1.
         11    1    1    2    0    0  0.27868408062E-02 -0.74664841170E-01  0.77988476084E+00  0.78345587386E+00  0.51100000000E-03 0. -1.
    9000002    1    1    2    0    0  0.94903384795E-02  0.35877570245E+00  0.86482502377E-01  0.10080343716E+01  0.93800000000E+00 0. -1.
         22    1    1    2    0    0 -0.12277179286E-01 -0.28411086128E+00  0.31336327041E+01  0.31465097545E+01  0.00000000000E+00 0. -1.
</event>
<event>
 5    1  0.1461556E+002  0.1599674E+01  0.7818608E-02  0.3353718E+00
         11   -1    0    0    0    0  0.00000000000E+00  0.00000000000E+00  0.39999999674E+01  0.40000000000E+01  0.51100000000E-03 0.  1.
    9000002   -1    0    0    0    0 -0.00000000000E+00 -0.00000000000E+00  0.00000000000E+00  0.93800000000E+00  0.93800000000E+00 0. -1.
         11    1    1    2    0    0  0.85829285830E+00 -0.33344766742E+00  0.21284440709E+01  0.23190792142E+01  0.51100000000E-03 0.  1.
    9000002    1    1    2    0    0 -0.10955180223E+01  0.42809245968E+00  0.12825287976E+01  0.19769033886E+01  0.93800000000E+00 0. -1.
         22    1    1    2    0    0  0.23722516399E+00 -0.94644792268E-01  0.58902709887E+00  0.64201739722E+00  0.00000000000E+00 0. -1.
</event>
<event>
 5    1  0.1461556E+002  0.1599669E+01  0.7818608E-02  0.3353723E+00
         11   -1    0    0    0    0  0.00000000000E+00  0.00000000000E+00  0.39999999674E+01  0.40000000000E+01  0.51100000000E-03 0.  1.
    9000002   -1    0    0    0    0 -0.00000000000E+00 -0.00000000000E+00  0.00000000000E+00  0.93800000000E+00  0.93800000000E+00 0.  1.
         11    1    1    2    0    0 -0.12002141736E-02 -0.14953217406E-01  0.21195292673E+00  0.21248374878E+00  0.51100000000E-03 0.  1.
    9000002    1    1    2    0    0  0.27508486718E-01  0.25169259326E+00  0.42601756645E-01  0.97250438971E+00  0.93800000000E+00 0.  1.
         22    1    1    2    0    0 -0.26308272545E-01 -0.23673937586E+00  0.37454452840E+01  0.37530118615E+01  0.00000000000E+00 0.  1.
</event>
<event>
 5    1  0.1461556E+002  0.1597552E+01  0.7818608E-02  0.3356024E+00
         11   -1    0    0    0    0  0.00000000000E+00  0.00000000000E+00  0.39999999674E+01  0.40000000000E+01  0.51100000000E-03 0.  1.
    9000002   -1    0    0    0    0 -0.00000000000E+00 -0.00000000000E+00  0.00000000000E+00  0.93800000000E+00  0.93800000000E+00 0. -1.
         11    1    1    2    0    0  0.48008091457E-01  0.92841880892E-01  0.74916977446E+00  0.75642580851E+00  0.51100000000E-03 0.  1.
    9000002    1    1    2    0    0 -0.16644783317E+00 -0.27369541594E+00  0.70272856218E-01  0.99367818543E+00  0.93800000000E+00 0. -1.
         22    1    1    2    0    0  0.11843974172E+00  0.18085353505E+00  0.31805573367E+01  0.31878960061E+01  0.00000000000E+00 0.  1.
</event>
<event>
 5    1  0.1461556E+002  0.1566362E+01  0.7818608E-02  0.3390703E+00
         11   -1    0    0    0    0  0.00000000000E+00  0.00000000000E+00  0.39999999674E+01  0.40000000000E+01  0.51100000000E-03 0. -1.
    9000002   -1    0    0    0    0 -0.00000000000E+00 -0.00000000000E+00  0.00000000000E+00  0.93800000000E+00  0.93800000000E+00 0.  1.
         11    1    1    2    0    0 -0.24620759435E+00  0.93270377363E-01  0.28041795526E+01  0.28165121635E+01  0.51100000000E-03 0. -1.
    9000002    1    1    2    0    0  0.23188500300E+00  0.12391796554E+00  0.72027339540E-01  0.97681024485E+00  0.93800000000E+00 0.  1.
         22    1    1    2    0    0  0.14322591350E-01 -0.21718834290E+00  0.11237930752E+01  0.11446775916E+01  0.00000000000E+00 0. -1.
</event>
<event>
 5    1  0.1461556E+002  0.1525408E+01  0.7818608E-02  0.3438527E+00
         11   -1    0    0    0    0  0.00000000000E+00  0.00000000000E+00  0.39999999674E+01  0.40000000000E+01  0.51100000000E-03 0.  1.
    9000002   -1    0    0    0    0 -0.00000000000E+00 -0.00000000000E+00  0.00000000000E+00  0.93800000000E+00  0.93800000000E+00 0. -1.
         11    1    1    2    0    0  0.89150502462E-02  0.25652879536E-01  0.25655023961E+01  0.25656461864E+01  0.51100000000E-03 0.  1.
    9000002    1    1    2    0    0  0.26568228673E+00  0.33249114950E+00  0.18850184049E+00  0.10471458284E+01  0.93800000000E+00 0. -1.
         22    1    1    2    0    0 -0.27459733697E+00 -0.35814402904E+00  0.12459957308E+01  0.13252079852E+01  0.00000000000E+00 0.  1.
</event>
<event>
 5    1  0.1461556E+002  0.1599608E+01  0.7818608E-02  0.3353789E+00
         11   -1    0    0    0    0  0.00000000000E+00  0.00000000000E+00  0.39999999674E+01  0.40000000000E+01  0.51100000000E-03 0. -1.
    9000002   -1    0    0    0    0 -0.00000000000E+00 -0.00000000000E+00  0.00000000000E+00  0.93800000000E+00  0.93800000000E+00 0. -1.
         11    1    1    2    0    0  0.12406339148E+00  0.63905546885E-01  0.14636900896E+01  0.14703280531E+01  0.51100000000E-03 0. -1.
    9000002    1    1    2    0    0 -0.34973981798E+00 -0.18695265745E+00  0.10609249872E+00  0.10238988498E+01  0.93800000000E+00 0. -1.
         22    1    1    2    0    0  0.22567642650E+00  0.12304711056E+00  0.24302173790E+01  0.24437730971E+01  0.00000000000E+00 0. -1.
</event>
<event>
 5    1  0.1461556E+002  0.1594333E+01  0.7818608E-02  0.3359537E+00
         11   -1    0    0    0    0  0.00000000000E+00  0.00000000000E+00  0.39999999674E+01  0.40000000000E+01  0.51100000000E-03 0. -1.
    9000002   -1    0    0    0    0 -0.00000000000E+00 -0.00000000000E+00  0.00000000000E+00  0.93800000000E+00  0.93800000000E+00 0. -1.
         11    1    1    2    0    0  0.19424370922E+00  0.30112086086E+00  0.19282080390E+01  0.19612217861E+01  0.51100000000E-03 0. -1.
    9000002    1    1    2    0    0 -0.41394375815E+00 -0.41821474542E+00  0.24625638330E+00  0.11343452801E+01  0.93800000000E+00 0. -1.
         22    1    1    2    0    0  0.21970004893E+00  0.11709388456E+00  0.18255355451E+01  0.18424329338E+01  0.00000000000E+00 0. -1.
</event>
<event>
 5    1  0.1461556E+002  0.1599600E+01  0.7818608E-02  0.3353798E+00
         11   -1    0    0    0    0  0.00000000000E+00  0.00000000000E+00  0.39999999674E+01  0.40000000000E+01  0.51100000000E-03 0. -1.
    9000002   -1    0    0    0    0 -0.00000000000E+00 -0.00000000000E+00  0.00000000000E+00  0.93800000000E+00  0.93800000000E+00 0.  1.
         11    1    1    2    0    0 -0.76463386583E-01  0.76506977831E-01  0.98099465858E+00  0.98694009364E+00  0.51100000000E-03 0. -1.
    9000002    1    1    2    0    0  0.30209663751E+00 -0.26695360591E+00  0.10973617410E+00  0.10268459641E+01  0.93800000000E+00 0.  1.
         22    1    1    2    0    0 -0.22563325093E+00  0.19044662808E+00  0.29092691347E+01  0.29242139423E+01  0.00000000000E+00 0. -1.
</event>
<event>
 5    1  0.1461556E+002  0.1599265E+01  0.7818608E-02  0.3354162E+00
         11   -1    0    0    0    0  0.00000000000E+00  0.00000000000E+00  0.39999999674E+01  0.40000000000E+01  0.51100000000E-03 0.  1.
    9000002   -1    0    0    0    0 -0.00000000000E+00 -0.00000000000E+00  0.00000000000E+00  0.93800000000E+00  0.93800000000E+00 0. -1.
         11    1    1    2    0    0  0.17070399342E-01 -0.52786443457E-01  0.83528741502E+00  0.83712790776E+00  0.51100000000E-03 0.  1.
    9000002    1    1    2    0    0 -0.16290397777E+00  0.20323828240E+00  0.45421396804E-01  0.97455149104E+00  0.93800000000E+00 0. -1.
         22    1    1    2    0    0  0.14583357843E+00 -0.15045183894E+00  0.31192911555E+01  0.31263206012E+01  0.00000000000E+00 0.  1.
</event>
<event>
 5    1  0.1461556E+002  0.1597305E+01  0.7818608E-02  0.3356294E+00
         11   -1    0    0    0    0  0.00000000000E+00  0.00000000000E+00  0.39999999674E+01  0.40000000000E+01  0.51100000000E-03 0.  1.
    9000002   -1    0    0    0    0 -0.00000000000E+00 -0.00000000000E+00  0.00000000000E+00  0.93800000000E+00  0.93800000000E+00 0. -1.
         11    1    1    2    0    0  0.66288123777E-02 -0.21546919960E-01  0.31224683005E+00  0.31305998613E+00  0.51100000000E-03 0.  1.
    9000002    1    1    2    0    0 -0.26576699911E+00 -0.83689617616E-01  0.53532149699E-01  0.97997231643E+00  0.93800000000E+00 0. -1.
         22    1    1    2    0    0  0.25913818673E+00  0.10523653758E+00  0.36342209876E+01  0.36449676974E+01  0.00000000000E+00 0.  1.
</event>
<event>
 5    1  0.1461556E+002  0.1599665E+01  0.7818608E-02  0.3353727E+00
         11   -1    0    0    0    0  0.00000000000E+00  0.00000000000E+00  0.39999999674E+01  0.40000000000E+01  0.51100000000E-03 0.  1.
    9000002   -1    0    0    0    0 -0.00000000000E+00 -0.00000000000E+00  0.00000000000E+00  0.93800000000E+00  0.93800000000E+00 0. -1.
         11    1    1    2    0    0 -0.96595056948E-01  0.37687714469E-01  0.95634788818E+00  0.96195244851E+00  0.51100000000E-03 0.  1.
    9000002    1    1    2    0    0  0.39318085344E+00 -0.16735311055E+00  0.12362643425E+00  0.10381357052E+01  0.93800000000E+00 0. -1.
         22    1    1    2    0    0 -0.29658579649E+00  0.12966539608E+00  0.29200256449E+01  0.29379118463E+01  0.00000000000E+00 0.  1.
</event>
<event>
 5    1  0.1461556E+002  0.1599474E+01  0.7818608E-02  0.3353934E+00
         11   -1    0    0    0    0  0.00000000000E+00  0.00000000000E+00  0.39999999674E+01  0.40000000000E+01  0.51100000000E-03 0.  1.
    9000002   -1    0    0    0    0 -0.00000000000E+00 -0.00000000000E+00  0.00000000000E+00  0.93800000000E+00  0.93800000000E+00 0.  1.
         11    1    1    2    0    0 -0.11103898112E+00 -0.10451272459E+00  0.15307511120E+01  0.15383275961E+01  0.51100000000E-03 0.  1.
    9000002    1    1    2    0    0  0.28183577546E+00  0.22437044102E+00  0.87278654431E-01  0.10085807170E+01  0.93800000000E+00 0.  1.
         22    1    1    2    0    0 -0.17079679434E+00 -0.11985771643E+00  0.23819702009E+01  0.23910916869E+01  0.00000000000E+00 0.  1.
</event>
<event>
 5    1  0.1461556E+002  0.1567077E+01  0.7818608E-02  0.3389891E+00
         11   -1    0    0    0    0  0.00000000000E+00  0.00000000000E+00  0.39999999674E+01  0.40000000000E+01  0.51100000000E-03 0.  1.
    9000002   -1    0    0    0    0 -0.00000000000E+00 -0.00000000000E+00  0.00000000000E+00  0.93800000000E+00  0.93800000000E+00 0. -1.
         11    1    1    2    0    0  0.67218621827E-01 -0.61064632085E-01  0.15629392019E+00  0.18076305768E+00  0.51100000000E-03 0.  1.
    9000002    1    1    2    0    0  0.10102260704E+00  0.23601868041E+00  0.69225047640E-01  0.97495973858E+00  0.93800000000E+00 0. -1.
         22    1    1    2    0    0 -0.16824122886E+00 -0.17495404833E+00  0.37744809995E+01  0.37822772037E+01  0.00000000000E+00 0.  1.
</event>
<event>
 5    1  0.1461556E+002  0.1599338E+01  0.7818608E-02  0.3354083E+00
         11   -1    0    0    0    0  0.00000000000E+00  0.00000000000E+00  0.39999999674E+01  0.40000000000E+01  0.51100000000E-03 0. -1.
    9000002   -1    0    0    0    0 -0.00000000000E+00 -0.00000000000E+00  0.00000000000E+00  0.93800000000E+00  0.93800000000E+00 0.  1.
         11    1    1    2    0    0  0.10137835588E+00 -0.77589669584E-01  0.12681871277E+01  0.12745966342E+01  0.51100000000E-03 0. -1.
    9000002    1    1    2    0    0 -0.28825036769E+00  0.18082182345E+00  0.77824725238E-01  0.10008423923E+01  0.93800000000E+00 0.  1.
         22    1    1    2    0    0  0.18687201182E+00 -0.10323215387E+00  0.26539881144E+01  0.26625609736E+01  0.00000000000E+00 0. -1.
</event>
<event>
 5    1  0.1461556E+002  0.1553912E+01  0.7818608E-02  0.3404956E+00
         11   -1    0    0    0    0  0.00000000000E+00  0.00000000000E+00  0.39999999674E+01  0.40000000000E+01  0.51100000000E-03 0. -1.
    9000002   -1    0    0    0    0 -0.00000000000E+00 -0.00000000000E+00  0.00000000000E+00  0.93800000000E+00  0.93800000000E+00 0. -1.
         11    1    1    2    0    0  0.12560377272E+00 -0.79788369355E-01  0.44388050685E+00  0.46815879474E+00  0.51100000000E-03 0. -1.
    9000002    1    1    2    0    0 -0.83396923219E-01 -0.32575687275E+00  0.11319889362E+00  0.10028611950E+01  0.93800000000E+00 0. -1.
         22    1    1    2    0    0 -0.42206849504E-01  0.40554524211E+00  0.34429205669E+01  0.34669800102E+01  0.00000000000E+00 0. -1.
</event>
<event>
 5    1  0.1461556E+002  0.1586812E+01  0.7818608E-02  0.3367802E+00
         11   -1    0    0    0    0  0.00000000000E+00  0.00000000000E+00  0.39999999674E+01  0.40000000000E+01  0.51100000000E-03 0. -1.
    9000002   -1    0    0    0    0 -0.00000000000E+00 -0.00000000000E+00  0.00000000000E+00  0.93800000000E+00  0.93800000000E+00 0.  1.
         11    1    1    2    0    0  0.58293127917E-01  0.11573303279E+00  0.17307443396E+01  0.17355887917E+01  0.51100000000E-03 0. -1.
    9000002    1    1    2    0    0  0.16003668218E+00 -0.16560047696E+00  0.44994669580E-01  0.96690422375E+00  0.93800000000E+00 0.  1.
         22    1    1    2    0    0 -0.21832981009E+00  0.49867444177E-01  0.22242609581E+01  0.22355069845E+01  0.00000000000E+00 0. -1.
</event>
<event>
 5    1  0.3663752E+002  0.1582549E+01  0.7818608E-02  0.3372525E+00
         11   -1    0    0    0    0  0.00000000000E+00  0.00000000000E+00  0.39999999674E+01  0.40000000000E+01  0.51100000000E-03 0.  1.
    9000002   -1    0    0    0    0 -0.00000000000E+00 -0.00000000000E+00  0.00000000000E+00  0.93800000000E+00  0.93800000000E+00 0.  1.
         11    1    1    2    0    0  0.97881430509E-01  0.22362481590E-01  0.65165456915E+00  0.65934421484E+00  0.51100000000E-03 0.  1.
    9000002    1    1    2    0    0  0.10346902404E+00 -0.10506127704E-01  0.19749675592E-01  0.94395458966E+00  0.93800000000E+00 0.  1.
         22    1    1    2    0    0 -0.20135045455E+00 -0.11856353886E-01  0.33285957226E+01  0.33347011955E+01  0.00000000000E+00 0.  1.
</event>
<event>
 5    1  0.1461556E+002  0.1590647E+01  0.7818608E-02  0.3363578E+00
         11   -1    0    0    0    0  0.00000000000E+00  0.00000000000E+00  0.39999999674E+01  0.40000000000E+01  0.51100000000E-03 0.  1.
    9000002   -1    0    0    0    0 -0.00000000000E+00 -0.00000000000E+00  0.00000000000E+00  0.93800000000E+00  0.93800000000E+00 0. -1.
         11    1    1    2    0    0  0.52183174986E-01 -0.12400254996E+00  0.13586636015E+01  0.13653083019E+01  0.51100000000E-03 0.  1.
    9000002    1    1    2    0    0 -0.39629428207E+00  0.16506844331E+00  0.13251549456E+00  0.10400486072E+01  0.93800000000E+00 0. -1.
         22    1    1    2    0    0  0.34411110709E+00 -0.41065893354E-01  0.25088208713E+01  0.25326430909E+01  0.00000000000E+00 0.  1.
</event>
<event>
 5    1  0.1461556E+002  0.1599676E+01  0.7818608E-02  0.3353715E+00
         11   -1    0    0    0    0  0.00000000000E+00  0.00000000000E+00  0.39999999674E+01  0.40000000000E+01  0.51100000000E-03 0. -1.
    9000002   -1    0    0    0    0 -0.00000000000E+00 -0.00000000000E+00  0.00000000000E+00  0.93800000000E+00  0.93800000000E+00 0. -1.
         11    1    1    2    0    0  0.43361542642E-01 -0.19124818326E-01  0.72577885862E+00  0.72732468320E+00  0.51100000000E-03 0. -1.
    9000002    1    1    2    0    0 -0.23324038520E+00  0.10693230153E+00  0.43756898631E-01  0.97344453390E+00  0.93800000000E+00 0. -1.
         22    1    1    2    0    0  0.18987884255E+00 -0.87807483202E-01  0.32304642101E+01  0.32372307829E+01  0.00000000000E+00 0. -1.
</event>
<event>
 5    1  0.1461556E+002  0.1599648E+01  0.7818608E-02  0.3353745E+00
         11   -1    0    0    0    0  0.00000000000E+00  0.00000000000E+00  0.39999999674E+01  0.40000000000E+01  0.51100000000E-03 0.  1.
    9000002   -1    0    0    0    0 -0.00000000000E+00 -0.00000000000E+00  0.00000000000E+00  0.93800000000E+00  0.93800000000E+00 0.  1.
         11    1    1    2    0    0 -0.15202969084E+00 -0.32195075954E+00  0.20112005006E+01  0.20424722846E+01  0.51100000000E-03 0.  1.
    9000002    1    1    2    0    0  0.27975834897E+00  0.58137814567E+00  0.29342984345E+00  0.11756744256E+01  0.93800000000E+00 0.  1.
         22    1    1    2    0    0 -0.12772865813E+00 -0.25942738613E+00  0.16953696233E+01  0.17198532898E+01  0.00000000000E+00 0. -1.
</event>
<event>
 5    1  0.1461556E+002  0.1599280E+01  0.7818608E-02  0.3354146E+00
         11   -1    0    0    0    0  0.00000000000E+00  0.00000000000E+00  0.39999999674E+01  0.40000000000E+01  0.51100000000E-03 0. -1.
    9000002   -1    0    0    0    0 -0.00000000000E+00 -0.00000000000E+00  0.00000000000E+00  0.93800000000E+00  0.93800000000E+00 0. -1.
         11    1    1    2    0    0 -0.16389322657E+00  0.53684053982E-01  0.14227224807E+01  0.14331372878E+01  0.51100000000E-03 0. -1.
    9000002    1    1    2    0    0  0.48553227903E+00 -0.18626279473E+00  0.18613242010E+00  0.10885424661E+01  0.93800000000E+00 0. -1.
         22    1    1    2    0    0 -0.32163905246E+00  0.13257874075E+00  0.23911450665E+01  0.24163202461E+01  0.00000000000E+00 0.  1.
</event>
<event>
 5    1  0.1461556E+002  0.1516888E+01  0.7818608E-02  0.3448824E+00
         11   -1    0    0    0    0  0.00000000000E+00  0.00000000000E+00  0.39999999674E+01  0.40000000000E+01  0.51100000000E-03 0. -1.
    9000002   -1    0    0    0    0 -0.00000000000E+00 -0.00000000000E+00  0.00000000000E+00  0.93800000000E+00  0.93800000000E+00 0. -1.
         11    1    1    2    0    0  0.43963041180E+00  0.20522819605E-02  0.25886963025E+01  0.26257623500E+01  0.51100000000E-03 0. -1.
    9000002    1    1    2    0    0 -0.17675742489E+00  0.82769067836E-01  0.89929670453E-01  0.96230205833E+00  0.93800000000E+00 0. -1.
         22    1    1    2    0    0 -0.26287298691E+00 -0.84821349796E-01  0.13213739944E+01  0.13499355917E+01  0.00000000000E+00 0.  1.
</event>
<event>
 5    1  0.1461556E+002  0.1595683E+01  0.7818608E-02  0.3358063E+00
         11   -1    0    0    0    0  0.00000000000E+00  0.00000000000E+00  0.39999999674E+01  0.40000000000E+01  0.51100000000E-03 0.  1.
    9000002   -1    0    0    0    0 -0.00000000000E+00 -0.00000000000E+00  0.00000000000E+00  0.93800000000E+00  0.93800000000E+00 0.  1.
         11    1    1    2    0    0  0.12003842073E-01  0.23693421652E-02  0.43615801518E-01  0.45302375985E-01  0.51100000000E-03 0.  1.
    9000002    1    1    2    0    0  0.36103778916E+00 -0.33617499394E+00  0.16999472897E+00  0.10733611320E+01  0.93800000000E+00 0.  1.
         22    1    1    2    0    0 -0.37304163123E+00  0.33380565178E+00  0.37863894369E+01  0.38193364920E+01  0.00000000000E+00 0.  1.
</event>
<event>
 5    1  0.1461556E+002  0.1599677E+01  0.7818608E-02  0.3353715E+00
         11   -1    0    0    0    0  0.00000000000E+00  0.00000000000E+00  0.39999999674E+01  0.40000000000E+01  0.51100000000E-03 0.  1.
    9000002   -1    0    0    0    0 -0.00000000000E+00 -0.00000000000E+00  0.00000000000E+00  0.93800000000E+00  0.93800000000E+00 0.  1.
         11    1    1    2    0    0  0.45476386394E-01  0.16812418996E+00  0.13019546414E+01  0.13135524330E+01  0.51100000000E-03 0.  1.
    9000002    1    1    2    0    0 -0.13490629713E+00 -0.49503068268E+00  0.18061619881E+00  0.10843068279E+01  0.93800000000E+00 0.  1.
         22    1    1    2    0    0  0.89429910733E-01  0.32690649271E+00  0.25174291272E+01  0.25401407391E+01  0.00000000000E+00 0.  1.
</event>
<event>
 5    1  0.1461556E+002  0.1599583E+01  0.7818608E-02  0.3353816E+00
         11   -1    0    0    0    0  0.00000000000E+00  0.00000000000E+00  0.39999999674E+01  0.40000000000E+01  0.51100000000E-03 0.  1.
    9000002   -1    0    0    0    0 -0.00000000000E+00 -0.00000000000E+00  0.00000000000E+00  0.93800000000E+00  0.93800000000E+00 0. -1.
         11    1    1    2    0    0  0.13975195806E-01 -0.79061747902E-02  0.16296538053E+00  0.16375527494E+00  0.51100000000E-03 0.  1.
    9000002    1    1    2    0    0 -0.25219856076E+00  0.11986570072E+00  0.51992088421E-01  0.98006075195E+00  0.93800000000E+00 0. -1.
         22    1    1    2    0    0  0.23822336495E+00 -0.11195952593E+00  0.37850424984E+01  0.37941839731E+01  0.00000000000E+00 0.  1.
</event>
<event>
 5    1  0.1461556E+002  0.1599032E+01  0.7818608E-02  0.3354414E+00
         11   -1    0    0    0    0  0.00000000000E+00  0.00000000000E+00  0.39999999674E+01  0.40000000000E+01  0.51100000000E-03 0. -1.
    9000002   -1    0    0    0    0 -0.00000000000E+00 -0.00000000000E+00  0.00000000000E+00  0.93800000000E+00  0.93800000000E+00 0. -1.
         11    1    1    2    0    0  0.16043582238E-01  0.49175322050E-02  0.23313658702E+00  0.23374025751E+00  0.51100000000E-03 0. -1.
    9000002    1    1    2    0    0 -0.47820261655E+00  0.30649015511E-01  0.15722218362E+00  0.10649788353E+01  0.93800000000E+00 0. -1.
         22    1    1    2    0    0  0.46215903431E+00 -0.35566547716E-01  0.36096411967E+01  0.36392809072E+01  0.00000000000E+00 0. -1.
</event>
<event>
 5    1  0.1461556E+002  0.1597786E+01  0.7818608E-02  0.3355770E+00
         11   -1    0    0    0    0  0.00000000000E+00  0.00000000000E+00  0.39999999674E+01  0.40000000000E+01  0.51100000000E-03 0. -1.
    9000002   -1    0    0    0    0 -0.00000000000E+00 -0.00000000000E+00  0.00000000000E+00  0.93800000000E+00  0.93800000000E+00 0. -1.
         11    1    1    2    0    0 -0.13476823688E-01  0.11101960898E+00  0.81784571353E+00  0.82545675272E+00  0.51100000000E-03 0. -1.
    9000002    1    1    2    0    0 -0.10414704747E+00 -0.41282083263E+00  0.12429312702E+00  0.10375743004E+01  0.93800000000E+00 0. -1.
         22    1    1    2    0    0  0.11762387116E+00  0.30180122364E+00  0.30578611268E+01  0.30749689469E+01  0.00000000000E+00 0. -1.
</event>
<event>
 5    1  0.1461556E+002  0.1599640E+01  0.7818608E-02  0.3353754E+00
         11   -1    0    0    0    0  0.00000000000E+00  0.00000000000E+00  0.39999999674E+01  0.40000000000E+01  0.51100000000E-03 0. -1.
    9000002   -1    0    0    0    0 -0.00000000000E+00 -0.00000000000E+00  0.00000000000E+00  0.93800000000E+00  0.93800000000E+00 0.  1.
         11    1    1    2    0    0  0.10052138070E+00 -0.54581214422E-01  0.10498538772E+01  0.10560667978E+01  0.51100000000E-03 0. -1.
    9000002    1    1    2    0    0 -0.34847476337E+00  0.19967450793E+00  0.10885691223E+00  0.10261571016E+01  0.93800000000E+00 0.  1.
         22    1    1    2    0    0  0.24795338267E+00 -0.14509329351E+00  0.28412891780E+01  0.28557761006E+01  0.00000000000E+00 0. -1.
</event>
<event>
 5    1  0.1461556E+002  0.1599676E+01  0.7818608E-02  0.3353715E+00
         11   -1    0    0    0    0  0.00000000000E+00  0.00000000000E+00  0.39999999674E+01  0.40000000000E+01  0.51100000000E-03 0. -1.
    9000002   -1    0    0    0    0 -0.00000000000E+00 -0.00000000000E+00  0.00000000000E+00  0.93800000000E+00  0.93800000000E+00 0. -1.
         11    1    1    2    0    0 -0.19406021413E+00  0.38912757818E-01  0.16573655254E+01  0.16691417900E+01  0.51100000000E-03 0. -1.
    9000002    1    1    2    0    0  0.45059016026E+00 -0.92679516894E-01  0.14394571018E+00  0.10546019879E+01  0.93800000000E+00 0. -1.
         22    1    1    2    0    0 -0.25652994613E+00  0.53766759076E-01  0.21986887318E+01  0.22142562221E+01  0.00000000000E+00 0.  1.
</event>
<event>
 5    1  0.1461556E+002  0.1599639E+01  0.7818608E-02  0.3353755E+00
         11   -1    0    0    0    0  0.00000000000E+00  0.00000000000E+00  0.39999999674E+01  0.40000000000E+01  0.51100000000E-03 0.  1.
    9000002   -1    0    0    0    0 -0.00000000000E+00 -0.00000000000E+00  0.00000000000E+00  0.93800000000E+00  0.93800000000E+00 0. -1.
         11    1    1    2    0    0  0.81319064327E-01  0.11688579987E+00  0.14202674762E+01  0.14273874896E+01  0.51100000000E-03 0.  1.
    9000002    1    1    2    0    0 -0.24069720595E+00 -0.32781242537E+00  0.11169169201E+00  0.10284528017E+01  0.93800000000E+00 0. -1.
         22    1    1    2    0    0  0.15937814163E+00  0.21092662549E+00  0.24680407991E+01  0.24821597087E+01  0.00000000000E+00 0.  1.
</event>
<event>
 5    1  0.1461556E+002  0.1529440E+01  0.7818608E-02  0.3433698E+00
         11   -1    0    0    0    0  0.00000000000E+00  0.00000000000E+00  0.39999999674E+01  0.40000000000E+01  0.51100000000E-03 0. -1.
    9000002   -1    0    0    0    0 -0.00000000000E+00 -0.00000000000E+00  0.00000000000E+00  0.93800000000E+00  0.93800000000E+00 0. -1.
         11    1    1    2    0    0 -0.27411380205E-01  0.10936034730E+00  0.76165582943E-01  0.13606074552E+00  0.51100000000E-03 0. -1.
    9000002    1    1    2    0    0 -0.13209740862E-01 -0.34283506329E+00  0.13750094487E+00  0.10081968497E+01  0.93800000000E+00 0. -1.
         22    1    1    2    0    0  0.40621121067E-01  0.23347471599E+00  0.37863334395E+01  0.37937424048E+01  0.00000000000E+00 0. -1.
</event>
<event>
 5    1  0.1461556E+002  0.1545075E+01  0.7818608E-02  0.3415223E+00
         11   -1    0    0    0    0  0.00000000000E+00  0.00000000000E+00  0.39999999674E+01  0.40000000000E+01  0.51100000000E-03 0.  1.
    9000002   -1    0    0    0    0 -0.00000000000E+00 -0.00000000000E+00  0.00000000000E+00  0.93800000000E+00  0.93800000000E+00 0. -1.
         11    1    1    2    0    0 -0.17495327020E+00 -0.12215499228E+00  0.32687199835E+01  0.32756771941E+01  0.51100000000E-03 0.  1.
    9000002    1    1    2    0    0 -0.40366935191E-01  0.86245955560E-01  0.46916871560E-01  0.94398784269E+00  0.93800000000E+00 0. -1.
         22    1    1    2    0    0  0.21532020539E+00  0.35909036721E-01  0.68436311234E+00  0.71833496316E+00  0.00000000000E+00 0.  1.
</event>
<event>
 5    1  0.1461556E+002  0.1599510E+01  0.7818608E-02  0.3353896E+00
         11   -1    0    0    0    0  0.00000000000E+00  0.00000000000E+00  0.39999999674E+01  0.40000000000E+01  0.51100000000E-03 0.  1.
    9000002   -1    0    0    0    0 -0.00000000000E+00 -0.00000000000E+00  0.00000000000E+00  0.93800000000E+00  0.93800000000E+00 0. -1.
         11    1    1    2    0    0 -0.78820794808E-01  0.12337656022E-01  0.50297851982E+00  0.50926671595E+00  0.51100000000E-03 0.  1.
    9000002    1    1    2    0    0  0.65472073340E+00 -0.67617694017E-01  0.30649517598E+00  0.11861764979E+01  0.93800000000E+00 0.  1.
         22    1    1    2    0    0 -0.57589993859E+00  0.55280037995E-01  0.31905262716E+01  0.32425567861E+01  0.00000000000E+00 0.  1.
</event>
<event>
 5    1  0.1461556E+002  0.1599675E+01  0.7818608E-02  0.3353716E+00
         11   -1    0    0    0    0  0.00000000000E+00  0.00000000000E+00  0.39999999674E+01  0.40000000000E+01  0.51100000000E-03 0.  1.
    9000002   -1    0    0    0    0 -0.00000000000E+00 -0.00000000000E+00  0.00000000000E+00  0.93800000000E+00  0.93800000000E+00 0. -1.
         11    1    1    2    0    0 -0.65565803377E-01 -0.93875690679E-02  0.60342534105E+00  0.60704975444E+00  0.51100000000E-03 0. -1.
    9000002    1    1    2    0    0  0.42404500752E+00  0.67095815829E-01  0.12481539049E+00  0.10391048545E+01  0.93800000000E+00 0. -1.
         22    1    1    2    0    0 -0.35847920415E+00 -0.57708246761E-01  0.32717592358E+01  0.32918453911E+01  0.00000000000E+00 0.  1.
</event>
<event>
 5    1  0.1461556E+002  0.1583643E+01  0.7818608E-02  0.3371310E+00
         11   -1    0    0    0    0  0.00000000000E+00  0.00000000000E+00  0.39999999674E+01  0.40000000000E+01  0.51100000000E-03 0. -1.
    9000002   -1    0    0    0    0 -0.00000000000E+00 -0.00000000000E+00  0.00000000000E+00  0.93800000000E+00  0.93800000000E+00 0.  1.
         11    1    1    2    0    0 -0.11676983236E+00 -0.10359958280E-01  0.11827610229E+01  0.11885564442E+01  0.51100000000E-03 0. -1.
    9000002    1    1    2    0    0 -0.44851725164E-01  0.20232949931E+00  0.40590512085E-01  0.96147828536E+00  0.93800000000E+00 0.  1.
         22    1    1    2    0    0  0.16162155752E+00 -0.19196954104E+00  0.27766484324E+01  0.27879652705E+01  0.00000000000E+00 0. -1.
</event>
<event>
 5    1  0.1461556E+002  0.1599486E+01  0.7818608E-02  0.3353921E+00
         11   -1    0    0    0    0  0.00000000000E+00  0.00000000000E+00  0.39999999674E+01  0.40000000000E+01  0.51100000000E-03 0. -1.
    9000002   -1    0    0    0    0 -0.00000000000E+00 -0.00000000000E+00  0.00000000000E+00  0.93800000000E+00  0.93800000000E+00 0.  1.
         11    1    1    2    0    0  0.36271685813E-01 -0.59700139211E-02  0.65360254293E+00  0.65463564026E+00  0.51100000000E-03 0. -1.
    9000002    1    1    2    0    0 -0.26156710603E+00 -0.25537477037E-01  0.46074991556E-01  0.97521096104E+00  0.93800000000E+00 0.  1.
         22    1    1    2    0    0  0.22529542022E+00  0.31507490958E-01  0.33003224329E+01  0.33081533987E+01  0.00000000000E+00 0. -1.
</event>
<event>
 5    1  0.1461556E+002  0.1599238E+01  0.7818608E-02  0.3354190E+00
         11   -1    0    0    0    0  0.00000000000E+00  0.00000000000E+00  0.39999999674E+01  0.40000000000E+01  0.51100000000E-03 0.  1.
    9000002   -1    0    0    0    0 -0.00000000000E+00 -0.00000000000E+00  0.00000000000E+00  0.93800000000E+00  0.93800000000E+00 0. -1.
         11    1    1    2    0    0  0.58356786134E-03 -0.76889199811E-02  0.49830157988E-01  0.50425844644E-01  0.51100000000E-03 0.  1.
    9000002    1    1    2    0    0  0.12260662237E+00  0.19807465078E+00  0.36335913643E-01  0.96717643155E+00  0.93800000000E+00 0. -1.
         22    1    1    2    0    0 -0.12319019023E+00 -0.19038573079E+00  0.39138338957E+01  0.39203977238E+01  0.00000000000E+00 0.  1.
</event>
<event>
 5    1  0.1461556E+002  0.1599474E+01  0.7818608E-02  0.3353934E+00
         11   -1    0    0    0    0  0.00000000000E+00  0.00000000000E+00  0.39999999674E+01  0.40000000000E+01  0.51100000000E-03 0. -1.
    9000002   -1    0    0    0    0 -0.00000000000E+00 -0.00000000000E+00  0.00000000000E+00  0.93800000000E+00  0.93800000000E+00 0.  1.
         11    1    1    2    0    0 -0.13695750423E-02 -0.51394524053E-02  0.79216642255E-01  0.79396645005E-01  0.51100000000E-03 0. -1.
    9000002    1    1    2    0    0  0.23537987906E+00  0.86272784769E-01  0.41905813143E-01  0.97182651643E+00  0.93800000000E+00 0.  1.
         22    1    1    2    0    0 -0.23401030402E+00 -0.81133332364E-01  0.38788775120E+01  0.38867768386E+01  0.00000000000E+00 0. -1.
</event>
<event>
 5    1  0.1461556E+002  0.1599674E+01  0.7818608E-02  0.3353717E+00
         11   -1    0    0    0    0  0.00000000000E+00  0.00000000000E+00  0.39999999674E+01  0.40000000000E+01  0.51100000000E-03 0.  1.
    9000002   -1    0    0    0    0 -0.00000000000E+00 -0.00000000000E+00  0.00000000000E+00  0.93800000000E+00  0.93800000000E+00 0.  1.
         11    1    1    2    0    0  0.11398916735E-01 -0.26468445219E-01  0.42356554319E+00  0.42454510290E+00  0.51100000000E-03 0.  1.
    9000002    1    1    2    0    0 -0.96018749242E-01  0.24567726931E+00  0.46271442758E-01  0.97548037770E+00  0.93800000000E+00 0.  1.
         22    1    1    2    0    0  0.84619832507E-01 -0.21920882409E+00  0.35301629814E+01  0.35379745194E+01  0.00000000000E+00 0.  1.
</event>
<event>
 5    1  0.1461556E+002  0.1599508E+01  0.7818608E-02  0.3353897E+00
         11   -1    0    0    0    0  0.00000000000E+00  0.00000000000E+00  0.39999999674E+01  0.40000000000E+01  0.51100000000E-03 0.  1.
    9000002   -1    0    0    0    0 -0.00000000000E+00 -0.00000000000E+00  0.00000000000E+00  0.93800000000E+00  0.93800000000E+00 0.  1.
         11    1    1    2    0    0 -0.24426995211E+00 -0.71100988655E-01  0.19064344144E+01  0.19233344996E+01  0.51100000000E-03 0.  1.
    9000002    1    1    2    0    0  0.51835692980E+00  0.13883831291E+00  0.19856187117E+00  0.10987451026E+01  0.93800000000E+00 0.  1.
         22    1    1    2    0    0 -0.27408697769E+00 -0.67737324254E-01  0.18950036818E+01  0.19159203978E+01  0.00000000000E+00 0.  1.
</event>
<event>
 5    1  0.1461556E+002  0.1599605E+01  0.7818608E-02  0.3353793E+00
         11   -1    0    0    0    0  0.00000000000E+00  0.00000000000E+00  0.39999999674E+01  0.40000000000E+01  0.51100000000E-03 0.  1.
    9000002   -1    0    0    0    0 -0.00000000000E+00 -0.00000000000E+00  0.00000000000E+00  0.93800000000E+00  0.93800000000E+00 0.  1.
         11    1    1    2    0    0  0.78016477424E-01 -0.23919903128E-01  0.67678799339E+00  0.68168979869E+00  0.51100000000E-03 0.  1.
    9000002    1    1    2    0    0 -0.40430420243E+00  0.12396847206E+00  0.12105244293E+00  0.10360153301E+01  0.93800000000E+00 0.  1.
         22    1    1    2    0    0  0.32628772500E+00 -0.10004856893E+00  0.32021595310E+01  0.32202948713E+01  0.00000000000E+00 0.  1.
</event>
<event>
 5    1  0.1461556E+002  0.1599240E+01  0.7818608E-02  0.3354189E+00
         11   -1    0    0    0    0  0.00000000000E+00  0.00000000000E+00  0.39999999674E+01  0.40000000000E+01  0.51100000000E-03 0.  1.
    9000002   -1    0    0    0    0 -0.00000000000E+00 -0.00000000000E+00  0.00000000000E+00  0.93800000000E+00  0.93800000000E+00 0. -1.
         11    1    1    2    0    0 -0.25910599826E+00 -0.24059622537E+00  0.19724948461E+01  0.20039357876E+01  0.51100000000E-03 0.  1.
    9000002    1    1    2    0    0  0.46757858513E+00  0.41194641312E+00  0.27276466360E+00  0.11586950169E+01  0.93800000000E+00 0. -1.
         22    1    1    2    0    0 -0.20847258687E+00 -0.17135018775E+00  0.17547404577E+01  0.17753691954E+01  0.00000000000E+00 0.  1.
</event>
<event>
 5    1  0.1461556E+002  0.1599673E+01  0.7818608E-02  0.3353718E+00
         11   -1    0    0    0    0  0.00000000000E+00  0.00000000000E+00  0.39999999674E+01  0.40000000000E+01  0.51100000000E-03 0.  1.
    9000002   -1    0    0    0    0 -0.00000000000E+00 -0.00000000000E+00  0.00000000000E+00  0.93800000000E+00  0.93800000000E+00 0. -1.
         11    1    1    2    0    0 -0.10574652263E-01 -0.62546144824E-02  0.22493926356E+00  0.22527511377E+00  0.51100000000E-03 0.  1.
    9000002    1    1    2    0    0  0.17424583934E+00  0.12305478894E+00  0.30152607228E-01  0.96242260641E+00  0.93800000000E+00 0. -1.
         22    1    1    2    0    0 -0.16367118708E+00 -0.11680017445E+00  0.37449080966E+01  0.37503022798E+01  0.00000000000E+00 0.  1.
</event>
<event>
 5    1  0.1461556E+002  0.1599676E+01  0.7818608E-02  0.3353715E+00
         11   -1    0    0    0    0  0.00000000000E+00  0.00000000000E+00  0.39999999674E+01  0.40000000000E+01  0.51100000000E-03 0. -1.
    9000002   -1    0    0    0    0 -0.00000000000E+00 -0.00000000000E+00  0.00000000000E+00  0.93800000000E+00  0.93800000000E+00 0.  1.
         11    1    1    2    0    0  0.62664617404E-01  0.11472423799E-01  0.94894659802E+00  0.95108273972E+00  0.51100000000E-03 0. -1.
    9000002    1    1    2    0    0 -0.26120374148E+00 -0.51585008378E-01  0.47151781858E-01  0.97619449813E+00  0.93800000000E+00 0.  1.
         22    1    1    2    0    0  0.19853912407E+00  0.40112584579E-01  0.30039015875E+01  0.30107227621E+01  0.00000000000E+00 0. -1.
</event>
<event>
 5    1  0.1461556E+002  0.1555372E+01  0.7818608E-02  0.3403272E+00
         11   -1    0    0    0    0  0.00000000000E+00  0.00000000000E+00  0.39999999674E+01  0.40000000000E+01  0.51100000000E-03 0. -1.
    9000002   -1    0    0    0    0 -0.00000000000E+00 -0.00000000000E+00  0.00000000000E+00  0.93800000000E+00  0.93800000000E+00 0.  1.
         11    1    1    2    0    0 -0.47848043499E-01  0.69158482745E-01  0.89550692464E-01  0.12284917030E+00  0.51100000000E-03 0. -1.
    9000002    1    1    2    0    0  0.24288185980E+00  0.61904921073E-01  0.76404906070E-01  0.97391248413E+00  0.93800000000E+00 0.  1.
         22    1    1    2    0    0 -0.19503381630E+00 -0.13106340382E+00  0.38340443688E+01  0.38412383456E+01  0.00000000000E+00 0. -1.
</event>
<event>
 5    1  0.1461556E+002  0.1599407E+01  0.7818608E-02  0.3354007E+00
         11   -1    0    0    0    0  0.00000000000E+00  0.00000000000E+00  0.39999999674E+01  0.40000000000E+01  0.51100000000E-03 0. -1.
    9000002   -1    0    0    0    0 -0.00000000000E+00 -0.00000000000E+00  0.00000000000E+00  0.93800000000E+00  0.93800000000E+00 0.  1.
         11    1    1    2    0    0 -0.17494496693E-01  0.32301747212E-01  0.30098506032E+00  0.30321894391E+00  0.51100000000E-03 0. -1.
    9000002    1    1    2    0    0  0.19040239221E+00 -0.28830132437E+00  0.80216350677E-01  0.10028207155E+01  0.93800000000E+00 0.  1.
         22    1    1    2    0    0 -0.17290789552E+00  0.25599957716E+00  0.36187985564E+01  0.36319603406E+01  0.00000000000E+00 0. -1.
</event>
<event>
 5    1  0.1461556E+002  0.1599671E+01  0.7818608E-02  0.3353720E+00
         11   -1    0    0    0    0  0.00000000000E+00  0.00000000000E+00  0.39999999674E+01  0.40000000000E+01  0.51100000000E-03 0. -1.
    9000002   -1    0    0    0    0 -0.00000000000E+00 -0.00000000000E+00  0.00000000000E+00  0.93800000000E+00  0.93800000000E+00 0.  1.
         11    1    1    2    0    0 -0.63268844530E+00 -0.23296811469E+00  0.17371009750E+01  0.18633541987E+01  0.51100000000E-03 0. -1.
    9000002    1    1    2    0    0  0.10534908106E+01  0.39218721740E+00  0.11106509339E+01  0.18376733111E+01  0.93800000000E+00 0.  1.
         22    1    1    2    0    0 -0.42080236527E+00 -0.15921910270E+00  0.11522480584E+01  0.12369724902E+01  0.00000000000E+00 0. -1.
</event>
<event>
 5    1  0.1461556E+002  0.1599092E+01  0.7818608E-02  0.3354350E+00
         11   -1    0    0    0    0  0.00000000000E+00  0.00000000000E+00  0.39999999674E+01  0.40000000000E+01  0.51100000000E-03 0.  1.
    9000002   -1    0    0    0    0 -0.00000000000E+00 -0.00000000000E+00  0.00000000000E+00  0.93800000000E+00  0.93800000000E+00 0. -1.
         11    1    1    2    0    0  0.10609864501E+00 -0.28760383470E-02  0.16461822600E+01  0.16496004026E+01  0.51100000000E-03 0.  1.
    9000002    1    1    2    0    0 -0.30528098181E+00 -0.38632445524E-01  0.63674058660E-01  0.98923572997E+00  0.93800000000E+00 0. -1.
         22    1    1    2    0    0  0.19918233680E+00  0.41508483871E-01  0.22901436487E+01  0.22991638674E+01  0.00000000000E+00 0.  1.
</event>
<event>
 5    1  0.1461556E+002  0.1599676E+01  0.7818608E-02  0.3353715E+00
         11   -1    0    0    0    0  0.00000000000E+00  0.00000000000E+00  0.39999999674E+01  0.40000000000E+01  0.51100000000E-03 0.  1.
    9000002   -1    0    0    0    0 -0.00000000000E+00 -0.00000000000E+00  0.00000000000E+00  0.93800000000E+00  0.93800000000E+00 0. -1.
         11    1    1    2    0    0  0.13444792313E+00 -0.19273319685E+00  0.19823341544E+01  0.19962142395E+01  0.51100000000E-03 0.  1.
    9000002    1    1    2    0    0 -0.25982379766E+00  0.37678058497E+00  0.14243396713E+00  0.10533771642E+01  0.93800000000E+00 0. -1.
         22    1    1    2    0    0  0.12537587454E+00 -0.18404738811E+00  0.18752318458E+01  0.18884085963E+01  0.00000000000E+00 0.  1.
</event>
<event>
 5    1  0.1461556E+002  0.1599677E+01  0.7818608E-02  0.3353714E+00
         11   -1    0    0    0    0  0.00000000000E+00  0.00000000000E+00  0.39999999674E+01  0.40000000000E+01  0.51100000000E-03 0.  1.
    9000002   -1    0    0    0    0 -0.00000000000E+00 -0.00000000000E+00  0.00000000000E+00  0.93800000000E+00  0.93800000000E+00 0. -1.
         11    1    1    2    0    0 -0.25515704581E-01  0.59804616427E-01  0.84598441960E+00  0.84847954758E+00  0.51100000000E-03 0.  1.
    9000002    1    1    2    0    0  0.11685177959E+00 -0.27883028010E+00  0.60987951664E-01  0.98740275154E+00  0.93800000000E+00 0. -1.
         22    1    1    2    0    0 -0.91336075013E-01  0.21902566368E+00  0.30930275961E+01  0.31021177009E+01  0.00000000000E+00 0.  1.
</event>
<event>
 5    1  0.1461556E+002  0.1599673E+01  0.7818608E-02  0.3353718E+00
         11   -1    0    0    0    0  0.00000000000E+00  0.00000000000E+00  0.39999999674E+01  0.40000000000E+01  0.51100000000E-03 0.  1.
    9000002   -1    0    0    0    0 -0.00000000000E+00 -0.00000000000E+00  0.00000000000E+00  0.93800000000E+00  0.93800000000E+00 0.  1.
         11    1    1    2    0    0 -0.93284550909E-02 -0.31785169119E-01  0.47405115862E+00  0.47520740647E+00  0.51100000000E-03 0.  1.
    9000002    1    1    2    0    0  0.68388207655E-01  0.25751955148E+00  0.47224441897E-01  0.97625171664E+00  0.93800000000E+00 0.  1.
         22    1    1    2    0    0 -0.59059752564E-01 -0.22573438236E+00  0.34787243668E+01  0.34865408769E+01  0.00000000000E+00 0.  1.
</event>
<event>
 5    1  0.1461556E+002  0.1599677E+01  0.7818608E-02  0.3353714E+00
         11   -1    0    0    0    0  0.00000000000E+00  0.00000000000E+00  0.39999999674E+01  0.40000000000E+01  0.51100000000E-03 0.  1.
    9000002   -1    0    0    0    0 -0.00000000000E+00 -0.00000000000E+00  0.00000000000E+00  0.93800000000E+00  0.93800000000E+00 0.  1.
         11    1    1    2    0    0  0.36869446951E+00  0.97226670133E+00  0.20033245188E+01  0.22571104401E+01  0.51100000000E-03 0.  1.
    9000002    1    1    2    0    0 -0.44130272781E+00 -0.11646775539E+01  0.15999805365E+01  0.22340554199E+01  0.93800000000E+00 0.  1.
         22    1    1    2    0    0  0.72608258295E-01  0.19241085254E+00  0.39669491206E+00  0.44683413992E+00  0.00000000000E+00 0.  1.
</event>
<event>
 5    1  0.1461556E+002  0.1599676E+01  0.7818608E-02  0.3353715E+00
         11   -1    0    0    0    0  0.00000000000E+00  0.00000000000E+00  0.39999999674E+01  0.40000000000E+01  0.51100000000E-03 0. -1.
    9000002   -1    0    0    0    0 -0.00000000000E+00 -0.00000000000E+00  0.00000000000E+00  0.93800000000E+00  0.93800000000E+00 0. -1.
         11    1    1    2    0    0 -0.79419255785E-03 -0.95575102995E-02  0.14283062579E+00  0.14315315410E+00  0.51100000000E-03 0.  1.
    9000002    1    1    2    0    0  0.22169425756E-01  0.26342511327E+00  0.46476927488E-01  0.97564767131E+00  0.93800000000E+00 0. -1.
         22    1    1    2    0    0 -0.21375233199E-01 -0.25386760297E+00  0.38106924141E+01  0.38191991746E+01  0.00000000000E+00 0. -1.
</event>
<event>
 5    1  0.1461556E+002  0.1599677E+01  0.7818608E-02  0.3353714E+00
         11   -1    0    0    0    0  0.00000000000E+00  0.00000000000E+00  0.39999999674E+01  0.40000000000E+01  0.51100000000E-03 0.  1.
    9000002   -1    0    0    0    0 -0.00000000000E+00 -0.00000000000E+00  0.00000000000E+00  0.93800000000E+00  0.93800000000E+00 0. -1.
         11    1    1    2    0    0  0.14617082148E+00  0.72539282669E-01  0.15612522046E+01  0.15697568487E+01  0.51100000000E-03 0.  1.
    9000002    1    1    2    0    0 -0.36527272069E+00 -0.17954904494E+00  0.11184430705E+00  0.10285986433E+01  0.93800000000E+00 0. -1.
         22    1    1    2    0    0  0.21910189922E+00  0.10700976227E+00  0.23269034557E+01  0.23396445079E+01  0.00000000000E+00 0.  1.
</event>
<event>
 5    1  0.1461556E+002  0.1599677E+01  0.7818608E-02  0.3353714E+00
         11   -1    0    0    0    0  0.00000000000E+00  0.00000000000E+00  0.39999999674E+01  0.40000000000E+01  0.51100000000E-03 0.  1.
    9000002   -1    0    0    0    0 -0.00000000000E+00 -0.00000000000E+00  0.00000000000E+00  0.93800000000E+00  0.93800000000E+00 0.  1.
         11    1    1    2    0    0 -0.33685980257E-01 -0.92738992034E-01  0.12532531371E+01  0.12571312392E+01  0.51100000000E-03 0.  1.
    9000002    1    1    2    0    0  0.10725915006E+00  0.29085057406E+00  0.64169453131E-01  0.98997994950E+00  0.93800000000E+00 0.  1.
         22    1    1    2    0    0 -0.73573169801E-01 -0.19811158203E+00  0.26825773772E+01  0.26908888113E+01  0.00000000000E+00 0.  1.
</event>
<event>
 5    1  0.1461556E+002  0.1599676E+01  0.7818608E-02  0.3353715E+00
         11   -1    0    0    0    0  0.00000000000E+00  0.00000000000E+00  0.39999999674E+01  0.40000000000E+01  0.51100000000E-03 0. -1.
    9000002   -1    0    0    0    0 -0.00000000000E+00 -0.00000000000E+00  0.00000000000E+00  0.93800000000E+00  0.93800000000E+00 0.  1.
         11    1    1    2    0    0 -0.17966655896E-01  0.86813458060E-03  0.20284885109E+00  0.20364545635E+00  0.51100000000E-03 0.  1.
    9000002    1    1    2    0    0  0.34420892898E+00 -0.15942016025E-01  0.79565823963E-01  0.10024513230E+01  0.93800000000E+00 0.  1.
         22    1    1    2    0    0 -0.32624227308E+00  0.15073881445E-01  0.37175852923E+01  0.37319032206E+01  0.00000000000E+00 0. -1.
</event>
<event>
 5    1  0.1461556E+002  0.1599647E+01  0.7818608E-02  0.3353747E+00
         11   -1    0    0    0    0  0.00000000000E+00  0.00000000000E+00  0.39999999674E+01  0.40000000000E+01  0.51100000000E-03 0.  1.
    9000002   -1    0    0    0    0 -0.00000000000E+00 -0.00000000000E+00  0.00000000000E+00  0.93800000000E+00  0.93800000000E+00 0. -1.
         11    1    1    2    0    0 -0.12104436567E+00  0.64401476859E-01  0.16088617837E+01  0.16146937136E+01  0.51100000000E-03 0.  1.
    9000002    1    1    2    0    0  0.30959763014E+00 -0.15062734591E+00  0.79456677600E-01  0.10023455759E+01  0.93800000000E+00 0. -1.
         22    1    1    2    0    0 -0.18855326447E+00  0.86225869047E-01  0.23116815061E+01  0.23209607105E+01  0.00000000000E+00 0.  1.
</event>
<event>
 5    1  0.1461556E+002  0.1599519E+01  0.7818608E-02  0.3353886E+00
         11   -1    0    0    0    0  0.00000000000E+00  0.00000000000E+00  0.39999999674E+01  0.40000000000E+01  0.51100000000E-03 0.  1.
    9000002   -1    0    0    0    0 -0.00000000000E+00 -0.00000000000E+00  0.00000000000E+00  0.93800000000E+00  0.93800000000E+00 0.  1.
         11    1    1    2    0    0  0.10758734155E-01 -0.12952057479E-01  0.23841420055E+00  0.23900857370E+00  0.51100000000E-03 0.  1.
    9000002    1    1    2    0    0 -0.24377702017E+00  0.11491021753E+00  0.48445739940E-01  0.97715023583E+00  0.93800000000E+00 0.  1.
         22    1    1    2    0    0  0.23301828602E+00 -0.10195816005E+00  0.37131400269E+01  0.37218411905E+01  0.00000000000E+00 0.  1.
</event>
<event>
 5    1  0.1461556E+002  0.1595371E+01  0.7818608E-02  0.3358403E+00
         11   -1    0    0    0    0  0.00000000000E+00  0.00000000000E+00  0.39999999674E+01  0.40000000000E+01  0.51100000000E-03 0. -1.
    9000002   -1    0    0    0    0 -0.00000000000E+00 -0.00000000000E+00  0.00000000000E+00  0.93800000000E+00  0.93800000000E+00 0. -1.
         11    1    1    2    0    0  0.15602278816E-01 -0.79756759455E-02  0.54474997586E-01  0.57226121606E-01  0.51100000000E-03 0. -1.
    9000002    1    1    2    0    0 -0.28860275644E-01 -0.19286161720E+00  0.28396103785E-01  0.95847736416E+00  0.93800000000E+00 0. -1.
         22    1    1    2    0    0  0.13257996828E-01  0.20083729315E+00  0.39171288660E+01  0.39222965142E+01  0.00000000000E+00 0. -1.
</event>
<event>
 5    1  0.1461556E+002  0.1552269E+01  0.7818608E-02  0.3406856E+00
         11   -1    0    0    0    0  0.00000000000E+00  0.00000000000E+00  0.39999999674E+01  0.40000000000E+01  0.51100000000E-03 0. -1.
    9000002   -1    0    0    0    0 -0.00000000000E+00 -0.00000000000E+00  0.00000000000E+00  0.93800000000E+00  0.93800000000E+00 0. -1.
         11    1    1    2    0    0  0.16886655015E-01  0.10062481240E+00  0.15983415962E+00  0.18962524012E+00  0.51100000000E-03 0. -1.
    9000002    1    1    2    0    0  0.13323647216E+00  0.10180151468E+00  0.54602953359E-01  0.95443228593E+00  0.93800000000E+00 0. -1.
         22    1    1    2    0    0 -0.15012312718E+00 -0.20242632708E+00  0.37855628544E+01  0.37939424740E+01  0.00000000000E+00 0. -1.
</event>
<event>
 5    1  0.1461556E+002  0.1596519E+01  0.7818608E-02  0.3357150E+00
         11   -1    0    0    0    0  0.00000000000E+00  0.00000000000E+00  0.39999999674E+01  0.40000000000E+01  0.51100000000E-03 0. -1.
    9000002   -1    0    0    0    0 -0.00000000000E+00 -0.00000000000E+00  0.00000000000E+00  0.93800000000E+00  0.93800000000E+00 0.  1.
         11    1    1    2    0    0  0.73157298276E-01 -0.13918027286E+00  0.93959631599E+00  0.95266186907E+00  0.51100000000E-03 0. -1.
    9000002    1    1    2    0    0 -0.38499655767E+00  0.34484036091E+00  0.18629314300E+00  0.10870539817E+01  0.93800000000E+00 0.  1.
         22    1    1    2    0    0  0.31183925939E+00 -0.20566008805E+00  0.28741105084E+01  0.28982841493E+01  0.00000000000E+00 0. -1.
</event>
<event>
 5    1  0.1461556E+002  0.1599674E+01  0.7818608E-02  0.3353717E+00
         11   -1    0    0    0    0  0.00000000000E+00  0.00000000000E+00  0.39999999674E+01  0.40000000000E+01  0.51100000000E-03 0. -1.
    9000002   -1    0    0    0    0 -0.00000000000E+00 -0.00000000000E+00  0.00000000000E+00  0.93800000000E+00  0.93800000000E+00 0.  1.
         11    1    1    2    0    0  0.54654813173E-01  0.67535715127E-01  0.11055885543E+01  0.11089970847E+01  0.51100000000E-03 0. -1.
    9000002    1    1    2    0    0 -0.19570082929E+00 -0.23456509655E+00  0.62288691323E-01  0.98845509770E+00  0.93800000000E+00 0.  1.
         22    1    1    2    0    0  0.14104601611E+00  0.16702938142E+00  0.28321227217E+01  0.28405478176E+01  0.00000000000E+00 0.  1.
</event>
<event>
 5    1  0.1461556E+002  0.1599586E+01  0.7818608E-02  0.3353813E+00
         11   -1    0    0    0    0  0.00000000000E+00  0.00000000000E+00  0.39999999674E+01  0.40000000000E+01  0.51100000000E-03 0.  1.
    9000002   -1    0    0    0    0 -0.00000000000E+00 -0.00000000000E+00  0.00000000000E+00  0.93800000000E+00  0.93800000000E+00 0.  1.
         11    1    1    2    0    0  0.13757534538E-02 -0.37057712841E-02  0.32581107679E-01  0.32824002452E-01  0.51100000000E-03 0.  1.
    9000002    1    1    2    0    0 -0.13025746769E+00  0.20798581302E+00  0.40062280246E-01  0.97039893477E+00  0.93800000000E+00 0.  1.
         22    1    1    2    0    0  0.12888171424E+00 -0.20428004174E+00  0.39273565794E+01  0.39347770628E+01  0.00000000000E+00 0.  1.
</event>
<event>
 5    1  0.1461556E+002  0.1597940E+01  0.7818608E-02  0.3355602E+00
         11   -1    0    0    0    0  0.00000000000E+00  0.00000000000E+00  0.39999999674E+01  0.40000000000E+01  0.51100000000E-03 0. -1.
    9000002   -1    0    0    0    0 -0.00000000000E+00 -0.00000000000E+00  0.00000000000E+00  0.93800000000E+00  0.93800000000E+00 0.  1.
         11    1    1    2    0    0 -0.27629268012E-02 -0.77362235500E-01  0.13315983837E+01  0.13338467175E+01  0.51100000000E-03 0. -1.
    9000002    1    1    2    0    0  0.14010539651E+00  0.27654750779E+00  0.65543771507E-01  0.99007476090E+00  0.93800000000E+00 0.  1.
         22    1    1    2    0    0 -0.13734246971E+00 -0.19918527229E+00  0.26028578121E+01  0.26140785216E+01  0.00000000000E+00 0. -1.
</event>
<event>
 5    1  0.1461556E+002  0.1562341E+01  0.7818608E-02  0.3395279E+00
         11   -1    0    0    0    0  0.00000000000E+00  0.00000000000E+00  0.39999999674E+01  0.40000000000E+01  0.51100000000E-03 0. -1.
    9000002   -1    0    0    0    0 -0.00000000000E+00 -0.00000000000E+00  0.00000000000E+00  0.93800000000E+00  0.93800000000E+00 0.  1.
         11    1    1    2    0    0 -0.18334511100E+00 -0.10336506224E+00  0.21597335080E+01  0.21699651732E+01  0.51100000000E-03 0. -1.
    9000002    1    1    2    0    0 -0.76027398287E-01  0.87136280518E-01  0.36671162853E-01  0.94581270390E+00  0.93800000000E+00 0.  1.
         22    1    1    2    0    0  0.25937250928E+00  0.16228781719E-01  0.18035952965E+01  0.18222221229E+01  0.00000000000E+00 0. -1.
</event>
<event>
 5    1  0.1461556E+002  0.1576926E+01  0.7818608E-02  0.3378795E+00
         11   -1    0    0    0    0  0.00000000000E+00  0.00000000000E+00  0.39999999674E+01  0.40000000000E+01  0.51100000000E-03 0. -1.
    9000002   -1    0    0    0    0 -0.00000000000E+00 -0.00000000000E+00  0.00000000000E+00  0.93800000000E+00  0.93800000000E+00 0.  1.
         11    1    1    2    0    0 -0.16051647889E-01  0.39006640222E+00  0.14977726318E+01  0.15478154189E+01  0.51100000000E-03 0. -1.
    9000002    1    1    2    0    0  0.18575634963E+00 -0.55025141864E+00  0.25688415206E+00  0.11327468882E+01  0.93800000000E+00 0.  1.
         22    1    1    2    0    0 -0.16970470175E+00  0.16018501643E+00  0.22453431835E+01  0.22574376929E+01  0.00000000000E+00 0.  1.
</event>
<event>
 5    1  0.1461556E+002  0.1599645E+01  0.7818608E-02  0.3353749E+00
         11   -1    0    0    0    0  0.00000000000E+00  0.00000000000E+00  0.39999999674E+01  0.40000000000E+01  0.51100000000E-03 0. -1.
    9000002   -1    0    0    0    0 -0.00000000000E+00 -0.00000000000E+00  0.00000000000E+00  0.93800000000E+00  0.93800000000E+00 0. -1.
         11    1    1    2    0    0  0.52322752733E-01  0.70052841300E-02  0.72517175172E+00  0.72709083000E+00  0.51100000000E-03 0. -1.
    9000002    1    1    2    0    0 -0.25795218928E+00 -0.29899926829E-01  0.44853607301E-01  0.97431472516E+00  0.93800000000E+00 0. -1.
         22    1    1    2    0    0  0.20562943655E+00  0.22894642699E-01  0.32299746083E+01  0.32365944448E+01  0.00000000000E+00 0. -1.
</event>
<event>
 5    1  0.1461556E+002  0.1599677E+01  0.7818608E-02  0.3353714E+00
         11   -1    0    0    0    0  0.00000000000E+00  0.00000000000E+00  0.39999999674E+01  0.40000000000E+01  0.51100000000E-03 0.  1.
    9000002   -1    0    0    0    0 -0.00000000000E+00 -0.00000000000E+00  0.00000000000E+00  0.93800000000E+00  0.93800000000E+00 0.  1.
         11    1    1    2    0    0 -0.66584762633E-01 -0.33357483521E-01  0.10227584167E+01  0.10254663780E+01  0.51100000000E-03 0.  1.
    9000002    1    1    2    0    0  0.25712695472E+00  0.13002300158E+00  0.55324098267E-01  0.98281483893E+00  0.93800000000E+00 0.  1.
         22    1    1    2    0    0 -0.19054219208E+00 -0.96665518062E-01  0.29219174523E+01  0.29297187830E+01  0.00000000000E+00 0.  1.
</event>
<event>
 5    1  0.1461556E+002  0.1597663E+01  0.7818608E-02  0.3355903E+00
         11   -1    0    0    0    0  0.00000000000E+00  0.00000000000E+00  0.39999999674E+01  0.40000000000E+01  0.51100000000E-03 0. -1.
    9000002   -1    0    0    0    0 -0.00000000000E+00 -0.00000000000E+00  0.00000000000E+00  0.93800000000E+00  0.93800000000E+00 0.  1.
         11    1    1    2    0    0 -0.63995336013E-02 -0.47975782804E-01  0.37811664510E+00  0.38120216183E+00  0.51100000000E-03 0. -1.
    9000002    1    1    2    0    0  0.15985499454E+00  0.18243569579E+00  0.40598085071E-01  0.96970542274E+00  0.93800000000E+00 0.  1.
         22    1    1    2    0    0 -0.15345546094E+00 -0.13445991298E+00  0.35812852372E+01  0.35870924154E+01  0.00000000000E+00 0. -1.
</event>
<event>
 5    1  0.1461556E+002  0.1575863E+01  0.7818608E-02  0.3379984E+00
         11   -1    0    0    0    0  0.00000000000E+00  0.00000000000E+00  0.39999999674E+01  0.40000000000E+01  0.51100000000E-03 0.  1.
    9000002   -1    0    0    0    0 -0.00000000000E+00 -0.00000000000E+00  0.00000000000E+00  0.93800000000E+00  0.93800000000E+00 0. -1.
         11    1    1    2    0    0 -0.14730670621E+00  0.53518068853E-01  0.54371736859E+00  0.56585535909E+00  0.51100000000E-03 0.  1.
    9000002    1    1    2    0    0  0.47120353619E+00  0.35697594794E+00  0.26720694118E+00  0.11404859268E+01  0.93800000000E+00 0. -1.
         22    1    1    2    0    0 -0.32389682998E+00 -0.41049401680E+00  0.31890756576E+01  0.32316587141E+01  0.00000000000E+00 0.  1.
</event>
<event>
 5    1  0.1461556E+002  0.1599495E+01  0.7818608E-02  0.3353912E+00
         11   -1    0    0    0    0  0.00000000000E+00  0.00000000000E+00  0.39999999674E+01  0.40000000000E+01  0.51100000000E-03 0. -1.
    9000002   -1    0    0    0    0 -0.00000000000E+00 -0.00000000000E+00  0.00000000000E+00  0.93800000000E+00  0.93800000000E+00 0. -1.
         11    1    1    2    0    0  0.80018134932E-01 -0.20115317275E-01  0.11190465092E+01  0.11220841674E+01  0.51100000000E-03 0. -1.
    9000002    1    1    2    0    0 -0.33191896994E+00  0.74462358480E-01  0.77651206917E-01  0.10007939625E+01  0.93800000000E+00 0. -1.
         22    1    1    2    0    0  0.25190083501E+00 -0.54347041206E-01  0.28033022512E+01  0.28151218701E+01  0.00000000000E+00 0. -1.
</event>
<event>
 5    1  0.1461556E+002  0.1599676E+01  0.7818608E-02  0.3353715E+00
         11   -1    0    0    0    0  0.00000000000E+00  0.00000000000E+00  0.39999999674E+01  0.40000000000E+01  0.51100000000E-03 0.  1.
    9000002   -1    0    0    0    0 -0.00000000000E+00 -0.00000000000E+00  0.00000000000E+00  0.93800000000E+00  0.93800000000E+00 0.  1.
         11    1    1    2    0    0  0.44635535710E-01 -0.81397955029E-02  0.62936563410E+00  0.63099916785E+00  0.51100000000E-03 0. -1.
    9000002    1    1    2    0    0 -0.27706137850E+00  0.54328267169E-01  0.53094566519E-01  0.98100846126E+00  0.93800000000E+00 0.  1.
         22    1    1    2    0    0  0.23242584279E+00 -0.46188471666E-01  0.33175397667E+01  0.33259923709E+01  0.00000000000E+00 0.  1.
</event>
<event>
 5    1  0.1461556E+002  0.1594417E+01  0.7818608E-02  0.3359445E+00
         11   -1    0    0    0    0  0.00000000000E+00  0.00000000000E+00  0.39999999674E+01  0.40000000000E+01  0.51100000000E-03 0. -1.
    9000002   -1    0    0    0    0 -0.00000000000E+00 -0.00000000000E+00  0.00000000000E+00  0.93800000000E+00  0.93800000000E+00 0.  1.
         11    1    1    2    0    0  0.47232566374E-01 -0.11362940930E-01  0.40088238283E+00  0.40381552439E+00  0.51100000000E-03 0. -1.
    9000002    1    1    2    0    0 -0.14439095643E+00 -0.29711513744E+00  0.77214545327E-01  0.99746290117E+00  0.93800000000E+00 0.  1.
         22    1    1    2    0    0  0.97158390058E-01  0.30847807837E+00  0.35219030392E+01  0.35367215744E+01  0.00000000000E+00 0. -1.
</event>
<event>
 5    1  0.1461556E+002  0.1599675E+01  0.7818608E-02  0.3353716E+00
         11   -1    0    0    0    0  0.00000000000E+00  0.00000000000E+00  0.39999999674E+01  0.40000000000E+01  0.51100000000E-03 0.  1.
    9000002   -1    0    0    0    0 -0.00000000000E+00 -0.00000000000E+00  0.00000000000E+00  0.93800000000E+00  0.93800000000E+00 0.  1.
         11    1    1    2    0    0 -0.12029313097E+00  0.60993974781E-01  0.15142624708E+01  0.15202571473E+01  0.51100000000E-03 0.  1.
    9000002    1    1    2    0    0  0.31479540109E+00 -0.15630009590E+00  0.82840091852E-01  0.10051031516E+01  0.93800000000E+00 0.  1.
         22    1    1    2    0    0 -0.19450227012E+00  0.95306121121E-01  0.24028974048E+01  0.24126397012E+01  0.00000000000E+00 0.  1.
</event>
<event>
 5    1  0.1461556E+002  0.1570158E+01  0.7818608E-02  0.3386404E+00
         11   -1    0    0    0    0  0.00000000000E+00  0.00000000000E+00  0.39999999674E+01  0.40000000000E+01  0.51100000000E-03 0.  1.
    9000002   -1    0    0    0    0 -0.00000000000E+00 -0.00000000000E+00  0.00000000000E+00  0.93800000000E+00  0.93800000000E+00 0. -1.
         11    1    1    2    0    0  0.12116420248E+00 -0.18495898892E+00  0.15465363819E+01  0.15622629846E+01  0.51100000000E-03 0.  1.
    9000002    1    1    2    0    0 -0.19485457226E+00 -0.30254235780E-01  0.48172079143E-01  0.95971254671E+00  0.93800000000E+00 0. -1.
         22    1    1    2    0    0  0.73690369775E-01  0.21521322470E+00  0.24052915063E+01  0.24160244686E+01  0.00000000000E+00 0.  1.
</event>
<event>
 5    1  0.1461556E+002  0.1596173E+01  0.7818608E-02  0.3357528E+00
         11   -1    0    0    0    0  0.00000000000E+00  0.00000000000E+00  0.39999999674E+01  0.40000000000E+01  0.51100000000E-03 0.  1.
    9000002   -1    0    0    0    0 -0.00000000000E+00 -0.00000000000E+00  0.00000000000E+00  0.93800000000E+00  0.93800000000E+00 0. -1.
         11    1    1    2    0    0  0.29188056727E-01  0.91995215059E-02  0.88821083812E+00  0.88873805360E+00  0.51100000000E-03 0.  1.
    9000002    1    1    2    0    0 -0.22029092737E-01 -0.28239489043E+00  0.56167366201E-01  0.98144328827E+00  0.93800000000E+00 0. -1.
         22    1    1    2    0    0 -0.71589639908E-02  0.27319536893E+00  0.30556217630E+01  0.30678186581E+01  0.00000000000E+00 0.  1.
</event>
<event>
 5    1  0.1461556E+002  0.1545449E+01  0.7818608E-02  0.3414786E+00
         11   -1    0    0    0    0  0.00000000000E+00  0.00000000000E+00  0.39999999674E+01  0.40000000000E+01  0.51100000000E-03 0. -1.
    9000002   -1    0    0    0    0 -0.00000000000E+00 -0.00000000000E+00  0.00000000000E+00  0.93800000000E+00  0.93800000000E+00 0. -1.
         11    1    1    2    0    0  0.16844935935E+00 -0.28680979855E-01  0.40882057536E+00  0.44309401850E+00  0.51100000000E-03 0. -1.
    9000002    1    1    2    0    0  0.43633689499E-01  0.15410139890E+00  0.58208591148E-01  0.95335375391E+00  0.93800000000E+00 0. -1.
         22    1    1    2    0    0 -0.21208304885E+00 -0.12542041905E+00  0.35329708008E+01  0.35415522276E+01  0.00000000000E+00 0. -1.
</event>
<event>
 5    1  0.1461556E+002  0.1598094E+01  0.7818608E-02  0.3355434E+00
         11   -1    0    0    0    0  0.00000000000E+00  0.00000000000E+00  0.39999999674E+01  0.40000000000E+01  0.51100000000E-03 0.  1.
    9000002   -1    0    0    0    0 -0.00000000000E+00 -0.00000000000E+00  0.00000000000E+00  0.93800000000E+00  0.93800000000E+00 0.  1.
         11    1    1    2    0    0 -0.58835180566E-01  0.88557773104E-02  0.31442721510E+00  0.32000740301E+00  0.51100000000E-03 0.  1.
    9000002    1    1    2    0    0  0.40115162320E+00 -0.13259119461E+00  0.12210285246E+00  0.10359807702E+01  0.93800000000E+00 0.  1.
         22    1    1    2    0    0 -0.34231644263E+00  0.12373541730E+00  0.35634698998E+01  0.35820118268E+01  0.00000000000E+00 0.  1.
</event>
<event>
 5    1  0.1461556E+002  0.1596215E+01  0.7818608E-02  0.3357481E+00
         11   -1    0    0    0    0  0.00000000000E+00  0.00000000000E+00  0.39999999674E+01  0.40000000000E+01  0.51100000000E-03 0.  1.
    9000002   -1    0    0    0    0 -0.00000000000E+00 -0.00000000000E+00  0.00000000000E+00  0.93800000000E+00  0.93800000000E+00 0.  1.
         11    1    1    2    0    0 -0.90684177582E-01 -0.78662279697E-01  0.66613888329E+00  0.67686974172E+00  0.51100000000E-03 0.  1.
    9000002    1    1    2    0    0  0.31014594815E+00  0.23549099390E+00  0.10501640375E+00  0.10210381787E+01  0.93800000000E+00 0.  1.
         22    1    1    2    0    0 -0.21946177057E+00 -0.15682871421E+00  0.32288446803E+01  0.32400920795E+01  0.00000000000E+00 0.  1.
</event>
<event>
 5    1  0.1461556E+002  0.1599669E+01  0.7818608E-02  0.3353723E+00
         11   -1    0    0    0    0  0.00000000000E+00  0.00000000000E+00  0.39999999674E+01  0.40000000000E+01  0.51100000000E-03 0. -1.
    9000002   -1    0    0    0    0 -0.00000000000E+00 -0.00000000000E+00  0.00000000000E+00  0.93800000000E+00  0.93800000000E+00 0.  1.
         11    1    1    2    0    0  0.59677618336E-01 -0.23894027525E+00  0.17884978138E+01  0.18053749096E+01  0.51100000000E-03 0. -1.
    9000002    1    1    2    0    0 -0.12763939508E+00  0.51587044695E+00  0.19440000279E+00  0.10954677057E+01  0.93800000000E+00 0.  1.
         22    1    1    2    0    0  0.67961776748E-01 -0.27693017171E+00  0.20171021508E+01  0.20371573846E+01  0.00000000000E+00 0. -1.
</event>
<event>
 5    1  0.1461556E+002  0.1599677E+01  0.7818608E-02  0.3353714E+00
         11   -1    0    0    0    0  0.00000000000E+00  0.00000000000E+00  0.39999999674E+01  0.40000000000E+01  0.51100000000E-03 0. -1.
    9000002   -1    0    0    0    0 -0.00000000000E+00 -0.00000000000E+00  0.00000000000E+00  0.93800000000E+00  0.93800000000E+00 0.  1.
         11    1    1    2    0    0  0.21293079057E-01 -0.37577609175E-01  0.49477062504E+00  0.49665249869E+00  0.51100000000E-03 0.  1.
    9000002    1    1    2    0    0 -0.16919961592E+00  0.29971227858E+00  0.79375672127E-01  0.10022975892E+01  0.93800000000E+00 0.  1.
         22    1    1    2    0    0  0.14790653686E+00 -0.26213466941E+00  0.34258536702E+01  0.34390499121E+01  0.00000000000E+00 0. -1.
</event>
<event>
 5    1  0.1461556E+002  0.1598876E+01  0.7818608E-02  0.3354585E+00
         11   -1    0    0    0    0  0.00000000000E+00  0.00000000000E+00  0.39999999674E+01  0.40000000000E+01  0.51100000000E-03 0.  1.
    9000002   -1    0    0    0    0 -0.00000000000E+00 -0.00000000000E+00  0.00000000000E+00  0.93800000000E+00  0.93800000000E+00 0. -1.
         11    1    1    2    0    0  0.40072827452E-01 -0.10193502193E+00  0.13828525854E+01  0.13871835186E+01  0.51100000000E-03 0.  1.
    9000002    1    1    2    0    0 -0.25435735211E-01  0.31672521735E+00  0.68101335195E-01  0.99269513537E+00  0.93800000000E+00 0. -1.
         22    1    1    2    0    0 -0.14637092241E-01 -0.21479019542E+00  0.25490460468E+01  0.25581213460E+01  0.00000000000E+00 0.  1.
</event>
<event>
 5    1  0.1461556E+002  0.1550720E+01  0.7818608E-02  0.3408651E+00
         11   -1    0    0    0    0  0.00000000000E+00  0.00000000000E+00  0.39999999674E+01  0.40000000000E+01  0.51100000000E-03 0.  1.
    9000002   -1    0    0    0    0 -0.00000000000E+00 -0.00000000000E+00  0.00000000000E+00  0.93800000000E+00  0.93800000000E+00 0.  1.
         11    1    1    2    0    0 -0.26772005095E+00  0.94776301481E-01  0.14498209199E+01  0.14773752177E+01  0.51100000000E-03 0.  1.
    9000002    1    1    2    0    0  0.28400382519E-01 -0.24201626415E+00  0.77715544535E-01  0.97224593581E+00  0.93800000000E+00 0.  1.
         22    1    1    2    0    0  0.23931966843E+00  0.14723996267E+00  0.24724635029E+01  0.24883788464E+01  0.00000000000E+00 0.  1.
</event>
<event>
 5    1  0.1461556E+002  0.1598947E+01  0.7818608E-02  0.3354507E+00
         11   -1    0    0    0    0  0.00000000000E+00  0.00000000000E+00  0.39999999674E+01  0.40000000000E+01  0.51100000000E-03 0.  1.
    9000002   -1    0    0    0    0 -0.00000000000E+00 -0.00000000000E+00  0.00000000000E+00  0.93800000000E+00  0.93800000000E+00 0. -1.
         11    1    1    2    0    0  0.61277699201E-01  0.33287026359E-01  0.13823563112E+01  0.13841142347E+01  0.51100000000E-03 0.  1.
    9000002    1    1    2    0    0 -0.24153558635E+00 -0.15349043440E+00  0.55134365826E-01  0.98223345047E+00  0.93800000000E+00 0. -1.
         22    1    1    2    0    0  0.18025788715E+00  0.12020340804E+00  0.25625092903E+01  0.25716523148E+01  0.00000000000E+00 0.  1.
</event>
<event>
 5    1  0.1461556E+002  0.1599147E+01  0.7818608E-02  0.3354290E+00
         11   -1    0    0    0    0  0.00000000000E+00  0.00000000000E+00  0.39999999674E+01  0.40000000000E+01  0.51100000000E-03 0. -1.
    9000002   -1    0    0    0    0 -0.00000000000E+00 -0.00000000000E+00  0.00000000000E+00  0.93800000000E+00  0.93800000000E+00 0.  1.
         11    1    1    2    0    0  0.15322180946E+00  0.97242285630E-02  0.13309103246E+01  0.13397365550E+01  0.51100000000E-03 0. -1.
    9000002    1    1    2    0    0 -0.37586027891E+00 -0.46720387220E-02  0.95454635829E-01  0.10150115096E+01  0.93800000000E+00 0.  1.
         22    1    1    2    0    0  0.22263846944E+00 -0.50521898410E-02  0.25736350069E+01  0.25832519353E+01  0.00000000000E+00 0. -1.
</event>
<event>
 5    1  0.1461556E+002  0.1599675E+01  0.7818608E-02  0.3353716E+00
         11   -1    0    0    0    0  0.00000000000E+00  0.00000000000E+00  0.39999999674E+01  0.40000000000E+01  0.51100000000E-03 0. -1.
    9000002   -1    0    0    0    0 -0.00000000000E+00 -0.00000000000E+00  0.00000000000E+00  0.93800000000E+00  0.93800000000E+00 0.  1.
         11    1    1    2    0    0 -0.36033414157E-01 -0.59529101131E-01  0.63540864318E+00  0.63920773288E+00  0.51100000000E-03 0. -1.
    9000002    1    1    2    0    0  0.21387222665E+00  0.35915886821E+00  0.11814504421E+00  0.10337014431E+01  0.93800000000E+00 0.  1.
         22    1    1    2    0    0 -0.17783881249E+00 -0.29962976708E+00  0.32464462800E+01  0.32650908240E+01  0.00000000000E+00 0.  1.
</event>
<event>
 5    1  0.1461556E+002  0.1599631E+01  0.7818608E-02  0.3353764E+00
         11   -1    0    0    0    0  0.00000000000E+00  0.00000000000E+00  0.39999999674E+01  0.40000000000E+01  0.51100000000E-03 0. -1.
    9000002   -1    0    0    0    0 -0.00000000000E+00 -0.00000000000E+00  0.00000000000E+00  0.93800000000E+00  0.93800000000E+00 0.  1.
         11    1    1    2    0    0  0.19156085195E-01 -0.29201900943E-01  0.46516888286E+00  0.46647835676E+00  0.51100000000E-03 0. -1.
    9000002    1    1    2    0    0 -0.20519628939E+00  0.23726720359E+00  0.65766366791E-01  0.99124692084E+00  0.93800000000E+00 0.  1.
         22    1    1    2    0    0  0.18604020420E+00 -0.20806530264E+00  0.34690647177E+01  0.34802747224E+01  0.00000000000E+00 0. -1.
</event>
<event>
 5    1  0.1461556E+002  0.1597722E+01  0.7818608E-02  0.3355839E+00
         11   -1    0    0    0    0  0.00000000000E+00  0.00000000000E+00  0.39999999674E+01  0.40000000000E+01  0.51100000000E-03 0.  1.
    9000002   -1    0    0    0    0 -0.00000000000E+00 -0.00000000000E+00  0.00000000000E+00  0.93800000000E+00  0.93800000000E+00 0.  1.
         11    1    1    2    0    0 -0.13617001093E+00  0.28864096300E+00  0.17545258745E+01  0.17833163441E+01  0.51100000000E-03 0.  1.
    9000002    1    1    2    0    0  0.18417276326E+00 -0.57516998211E+00  0.25664755387E+00  0.11447497901E+01  0.93800000000E+00 0.  1.
         22    1    1    2    0    0 -0.48002752333E-01  0.28652901911E+00  0.19888265389E+01  0.20099338658E+01  0.00000000000E+00 0.  1.
</event>
<event>
 5    1  0.1461556E+002  0.1599527E+01  0.7818608E-02  0.3353877E+00
         11   -1    0    0    0    0  0.00000000000E+00  0.00000000000E+00  0.39999999674E+01  0.40000000000E+01  0.51100000000E-03 0. -1.
    9000002   -1    0    0    0    0 -0.00000000000E+00 -0.00000000000E+00  0.00000000000E+00  0.93800000000E+00  0.93800000000E+00 0. -1.
         11    1    1    2    0    0  0.46790345420E-01 -0.12597879404E-01  0.77598999701E+00  0.77750162673E+00  0.51100000000E-03 0. -1.
    9000002    1    1    2    0    0 -0.23601474057E+00  0.12374815048E+00  0.47352773928E-01  0.97626986418E+00  0.93800000000E+00 0. -1.
         22    1    1    2    0    0  0.18922439515E+00 -0.11115027108E+00  0.31766571964E+01  0.31842285091E+01  0.00000000000E+00 0. -1.
</event>
<event>
 5    1  0.1461556E+002  0.1599559E+01  0.7818608E-02  0.3353842E+00
         11   -1    0    0    0    0  0.00000000000E+00  0.00000000000E+00  0.39999999674E+01  0.40000000000E+01  0.51100000000E-03 0. -1.
    9000002   -1    0    0    0    0 -0.00000000000E+00 -0.00000000000E+00  0.00000000000E+00  0.93800000000E+00  0.93800000000E+00 0.  1.
         11    1    1    2    0    0 -0.27371400410E-01  0.23699594355E-01  0.46923539469E+00  0.47063040816E+00  0.51100000000E-03 0. -1.
    9000002    1    1    2    0    0  0.19344969139E+00 -0.25975150235E+00  0.70231865608E-01  0.99482166292E+00  0.93800000000E+00 0.  1.
         22    1    1    2    0    0 -0.16607829098E+00  0.23605190799E+00  0.34605327071E+01  0.34725479289E+01  0.00000000000E+00 0. -1.
</event>
<event>
 5    1  0.1461556E+002  0.1544992E+01  0.7818608E-02  0.3415320E+00
         11   -1    0    0    0    0  0.00000000000E+00  0.00000000000E+00  0.39999999674E+01  0.40000000000E+01  0.51100000000E-03 0.  1.
    9000002   -1    0    0    0    0 -0.00000000000E+00 -0.00000000000E+00  0.00000000000E+00  0.93800000000E+00  0.93800000000E+00 0.  1.
         11    1    1    2    0    0  0.37538001837E+00 -0.24155722743E+00  0.12185599333E+01  0.12977475196E+01  0.51100000000E-03 0.  1.
    9000002    1    1    2    0    0 -0.57318187335E+00  0.14472723485E+00  0.29940291610E+00  0.11484639910E+01  0.93800000000E+00 0.  1.
         22    1    1    2    0    0  0.19780185498E+00  0.96829992576E-01  0.24820371179E+01  0.24917884894E+01  0.00000000000E+00 0. -1.
</event>
<event>
 5    1  0.1461556E+002  0.1599616E+01  0.7818608E-02  0.3353780E+00
         11   -1    0    0    0    0  0.00000000000E+00  0.00000000000E+00  0.39999999674E+01  0.40000000000E+01  0.51100000000E-03 0. -1.
    9000002   -1    0    0    0    0 -0.00000000000E+00 -0.00000000000E+00  0.00000000000E+00  0.93800000000E+00  0.93800000000E+00 0.  1.
         11    1    1    2    0    0  0.99869726863E-02  0.16346933764E-01  0.26397756321E+00  0.26467220645E+00  0.51100000000E-03 0. -1.
    9000002    1    1    2    0    0 -0.99847785625E-01 -0.19688178598E+00  0.32350102755E-01  0.96416935602E+00  0.93800000000E+00 0.  1.
         22    1    1    2    0    0  0.89860812938E-01  0.18053485222E+00  0.37036723014E+01  0.37091584375E+01  0.00000000000E+00 0. -1.
</event>
<event>
 5    1  0.1461556E+002  0.1451276E+01  0.7818608E-02  0.3532496E+00
         11   -1    0    0    0    0  0.00000000000E+00  0.00000000000E+00  0.39999999674E+01  0.40000000000E+01  0.51100000000E-03 0. -1.
    9000002   -1    0    0    0    0 -0.00000000000E+00 -0.00000000000E+00  0.00000000000E+00  0.93800000000E+00  0.93800000000E+00 0. -1.
         11    1    1    2    0    0 -0.21305019649E+00  0.45932547627E+00  0.10603475322E+01  0.11750350758E+01  0.51100000000E-03 0. -1.
    9000002    1    1    2    0    0  0.81895132483E-01 -0.29246196951E+00  0.18870176489E+00  0.10038392164E+01  0.93800000000E+00 0. -1.
         22    1    1    2    0    0  0.13115506400E+00 -0.16686350676E+00  0.27509506703E+01  0.27591257078E+01  0.00000000000E+00 0. -1.
</event>
<event>
 5    1  0.1461556E+002  0.1599633E+01  0.7818608E-02  0.3353762E+00
         11   -1    0    0    0    0  0.00000000000E+00  0.00000000000E+00  0.39999999674E+01  0.40000000000E+01  0.51100000000E-03 0.  1.
    9000002   -1    0    0    0    0 -0.00000000000E+00 -0.00000000000E+00  0.00000000000E+00  0.93800000000E+00  0.93800000000E+00 0. -1.
         11    1    1    2    0    0 -0.12387242267E-01  0.11347492925E+00  0.13373254518E+01  0.13421883729E+01  0.51100000000E-03 0.  1.
    9000002    1    1    2    0    0  0.46370946404E-01 -0.35207019840E+00  0.84637523517E-01  0.10065342516E+01  0.93800000000E+00 0. -1.
         22    1    1    2    0    0 -0.33983704137E-01  0.23859526916E+00  0.25780369921E+01  0.25892773754E+01  0.00000000000E+00 0.  1.
</event>
<event>
 5    1  0.1461556E+002  0.1599313E+01  0.7818608E-02  0.3354109E+00
         11   -1    0    0    0    0  0.00000000000E+00  0.00000000000E+00  0.39999999674E+01  0.40000000000E+01  0.51100000000E-03 0.  1.
    9000002   -1    0    0    0    0 -0.00000000000E+00 -0.00000000000E+00  0.00000000000E+00  0.93800000000E+00  0.93800000000E+00 0.  1.
         11    1    1    2    0    0  0.17422444322E-01 -0.13009827205E-01  0.29481907203E+00  0.29562026913E+00  0.51100000000E-03 0.  1.
    9000002    1    1    2    0    0 -0.79852863754E-01  0.22368647441E+00  0.37715834052E-01  0.96833806226E+00  0.93800000000E+00 0.  1.
         22    1    1    2    0    0  0.62430419433E-01 -0.21067664720E+00  0.36674650613E+01  0.36740416686E+01  0.00000000000E+00 0.  1.
</event>
<event>
 5    1  0.1461556E+002  0.1590882E+01  0.7818608E-02  0.3363319E+00
         11   -1    0    0    0    0  0.00000000000E+00  0.00000000000E+00  0.39999999674E+01  0.40000000000E+01  0.51100000000E-03 0. -1.
    9000002   -1    0    0    0    0 -0.00000000000E+00 -0.00000000000E+00  0.00000000000E+00  0.93800000000E+00  0.93800000000E+00 0. -1.
         11    1    1    2    0    0  0.31462537559E-01  0.94688644279E-01  0.22510423341E+01  0.22532526893E+01  0.51100000000E-03 0. -1.
    9000002    1    1    2    0    0  0.79695374090E-01 -0.30664648709E+00  0.74054069159E-01  0.99283000854E+00  0.93800000000E+00 0. -1.
         22    1    1    2    0    0 -0.11115791165E+00  0.21195784281E+00  0.16749035641E+01  0.16919173022E+01  0.00000000000E+00 0. -1.
</event>
<event>
 5    1  0.1461556E+002  0.1598937E+01  0.7818608E-02  0.3354518E+00
         11   -1    0    0    0    0  0.00000000000E+00  0.00000000000E+00  0.39999999674E+01  0.40000000000E+01  0.51100000000E-03 0.  1.
    9000002   -1    0    0    0    0 -0.00000000000E+00 -0.00000000000E+00  0.00000000000E+00  0.93800000000E+00  0.93800000000E+00 0. -1.
         11    1    1    2    0    0  0.11554564120E-01 -0.51020935480E-02  0.52496766027E+00  0.52511983848E+00  0.51100000000E-03 0.  1.
    9000002    1    1    2    0    0 -0.21656602577E+00  0.14459574367E+00  0.45649701805E-01  0.97454433859E+00  0.93800000000E+00 0. -1.
         22    1    1    2    0    0  0.20501146165E+00 -0.13949365012E+00  0.34293826053E+01  0.34383358229E+01  0.00000000000E+00 0.  1.
</event>
<event>
 5    1  0.1461556E+002  0.1599634E+01  0.7818608E-02  0.3353761E+00
         11   -1    0    0    0    0  0.00000000000E+00  0.00000000000E+00  0.39999999674E+01  0.40000000000E+01  0.51100000000E-03 0. -1.
    9000002   -1    0    0    0    0 -0.00000000000E+00 -0.00000000000E+00  0.00000000000E+00  0.93800000000E+00  0.93800000000E+00 0.  1.
         11    1    1    2    0    0 -0.11322980404E-01 -0.13582674190E-02  0.16173968760E+00  0.16214204403E+00  0.51100000000E-03 0. -1.
    9000002    1    1    2    0    0  0.24393412633E+00  0.10168451020E+00  0.46482140388E-01  0.97562707372E+00  0.93800000000E+00 0.  1.
         22    1    1    2    0    0 -0.23261114592E+00 -0.10032624278E+00  0.37917781394E+01  0.38002308822E+01  0.00000000000E+00 0. -1.
</event>
<event>
 5    1  0.1461556E+002  0.1596725E+01  0.7818608E-02  0.3356925E+00
         11   -1    0    0    0    0  0.00000000000E+00  0.00000000000E+00  0.39999999674E+01  0.40000000000E+01  0.51100000000E-03 0.  1.
    9000002   -1    0    0    0    0 -0.00000000000E+00 -0.00000000000E+00  0.00000000000E+00  0.93800000000E+00  0.93800000000E+00 0.  1.
         11    1    1    2    0    0 -0.67105871866E-02 -0.11348301119E-01  0.43787538059E-01  0.45732106107E-01  0.51100000000E-03 0.  1.
    9000002    1    1    2    0    0  0.26230592165E+00 -0.17505009726E+00  0.68772806698E-01  0.99197814090E+00  0.93800000000E+00 0.  1.
         22    1    1    2    0    0 -0.25559533447E+00  0.18639839837E+00  0.38874396226E+01  0.39002897530E+01  0.00000000000E+00 0.  1.
</event>
<event>
 5    1  0.1461556E+002  0.1598118E+01  0.7818608E-02  0.3355409E+00
         11   -1    0    0    0    0  0.00000000000E+00  0.00000000000E+00  0.39999999674E+01  0.40000000000E+01  0.51100000000E-03 0. -1.
    9000002   -1    0    0    0    0 -0.00000000000E+00 -0.00000000000E+00  0.00000000000E+00  0.93800000000E+00  0.93800000000E+00 0. -1.
         11    1    1    2    0    0  0.49023746265E+00  0.16900711572E+00  0.27243873714E+01  0.27732982143E+01  0.51100000000E-03 0. -1.
    9000002    1    1    2    0    0 -0.70319399788E+00 -0.21172345521E+00  0.39098875035E+00  0.12538041406E+01  0.93800000000E+00 0. -1.
         22    1    1    2    0    0  0.21295653524E+00  0.42716339490E-01  0.88462384565E+00  0.91089764510E+00  0.00000000000E+00 0. -1.
</event>
<event>
 5    1  0.1461556E+002  0.1599669E+01  0.7818608E-02  0.3353723E+00
         11   -1    0    0    0    0  0.00000000000E+00  0.00000000000E+00  0.39999999674E+01  0.40000000000E+01  0.51100000000E-03 0.  1.
    9000002   -1    0    0    0    0 -0.00000000000E+00 -0.00000000000E+00  0.00000000000E+00  0.93800000000E+00  0.93800000000E+00 0.  1.
         11    1    1    2    0    0 -0.83197430278E-01  0.14058616551E+00  0.15501796652E+01  0.15587634644E+01  0.51100000000E-03 0.  1.
    9000002    1    1    2    0    0  0.21513016328E+00 -0.35709550965E+00  0.11749780796E+00  0.10331737148E+01  0.93800000000E+00 0.  1.
         22    1    1    2    0    0 -0.13193273300E+00  0.21650934414E+00  0.23323224942E+01  0.23460628208E+01  0.00000000000E+00 0.  1.
</event>
<event>
 5    1  0.1461556E+002  0.1582399E+01  0.7818608E-02  0.3372691E+00
         11   -1    0    0    0    0  0.00000000000E+00  0.00000000000E+00  0.39999999674E+01  0.40000000000E+01  0.51100000000E-03 0.  1.
    9000002   -1    0    0    0    0 -0.00000000000E+00 -0.00000000000E+00  0.00000000000E+00  0.93800000000E+00  0.93800000000E+00 0.  1.
         11    1    1    2    0    0  0.79517827272E-01  0.52160944292E+00  0.19356357678E+01  0.20062615938E+01  0.51100000000E-03 0.  1.
    9000002    1    1    2    0    0 -0.32300460342E+00 -0.72287597151E+00  0.48294535434E+00  0.13190761385E+01  0.93800000000E+00 0.  1.
         22    1    1    2    0    0  0.24348677615E+00  0.20126652859E+00  0.15814188452E+01  0.16126622677E+01  0.00000000000E+00 0.  1.
</event>
<event>
 5    1  0.1461556E+002  0.1599675E+01  0.7818608E-02  0.3353716E+00
         11   -1    0    0    0    0  0.00000000000E+00  0.00000000000E+00  0.39999999674E+01  0.40000000000E+01  0.51100000000E-03 0. -1.
    9000002   -1    0    0    0    0 -0.00000000000E+00 -0.00000000000E+00  0.00000000000E+00  0.93800000000E+00  0.93800000000E+00 0.  1.
         11    1    1    2    0    0 -0.20510751062E-01  0.21994790344E-01  0.47581917813E+00  0.47676893052E+00  0.51100000000E-03 0. -1.
    9000002    1    1    2    0    0  0.17817033775E+00 -0.18294129949E+00  0.43339061678E-01  0.97310557628E+00  0.93800000000E+00 0.  1.
         22    1    1    2    0    0 -0.15765958668E+00  0.16094650914E+00  0.34808417276E+01  0.34881254932E+01  0.00000000000E+00 0. -1.
</event>
<event>
 5    1  0.1461556E+002  0.1599650E+01  0.7818608E-02  0.3353743E+00
         11   -1    0    0    0    0  0.00000000000E+00  0.00000000000E+00  0.39999999674E+01  0.40000000000E+01  0.51100000000E-03 0. -1.
    9000002   -1    0    0    0    0 -0.00000000000E+00 -0.00000000000E+00  0.00000000000E+00  0.93800000000E+00  0.93800000000E+00 0.  1.
         11    1    1    2    0    0  0.20158786133E+00  0.26016399376E+00  0.21073990273E+01  0.21329448869E+01  0.51100000000E-03 0. -1.
    9000002    1    1    2    0    0 -0.35151442113E+00 -0.47153049273E+00  0.24075963038E+00  0.11330104119E+01  0.93800000000E+00 0.  1.
         22    1    1    2    0    0  0.14992655980E+00  0.21136649897E+00  0.16518413097E+01  0.16720447012E+01  0.00000000000E+00 0. -1.
</event>
<event>
 5    1  0.1461556E+002  0.1553969E+01  0.7818608E-02  0.3404891E+00
         11   -1    0    0    0    0  0.00000000000E+00  0.00000000000E+00  0.39999999674E+01  0.40000000000E+01  0.51100000000E-03 0. -1.
    9000002   -1    0    0    0    0 -0.00000000000E+00 -0.00000000000E+00  0.00000000000E+00  0.93800000000E+00  0.93800000000E+00 0. -1.
         11    1    1    2    0    0  0.61554313618E-01 -0.18797863389E+00  0.38497261626E+00  0.43281529169E+00  0.51100000000E-03 0. -1.
    9000002    1    1    2    0    0 -0.39619297791E+00  0.28325499839E+00  0.20394282769E+00  0.10764009229E+01  0.93800000000E+00 0. -1.
         22    1    1    2    0    0  0.33463866429E+00 -0.95276364497E-01  0.34110845234E+01  0.34287837854E+01  0.00000000000E+00 0. -1.
</event>
<event>
 5    1  0.1461556E+002  0.1599676E+01  0.7818608E-02  0.3353715E+00
         11   -1    0    0    0    0  0.00000000000E+00  0.00000000000E+00  0.39999999674E+01  0.40000000000E+01  0.51100000000E-03 0. -1.
    9000002   -1    0    0    0    0 -0.00000000000E+00 -0.00000000000E+00  0.00000000000E+00  0.93800000000E+00  0.93800000000E+00 0. -1.
         11    1    1    2    0    0  0.76022157956E-02  0.18659260175E+00  0.14452742111E+01  0.14572894013E+01  0.51100000000E-03 0. -1.
    9000002    1    1    2    0    0 -0.19180917166E-01 -0.49172969620E+00  0.16555986883E+00  0.10721101025E+01  0.93800000000E+00 0. -1.
         22    1    1    2    0    0  0.11578701370E-01  0.30513709445E+00  0.23891658874E+01  0.24086004962E+01  0.00000000000E+00 0.  1.
</event>
<event>
 5    1  0.1461556E+002  0.1599664E+01  0.7818608E-02  0.3353728E+00
         11   -1    0    0    0    0  0.00000000000E+00  0.00000000000E+00  0.39999999674E+01  0.40000000000E+01  0.51100000000E-03 0.  1.
    9000002   -1    0    0    0    0 -0.00000000000E+00 -0.00000000000E+00  0.00000000000E+00  0.93800000000E+00  0.93800000000E+00 0. -1.
         11    1    1    2    0    0  0.32924704776E-01 -0.14536470411E+00  0.13052183449E+01  0.13137009258E+01  0.51100000000E-03 0.  1.
    9000002    1    1    2    0    0 -0.99272599354E-01  0.44196710511E+00  0.13943441686E+00  0.10509404967E+01  0.93800000000E+00 0. -1.
         22    1    1    2    0    0  0.66347894578E-01 -0.29660240100E+00  0.25553472056E+01  0.25733585775E+01  0.00000000000E+00 0.  1.
</event>
<event>
 5    1  0.1461556E+002  0.1599663E+01  0.7818608E-02  0.3353730E+00
         11   -1    0    0    0    0  0.00000000000E+00  0.00000000000E+00  0.39999999674E+01  0.40000000000E+01  0.51100000000E-03 0.  1.
    9000002   -1    0    0    0    0 -0.00000000000E+00 -0.00000000000E+00  0.00000000000E+00  0.93800000000E+00  0.93800000000E+00 0. -1.
         11    1    1    2    0    0 -0.11801033140E+00  0.39647512923E-01  0.13159602824E+01  0.13218358784E+01  0.51100000000E-03 0.  1.
    9000002    1    1    2    0    0  0.35652667304E+00 -0.12862978356E+00  0.96658440776E-01  0.10162892029E+01  0.93800000000E+00 0. -1.
         22    1    1    2    0    0 -0.23851634164E+00  0.88982270638E-01  0.25873812442E+01  0.25998749186E+01  0.00000000000E+00 0. -1.
</event>
<event>
 5    1  0.3146473E+002  0.1572047E+01  0.7818608E-02  0.3384273E+00
         11   -1    0    0    0    0  0.00000000000E+00  0.00000000000E+00  0.39999999674E+01  0.40000000000E+01  0.51100000000E-03 0. -1.
    9000002   -1    0    0    0    0 -0.00000000000E+00 -0.00000000000E+00  0.00000000000E+00  0.93800000000E+00  0.93800000000E+00 0. -1.
         11    1    1    2    0    0  0.89308077892E-01  0.15303291604E+00  0.25530480960E+01  0.25591892950E+01  0.51100000000E-03 0. -1.
    9000002    1    1    2    0    0  0.24997899813E-02  0.24952030783E-01  0.20696256856E-01  0.93856336378E+00  0.93800000000E+00 0. -1.
         22    1    1    2    0    0 -0.91807867873E-01 -0.17798494682E+00  0.14262556145E+01  0.14402473412E+01  0.00000000000E+00 0. -1.
</event>
<event>
 5    1  0.1461556E+002  0.1521671E+01  0.7818608E-02  0.3443028E+00
         11   -1    0    0    0    0  0.00000000000E+00  0.00000000000E+00  0.39999999674E+01  0.40000000000E+01  0.51100000000E-03 0.  1.
    9000002   -1    0    0    0    0 -0.00000000000E+00 -0.00000000000E+00  0.00000000000E+00  0.93800000000E+00  0.93800000000E+00 0.  1.
         11    1    1    2    0    0 -0.25064396461E+00 -0.11180562389E+00  0.13190489696E+01  0.13472985341E+01  0.51100000000E-03 0.  1.
    9000002    1    1    2    0    0 -0.19945585823E+00  0.31543758430E+00  0.16038582686E+00  0.10221795940E+01  0.93800000000E+00 0.  1.
         22    1    1    2    0    0  0.45009982284E+00 -0.20363196041E+00  0.25205651709E+01  0.25685218719E+01  0.00000000000E+00 0.  1.
</event>
<event>
 5    1  0.1461556E+002  0.1599655E+01  0.7818608E-02  0.3353737E+00
         11   -1    0    0    0    0  0.00000000000E+00  0.00000000000E+00  0.39999999674E+01  0.40000000000E+01  0.51100000000E-03 0.  1.
    9000002   -1    0    0    0    0 -0.00000000000E+00 -0.00000000000E+00  0.00000000000E+00  0.93800000000E+00  0.93800000000E+00 0. -1.
         11    1    1    2    0    0 -0.36449963736E-02 -0.13388290008E-02  0.76107781178E-01  0.76208489937E-01  0.51100000000E-03 0.  1.
    9000002    1    1    2    0    0  0.26459864998E+00  0.62466984825E-01  0.49203535245E-01  0.97784434224E+00  0.93800000000E+00 0. -1.
         22    1    1    2    0    0 -0.26095365361E+00 -0.61128155824E-01  0.38746886509E+01  0.38839471678E+01  0.00000000000E+00 0.  1.
</event>
<event>
 5    1  0.1461556E+002  0.1599677E+01  0.7818608E-02  0.3353714E+00
         11   -1    0    0    0    0  0.00000000000E+00  0.00000000000E+00  0.39999999674E+01  0.40000000000E+01  0.51100000000E-03 0. -1.
    9000002   -1    0    0    0    0 -0.00000000000E+00 -0.00000000000E+00  0.00000000000E+00  0.93800000000E+00  0.93800000000E+00 0.  1.
         11    1    1    2    0    0  0.65447271493E-01 -0.88195509736E-01  0.90879119888E+00  0.91540346163E+00  0.51100000000E-03 0. -1.
    9000002    1    1    2    0    0 -0.27696288719E+00  0.37536757584E+00  0.14816473799E+00  0.10580198710E+01  0.93800000000E+00 0.  1.
         22    1    1    2    0    0  0.21151561569E+00 -0.28717206610E+00  0.29430440305E+01  0.29645766674E+01  0.00000000000E+00 0. -1.
</event>
<event>
 5    1  0.1461556E+002  0.1585400E+01  0.7818608E-02  0.3369364E+00
         11   -1    0    0    0    0  0.00000000000E+00  0.00000000000E+00  0.39999999674E+01  0.40000000000E+01  0.51100000000E-03 0. -1.
    9000002   -1    0    0    0    0 -0.00000000000E+00 -0.00000000000E+00  0.00000000000E+00  0.93800000000E+00  0.93800000000E+00 0. -1.
         11    1    1    2    0    0  0.35236526319E-02  0.36195116912E-01  0.46067258969E-01  0.58693748271E-01  0.51100000000E-03 0. -1.
    9000002    1    1    2    0    0 -0.10600568695E+00 -0.25399576301E+00  0.61542808619E-01  0.97948076581E+00  0.93800000000E+00 0. -1.
         22    1    1    2    0    0  0.10248203432E+00  0.21780064610E+00  0.38923898998E+01  0.38998254859E+01  0.00000000000E+00 0. -1.
</event>
<event>
 5    1  0.1461556E+002  0.1599669E+01  0.7818608E-02  0.3353723E+00
         11   -1    0    0    0    0  0.00000000000E+00  0.00000000000E+00  0.39999999674E+01  0.40000000000E+01  0.51100000000E-03 0. -1.
    9000002   -1    0    0    0    0 -0.00000000000E+00 -0.00000000000E+00  0.00000000000E+00  0.93800000000E+00  0.93800000000E+00 0.  1.
         11    1    1    2    0    0  0.45133149551E-02 -0.94737808092E-02  0.17057169276E+00  0.17089495611E+00  0.51100000000E-03 0.  1.
    9000002    1    1    2    0    0 -0.74468962661E-01  0.22022622051E+00  0.35861485356E-01  0.96704460121E+00  0.93800000000E+00 0.  1.
         22    1    1    2    0    0  0.69955647706E-01 -0.21075243970E+00  0.37935667892E+01  0.38000604427E+01  0.00000000000E+00 0. -1.
</event>
<event>
 5    1  0.1461556E+002  0.1599627E+01  0.7818608E-02  0.3353769E+00
         11   -1    0    0    0    0  0.00000000000E+00  0.00000000000E+00  0.39999999674E+01  0.40000000000E+01  0.51100000000E-03 0. -1.
    9000002   -1    0    0    0    0 -0.00000000000E+00 -0.00000000000E+00  0.00000000000E+00  0.93800000000E+00  0.93800000000E+00 0. -1.
         11    1    1    2    0    0  0.16076042895E-01  0.29336586926E-01  0.21500293575E+00  0.21759043634E+00  0.51100000000E-03 0. -1.
    9000002    1    1    2    0    0 -0.21425627247E+00 -0.52697407282E+00  0.22438474606E+00  0.11197320831E+01  0.93800000000E+00 0. -1.
         22    1    1    2    0    0  0.19818022958E+00  0.49763748590E+00  0.35606122855E+01  0.36006774805E+01  0.00000000000E+00 0. -1.
</event>
<event>
 5    1  0.1461556E+002  0.1503768E+01  0.7818608E-02  0.3464924E+00
         11   -1    0    0    0    0  0.00000000000E+00  0.00000000000E+00  0.39999999674E+01  0.40000000000E+01  0.51100000000E-03 0. -1.
    9000002   -1    0    0    0    0 -0.00000000000E+00 -0.00000000000E+00  0.00000000000E+00  0.93800000000E+00  0.93800000000E+00 0. -1.
         11    1    1    2    0    0  0.51761034006E+00 -0.30106619376E+00  0.22790684527E+01  0.23564198672E+01  0.51100000000E-03 0. -1.
    9000002    1    1    2    0    0 -0.28810421028E+00  0.29847611661E+00  0.20192035060E+00  0.10453266744E+01  0.93800000000E+00 0. -1.
         22    1    1    2    0    0 -0.22950612977E+00  0.25900771467E-02  0.15190111640E+01  0.15362534584E+01  0.00000000000E+00 0. -1.
</event>
<event>
 5    1  0.1461556E+002  0.1592909E+01  0.7818608E-02  0.3361096E+00
         11   -1    0    0    0    0  0.00000000000E+00  0.00000000000E+00  0.39999999674E+01  0.40000000000E+01  0.51100000000E-03 0. -1.
    9000002   -1    0    0    0    0 -0.00000000000E+00 -0.00000000000E+00  0.00000000000E+00  0.93800000000E+00  0.93800000000E+00 0.  1.
         11    1    1    2    0    0 -0.67982830943E-02  0.14925305866E-01  0.34990119955E-01  0.38646487857E-01  0.51100000000E-03 0. -1.
    9000002    1    1    2    0    0 -0.92662504726E-01  0.26633932115E+00  0.58232872405E-01  0.98120234468E+00  0.93800000000E+00 0.  1.
         22    1    1    2    0    0  0.99460787820E-01 -0.28126462701E+00  0.39067769750E+01  0.39181511675E+01  0.00000000000E+00 0. -1.
</event>
<event>
 5    1  0.1461556E+002  0.1598987E+01  0.7818608E-02  0.3354464E+00
         11   -1    0    0    0    0  0.00000000000E+00  0.00000000000E+00  0.39999999674E+01  0.40000000000E+01  0.51100000000E-03 0. -1.
    9000002   -1    0    0    0    0 -0.00000000000E+00 -0.00000000000E+00  0.00000000000E+00  0.93800000000E+00  0.93800000000E+00 0.  1.
         11    1    1    2    0    0 -0.32533999403E-01 -0.14113980635E+00  0.92632856791E+00  0.93758401379E+00  0.51100000000E-03 0. -1.
    9000002    1    1    2    0    0  0.34052892034E-01  0.52905618965E+00  0.19405493899E+00  0.10947882766E+01  0.93800000000E+00 0.  1.
         22    1    1    2    0    0 -0.15188926306E-02 -0.38791638330E+00  0.28796164605E+01  0.29056277096E+01  0.00000000000E+00 0. -1.
</event>
<event>
 5    1  0.1461556E+002  0.1599676E+01  0.7818608E-02  0.3353715E+00
         11   -1    0    0    0    0  0.00000000000E+00  0.00000000000E+00  0.39999999674E+01  0.40000000000E+01  0.51100000000E-03 0. -1.
    9000002   -1    0    0    0    0 -0.00000000000E+00 -0.00000000000E+00  0.00000000000E+00  0.93800000000E+00  0.93800000000E+00 0.  1.
         11    1    1    2    0    0  0.36530922991E-01  0.82333036220E-01  0.10490497717E+01  0.10529097406E+01  0.51100000000E-03 0. -1.
    9000002    1    1    2    0    0 -0.13293252023E+00 -0.30869310567E+00  0.75629802308E-01  0.99926290606E+00  0.93800000000E+00 0.  1.
         22    1    1    2    0    0  0.96401597235E-01  0.22636006945E+00  0.28753203933E+01  0.28858273533E+01  0.00000000000E+00 0. -1.
</event>
<event>
 5    1  0.1461556E+002  0.1599672E+01  0.7818608E-02  0.3353719E+00
         11   -1    0    0    0    0  0.00000000000E+00  0.00000000000E+00  0.39999999674E+01  0.40000000000E+01  0.51100000000E-03 0.  1.
    9000002   -1    0    0    0    0 -0.00000000000E+00 -0.00000000000E+00  0.00000000000E+00  0.93800000000E+00  0.93800000000E+00 0.  1.
         11    1    1    2    0    0  0.13517997701E+00  0.21298820019E-01  0.15106748452E+01  0.15168605786E+01  0.51100000000E-03 0.  1.
    9000002    1    1    2    0    0 -0.35660374675E+00 -0.56291104185E-01  0.87502859403E-01  0.10088784223E+01  0.93800000000E+00 0.  1.
         22    1    1    2    0    0  0.22142376975E+00  0.34992284166E-01  0.24018222627E+01  0.24122609990E+01  0.00000000000E+00 0.  1.
</event>
<event>
 5    1  0.1461556E+002  0.1599020E+01  0.7818608E-02  0.3354428E+00
         11   -1    0    0    0    0  0.00000000000E+00  0.00000000000E+00  0.39999999674E+01  0.40000000000E+01  0.51100000000E-03 0. -1.
    9000002   -1    0    0    0    0 -0.00000000000E+00 -0.00000000000E+00  0.00000000000E+00  0.93800000000E+00  0.93800000000E+00 0. -1.
         11    1    1    2    0    0  0.42431133145E-01  0.46427772581E-01  0.64794252763E+00  0.65098826361E+00  0.51100000000E-03 0. -1.
    9000002    1    1    2    0    0 -0.34190105414E+00 -0.37636687674E+00  0.17784202249E+00  0.10816746931E+01  0.93800000000E+00 0. -1.
         22    1    1    2    0    0  0.29946992100E+00  0.32993910416E+00  0.31742154172E+01  0.32053370433E+01  0.00000000000E+00 0. -1.
</event>
<event>
 5    1  0.1461556E+002  0.1598615E+01  0.7818608E-02  0.3354867E+00
         11   -1    0    0    0    0  0.00000000000E+00  0.00000000000E+00  0.39999999674E+01  0.40000000000E+01  0.51100000000E-03 0. -1.
    9000002   -1    0    0    0    0 -0.00000000000E+00 -0.00000000000E+00  0.00000000000E+00  0.93800000000E+00  0.93800000000E+00 0.  1.
         11    1    1    2    0    0 -0.12404624787E+00  0.16549101156E+00  0.17979016081E+01  0.18097583264E+01  0.51100000000E-03 0. -1.
    9000002    1    1    2    0    0  0.19422067225E+00 -0.39843446984E+00  0.13422138859E+00  0.10461028044E+01  0.93800000000E+00 0.  1.
         22    1    1    2    0    0 -0.70174424375E-01  0.23294345828E+00  0.20678769707E+01  0.20821388691E+01  0.00000000000E+00 0. -1.
</event>
<event>
 5    1  0.1461556E+002  0.1592378E+01  0.7818608E-02  0.3361678E+00
         11   -1    0    0    0    0  0.00000000000E+00  0.00000000000E+00  0.39999999674E+01  0.40000000000E+01  0.51100000000E-03 0.  1.
    9000002   -1    0    0    0    0 -0.00000000000E+00 -0.00000000000E+00  0.00000000000E+00  0.93800000000E+00  0.93800000000E+00 0.  1.
         11    1    1    2    0    0 -0.57597469106E-01 -0.44995799337E-02  0.16051141061E+01  0.16061535635E+01  0.51100000000E-03 0.  1.
    9000002    1    1    2    0    0 -0.19531177775E-01  0.20102541744E+00  0.32502689790E-01  0.96004849367E+00  0.93800000000E+00 0.  1.
         22    1    1    2    0    0  0.77128646881E-01 -0.19652583751E+00  0.23623831715E+01  0.23717979429E+01  0.00000000000E+00 0.  1.
</event>
<event>
 5    1  0.1461556E+002  0.1580348E+01  0.7818608E-02  0.3374974E+00
         11   -1    0    0    0    0  0.00000000000E+00  0.00000000000E+00  0.39999999674E+01  0.40000000000E+01  0.51100000000E-03 0.  1.
    9000002   -1    0    0    0    0 -0.00000000000E+00 -0.00000000000E+00  0.00000000000E+00  0.93800000000E+00  0.93800000000E+00 0.  1.
         11    1    1    2    0    0  0.50195988470E-02 -0.95418101478E-01  0.25969219117E+00  0.27671303861E+00  0.51100000000E-03 0.  1.
    9000002    1    1    2    0    0  0.43017055928E+00  0.25244652795E+00  0.18787009902E+00  0.10788489856E+01  0.93800000000E+00 0.  1.
         22    1    1    2    0    0 -0.43519015812E+00 -0.15702842647E+00  0.35524376772E+01  0.35824379758E+01  0.00000000000E+00 0.  1.
</event>
<event>
 5    1  0.1461556E+002  0.1599677E+01  0.7818608E-02  0.3353714E+00
         11   -1    0    0    0    0  0.00000000000E+00  0.00000000000E+00  0.39999999674E+01  0.40000000000E+01  0.51100000000E-03 0.  1.
    9000002   -1    0    0    0    0 -0.00000000000E+00 -0.00000000000E+00  0.00000000000E+00  0.93800000000E+00  0.93800000000E+00 0.  1.
         11    1    1    2    0    0  0.23353560185E-02  0.41508535063E+00  0.22163588670E+01  0.22548942748E+01  0.51100000000E-03 0.  1.
    9000002    1    1    2    0    0 -0.42149457073E-02 -0.68615318480E+00  0.33525562060E+00  0.12095719449E+01  0.93800000000E+00 0.  1.
         22    1    1    2    0    0  0.18795896888E-02  0.27106783417E+00  0.14483854798E+01  0.14735337803E+01  0.00000000000E+00 0.  1.
</event>
<event>
 5    1  0.1461556E+002  0.1599617E+01  0.7818608E-02  0.3353779E+00
         11   -1    0    0    0    0  0.00000000000E+00  0.00000000000E+00  0.39999999674E+01  0.40000000000E+01  0.51100000000E-03 0.  1.
    9000002   -1    0    0    0    0 -0.00000000000E+00 -0.00000000000E+00  0.00000000000E+00  0.93800000000E+00  0.93800000000E+00 0.  1.
         11    1    1    2    0    0  0.19322164039E-02  0.36810109949E-01  0.49470467806E+00  0.49607630186E+00  0.51100000000E-03 0.  1.
    9000002    1    1    2    0    0 -0.62773163585E-01 -0.30569631353E+00  0.65092537909E-01  0.99069255809E+00  0.93800000000E+00 0.  1.
         22    1    1    2    0    0  0.60840947181E-01  0.26888620358E+00  0.34402027514E+01  0.34512311400E+01  0.00000000000E+00 0.  1.
</event>
<event>
 5    1  0.1461556E+002  0.1598622E+01  0.7818608E-02  0.3354861E+00
         11   -1    0    0    0    0  0.00000000000E+00  0.00000000000E+00  0.39999999674E+01  0.40000000000E+01  0.51100000000E-03 0.  1.
    9000002   -1    0    0    0    0 -0.00000000000E+00 -0.00000000000E+00  0.00000000000E+00  0.93800000000E+00  0.93800000000E+00 0.  1.
         11    1    1    2    0    0  0.58933699908E-01  0.66134678747E-01  0.60353652579E+00  0.61000293098E+00  0.51100000000E-03 0.  1.
    9000002    1    1    2    0    0 -0.21170177337E+00 -0.35171201776E+00  0.11471046082E+00  0.10303016423E+01  0.93800000000E+00 0.  1.
         22    1    1    2    0    0  0.15276807346E+00  0.28557733901E+00  0.32817529807E+01  0.32976954267E+01  0.00000000000E+00 0.  1.
</event>
<event>
 5    1  0.1461556E+002  0.1594129E+01  0.7818608E-02  0.3359760E+00
         11   -1    0    0    0    0  0.00000000000E+00  0.00000000000E+00  0.39999999674E+01  0.40000000000E+01  0.51100000000E-03 0. -1.
    9000002   -1    0    0    0    0 -0.00000000000E+00 -0.00000000000E+00  0.00000000000E+00  0.93800000000E+00  0.93800000000E+00 0.  1.
         11    1    1    2    0    0 -0.19808031375E+00  0.45019529132E-01  0.57919332092E+00  0.61378150251E+00  0.51100000000E-03 0. -1.
    9000002    1    1    2    0    0  0.87851657693E+00  0.22438328416E-01  0.59414888395E+00  0.14160338099E+01  0.93800000000E+00 0.  1.
         22    1    1    2    0    0 -0.68043626319E+00 -0.67457857548E-01  0.28266577625E+01  0.29081846876E+01  0.00000000000E+00 0. -1.
</event>
<event>
 5    1  0.1461556E+002  0.1583977E+01  0.7818608E-02  0.3370940E+00
         11   -1    0    0    0    0  0.00000000000E+00  0.00000000000E+00  0.39999999674E+01  0.40000000000E+01  0.51100000000E-03 0. -1.
    9000002   -1    0    0    0    0 -0.00000000000E+00 -0.00000000000E+00  0.00000000000E+00  0.93800000000E+00  0.93800000000E+00 0.  1.
         11    1    1    2    0    0  0.53380526859E-01  0.58300612337E-01  0.16349863004E+01  0.16368961194E+01  0.51100000000E-03 0. -1.
    9000002    1    1    2    0    0  0.19744961259E+00  0.95400102558E-02  0.37716088640E-01  0.95934553976E+00  0.93800000000E+00 0.  1.
         22    1    1    2    0    0 -0.25083013944E+00 -0.67840622593E-01  0.23272975783E+01  0.23417583409E+01  0.00000000000E+00 0. -1.
</event>
<event>
 5    1  0.2381051E+002  0.1577047E+01  0.7818608E-02  0.3378659E+00
         11   -1    0    0    0    0  0.00000000000E+00  0.00000000000E+00  0.39999999674E+01  0.40000000000E+01  0.51100000000E-03 0.  1.
    9000002   -1    0    0    0    0 -0.00000000000E+00 -0.00000000000E+00  0.00000000000E+00  0.93800000000E+00  0.93800000000E+00 0. -1.
         11    1    1    2    0    0 -0.80683653847E-01  0.13974384648E+00  0.17332568379E+01  0.17407520564E+01  0.51100000000E-03 0.  1.
    9000002    1    1    2    0    0 -0.45846743874E-01  0.20371839188E-01  0.18255364028E-01  0.93951806479E+00  0.93800000000E+00 0. -1.
         22    1    1    2    0    0  0.12653039772E+00 -0.16011568567E+00  0.22484877654E+01  0.22577298788E+01  0.00000000000E+00 0.  1.
</event>
<event>
 5    1  0.1461556E+002  0.1593582E+01  0.7818608E-02  0.3360359E+00
         11   -1    0    0    0    0  0.00000000000E+00  0.00000000000E+00  0.39999999674E+01  0.40000000000E+01  0.51100000000E-03 0.  1.
    9000002   -1    0    0    0    0 -0.00000000000E+00 -0.00000000000E+00  0.00000000000E+00  0.93800000000E+00  0.93800000000E+00 0.  1.
         11    1    1    2    0    0 -0.42158116701E-01 -0.10303448394E-02  0.30693624337E+00  0.30982008816E+00  0.51100000000E-03 0.  1.
    9000002    1    1    2    0    0 -0.57111346914E-02  0.35961076055E+00  0.91779864039E-01  0.10087715597E+01  0.93800000000E+00 0.  1.
         22    1    1    2    0    0  0.47869251392E-01 -0.35858041571E+00  0.36012838600E+01  0.36194083522E+01  0.00000000000E+00 0.  1.
</event>
<event>
 5    1  0.1461556E+002  0.1599623E+01  0.7818608E-02  0.3353772E+00
         11   -1    0    0    0    0  0.00000000000E+00  0.00000000000E+00  0.39999999674E+01  0.40000000000E+01  0.51100000000E-03 0.  1.
    9000002   -1    0    0    0    0 -0.00000000000E+00 -0.00000000000E+00  0.00000000000E+00  0.93800000000E+00  0.93800000000E+00 0.  1.
         11    1    1    2    0    0  0.93113455412E-01 -0.11252930216E+00  0.15442919493E+01  0.15511836916E+01  0.51100000000E-03 0.  1.
    9000002    1    1    2    0    0 -0.21532478300E+00  0.27867926945E+00  0.83224537440E-01  0.10053841162E+01  0.93800000000E+00 0.  1.
         22    1    1    2    0    0  0.12221132759E+00 -0.16614996728E+00  0.23724834806E+01  0.23814321922E+01  0.00000000000E+00 0.  1.
</event>
<event>
 5    1  0.1461556E+002  0.1586674E+01  0.7818608E-02  0.3367955E+00
         11   -1    0    0    0    0  0.00000000000E+00  0.00000000000E+00  0.39999999674E+01  0.40000000000E+01  0.51100000000E-03 0. -1.
    9000002   -1    0    0    0    0 -0.00000000000E+00 -0.00000000000E+00  0.00000000000E+00  0.93800000000E+00  0.93800000000E+00 0.  1.
         11    1    1    2    0    0  0.10123284723E+00 -0.15478531037E-01  0.14130948001E+01  0.14168009209E+01  0.51100000000E-03 0. -1.
    9000002    1    1    2    0    0  0.39984830915E-01  0.21929222839E+00  0.42834400363E-01  0.96507339306E+00  0.93800000000E+00 0.  1.
         22    1    1    2    0    0 -0.14121767814E+00 -0.20381369735E+00  0.25440707669E+01  0.25561256860E+01  0.00000000000E+00 0. -1.
</event>
<event>
 5    1  0.1461556E+002  0.1599008E+01  0.7818608E-02  0.3354441E+00
         11   -1    0    0    0    0  0.00000000000E+00  0.00000000000E+00  0.39999999674E+01  0.40000000000E+01  0.51100000000E-03 0.  1.
    9000002   -1    0    0    0    0 -0.00000000000E+00 -0.00000000000E+00  0.00000000000E+00  0.93800000000E+00  0.93800000000E+00 0. -1.
         11    1    1    2    0    0 -0.19988987769E+00 -0.35461035359E-02  0.12046011374E+01  0.12210784984E+01  0.51100000000E-03 0.  1.
    9000002    1    1    2    0    0  0.55474596692E+00  0.66502921875E-01  0.21661164242E+00  0.11130724730E+01  0.93800000000E+00 0. -1.
         22    1    1    2    0    0 -0.35485608922E+00 -0.62956818340E-01  0.25787871876E+01  0.26038490286E+01  0.00000000000E+00 0.  1.
</event>
<event>
 5    1  0.1461556E+002  0.1599429E+01  0.7818608E-02  0.3353984E+00
         11   -1    0    0    0    0  0.00000000000E+00  0.00000000000E+00  0.39999999674E+01  0.40000000000E+01  0.51100000000E-03 0.  1.
    9000002   -1    0    0    0    0 -0.00000000000E+00 -0.00000000000E+00  0.00000000000E+00  0.93800000000E+00  0.93800000000E+00 0.  1.
         11    1    1    2    0    0 -0.19709646260E-01 -0.37413101708E-01  0.27602251620E+00  0.27924344380E+00  0.51100000000E-03 0.  1.
    9000002    1    1    2    0    0  0.38410519934E+00  0.55524587872E+00  0.32393344219E+00  0.12002548333E+01  0.93800000000E+00 0.  1.
         22    1    1    2    0    0 -0.36439555308E+00 -0.51783277702E+00  0.34000440090E+01  0.34585017229E+01  0.00000000000E+00 0.  1.
</event>
<event>
 5    1  0.1461556E+002  0.1599637E+01  0.7818608E-02  0.3353758E+00
         11   -1    0    0    0    0  0.00000000000E+00  0.00000000000E+00  0.39999999674E+01  0.40000000000E+01  0.51100000000E-03 0.  1.
    9000002   -1    0    0    0    0 -0.00000000000E+00 -0.00000000000E+00  0.00000000000E+00  0.93800000000E+00  0.93800000000E+00 0.  1.
         11    1    1    2    0    0 -0.25820180814E+00 -0.22788277987E+00  0.21844798863E+01  0.22114591043E+01  0.51100000000E-03 0.  1.
    9000002    1    1    2    0    0  0.44030023053E+00  0.40389728437E+00  0.24898333685E+00  0.11396639905E+01  0.93800000000E+00 0.  1.
         22    1    1    2    0    0 -0.18209842239E+00 -0.17601450450E+00  0.15665367442E+01  0.15868769051E+01  0.00000000000E+00 0. -1.
</event>
<event>
 5    1  0.1461556E+002  0.1599677E+01  0.7818608E-02  0.3353714E+00
         11   -1    0    0    0    0  0.00000000000E+00  0.00000000000E+00  0.39999999674E+01  0.40000000000E+01  0.51100000000E-03 0.  1.
    9000002   -1    0    0    0    0 -0.00000000000E+00 -0.00000000000E+00  0.00000000000E+00  0.93800000000E+00  0.93800000000E+00 0.  1.
         11    1    1    2    0    0  0.64529309865E-01 -0.84544323950E-01  0.12776157581E+01  0.12820351247E+01  0.51100000000E-03 0. -1.
    9000002    1    1    2    0    0 -0.19854746851E+00  0.26156894398E+00  0.72141387329E-01  0.99643754921E+00  0.93800000000E+00 0.  1.
         22    1    1    2    0    0  0.13401815864E+00 -0.17702462003E+00  0.26502428219E+01  0.26595273261E+01  0.00000000000E+00 0.  1.
</event>
<event>
 5    1  0.1461556E+002  0.1599668E+01  0.7818608E-02  0.3353724E+00
         11   -1    0    0    0    0  0.00000000000E+00  0.00000000000E+00  0.39999999674E+01  0.40000000000E+01  0.51100000000E-03 0.  1.
    9000002   -1    0    0    0    0 -0.00000000000E+00 -0.00000000000E+00  0.00000000000E+00  0.93800000000E+00  0.93800000000E+00 0.  1.
         11    1    1    2    0    0 -0.14526054079E+00 -0.11152997238E+00  0.15374953807E+01  0.15483642551E+01  0.51100000000E-03 0.  1.
    9000002    1    1    2    0    0  0.35570181116E+00  0.27994047651E+00  0.13922095390E+00  0.10507696812E+01  0.93800000000E+00 0.  1.
         22    1    1    2    0    0 -0.21044127036E+00 -0.16841050414E+00  0.23232836327E+01  0.23388660638E+01  0.00000000000E+00 0.  1.
</event>
<event>
 5    1  0.1461556E+002  0.1598924E+01  0.7818608E-02  0.3354532E+00
         11   -1    0    0    0    0  0.00000000000E+00  0.00000000000E+00  0.39999999674E+01  0.40000000000E+01  0.51100000000E-03 0.  1.
    9000002   -1    0    0    0    0 -0.00000000000E+00 -0.00000000000E+00  0.00000000000E+00  0.93800000000E+00  0.93800000000E+00 0. -1.
         11    1    1    2    0    0  0.29414521731E-01  0.90248182661E-02  0.34354065966E+00  0.34491608747E+00  0.51100000000E-03 0.  1.
    9000002    1    1    2    0    0 -0.27738369324E+00  0.10146930018E+00  0.58760285398E-01  0.98515709574E+00  0.93800000000E+00 0. -1.
         22    1    1    2    0    0  0.24796917151E+00 -0.11049411845E+00  0.35976990223E+01  0.36079268168E+01  0.00000000000E+00 0.  1.
</event>
<event>
 5    1  0.1461556E+002  0.1591440E+01  0.7818608E-02  0.3362707E+00
         11   -1    0    0    0    0  0.00000000000E+00  0.00000000000E+00  0.39999999674E+01  0.40000000000E+01  0.51100000000E-03 0. -1.
    9000002   -1    0    0    0    0 -0.00000000000E+00 -0.00000000000E+00  0.00000000000E+00  0.93800000000E+00  0.93800000000E+00 0. -1.
         11    1    1    2    0    0  0.48716588996E-01  0.15492404439E+00  0.95608809192E+00  0.96978320577E+00  0.51100000000E-03 0. -1.
    9000002    1    1    2    0    0  0.43783622198E-01 -0.33510425707E+00  0.83094507441E-01  0.10004801676E+01  0.93800000000E+00 0. -1.
         22    1    1    2    0    0 -0.92500211195E-01  0.18018021268E+00  0.29608173680E+01  0.29677366266E+01  0.00000000000E+00 0. -1.
</event>
<event>
 5    1  0.1461556E+002  0.1599576E+01  0.7818608E-02  0.3353823E+00
         11   -1    0    0    0    0  0.00000000000E+00  0.00000000000E+00  0.39999999674E+01  0.40000000000E+01  0.51100000000E-03 0.  1.
    9000002   -1    0    0    0    0 -0.00000000000E+00 -0.00000000000E+00  0.00000000000E+00  0.93800000000E+00  0.93800000000E+00 0.  1.
         11    1    1    2    0    0  0.10733963344E+00 -0.14877277941E+00  0.15448567164E+01  0.15557113074E+01  0.51100000000E-03 0.  1.
    9000002    1    1    2    0    0 -0.23945720174E+00  0.36830805093E+00  0.13095864994E+00  0.10440233426E+01  0.93800000000E+00 0.  1.
         22    1    1    2    0    0  0.13211756830E+00 -0.21953527152E+00  0.23241846010E+01  0.23382653500E+01  0.00000000000E+00 0.  1.
</event>
<event>
 5    1  0.1461556E+002  0.1599588E+01  0.7818608E-02  0.3353811E+00
         11   -1    0    0    0    0  0.00000000000E+00  0.00000000000E+00  0.39999999674E+01  0.40000000000E+01  0.51100000000E-03 0. -1.
    9000002   -1    0    0    0    0 -0.00000000000E+00 -0.00000000000E+00  0.00000000000E+00  0.93800000000E+00  0.93800000000E+00 0.  1.
         11    1    1    2    0    0  0.78540973572E-01 -0.58585007562E-01  0.97533128239E+00  0.98024091894E+00  0.51100000000E-03 0. -1.
    9000002    1    1    2    0    0 -0.34289539558E+00  0.20775016468E+00  0.10850781783E+00  0.10258437161E+01  0.93800000000E+00 0.  1.
         22    1    1    2    0    0  0.26435442201E+00 -0.14916515712E+00  0.29161608671E+01  0.29319153650E+01  0.00000000000E+00 0. -1.
</event>
<event>
 5    1  0.1461556E+002  0.1551219E+01  0.7818608E-02  0.3408072E+00
         11   -1    0    0    0    0  0.00000000000E+00  0.00000000000E+00  0.39999999674E+01  0.40000000000E+01  0.51100000000E-03 0.  1.
    9000002   -1    0    0    0    0 -0.00000000000E+00 -0.00000000000E+00  0.00000000000E+00  0.93800000000E+00  0.93800000000E+00 0.  1.
         11    1    1    2    0    0 -0.21641995817E+00 -0.25743661135E-01  0.33759821973E+01  0.33830099604E+01  0.51100000000E-03 0.  1.
    9000002    1    1    2    0    0  0.24152078344E+00 -0.18244023232E+00  0.10013629373E+00  0.99070076437E+00  0.93800000000E+00 0.  1.
         22    1    1    2    0    0 -0.25100825268E-01  0.20818389345E+00  0.52388147628E+00  0.56428927521E+00  0.00000000000E+00 0.  1.
</event>
<event>
 5    1  0.1461556E+002  0.1599653E+01  0.7818608E-02  0.3353741E+00
         11   -1    0    0    0    0  0.00000000000E+00  0.00000000000E+00  0.39999999674E+01  0.40000000000E+01  0.51100000000E-03 0. -1.
    9000002   -1    0    0    0    0 -0.00000000000E+00 -0.00000000000E+00  0.00000000000E+00  0.93800000000E+00  0.93800000000E+00 0.  1.
         11    1    1    2    0    0  0.11372509769E+00  0.94037953837E-01  0.13287120278E+01  0.13368816135E+01  0.51100000000E-03 0.  1.
    9000002    1    1    2    0    0 -0.32229869158E+00 -0.26167104909E+00  0.11650414171E+00  0.10323591427E+01  0.93800000000E+00 0.  1.
         22    1    1    2    0    0  0.20857359389E+00  0.16763309525E+00  0.25547837979E+01  0.25687592438E+01  0.00000000000E+00 0. -1.
</event>
<event>
 5    1  0.1461556E+002  0.1599650E+01  0.7818608E-02  0.3353743E+00
         11   -1    0    0    0    0  0.00000000000E+00  0.00000000000E+00  0.39999999674E+01  0.40000000000E+01  0.51100000000E-03 0. -1.
    9000002   -1    0    0    0    0 -0.00000000000E+00 -0.00000000000E+00  0.00000000000E+00  0.93800000000E+00  0.93800000000E+00 0.  1.
         11    1    1    2    0    0  0.28286706267E-01 -0.12564007032E-01  0.49489760467E+00  0.49586479231E+00  0.51100000000E-03 0. -1.
    9000002    1    1    2    0    0 -0.23509383445E+00  0.68802337058E-01  0.39864641237E-01  0.97027628138E+00  0.93800000000E+00 0.  1.
         22    1    1    2    0    0  0.20680712819E+00 -0.56238330026E-01  0.34652377215E+01  0.34718589263E+01  0.00000000000E+00 0. -1.
</event>
<event>
 5    1  0.1461556E+002  0.1599236E+01  0.7818608E-02  0.3354193E+00
         11   -1    0    0    0    0  0.00000000000E+00  0.00000000000E+00  0.39999999674E+01  0.40000000000E+01  0.51100000000E-03 0. -1.
    9000002   -1    0    0    0    0 -0.00000000000E+00 -0.00000000000E+00  0.00000000000E+00  0.93800000000E+00  0.93800000000E+00 0.  1.
         11    1    1    2    0    0 -0.80590424799E-01  0.13185767944E+00  0.13789657694E+01  0.13875979672E+01  0.51100000000E-03 0. -1.
    9000002    1    1    2    0    0  0.26440873972E+00 -0.31452257725E+00  0.11441506735E+00  0.10304228457E+01  0.93800000000E+00 0.  1.
         22    1    1    2    0    0 -0.18381831492E+00  0.18266489781E+00  0.25066191306E+01  0.25199791872E+01  0.00000000000E+00 0. -1.
</event>
<event>
 5    1  0.1461556E+002  0.1599379E+01  0.7818608E-02  0.3354038E+00
         11   -1    0    0    0    0  0.00000000000E+00  0.00000000000E+00  0.39999999674E+01  0.40000000000E+01  0.51100000000E-03 0. -1.
    9000002   -1    0    0    0    0 -0.00000000000E+00 -0.00000000000E+00  0.00000000000E+00  0.93800000000E+00  0.93800000000E+00 0. -1.
         11    1    1    2    0    0 -0.12052876838E-02 -0.55347238859E-03  0.30549411645E-01  0.30582457765E-01  0.51100000000E-03 0. -1.
    9000002    1    1    2    0    0 -0.12851156324E+00  0.43574596100E+00  0.14052430021E+00  0.10516562382E+01  0.93800000000E+00 0. -1.
         22    1    1    2    0    0  0.12971685092E+00 -0.43519248861E+00  0.38289262555E+01  0.38557613040E+01  0.00000000000E+00 0. -1.
</event>
<event>
 5    1  0.1461556E+002  0.1599375E+01  0.7818608E-02  0.3354042E+00
         11   -1    0    0    0    0  0.00000000000E+00  0.00000000000E+00  0.39999999674E+01  0.40000000000E+01  0.51100000000E-03 0.  1.
    9000002   -1    0    0    0    0 -0.00000000000E+00 -0.00000000000E+00  0.00000000000E+00  0.93800000000E+00  0.93800000000E+00 0. -1.
         11    1    1    2    0    0 -0.15037946385E-02  0.16733014898E-01  0.20829370510E+00  0.20897077282E+00  0.51100000000E-03 0.  1.
    9000002    1    1    2    0    0  0.13929210048E+00 -0.44486269083E+00  0.14821432878E+00  0.10578830702E+01  0.93800000000E+00 0. -1.
         22    1    1    2    0    0 -0.13778830584E+00  0.42812967593E+00  0.36434919335E+01  0.36711461570E+01  0.00000000000E+00 0.  1.
</event>
<event>
 5    1  0.1461556E+002  0.1599610E+01  0.7818608E-02  0.3353787E+00
         11   -1    0    0    0    0  0.00000000000E+00  0.00000000000E+00  0.39999999674E+01  0.40000000000E+01  0.51100000000E-03 0. -1.
    9000002   -1    0    0    0    0 -0.00000000000E+00 -0.00000000000E+00  0.00000000000E+00  0.93800000000E+00  0.93800000000E+00 0. -1.
         11    1    1    2    0    0 -0.84384672893E-01  0.29673606893E-02  0.10838275041E+01  0.10871117228E+01  0.51100000000E-03 0. -1.
    9000002    1    1    2    0    0  0.29534634632E+00  0.19068625618E-01  0.58465004382E-01  0.98531986355E+00  0.93800000000E+00 0. -1.
         22    1    1    2    0    0 -0.21096167343E+00 -0.22035986307E-01  0.28577074589E+01  0.28655684136E+01  0.00000000000E+00 0. -1.
</event>
<event>
 5    1  0.1461556E+002  0.1599638E+01  0.7818608E-02  0.3353757E+00
         11   -1    0    0    0    0  0.00000000000E+00  0.00000000000E+00  0.39999999674E+01  0.40000000000E+01  0.51100000000E-03 0. -1.
    9000002   -1    0    0    0    0 -0.00000000000E+00 -0.00000000000E+00  0.00000000000E+00  0.93800000000E+00  0.93800000000E+00 0. -1.
         11    1    1    2    0    0  0.94772560921E-01 -0.19874036761E-01  0.11118993325E+01  0.11161080603E+01  0.51100000000E-03 0. -1.
    9000002    1    1    2    0    0 -0.31323773024E+00  0.80487296171E-01  0.69967121357E-01  0.99465344646E+00  0.93800000000E+00 0. -1.
         22    1    1    2    0    0  0.21846516932E+00 -0.60613259410E-01  0.28181335135E+01  0.28272384932E+01  0.00000000000E+00 0. -1.
</event>
<event>
 5    1  0.1880680E+002  0.1574591E+01  0.7818608E-02  0.3381412E+00
         11   -1    0    0    0    0  0.00000000000E+00  0.00000000000E+00  0.39999999674E+01  0.40000000000E+01  0.51100000000E-03 0.  1.
    9000002   -1    0    0    0    0 -0.00000000000E+00 -0.00000000000E+00  0.00000000000E+00  0.93800000000E+00  0.93800000000E+00 0.  1.
         11    1    1    2    0    0 -0.35280465929E-01  0.16706757937E+00  0.19325451079E+01  0.19400740044E+01  0.51100000000E-03 0.  1.
    9000002    1    1    2    0    0  0.43805939781E-01  0.47186128866E-01  0.21178225138E-01  0.94044564348E+00  0.93800000000E+00 0.  1.
         22    1    1    2    0    0 -0.85254738525E-02 -0.21425370824E+00  0.20462766343E+01  0.20574803521E+01  0.00000000000E+00 0.  1.
</event>
<event>
 5    1  0.1461556E+002  0.1593153E+01  0.7818608E-02  0.3360829E+00
         11   -1    0    0    0    0  0.00000000000E+00  0.00000000000E+00  0.39999999674E+01  0.40000000000E+01  0.51100000000E-03 0. -1.
    9000002   -1    0    0    0    0 -0.00000000000E+00 -0.00000000000E+00  0.00000000000E+00  0.93800000000E+00  0.93800000000E+00 0. -1.
         11    1    1    2    0    0  0.54996988546E+00  0.18853007032E+00  0.26405213464E+01  0.27037684266E+01  0.51100000000E-03 0. -1.
    9000002    1    1    2    0    0 -0.79693501988E+00 -0.16068883748E+00  0.49771233631E+00  0.13373435976E+01  0.93800000000E+00 0. -1.
         22    1    1    2    0    0  0.24696513442E+00 -0.27841232842E-01  0.86176628461E+00  0.89688797581E+00  0.00000000000E+00 0.  1.
</event>
<event>
 5    1  0.1461556E+002  0.1599120E+01  0.7818608E-02  0.3354319E+00
         11   -1    0    0    0    0  0.00000000000E+00  0.00000000000E+00  0.39999999674E+01  0.40000000000E+01  0.51100000000E-03 0. -1.
    9000002   -1    0    0    0    0 -0.00000000000E+00 -0.00000000000E+00  0.00000000000E+00  0.93800000000E+00  0.93800000000E+00 0.  1.
         11    1    1    2    0    0  0.40940430268E-01 -0.10547155933E+00  0.11353274742E+01  0.11409509645E+01  0.51100000000E-03 0. -1.
    9000002    1    1    2    0    0 -0.52857118285E-01  0.37418157874E+00  0.96517453974E-01  0.10158569524E+01  0.93800000000E+00 0.  1.
         22    1    1    2    0    0  0.11916688017E-01 -0.26871001940E+00  0.27681550392E+01  0.27811920831E+01  0.00000000000E+00 0. -1.
</event>
<event>
 5    1  0.1461556E+002  0.1599677E+01  0.7818608E-02  0.3353714E+00
         11   -1    0    0    0    0  0.00000000000E+00  0.00000000000E+00  0.39999999674E+01  0.40000000000E+01  0.51100000000E-03 0.  1.
    9000002   -1    0    0    0    0 -0.00000000000E+00 -0.00000000000E+00  0.00000000000E+00  0.93800000000E+00  0.93800000000E+00 0. -1.
         11    1    1    2    0    0 -0.61125935361E-01 -0.93600810169E-01  0.84836608465E+00  0.85570016147E+00  0.51100000000E-03 0. -1.
    9000002    1    1    2    0    0  0.27537179275E+00  0.42062188675E+00  0.17310341479E+00  0.10782213076E+01  0.93800000000E+00 0. -1.
         22    1    1    2    0    0 -0.21424585739E+00 -0.32702107658E+00  0.29785304679E+01  0.30040785310E+01  0.00000000000E+00 0.  1.
</event>
<event>
 5    1  0.1461556E+002  0.1599672E+01  0.7818608E-02  0.3353719E+00
         11   -1    0    0    0    0  0.00000000000E+00  0.00000000000E+00  0.39999999674E+01  0.40000000000E+01  0.51100000000E-03 0.  1.
    9000002   -1    0    0    0    0 -0.00000000000E+00 -0.00000000000E+00  0.00000000000E+00  0.93800000000E+00  0.93800000000E+00 0.  1.
         11    1    1    2    0    0  0.96637368241E-01  0.24200370861E-01  0.12325982547E+01  0.12366176278E+01  0.51100000000E-03 0.  1.
    9000002    1    1    2    0    0 -0.30563195451E+00 -0.69910528523E-01  0.65664517382E-01  0.99118827801E+00  0.93800000000E+00 0.  1.
         22    1    1    2    0    0  0.20899458627E+00  0.45710157662E-01  0.27017371953E+01  0.27101940942E+01  0.00000000000E+00 0.  1.
</event>
<event>
 5    1  0.1461556E+002  0.1587027E+01  0.7818608E-02  0.3367565E+00
         11   -1    0    0    0    0  0.00000000000E+00  0.00000000000E+00  0.39999999674E+01  0.40000000000E+01  0.51100000000E-03 0.  1.
    9000002   -1    0    0    0    0 -0.00000000000E+00 -0.00000000000E+00  0.00000000000E+00  0.93800000000E+00  0.93800000000E+00 0.  1.
         11    1    1    2    0    0 -0.14514888559E+00 -0.12983936457E+00  0.11547524195E+01  0.11710592944E+01  0.51100000000E-03 0.  1.
    9000002    1    1    2    0    0  0.36875087306E+00  0.38082893201E-01  0.10275630703E+00  0.10138196939E+01  0.93800000000E+00 0.  1.
         22    1    1    2    0    0 -0.22360198747E+00  0.91756471372E-01  0.27424912408E+01  0.27531210117E+01  0.00000000000E+00 0. -1.
</event>
<event>
 5    1  0.1461556E+002  0.1599673E+01  0.7818608E-02  0.3353719E+00
         11   -1    0    0    0    0  0.00000000000E+00  0.00000000000E+00  0.39999999674E+01  0.40000000000E+01  0.51100000000E-03 0.  1.
    9000002   -1    0    0    0    0 -0.00000000000E+00 -0.00000000000E+00  0.00000000000E+00  0.93800000000E+00  0.93800000000E+00 0. -1.
         11    1    1    2    0    0  0.14761073050E-02 -0.45590524550E-02  0.75972867142E-01  0.76125564134E-01  0.51100000000E-03 0. -1.
    9000002    1    1    2    0    0 -0.80140592630E-01  0.21377151118E+00  0.34571657287E-01  0.96600205645E+00  0.93800000000E+00 0. -1.
         22    1    1    2    0    0  0.78664485325E-01 -0.20921245873E+00  0.38894554429E+01  0.38958723794E+01  0.00000000000E+00 0.  1.
</event>
<event>
 5    1  0.1461556E+002  0.1599677E+01  0.7818608E-02  0.3353714E+00
         11   -1    0    0    0    0  0.00000000000E+00  0.00000000000E+00  0.39999999674E+01  0.40000000000E+01  0.51100000000E-03 0.  1.
    9000002   -1    0    0    0    0 -0.00000000000E+00 -0.00000000000E+00  0.00000000000E+00  0.93800000000E+00  0.93800000000E+00 0.  1.
         11    1    1    2    0    0 -0.34495413128E-01  0.22319920357E+00  0.17966537765E+01  0.18107934370E+01  0.51100000000E-03 0.  1.
    9000002    1    1    2    0    0  0.73235484245E-01 -0.47688744329E+00  0.15889660954E+00  0.10667132709E+01  0.93800000000E+00 0.  1.
         22    1    1    2    0    0 -0.38740071118E-01  0.25368823972E+00  0.20444495814E+01  0.20604932921E+01  0.00000000000E+00 0.  1.
</event>
<event>
 5    1  0.1461556E+002  0.1599526E+01  0.7818608E-02  0.3353878E+00
         11   -1    0    0    0    0  0.00000000000E+00  0.00000000000E+00  0.39999999674E+01  0.40000000000E+01  0.51100000000E-03 0. -1.
    9000002   -1    0    0    0    0 -0.00000000000E+00 -0.00000000000E+00  0.00000000000E+00  0.93800000000E+00  0.93800000000E+00 0.  1.
         11    1    1    2    0    0  0.23670213515E+00  0.61683815022E-01  0.18377389200E+01  0.18539464375E+01  0.51100000000E-03 0. -1.
    9000002    1    1    2    0    0 -0.47111016094E+00 -0.10854739893E+00  0.15969921353E+00  0.10672746415E+01  0.93800000000E+00 0.  1.
         22    1    1    2    0    0  0.23440802579E+00  0.46863583905E-01  0.20025618338E+01  0.20167789210E+01  0.00000000000E+00 0. -1.
</event>
<event>
 5    1  0.1461556E+002  0.1583883E+01  0.7818608E-02  0.3371044E+00
         11   -1    0    0    0    0  0.00000000000E+00  0.00000000000E+00  0.39999999674E+01  0.40000000000E+01  0.51100000000E-03 0. -1.
    9000002   -1    0    0    0    0 -0.00000000000E+00 -0.00000000000E+00  0.00000000000E+00  0.93800000000E+00  0.93800000000E+00 0.  1.
         11    1    1    2    0    0 -0.94558274837E-01 -0.25466595170E+00  0.23473120562E+01  0.23629790868E+01  0.51100000000E-03 0. -1.
    9000002    1    1    2    0    0 -0.82762460291E-01  0.46026806995E+00  0.16290158643E+00  0.10606965862E+01  0.93800000000E+00 0.  1.
         22    1    1    2    0    0  0.17732073513E+00 -0.20560211824E+00  0.14897863247E+01  0.15143243270E+01  0.00000000000E+00 0. -1.
</event>
<event>
 5    1  0.1461556E+002  0.1598326E+01  0.7818608E-02  0.3355182E+00
         11   -1    0    0    0    0  0.00000000000E+00  0.00000000000E+00  0.39999999674E+01  0.40000000000E+01  0.51100000000E-03 0. -1.
    9000002   -1    0    0    0    0 -0.00000000000E+00 -0.00000000000E+00  0.00000000000E+00  0.93800000000E+00  0.93800000000E+00 0.  1.
         11    1    1    2    0    0  0.10235012182E+00  0.22595948158E-01  0.14831394696E+01  0.14868386166E+01  0.51100000000E-03 0. -1.
    9000002    1    1    2    0    0 -0.34494583330E+00 -0.14411385897E+00  0.95069281927E-01  0.10142182214E+01  0.93800000000E+00 0.  1.
         22    1    1    2    0    0  0.24259571148E+00  0.12151791081E+00  0.24217912158E+01  0.24369431620E+01  0.00000000000E+00 0. -1.
</event>
<event>
 5    1  0.1461556E+002  0.1599669E+01  0.7818608E-02  0.3353722E+00
         11   -1    0    0    0    0  0.00000000000E+00  0.00000000000E+00  0.39999999674E+01  0.40000000000E+01  0.51100000000E-03 0. -1.
    9000002   -1    0    0    0    0 -0.00000000000E+00 -0.00000000000E+00  0.00000000000E+00  0.93800000000E+00  0.93800000000E+00 0. -1.
         11    1    1    2    0    0 -0.47776868628E-01  0.59586270302E-01  0.55296082831E+00  0.55821061576E+00  0.51100000000E-03 0. -1.
    9000002    1    1    2    0    0  0.34357954891E+00 -0.41440489635E+00  0.19971975036E+00  0.10997773880E+01  0.93800000000E+00 0. -1.
         22    1    1    2    0    0 -0.29580268028E+00  0.35481862605E+00  0.32473193887E+01  0.32800119962E+01  0.00000000000E+00 0. -1.
</event>
<event>
 5    1  0.1461556E+002  0.1598314E+01  0.7818608E-02  0.3355195E+00
         11   -1    0    0    0    0  0.00000000000E+00  0.00000000000E+00  0.39999999674E+01  0.40000000000E+01  0.51100000000E-03 0.  1.
    9000002   -1    0    0    0    0 -0.00000000000E+00 -0.00000000000E+00  0.00000000000E+00  0.93800000000E+00  0.93800000000E+00 0.  1.
         11    1    1    2    0    0  0.11032922065E-01 -0.24573993490E-01  0.13097927997E+00  0.13372149950E+00  0.51100000000E-03 0.  1.
    9000002    1    1    2    0    0 -0.71538647892E-01  0.32900825800E+00  0.76991993040E-01  0.99956789613E+00  0.93800000000E+00 0.  1.
         22    1    1    2    0    0  0.60505725828E-01 -0.30443426451E+00  0.37920286943E+01  0.38047106044E+01  0.00000000000E+00 0.  1.
</event>
<event>
 5    1  0.1461556E+002  0.1599583E+01  0.7818608E-02  0.3353816E+00
         11   -1    0    0    0    0  0.00000000000E+00  0.00000000000E+00  0.39999999674E+01  0.40000000000E+01  0.51100000000E-03 0. -1.
    9000002   -1    0    0    0    0 -0.00000000000E+00 -0.00000000000E+00  0.00000000000E+00  0.93800000000E+00  0.93800000000E+00 0. -1.
         11    1    1    2    0    0  0.82086662554E-01  0.64334099039E+00  0.19410469746E+01  0.20465310819E+01  0.51100000000E-03 0. -1.
    9000002    1    1    2    0    0 -0.11354558459E+00 -0.10317488226E+01  0.88718611809E+00  0.16566053968E+01  0.93800000000E+00 0. -1.
         22    1    1    2    0    0  0.31458922033E-01  0.38840783216E+00  0.11717668746E+01  0.12348635213E+01  0.00000000000E+00 0. -1.
</event>
<event>
 5    1  0.1461556E+002  0.1599667E+01  0.7818608E-02  0.3353725E+00
         11   -1    0    0    0    0  0.00000000000E+00  0.00000000000E+00  0.39999999674E+01  0.40000000000E+01  0.51100000000E-03 0.  1.
    9000002   -1    0    0    0    0 -0.00000000000E+00 -0.00000000000E+00  0.00000000000E+00  0.93800000000E+00  0.93800000000E+00 0.  1.
         11    1    1    2    0    0 -0.33093543206E-01 -0.16514273690E-01  0.49305761386E+00  0.49444309637E+00  0.51100000000E-03 0.  1.
    9000002    1    1    2    0    0  0.28228913930E+00  0.14076882489E+00  0.66486068780E-01  0.99185050162E+00  0.93800000000E+00 0.  1.
         22    1    1    2    0    0 -0.24919559610E+00 -0.12425455120E+00  0.34404562847E+01  0.34517064020E+01  0.00000000000E+00 0.  1.
</event>
<event>
 5    1  0.1461556E+002  0.1599676E+01  0.7818608E-02  0.3353715E+00
         11   -1    0    0    0    0  0.00000000000E+00  0.00000000000E+00  0.39999999674E+01  0.40000000000E+01  0.51100000000E-03 0. -1.
    9000002   -1    0    0    0    0 -0.00000000000E+00 -0.00000000000E+00  0.00000000000E+00  0.93800000000E+00  0.93800000000E+00 0. -1.
         11    1    1    2    0    0  0.19483339631E-01 -0.12705164158E-01  0.37535037511E+00  0.37607072065E+00  0.51100000000E-03 0. -1.
    9000002    1    1    2    0    0 -0.20591815966E+00  0.12873144786E+00  0.39155425277E-01  0.96971708321E+00  0.93800000000E+00 0. -1.
         22    1    1    2    0    0  0.18643482003E+00 -0.11602628370E+00  0.35854941670E+01  0.35922121961E+01  0.00000000000E+00 0. -1.
</event>
<event>
 5    1  0.1461556E+002  0.1599654E+01  0.7818608E-02  0.3353739E+00
         11   -1    0    0    0    0  0.00000000000E+00  0.00000000000E+00  0.39999999674E+01  0.40000000000E+01  0.51100000000E-03 0.  1.
    9000002   -1    0    0    0    0 -0.00000000000E+00 -0.00000000000E+00  0.00000000000E+00  0.93800000000E+00  0.93800000000E+00 0.  1.
         11    1    1    2    0    0 -0.74736086890E-01 -0.54941916654E-01  0.89134434436E+00  0.89615796500E+00  0.51100000000E-03 0.  1.
    9000002    1    1    2    0    0  0.31371071872E+00  0.25669547714E+00  0.11092402629E+00  0.10278400277E+01  0.93800000000E+00 0.  1.
         22    1    1    2    0    0 -0.23897463183E+00 -0.20175356049E+00  0.29977315967E+01  0.30140020073E+01  0.00000000000E+00 0.  1.
</event>
<event>
 5    1  0.1461556E+002  0.1599634E+01  0.7818608E-02  0.3353761E+00
         11   -1    0    0    0    0  0.00000000000E+00  0.00000000000E+00  0.39999999674E+01  0.40000000000E+01  0.51100000000E-03 0. -1.
    9000002   -1    0    0    0    0 -0.00000000000E+00 -0.00000000000E+00  0.00000000000E+00  0.93800000000E+00  0.93800000000E+00 0.  1.
         11    1    1    2    0    0 -0.58767347048E-01 -0.10009609197E+00  0.11968737711E+01  0.12024890493E+01  0.51100000000E-03 0. -1.
    9000002    1    1    2    0    0  0.18260904354E+00  0.34791175472E+00  0.10408024092E+00  0.10222843775E+01  0.93800000000E+00 0.  1.
         22    1    1    2    0    0 -0.12384169649E+00 -0.24781566275E+00  0.26990459553E+01  0.27132265732E+01  0.00000000000E+00 0. -1.
</event>
<event>
 5    1  0.1461556E+002  0.1583377E+01  0.7818608E-02  0.3371605E+00
         11   -1    0    0    0    0  0.00000000000E+00  0.00000000000E+00  0.39999999674E+01  0.40000000000E+01  0.51100000000E-03 0. -1.
    9000002   -1    0    0    0    0 -0.00000000000E+00 -0.00000000000E+00  0.00000000000E+00  0.93800000000E+00  0.93800000000E+00 0. -1.
         11    1    1    2    0    0 -0.15447408092E+00 -0.34067484797E-01  0.15869058919E+01  0.15947706438E+01  0.51100000000E-03 0. -1.
    9000002    1    1    2    0    0  0.55367430391E-01  0.26423332357E+00  0.61170660617E-01  0.97799317552E+00  0.93800000000E+00 0. -1.
         22    1    1    2    0    0  0.99106650530E-01 -0.23016583878E+00  0.23519234148E+01  0.23652361807E+01  0.00000000000E+00 0. -1.
</event>
<event>
 5    1  0.1461556E+002  0.1599625E+01  0.7818608E-02  0.3353771E+00
         11   -1    0    0    0    0  0.00000000000E+00  0.00000000000E+00  0.39999999674E+01  0.40000000000E+01  0.51100000000E-03 0. -1.
    9000002   -1    0    0    0    0 -0.00000000000E+00 -0.00000000000E+00  0.00000000000E+00  0.93800000000E+00  0.93800000000E+00 0. -1.
         11    1    1    2    0    0 -0.11928598006E-01 -0.35701090217E-01  0.34069326814E+00  0.34276671859E+00  0.51100000000E-03 0. -1.
    9000002    1    1    2    0    0  0.17626994365E+00  0.44043210521E+00  0.15346663732E+00  0.10622841151E+01  0.93800000000E+00 0. -1.
         22    1    1    2    0    0 -0.16434134565E+00 -0.40473101500E+00  0.35058400619E+01  0.35329491664E+01  0.00000000000E+00 0. -1.
</event>
<event>
 5    1  0.1461556E+002  0.1599676E+01  0.7818608E-02  0.3353715E+00
         11   -1    0    0    0    0  0.00000000000E+00  0.00000000000E+00  0.39999999674E+01  0.40000000000E+01  0.51100000000E-03 0. -1.
    9000002   -1    0    0    0    0 -0.00000000000E+00 -0.00000000000E+00  0.00000000000E+00  0.93800000000E+00  0.93800000000E+00 0.  1.
         11    1    1    2    0    0  0.50301248277E-01 -0.94762230717E-02  0.75898206305E+00  0.76070628204E+00  0.51100000000E-03 0. -1.
    9000002    1    1    2    0    0 -0.26648217513E+00  0.52053467035E-01  0.49058469595E-01  0.97773874145E+00  0.93800000000E+00 0.  1.
         22    1    1    2    0    0  0.21618092686E+00 -0.42577243963E-01  0.31919594347E+01  0.31995549765E+01  0.00000000000E+00 0. -1.
</event>
<event>
 5    1  0.1461556E+002  0.1599627E+01  0.7818608E-02  0.3353769E+00
         11   -1    0    0    0    0  0.00000000000E+00  0.00000000000E+00  0.39999999674E+01  0.40000000000E+01  0.51100000000E-03 0.  1.
    9000002   -1    0    0    0    0 -0.00000000000E+00 -0.00000000000E+00  0.00000000000E+00  0.93800000000E+00  0.93800000000E+00 0. -1.
         11    1    1    2    0    0  0.10641936200E+00 -0.92293963349E-01  0.12764372750E+01  0.12841867599E+01  0.51100000000E-03 0.  1.
    9000002    1    1    2    0    0 -0.34552996641E+00  0.27149046231E+00  0.13099093917E+00  0.10440788548E+01  0.93800000000E+00 0. -1.
         22    1    1    2    0    0  0.23911060441E+00 -0.17919649896E+00  0.25925717532E+01  0.26097343853E+01  0.00000000000E+00 0.  1.
</event>
<event>
 5    1  0.1461556E+002  0.1471879E+01  0.7818608E-02  0.3505352E+00
         11   -1    0    0    0    0  0.00000000000E+00  0.00000000000E+00  0.39999999674E+01  0.40000000000E+01  0.51100000000E-03 0.  1.
    9000002   -1    0    0    0    0 -0.00000000000E+00 -0.00000000000E+00  0.00000000000E+00  0.93800000000E+00  0.93800000000E+00 0.  1.
         11    1    1    2    0    0  0.16227122608E+00  0.46271818859E+00  0.15678387449E+01  0.16427290294E+01  0.51100000000E-03 0.  1.
    9000002    1    1    2    0    0  0.71587822994E-01 -0.20843197458E+00  0.13579571146E+00  0.97306381069E+00  0.93800000000E+00 0.  1.
         22    1    1    2    0    0 -0.23385904908E+00 -0.25428621401E+00  0.22963655110E+01  0.23222071599E+01  0.00000000000E+00 0. -1.
</event>
<event>
 5    1  0.1461556E+002  0.1599605E+01  0.7818608E-02  0.3353792E+00
         11   -1    0    0    0    0  0.00000000000E+00  0.00000000000E+00  0.39999999674E+01  0.40000000000E+01  0.51100000000E-03 0.  1.
    9000002   -1    0    0    0    0 -0.00000000000E+00 -0.00000000000E+00  0.00000000000E+00  0.93800000000E+00  0.93800000000E+00 0.  1.
         11    1    1    2    0    0 -0.97226652503E-02 -0.13873886176E-01  0.26733906409E+00  0.26787581311E+00  0.51100000000E-03 0.  1.
    9000002    1    1    2    0    0  0.20880795612E+00  0.16725986343E+00  0.47669015595E-01  0.97657204522E+00  0.93800000000E+00 0.  1.
         22    1    1    2    0    0 -0.19908529087E+00 -0.15338597726E+00  0.36849918877E+01  0.36935521417E+01  0.00000000000E+00 0.  1.
</event>
<event>
 5    1  0.1461556E+002  0.1466812E+01  0.7818608E-02  0.3511950E+00
         11   -1    0    0    0    0  0.00000000000E+00  0.00000000000E+00  0.39999999674E+01  0.40000000000E+01  0.51100000000E-03 0.  1.
    9000002   -1    0    0    0    0 -0.00000000000E+00 -0.00000000000E+00  0.00000000000E+00  0.93800000000E+00  0.93800000000E+00 0.  1.
         11    1    1    2    0    0  0.95118192022E-01 -0.47578615845E+00  0.34588740374E+01  0.34927395848E+01  0.51100000000E-03 0.  1.
    9000002    1    1    2    0    0 -0.96088448040E-01  0.22680986716E+00  0.14959978793E+00  0.98127458045E+00  0.93800000000E+00 0.  1.
         22    1    1    2    0    0  0.97025601781E-03  0.24897629128E+00  0.39152614200E+00  0.46398583479E+00  0.00000000000E+00 0.  1.
</event>
<event>
 5    1  0.1461556E+002  0.1599676E+01  0.7818608E-02  0.3353715E+00
         11   -1    0    0    0    0  0.00000000000E+00  0.00000000000E+00  0.39999999674E+01  0.40000000000E+01  0.51100000000E-03 0.  1.
    9000002   -1    0    0    0    0 -0.00000000000E+00 -0.00000000000E+00  0.00000000000E+00  0.93800000000E+00  0.93800000000E+00 0.  1.
         11    1    1    2    0    0  0.14884599185E+00  0.28414776844E-01  0.12327985190E+01  0.12420768811E+01  0.51100000000E-03 0.  1.
    9000002    1    1    2    0    0 -0.46503585311E+00 -0.86212824601E-01  0.15245918764E+00  0.10614983748E+01  0.93800000000E+00 0.  1.
         22    1    1    2    0    0  0.31618986126E+00  0.57798047757E-01  0.26147422607E+01  0.26344247441E+01  0.00000000000E+00 0.  1.
</event>
<event>
 5    1  0.1461556E+002  0.1545768E+01  0.7818608E-02  0.3414413E+00
         11   -1    0    0    0    0  0.00000000000E+00  0.00000000000E+00  0.39999999674E+01  0.40000000000E+01  0.51100000000E-03 0.  1.
    9000002   -1    0    0    0    0 -0.00000000000E+00 -0.00000000000E+00  0.00000000000E+00  0.93800000000E+00  0.93800000000E+00 0.  1.
         11    1    1    2    0    0  0.21395424484E+00 -0.12198814970E+00  0.19308223854E+01  0.19464667664E+01  0.51100000000E-03 0.  1.
    9000002    1    1    2    0    0  0.10980281584E+00  0.86043238866E-01  0.53629370588E-01  0.94983167283E+00  0.93800000000E+00 0.  1.
         22    1    1    2    0    0 -0.32375706068E+00  0.35944910830E-01  0.20155482114E+01  0.20417015608E+01  0.00000000000E+00 0.  1.
</event>
<event>
 5    1  0.1461556E+002  0.1549826E+01  0.7818608E-02  0.3409688E+00
         11   -1    0    0    0    0  0.00000000000E+00  0.00000000000E+00  0.39999999674E+01  0.40000000000E+01  0.51100000000E-03 0. -1.
    9000002   -1    0    0    0    0 -0.00000000000E+00 -0.00000000000E+00  0.00000000000E+00  0.93800000000E+00  0.93800000000E+00 0. -1.
         11    1    1    2    0    0  0.12280256277E+00  0.23106115363E-01  0.28496354759E+00  0.31115726983E+00  0.51100000000E-03 0. -1.
    9000002    1    1    2    0    0  0.24299064136E+00 -0.92609612232E-01  0.84253120232E-01  0.97701769704E+00  0.93800000000E+00 0. -1.
         22    1    1    2    0    0 -0.36579320413E+00  0.69503496869E-01  0.36307832995E+01  0.36498250331E+01  0.00000000000E+00 0. -1.
</event>
<event>
 5    1  0.1461556E+002  0.1599012E+01  0.7818608E-02  0.3354436E+00
         11   -1    0    0    0    0  0.00000000000E+00  0.00000000000E+00  0.39999999674E+01  0.40000000000E+01  0.51100000000E-03 0.  1.
    9000002   -1    0    0    0    0 -0.00000000000E+00 -0.00000000000E+00  0.00000000000E+00  0.93800000000E+00  0.93800000000E+00 0. -1.
         11    1    1    2    0    0 -0.37663406550E+00  0.13465371479E+00  0.26435801578E+01  0.26736681085E+01  0.51100000000E-03 0.  1.
    9000002    1    1    2    0    0  0.56600938854E+00 -0.21467326575E+00  0.25663193411E+00  0.11454934258E+01  0.93800000000E+00 0. -1.
         22    1    1    2    0    0 -0.18937532303E+00  0.80019550963E-01  0.10997878754E+01  0.11188384657E+01  0.00000000000E+00 0.  1.
</event>
<event>
 5    1  0.1461556E+002  0.1553574E+01  0.7818608E-02  0.3405348E+00
         11   -1    0    0    0    0  0.00000000000E+00  0.00000000000E+00  0.39999999674E+01  0.40000000000E+01  0.51100000000E-03 0. -1.
    9000002   -1    0    0    0    0 -0.00000000000E+00 -0.00000000000E+00  0.00000000000E+00  0.93800000000E+00  0.93800000000E+00 0.  1.
         11    1    1    2    0    0  0.16759205311E+00 -0.14142493136E+00  0.98416983461E+00  0.10083048309E+01  0.51100000000E-03 0. -1.
    9000002    1    1    2    0    0 -0.41216540768E-02 -0.32164832271E-01  0.34863935387E-01  0.93920767589E+00  0.93800000000E+00 0.  1.
         22    1    1    2    0    0 -0.16347039903E+00  0.17358976363E+00  0.29809661974E+01  0.29904874932E+01  0.00000000000E+00 0. -1.
</event>
<event>
 5    1  0.1461556E+002  0.1596465E+01  0.7818608E-02  0.3357209E+00
         11   -1    0    0    0    0  0.00000000000E+00  0.00000000000E+00  0.39999999674E+01  0.40000000000E+01  0.51100000000E-03 0.  1.
    9000002   -1    0    0    0    0 -0.00000000000E+00 -0.00000000000E+00  0.00000000000E+00  0.93800000000E+00  0.93800000000E+00 0. -1.
         11    1    1    2    0    0  0.21524237098E-01  0.52611584660E-01  0.27278524416E+00  0.27864551347E+00  0.51100000000E-03 0.  1.
    9000002    1    1    2    0    0 -0.38952123218E-01 -0.33205677417E+00  0.77389119553E-01  0.99880530886E+00  0.93800000000E+00 0. -1.
         22    1    1    2    0    0  0.17427886120E-01  0.27944518951E+00  0.36498256036E+01  0.36605491777E+01  0.00000000000E+00 0.  1.
</event>
<event>
 5    1  0.1461556E+002  0.1599640E+01  0.7818608E-02  0.3353754E+00
         11   -1    0    0    0    0  0.00000000000E+00  0.00000000000E+00  0.39999999674E+01  0.40000000000E+01  0.51100000000E-03 0. -1.
    9000002   -1    0    0    0    0 -0.00000000000E+00 -0.00000000000E+00  0.00000000000E+00  0.93800000000E+00  0.93800000000E+00 0. -1.
         11    1    1    2    0    0  0.49966954108E-01  0.12784217218E-01  0.46181750001E+00  0.46468892514E+00  0.51100000000E-03 0. -1.
    9000002    1    1    2    0    0 -0.39847515952E+00 -0.74794610442E-01  0.11098401931E+00  0.10278804109E+01  0.93800000000E+00 0. -1.
         22    1    1    2    0    0  0.34850820541E+00  0.62010393224E-01  0.34271984480E+01  0.34454306640E+01  0.00000000000E+00 0. -1.
</event>
<event>
 5    1  0.1461556E+002  0.1599654E+01  0.7818608E-02  0.3353739E+00
         11   -1    0    0    0    0  0.00000000000E+00  0.00000000000E+00  0.39999999674E+01  0.40000000000E+01  0.51100000000E-03 0. -1.
    9000002   -1    0    0    0    0 -0.00000000000E+00 -0.00000000000E+00  0.00000000000E+00  0.93800000000E+00  0.93800000000E+00 0. -1.
         11    1    1    2    0    0 -0.32663542527E-01  0.37308439853E-01  0.68233135573E+00  0.68413095737E+00  0.51100000000E-03 0. -1.
    9000002    1    1    2    0    0  0.16899103744E+00 -0.23080383302E+00  0.54537241090E-01  0.98216428908E+00  0.93800000000E+00 0. -1.
         22    1    1    2    0    0 -0.13632749492E+00  0.19349539316E+00  0.32631313705E+01  0.32717047536E+01  0.00000000000E+00 0. -1.
</event>
<event>
 5    1  0.1461556E+002  0.1578397E+01  0.7818608E-02  0.3377149E+00
         11   -1    0    0    0    0  0.00000000000E+00  0.00000000000E+00  0.39999999674E+01  0.40000000000E+01  0.51100000000E-03 0. -1.
    9000002   -1    0    0    0    0 -0.00000000000E+00 -0.00000000000E+00  0.00000000000E+00  0.93800000000E+00  0.93800000000E+00 0.  1.
         11    1    1    2    0    0  0.52856038151E-01 -0.46360028219E-01  0.14123489820E+00  0.15776745728E+00  0.51100000000E-03 0. -1.
    9000002    1    1    2    0    0  0.65015049181E-01  0.22966880339E+00  0.54178421991E-01  0.96940910728E+00  0.93800000000E+00 0.  1.
         22    1    1    2    0    0 -0.11787108733E+00 -0.18330877517E+00  0.38045866472E+01  0.38108234354E+01  0.00000000000E+00 0. -1.
</event>
<event>
 5    1  0.1461556E+002  0.1599660E+01  0.7818608E-02  0.3353732E+00
         11   -1    0    0    0    0  0.00000000000E+00  0.00000000000E+00  0.39999999674E+01  0.40000000000E+01  0.51100000000E-03 0. -1.
    9000002   -1    0    0    0    0 -0.00000000000E+00 -0.00000000000E+00  0.00000000000E+00  0.93800000000E+00  0.93800000000E+00 0.  1.
         11    1    1    2    0    0 -0.35751959443E+00  0.19765107801E+00  0.20917975546E+01  0.21313149649E+01  0.51100000000E-03 0. -1.
    9000002    1    1    2    0    0  0.62533597021E+00 -0.35030896301E+00  0.36888427280E+00  0.12368027538E+01  0.93800000000E+00 0.  1.
         22    1    1    2    0    0 -0.26781637578E+00  0.15265788500E+00  0.15393181400E+01  0.15698822813E+01  0.00000000000E+00 0. -1.
</event>
<event>
 5    1  0.1461556E+002  0.1599674E+01  0.7818608E-02  0.3353717E+00
         11   -1    0    0    0    0  0.00000000000E+00  0.00000000000E+00  0.39999999674E+01  0.40000000000E+01  0.51100000000E-03 0. -1.
    9000002   -1    0    0    0    0 -0.00000000000E+00 -0.00000000000E+00  0.00000000000E+00  0.93800000000E+00  0.93800000000E+00 0.  1.
         11    1    1    2    0    0 -0.41904057085E-01 -0.25061406015E+00  0.20161786088E+01  0.20321269156E+01  0.51100000000E-03 0. -1.
    9000002    1    1    2    0    0  0.76687035798E-01  0.47947838740E+00  0.16102396647E+00  0.10684349036E+01  0.93800000000E+00 0.  1.
         22    1    1    2    0    0 -0.34782978713E-01 -0.22886432724E+00  0.18227973920E+01  0.18374381808E+01  0.00000000000E+00 0. -1.
</event>
<event>
 5    1  0.1461556E+002  0.1515648E+01  0.7818608E-02  0.3450333E+00
         11   -1    0    0    0    0  0.00000000000E+00  0.00000000000E+00  0.39999999674E+01  0.40000000000E+01  0.51100000000E-03 0.  1.
    9000002   -1    0    0    0    0 -0.00000000000E+00 -0.00000000000E+00  0.00000000000E+00  0.93800000000E+00  0.93800000000E+00 0.  1.
         11    1    1    2    0    0  0.21932525707E+00 -0.13625756650E+00  0.23707200519E+01  0.23847397171E+01  0.51100000000E-03 0.  1.
    9000002    1    1    2    0    0 -0.20628259018E+00 -0.31043776783E+00  0.16554417507E+00  0.10228259816E+01  0.93800000000E+00 0.  1.
         22    1    1    2    0    0 -0.13042666893E-01  0.44669533433E+00  0.14637357404E+01  0.15304343013E+01  0.00000000000E+00 0.  1.
</event>
<event>
 5    1  0.1461556E+002  0.1594623E+01  0.7818608E-02  0.3359220E+00
         11   -1    0    0    0    0  0.00000000000E+00  0.00000000000E+00  0.39999999674E+01  0.40000000000E+01  0.51100000000E-03 0.  1.
    9000002   -1    0    0    0    0 -0.00000000000E+00 -0.00000000000E+00  0.00000000000E+00  0.93800000000E+00  0.93800000000E+00 0. -1.
         11    1    1    2    0    0 -0.32167205515E+00  0.10225964700E+00  0.25519157702E+01  0.25741414696E+01  0.51100000000E-03 0.  1.
    9000002    1    1    2    0    0  0.47918243773E+00 -0.27112140968E+00  0.21417734076E+00  0.11085299097E+01  0.93800000000E+00 0. -1.
         22    1    1    2    0    0 -0.15751038258E+00  0.16886176268E+00  0.12339068564E+01  0.12553286207E+01  0.00000000000E+00 0. -1.
</event>
<event>
 5    1  0.1461556E+002  0.1590744E+01  0.7818608E-02  0.3363471E+00
         11   -1    0    0    0    0  0.00000000000E+00  0.00000000000E+00  0.39999999674E+01  0.40000000000E+01  0.51100000000E-03 0. -1.
    9000002   -1    0    0    0    0 -0.00000000000E+00 -0.00000000000E+00  0.00000000000E+00  0.93800000000E+00  0.93800000000E+00 0. -1.
         11    1    1    2    0    0  0.22619179424E+00  0.19856685167E+00  0.21839182376E+01  0.22045613287E+01  0.51100000000E-03 0. -1.
    9000002    1    1    2    0    0 -0.44618310093E+00 -0.15710147130E+00  0.16041124607E+00  0.10627022159E+01  0.93800000000E+00 0. -1.
         22    1    1    2    0    0  0.21999130669E+00 -0.41465380372E-01  0.16556704837E+01  0.16707364554E+01  0.00000000000E+00 0. -1.
</event>
<event>
 5    1  0.1461556E+002  0.1585352E+01  0.7818608E-02  0.3369416E+00
         11   -1    0    0    0    0  0.00000000000E+00  0.00000000000E+00  0.39999999674E+01  0.40000000000E+01  0.51100000000E-03 0.  1.
    9000002   -1    0    0    0    0 -0.00000000000E+00 -0.00000000000E+00  0.00000000000E+00  0.93800000000E+00  0.93800000000E+00 0.  1.
         11    1    1    2    0    0  0.24693168793E-01 -0.17330471084E-01  0.49165633015E-01  0.57685512946E-01  0.51100000000E-03 0.  1.
    9000002    1    1    2    0    0  0.15018544689E+00 -0.17828236876E+00  0.47002027610E-01  0.96767425411E+00  0.93800000000E+00 0.  1.
         22    1    1    2    0    0 -0.17487861569E+00  0.19561283984E+00  0.39038323067E+01  0.39126402329E+01  0.00000000000E+00 0.  1.
</event>
<event>
 5    1  0.1461556E+002  0.1599677E+01  0.7818608E-02  0.3353714E+00
         11   -1    0    0    0    0  0.00000000000E+00  0.00000000000E+00  0.39999999674E+01  0.40000000000E+01  0.51100000000E-03 0. -1.
    9000002   -1    0    0    0    0 -0.00000000000E+00 -0.00000000000E+00  0.00000000000E+00  0.93800000000E+00  0.93800000000E+00 0.  1.
         11    1    1    2    0    0 -0.43772765325E-01  0.14986612336E-02  0.60106206876E+00  0.60265593218E+00  0.51100000000E-03 0. -1.
    9000002    1    1    2    0    0  0.28893703192E+00 -0.89365739444E-02  0.55691538893E-01  0.98311241385E+00  0.93800000000E+00 0.  1.
         22    1    1    2    0    0 -0.24516426659E+00  0.74379127108E-02  0.33432463597E+01  0.33522316540E+01  0.00000000000E+00 0. -1.
</event>
<event>
 5    1  0.1461556E+002  0.1599624E+01  0.7818608E-02  0.3353772E+00
         11   -1    0    0    0    0  0.00000000000E+00  0.00000000000E+00  0.39999999674E+01  0.40000000000E+01  0.51100000000E-03 0.  1.
    9000002   -1    0    0    0    0 -0.00000000000E+00 -0.00000000000E+00  0.00000000000E+00  0.93800000000E+00  0.93800000000E+00 0. -1.
         11    1    1    2    0    0  0.75433808366E-01 -0.86131548098E-01  0.75921368632E+00  0.76779853193E+00  0.51100000000E-03 0.  1.
    9000002    1    1    2    0    0 -0.34311289230E+00  0.44132932852E+00  0.21626693116E+00  0.11131547146E+01  0.93800000000E+00 0. -1.
         22    1    1    2    0    0  0.26767908393E+00 -0.35519778042E+00  0.30245193499E+01  0.30570467535E+01  0.00000000000E+00 0.  1.
</event>
<event>
 5    1  0.1461556E+002  0.1563249E+01  0.7818608E-02  0.3394243E+00
         11   -1    0    0    0    0  0.00000000000E+00  0.00000000000E+00  0.39999999674E+01  0.40000000000E+01  0.51100000000E-03 0. -1.
    9000002   -1    0    0    0    0 -0.00000000000E+00 -0.00000000000E+00  0.00000000000E+00  0.93800000000E+00  0.93800000000E+00 0. -1.
         11    1    1    2    0    0  0.10648308263E+00  0.12254993621E+00  0.90777580297E+00  0.92217910588E+00  0.51100000000E-03 0. -1.
    9000002    1    1    2    0    0  0.60029836106E-01  0.12516415717E+00  0.40023058744E-01  0.94906032089E+00  0.93800000000E+00 0. -1.
         22    1    1    2    0    0 -0.16651291873E+00 -0.24771409338E+00  0.30522011056E+01  0.30667605732E+01  0.00000000000E+00 0. -1.
</event>
<event>
 5    1  0.1461556E+002  0.1594984E+01  0.7818608E-02  0.3358826E+00
         11   -1    0    0    0    0  0.00000000000E+00  0.00000000000E+00  0.39999999674E+01  0.40000000000E+01  0.51100000000E-03 0. -1.
    9000002   -1    0    0    0    0 -0.00000000000E+00 -0.00000000000E+00  0.00000000000E+00  0.93800000000E+00  0.93800000000E+00 0.  1.
         11    1    1    2    0    0 -0.10237599571E+00  0.80934881255E-01  0.19076802090E+01  0.19121389438E+01  0.51100000000E-03 0. -1.
    9000002    1    1    2    0    0  0.20383988680E+00 -0.33384426533E+00  0.10697866678E+00  0.10219056356E+01  0.93800000000E+00 0.  1.
         22    1    1    2    0    0 -0.10146389109E+00  0.25290938407E+00  0.19853410916E+01  0.20039554206E+01  0.00000000000E+00 0.  1.
</event>
<event>
 5    1  0.1461556E+002  0.1599676E+01  0.7818608E-02  0.3353715E+00
         11   -1    0    0    0    0  0.00000000000E+00  0.00000000000E+00  0.39999999674E+01  0.40000000000E+01  0.51100000000E-03 0.  1.
    9000002   -1    0    0    0    0 -0.00000000000E+00 -0.00000000000E+00  0.00000000000E+00  0.93800000000E+00  0.93800000000E+00 0.  1.
         11    1    1    2    0    0 -0.12087470989E+00  0.28447188552E+00  0.22650513277E+01  0.22860430283E+01  0.51100000000E-03 0.  1.
    9000002    1    1    2    0    0  0.20206082480E+00 -0.47973506073E+00  0.18615562517E+00  0.10887939301E+01  0.93800000000E+00 0.  1.
         22    1    1    2    0    0 -0.81186114913E-01  0.19526317521E+00  0.15487930145E+01  0.15631630416E+01  0.00000000000E+00 0.  1.
</event>
<event>
 5    1  0.1461556E+002  0.1599666E+01  0.7818608E-02  0.3353726E+00
         11   -1    0    0    0    0  0.00000000000E+00  0.00000000000E+00  0.39999999674E+01  0.40000000000E+01  0.51100000000E-03 0.  1.
    9000002   -1    0    0    0    0 -0.00000000000E+00 -0.00000000000E+00  0.00000000000E+00  0.93800000000E+00  0.93800000000E+00 0. -1.
         11    1    1    2    0    0 -0.22945420647E-01  0.63570528482E-01  0.50928129289E+00  0.51374643632E+00  0.51100000000E-03 0.  1.
    9000002    1    1    2    0    0  0.15400004768E+00 -0.47016971347E+00  0.16742590515E+00  0.10736158568E+01  0.93800000000E+00 0. -1.
         22    1    1    2    0    0 -0.13105462703E+00  0.40659918499E+00  0.33232927693E+01  0.33506377069E+01  0.00000000000E+00 0.  1.
</event>
<event>
 5    1  0.1461556E+002  0.1599676E+01  0.7818608E-02  0.3353716E+00
         11   -1    0    0    0    0  0.00000000000E+00  0.00000000000E+00  0.39999999674E+01  0.40000000000E+01  0.51100000000E-03 0.  1.
    9000002   -1    0    0    0    0 -0.00000000000E+00 -0.00000000000E+00  0.00000000000E+00  0.93800000000E+00  0.93800000000E+00 0. -1.
         11    1    1    2    0    0 -0.84482434848E-01  0.97409647789E-01  0.90451214287E+00  0.91365660891E+00  0.51100000000E-03 0.  1.
    9000002    1    1    2    0    0  0.35758436147E+00 -0.40505470432E+00  0.20127537294E+00  0.11010411731E+01  0.93800000000E+00 0. -1.
         22    1    1    2    0    0 -0.27310192662E+00  0.30764505653E+00  0.28942124516E+01  0.29233022180E+01  0.00000000000E+00 0.  1.
</event>
<event>
 5    1  0.1461556E+002  0.1599671E+01  0.7818608E-02  0.3353721E+00
         11   -1    0    0    0    0  0.00000000000E+00  0.00000000000E+00  0.39999999674E+01  0.40000000000E+01  0.51100000000E-03 0. -1.
    9000002   -1    0    0    0    0 -0.00000000000E+00 -0.00000000000E+00  0.00000000000E+00  0.93800000000E+00  0.93800000000E+00 0.  1.
         11    1    1    2    0    0 -0.28238702617E+00 -0.16896105874E+00  0.19411603696E+01  0.19688560419E+01  0.51100000000E-03 0. -1.
    9000002    1    1    2    0    0  0.54261102352E+00  0.32894619406E+00  0.28308940319E+00  0.11673114116E+01  0.93800000000E+00 0.  1.
         22    1    1    2    0    0 -0.26022399734E+00 -0.15998513531E+00  0.17757501946E+01  0.18018325465E+01  0.00000000000E+00 0. -1.
</event>
<event>
 5    1  0.1461556E+002  0.1583871E+01  0.7818608E-02  0.3371058E+00
         11   -1    0    0    0    0  0.00000000000E+00  0.00000000000E+00  0.39999999674E+01  0.40000000000E+01  0.51100000000E-03 0. -1.
    9000002   -1    0    0    0    0 -0.00000000000E+00 -0.00000000000E+00  0.00000000000E+00  0.93800000000E+00  0.93800000000E+00 0. -1.
         11    1    1    2    0    0  0.16801473132E+00 -0.28870084068E-01  0.19307440306E+01  0.19382557119E+01  0.51100000000E-03 0. -1.
    9000002    1    1    2    0    0 -0.13000683400E+00  0.28192067314E+00  0.76906703984E-01  0.99102960801E+00  0.93800000000E+00 0. -1.
         22    1    1    2    0    0 -0.38007897319E-01 -0.25305058907E+00  0.19923492327E+01  0.20087146801E+01  0.00000000000E+00 0. -1.
</event>
<event>
 5    1  0.1461556E+002  0.1599677E+01  0.7818608E-02  0.3353714E+00
         11   -1    0    0    0    0  0.00000000000E+00  0.00000000000E+00  0.39999999674E+01  0.40000000000E+01  0.51100000000E-03 0.  1.
    9000002   -1    0    0    0    0 -0.00000000000E+00 -0.00000000000E+00  0.00000000000E+00  0.93800000000E+00  0.93800000000E+00 0. -1.
         11    1    1    2    0    0  0.25866686309E+00  0.11463205951E-01  0.20448723900E+01  0.20611994817E+01  0.51100000000E-03 0.  1.
    9000002    1    1    2    0    0 -0.48551702240E+00 -0.22535865408E-01  0.16134404616E+00  0.10686957217E+01  0.93800000000E+00 0. -1.
         22    1    1    2    0    0  0.22685015932E+00  0.11072659457E-01  0.17937835312E+01  0.18081047966E+01  0.00000000000E+00 0.  1.
</event>
<event>
 5    1  0.1461556E+002  0.1592350E+01  0.7818608E-02  0.3361708E+00
         11   -1    0    0    0    0  0.00000000000E+00  0.00000000000E+00  0.39999999674E+01  0.40000000000E+01  0.51100000000E-03 0.  1.
    9000002   -1    0    0    0    0 -0.00000000000E+00 -0.00000000000E+00  0.00000000000E+00  0.93800000000E+00  0.93800000000E+00 0. -1.
         11    1    1    2    0    0  0.38185419133E-01 -0.24309581192E+00  0.98915179691E+00  0.10193013482E+01  0.51100000000E-03 0.  1.
    9000002    1    1    2    0    0 -0.16325867593E+00  0.57180905114E+00  0.25371662001E+00  0.11392256622E+01  0.93800000000E+00 0. -1.
         22    1    1    2    0    0  0.12507325680E+00 -0.32871323922E+00  0.27571315504E+01  0.27794729896E+01  0.00000000000E+00 0. -1.
</event>
<event>
 5    1  0.1461556E+002  0.1593109E+01  0.7818608E-02  0.3360877E+00
         11   -1    0    0    0    0  0.00000000000E+00  0.00000000000E+00  0.39999999674E+01  0.40000000000E+01  0.51100000000E-03 0.  1.
    9000002   -1    0    0    0    0 -0.00000000000E+00 -0.00000000000E+00  0.00000000000E+00  0.93800000000E+00  0.93800000000E+00 0.  1.
         11    1    1    2    0    0  0.33765468048E-02  0.16157304685E-01  0.28228454470E-01  0.32704224892E-01  0.51100000000E-03 0.  1.
    9000002    1    1    2    0    0 -0.18624556785E+00  0.96429433091E-01  0.34092454139E-01  0.96176522215E+00  0.93800000000E+00 0.  1.
         22    1    1    2    0    0  0.18286902105E+00 -0.11258673778E+00  0.39376790588E+01  0.39435305530E+01  0.00000000000E+00 0.  1.
</event>
<event>
 5    1  0.1461556E+002  0.1577327E+01  0.7818608E-02  0.3378345E+00
         11   -1    0    0    0    0  0.00000000000E+00  0.00000000000E+00  0.39999999674E+01  0.40000000000E+01  0.51100000000E-03 0.  1.
    9000002   -1    0    0    0    0 -0.00000000000E+00 -0.00000000000E+00  0.00000000000E+00  0.93800000000E+00  0.93800000000E+00 0. -1.
         11    1    1    2    0    0  0.18500365697E-01 -0.12823750340E+00  0.10627726541E+01  0.10706414415E+01  0.51100000000E-03 0.  1.
    9000002    1    1    2    0    0 -0.36687891944E+00 -0.35435449658E-01  0.10972214894E+00  0.10137745127E+01  0.93800000000E+00 0. -1.
         22    1    1    2    0    0  0.34837855375E+00  0.16367295305E+00  0.28275051643E+01  0.28535840458E+01  0.00000000000E+00 0.  1.
</event>
<event>
 5    1  0.1461556E+002  0.1488102E+01  0.7818608E-02  0.3484551E+00
         11   -1    0    0    0    0  0.00000000000E+00  0.00000000000E+00  0.39999999674E+01  0.40000000000E+01  0.51100000000E-03 0.  1.
    9000002   -1    0    0    0    0 -0.00000000000E+00 -0.00000000000E+00  0.00000000000E+00  0.93800000000E+00  0.93800000000E+00 0. -1.
         11    1    1    2    0    0  0.20890729491E+00  0.50296878689E-01  0.20676195116E+00  0.29819926130E+00  0.51100000000E-03 0.  1.
    9000002    1    1    2    0    0 -0.11656746228E+00 -0.53213987577E+00  0.31837212716E+00  0.11304714203E+01  0.93800000000E+00 0. -1.
         22    1    1    2    0    0 -0.92339832634E-01  0.48184299708E+00  0.34748658890E+01  0.35093293184E+01  0.00000000000E+00 0.  1.
</event>
<event>
 5    1  0.1461556E+002  0.1467172E+01  0.7818608E-02  0.3511479E+00
         11   -1    0    0    0    0  0.00000000000E+00  0.00000000000E+00  0.39999999674E+01  0.40000000000E+01  0.51100000000E-03 0.  1.
    9000002   -1    0    0    0    0 -0.00000000000E+00 -0.00000000000E+00  0.00000000000E+00  0.93800000000E+00  0.93800000000E+00 0. -1.
         11    1    1    2    0    0 -0.15602682860E+00  0.42131051472E-01  0.48636143472E-01  0.16877539013E+00  0.51100000000E-03 0.  1.
    9000002    1    1    2    0    0 -0.82728245346E-01 -0.39476673959E-01  0.14284906870E+00  0.95323251455E+00  0.93800000000E+00 0. -1.
         22    1    1    2    0    0  0.23875507394E+00 -0.26543775129E-02  0.38085147552E+01  0.38159920953E+01  0.00000000000E+00 0.  1.
</event>
<event>
 5    1  0.1461556E+002  0.1599229E+01  0.7818608E-02  0.3354200E+00
         11   -1    0    0    0    0  0.00000000000E+00  0.00000000000E+00  0.39999999674E+01  0.40000000000E+01  0.51100000000E-03 0.  1.
    9000002   -1    0    0    0    0 -0.00000000000E+00 -0.00000000000E+00  0.00000000000E+00  0.93800000000E+00  0.93800000000E+00 0.  1.
         11    1    1    2    0    0 -0.13225469315E+00  0.53057784428E-01  0.13133274255E+01  0.13210358133E+01  0.51100000000E-03 0.  1.
    9000002    1    1    2    0    0  0.32974299877E+00 -0.12645291065E+00  0.84016994613E-01  0.10057950284E+01  0.93800000000E+00 0.  1.
         22    1    1    2    0    0 -0.19748830561E+00  0.73395126218E-01  0.26026555472E+01  0.26111691583E+01  0.00000000000E+00 0.  1.
</event>
<event>
 5    1  0.1461556E+002  0.1599470E+01  0.7818608E-02  0.3353938E+00
         11   -1    0    0    0    0  0.00000000000E+00  0.00000000000E+00  0.39999999674E+01  0.40000000000E+01  0.51100000000E-03 0. -1.
    9000002   -1    0    0    0    0 -0.00000000000E+00 -0.00000000000E+00  0.00000000000E+00  0.93800000000E+00  0.93800000000E+00 0. -1.
         11    1    1    2    0    0 -0.29286069480E-01  0.39133399230E-02  0.26711940499E+00  0.26874900137E+00  0.51100000000E-03 0. -1.
    9000002    1    1    2    0    0  0.30531810533E+00 -0.33546553767E-01  0.63143172084E-01  0.98902759157E+00  0.93800000000E+00 0. -1.
         22    1    1    2    0    0 -0.27603203585E+00  0.29633213844E-01  0.36697373903E+01  0.36802234071E+01  0.00000000000E+00 0. -1.
</event>
<event>
 5    1  0.1461556E+002  0.1540649E+01  0.7818608E-02  0.3420412E+00
         11   -1    0    0    0    0  0.00000000000E+00  0.00000000000E+00  0.39999999674E+01  0.40000000000E+01  0.51100000000E-03 0.  1.
    9000002   -1    0    0    0    0 -0.00000000000E+00 -0.00000000000E+00  0.00000000000E+00  0.93800000000E+00  0.93800000000E+00 0. -1.
         11    1    1    2    0    0  0.23905842870E+00 -0.11495046651E+00  0.20572132119E+01  0.20742442003E+01  0.51100000000E-03 0.  1.
    9000002    1    1    2    0    0 -0.22040748671E-01 -0.13080615099E+00  0.56314980248E-01  0.94900549036E+00  0.93800000000E+00 0. -1.
         22    1    1    2    0    0 -0.21701768003E+00  0.24575661750E+00  0.18864717752E+01  0.19147503093E+01  0.00000000000E+00 0.  1.
</event>
<event>
 5    1  0.1461556E+002  0.1565946E+01  0.7818608E-02  0.3391175E+00
         11   -1    0    0    0    0  0.00000000000E+00  0.00000000000E+00  0.39999999674E+01  0.40000000000E+01  0.51100000000E-03 0.  1.
    9000002   -1    0    0    0    0 -0.00000000000E+00 -0.00000000000E+00  0.00000000000E+00  0.93800000000E+00  0.93800000000E+00 0.  1.
         11    1    1    2    0    0  0.46697163106E-01 -0.14842558471E+00  0.10491079217E+01  0.10605840239E+01  0.51100000000E-03 0.  1.
    9000002    1    1    2    0    0  0.18588217571E+00 -0.81126701984E-01  0.52979887901E-01  0.96113713566E+00  0.93800000000E+00 0.  1.
         22    1    1    2    0    0 -0.23257933882E+00  0.22955228669E+00  0.28979121577E+01  0.29162788404E+01  0.00000000000E+00 0.  1.
</event>
<event>
 5    1  0.1461556E+002  0.1597129E+01  0.7818608E-02  0.3356486E+00
         11   -1    0    0    0    0  0.00000000000E+00  0.00000000000E+00  0.39999999674E+01  0.40000000000E+01  0.51100000000E-03 0.  1.
    9000002   -1    0    0    0    0 -0.00000000000E+00 -0.00000000000E+00  0.00000000000E+00  0.93800000000E+00  0.93800000000E+00 0. -1.
         11    1    1    2    0    0 -0.16004896846E-01 -0.21736899124E-01  0.29940994533E+00  0.30062472618E+00  0.51100000000E-03 0.  1.
    9000002    1    1    2    0    0 -0.21190824424E+00  0.25625995269E+00  0.76035804911E-01  0.99809804677E+00  0.93800000000E+00 0. -1.
         22    1    1    2    0    0  0.22791314108E+00 -0.23452305357E+00  0.36245542171E+01  0.36392772271E+01  0.00000000000E+00 0.  1.
</event>
<event>
 5    1  0.1461556E+002  0.1599667E+01  0.7818608E-02  0.3353724E+00
         11   -1    0    0    0    0  0.00000000000E+00  0.00000000000E+00  0.39999999674E+01  0.40000000000E+01  0.51100000000E-03 0. -1.
    9000002   -1    0    0    0    0 -0.00000000000E+00 -0.00000000000E+00  0.00000000000E+00  0.93800000000E+00  0.93800000000E+00 0.  1.
         11    1    1    2    0    0 -0.65342232959E-01  0.54201810709E+00  0.23904889644E+01  0.24520381290E+01  0.51100000000E-03 0. -1.
    9000002    1    1    2    0    0  0.91570363935E-01 -0.80046054946E+00  0.47909753631E+00  0.13260847153E+01  0.93800000000E+00 0.  1.
         22    1    1    2    0    0 -0.26228130975E-01  0.25844244237E+00  0.11304134666E+01  0.11598771557E+01  0.00000000000E+00 0. -1.
</event>
<event>
 5    1  0.1461556E+002  0.1599669E+01  0.7818608E-02  0.3353723E+00
         11   -1    0    0    0    0  0.00000000000E+00  0.00000000000E+00  0.39999999674E+01  0.40000000000E+01  0.51100000000E-03 0.  1.
    9000002   -1    0    0    0    0 -0.00000000000E+00 -0.00000000000E+00  0.00000000000E+00  0.93800000000E+00  0.93800000000E+00 0.  1.
         11    1    1    2    0    0 -0.18283462488E+00  0.91708301692E+00  0.15032403687E+01  0.17703676532E+01  0.51100000000E-03 0.  1.
    9000002    1    1    2    0    0  0.25179179946E+00 -0.12601760593E+01  0.19262782452E+01  0.24983664040E+01  0.93800000000E+00 0.  1.
         22    1    1    2    0    0 -0.68957174578E-01  0.34309304239E+00  0.57048135341E+00  0.66926594285E+00  0.00000000000E+00 0.  1.
</event>
<event>
 5    1  0.1461556E+002  0.1599397E+01  0.7818608E-02  0.3354019E+00
         11   -1    0    0    0    0  0.00000000000E+00  0.00000000000E+00  0.39999999674E+01  0.40000000000E+01  0.51100000000E-03 0. -1.
    9000002   -1    0    0    0    0 -0.00000000000E+00 -0.00000000000E+00  0.00000000000E+00  0.93800000000E+00  0.93800000000E+00 0. -1.
         11    1    1    2    0    0 -0.11582563125E+00  0.19629194838E+00  0.17585033071E+01  0.17732118452E+01  0.51100000000E-03 0. -1.
    9000002    1    1    2    0    0  0.26599368949E+00 -0.38739774176E+00  0.15068345590E+00  0.10598958237E+01  0.93800000000E+00 0. -1.
         22    1    1    2    0    0 -0.15016805823E+00  0.19110579338E+00  0.20908132044E+01  0.21048923311E+01  0.00000000000E+00 0. -1.
</event>
<event>
 5    1  0.1461556E+002  0.1591891E+01  0.7818608E-02  0.3362212E+00
         11   -1    0    0    0    0  0.00000000000E+00  0.00000000000E+00  0.39999999674E+01  0.40000000000E+01  0.51100000000E-03 0. -1.
    9000002   -1    0    0    0    0 -0.00000000000E+00 -0.00000000000E+00  0.00000000000E+00  0.93800000000E+00  0.93800000000E+00 0.  1.
         11    1    1    2    0    0 -0.30967456588E-01 -0.42921425722E-01  0.13229370724E+01  0.13239954648E+01  0.51100000000E-03 0. -1.
    9000002    1    1    2    0    0  0.14904539729E+00 -0.16614218796E+00  0.38937743467E-01  0.96497559810E+00  0.93800000000E+00 0.  1.
         22    1    1    2    0    0 -0.11807794070E+00  0.20906361368E+00  0.26381251515E+01  0.26490289371E+01  0.00000000000E+00 0. -1.
</event>
<event>
 5    1  0.1461556E+002  0.1599462E+01  0.7818608E-02  0.3353948E+00
         11   -1    0    0    0    0  0.00000000000E+00  0.00000000000E+00  0.39999999674E+01  0.40000000000E+01  0.51100000000E-03 0. -1.
    9000002   -1    0    0    0    0 -0.00000000000E+00 -0.00000000000E+00  0.00000000000E+00  0.93800000000E+00  0.93800000000E+00 0.  1.
         11    1    1    2    0    0 -0.94894572325E-02  0.96457507020E-03  0.83877963679E-01  0.84420104925E-01  0.51100000000E-03 0. -1.
    9000002    1    1    2    0    0  0.20954635969E+00 -0.33499466070E-01  0.29996531083E-01  0.96217237695E+00  0.93800000000E+00 0.  1.
         22    1    1    2    0    0 -0.20005690246E+00  0.32534891000E-01  0.38861254726E+01  0.38914075181E+01  0.00000000000E+00 0. -1.
</event>
<event>
 5    1  0.1461556E+002  0.1599603E+01  0.7818608E-02  0.3353795E+00
         11   -1    0    0    0    0  0.00000000000E+00  0.00000000000E+00  0.39999999674E+01  0.40000000000E+01  0.51100000000E-03 0. -1.
    9000002   -1    0    0    0    0 -0.00000000000E+00 -0.00000000000E+00  0.00000000000E+00  0.93800000000E+00  0.93800000000E+00 0.  1.
         11    1    1    2    0    0 -0.38532706066E-02  0.18787230655E-01  0.32299025618E+00  0.32355953771E+00  0.51100000000E-03 0. -1.
    9000002    1    1    2    0    0  0.81828978754E-01 -0.28907723569E+00  0.60275134501E-01  0.98678200318E+00  0.93800000000E+00 0.  1.
         22    1    1    2    0    0 -0.77975708148E-01  0.27029000503E+00  0.36167345767E+01  0.36276584591E+01  0.00000000000E+00 0. -1.
</event>
<event>
 5    1  0.1461556E+002  0.1599670E+01  0.7818608E-02  0.3353721E+00
         11   -1    0    0    0    0  0.00000000000E+00  0.00000000000E+00  0.39999999674E+01  0.40000000000E+01  0.51100000000E-03 0. -1.
    9000002   -1    0    0    0    0 -0.00000000000E+00 -0.00000000000E+00  0.00000000000E+00  0.93800000000E+00  0.93800000000E+00 0.  1.
         11    1    1    2    0    0 -0.10950417623E-01  0.13540569337E-03  0.12464927487E+00  0.12513046322E+00  0.51100000000E-03 0. -1.
    9000002    1    1    2    0    0  0.31527925859E+00  0.20698164104E-02  0.66416783031E-01  0.99179659412E+00  0.93800000000E+00 0.  1.
         22    1    1    2    0    0 -0.30432884097E+00 -0.22052221038E-02  0.38089339095E+01  0.38210729427E+01  0.00000000000E+00 0. -1.
</event>
<event>
 5    1  0.1461556E+002  0.1599671E+01  0.7818608E-02  0.3353720E+00
         11   -1    0    0    0    0  0.00000000000E+00  0.00000000000E+00  0.39999999674E+01  0.40000000000E+01  0.51100000000E-03 0. -1.
    9000002   -1    0    0    0    0 -0.00000000000E+00 -0.00000000000E+00  0.00000000000E+00  0.93800000000E+00  0.93800000000E+00 0.  1.
         11    1    1    2    0    0  0.48786834550E+00  0.40959598526E+00  0.24450736793E+01  0.25266915031E+01  0.51100000000E-03 0. -1.
    9000002    1    1    2    0    0 -0.67697765164E+00 -0.56809129353E+00  0.59371415624E+00  0.14189316255E+01  0.93800000000E+00 0.  1.
         22    1    1    2    0    0  0.18910930614E+00  0.15849530827E+00  0.96121213181E+00  0.99237687133E+00  0.00000000000E+00 0.  1.
</event>
<event>
 5    1  0.1461556E+002  0.1599675E+01  0.7818608E-02  0.3353716E+00
         11   -1    0    0    0    0  0.00000000000E+00  0.00000000000E+00  0.39999999674E+01  0.40000000000E+01  0.51100000000E-03 0. -1.
    9000002   -1    0    0    0    0 -0.00000000000E+00 -0.00000000000E+00  0.00000000000E+00  0.93800000000E+00  0.93800000000E+00 0. -1.
         11    1    1    2    0    0  0.31496163967E-01 -0.15281358167E-01  0.42199365796E+00  0.42344354610E+00  0.51100000000E-03 0. -1.
    9000002    1    1    2    0    0 -0.29541889928E+00  0.15148108599E+00  0.73762191449E-01  0.99774932040E+00  0.93800000000E+00 0. -1.
         22    1    1    2    0    0  0.26392273531E+00 -0.13619972783E+00  0.35042441180E+01  0.35168071335E+01  0.00000000000E+00 0. -1.
</event>
<event>
 5    1  0.1461556E+002  0.1599578E+01  0.7818608E-02  0.3353822E+00
         11   -1    0    0    0    0  0.00000000000E+00  0.00000000000E+00  0.39999999674E+01  0.40000000000E+01  0.51100000000E-03 0. -1.
    9000002   -1    0    0    0    0 -0.00000000000E+00 -0.00000000000E+00  0.00000000000E+00  0.93800000000E+00  0.93800000000E+00 0.  1.
         11    1    1    2    0    0  0.12104520444E+00 -0.11142574063E+00  0.18538586029E+01  0.18611447064E+01  0.51100000000E-03 0. -1.
    9000002    1    1    2    0    0 -0.27927218400E+00  0.24259947897E+00  0.92046794270E-01  0.10125038628E+01  0.93800000000E+00 0.  1.
         22    1    1    2    0    0  0.15822697956E+00 -0.13117373834E+00  0.20540945702E+01  0.20643514308E+01  0.00000000000E+00 0. -1.
</event>
<event>
 5    1  0.1461556E+002  0.1544323E+01  0.7818608E-02  0.3416103E+00
         11   -1    0    0    0    0  0.00000000000E+00  0.00000000000E+00  0.39999999674E+01  0.40000000000E+01  0.51100000000E-03 0.  1.
    9000002   -1    0    0    0    0 -0.00000000000E+00 -0.00000000000E+00  0.00000000000E+00  0.93800000000E+00  0.93800000000E+00 0. -1.
         11    1    1    2    0    0  0.30239976531E+00  0.13655799492E+00  0.27262108864E+01  0.27463284149E+01  0.51100000000E-03 0.  1.
    9000002    1    1    2    0    0 -0.77570877794E-01 -0.79319389670E-01  0.49758114934E-01  0.94584812558E+00  0.93800000000E+00 0. -1.
         22    1    1    2    0    0 -0.22482888752E+00 -0.57238605249E-01  0.12240309660E+01  0.12458234596E+01  0.00000000000E+00 0.  1.
</event>
<event>
 5    1  0.1461556E+002  0.1599675E+01  0.7818608E-02  0.3353717E+00
         11   -1    0    0    0    0  0.00000000000E+00  0.00000000000E+00  0.39999999674E+01  0.40000000000E+01  0.51100000000E-03 0.  1.
    9000002   -1    0    0    0    0 -0.00000000000E+00 -0.00000000000E+00  0.00000000000E+00  0.93800000000E+00  0.93800000000E+00 0. -1.
         11    1    1    2    0    0 -0.19224578300E+00  0.19693266367E+00  0.18140439293E+01  0.18348015026E+01  0.51100000000E-03 0.  1.
    9000002    1    1    2    0    0  0.40118191711E+00 -0.41277741560E+00  0.23000423742E+00  0.11243122674E+01  0.93800000000E+00 0. -1.
         22    1    1    2    0    0 -0.20893613411E+00  0.21584475193E+00  0.19559518006E+01  0.19788862300E+01  0.00000000000E+00 0.  1.
</event>
<event>
 5    1  0.1461556E+002  0.1590063E+01  0.7818608E-02  0.3364220E+00
         11   -1    0    0    0    0  0.00000000000E+00  0.00000000000E+00  0.39999999674E+01  0.40000000000E+01  0.51100000000E-03 0. -1.
    9000002   -1    0    0    0    0 -0.00000000000E+00 -0.00000000000E+00  0.00000000000E+00  0.93800000000E+00  0.93800000000E+00 0.  1.
         11    1    1    2    0    0  0.33105234466E+00  0.59989236755E-01  0.16517976246E+01  0.16857135039E+01  0.51100000000E-03 0. -1.
    9000002    1    1    2    0    0 -0.69443572315E+00  0.12426492492E+00  0.36714226453E+00  0.12297642813E+01  0.93800000000E+00 0.  1.
         22    1    1    2    0    0  0.36338337849E+00 -0.18425416167E+00  0.19810600782E+01  0.20225222148E+01  0.00000000000E+00 0. -1.
</event>
<event>
 5    1  0.1461556E+002  0.1599672E+01  0.7818608E-02  0.3353720E+00
         11   -1    0    0    0    0  0.00000000000E+00  0.00000000000E+00  0.39999999674E+01  0.40000000000E+01  0.51100000000E-03 0. -1.
    9000002   -1    0    0    0    0 -0.00000000000E+00 -0.00000000000E+00  0.00000000000E+00  0.93800000000E+00  0.93800000000E+00 0. -1.
         11    1    1    2    0    0  0.18139001535E-01  0.13397925994E+00  0.91466266933E+00  0.92460127907E+00  0.51100000000E-03 0. -1.
    9000002    1    1    2    0    0 -0.65732165970E-01 -0.55192099075E+00  0.21362602304E+00  0.11110434624E+01  0.93800000000E+00 0. -1.
         22    1    1    2    0    0  0.47593164434E-01  0.41794173081E+00  0.28717112750E+01  0.29023552585E+01  0.00000000000E+00 0. -1.
</event>
<event>
 5    1  0.1461556E+002  0.1599487E+01  0.7818608E-02  0.3353920E+00
         11   -1    0    0    0    0  0.00000000000E+00  0.00000000000E+00  0.39999999674E+01  0.40000000000E+01  0.51100000000E-03 0. -1.
    9000002   -1    0    0    0    0 -0.00000000000E+00 -0.00000000000E+00  0.00000000000E+00  0.93800000000E+00  0.93800000000E+00 0. -1.
         11    1    1    2    0    0 -0.87724537491E-01 -0.82280875738E-01  0.10367538809E+01  0.10437071465E+01  0.51100000000E-03 0. -1.
    9000002    1    1    2    0    0  0.32882288710E+00  0.25317392179E+00  0.11655502871E+00  0.10323035409E+01  0.93800000000E+00 0. -1.
         22    1    1    2    0    0 -0.24109834960E+00 -0.17089304605E+00  0.28466910577E+01  0.28619893126E+01  0.00000000000E+00 0. -1.
</event>
<event>
 5    1  0.1461556E+002  0.1559101E+01  0.7818608E-02  0.3398986E+00
         11   -1    0    0    0    0  0.00000000000E+00  0.00000000000E+00  0.39999999674E+01  0.40000000000E+01  0.51100000000E-03 0. -1.
    9000002   -1    0    0    0    0 -0.00000000000E+00 -0.00000000000E+00  0.00000000000E+00  0.93800000000E+00  0.93800000000E+00 0.  1.
         11    1    1    2    0    0  0.26449431768E+00  0.34977457239E-01  0.20450402507E+01  0.20623701304E+01  0.51100000000E-03 0. -1.
    9000002    1    1    2    0    0 -0.43291027446E-01 -0.80740052527E-01  0.35717009007E-01  0.94313984852E+00  0.93800000000E+00 0.  1.
         22    1    1    2    0    0 -0.22120329024E+00  0.45762595289E-01  0.19192427076E+01  0.19324900211E+01  0.00000000000E+00 0. -1.
</event>
<event>
 5    1  0.1461556E+002  0.1558133E+01  0.7818608E-02  0.3400097E+00
         11   -1    0    0    0    0  0.00000000000E+00  0.00000000000E+00  0.39999999674E+01  0.40000000000E+01  0.51100000000E-03 0.  1.
    9000002   -1    0    0    0    0 -0.00000000000E+00 -0.00000000000E+00  0.00000000000E+00  0.93800000000E+00  0.93800000000E+00 0.  1.
         11    1    1    2    0    0  0.13192051661E+00  0.20398345276E+00  0.13253779441E+01  0.13474565773E+01  0.51100000000E-03 0.  1.
    9000002    1    1    2    0    0  0.11752341073E-01 -0.48942372158E-01  0.32429250444E-01  0.93990910709E+00  0.93800000000E+00 0.  1.
         22    1    1    2    0    0 -0.14367285768E+00 -0.15504108060E+00  0.26421927728E+01  0.26506343156E+01  0.00000000000E+00 0.  1.
</event>
<event>
 5    1  0.1461556E+002  0.1599631E+01  0.7818608E-02  0.3353764E+00
         11   -1    0    0    0    0  0.00000000000E+00  0.00000000000E+00  0.39999999674E+01  0.40000000000E+01  0.51100000000E-03 0.  1.
    9000002   -1    0    0    0    0 -0.00000000000E+00 -0.00000000000E+00  0.00000000000E+00  0.93800000000E+00  0.93800000000E+00 0. -1.
         11    1    1    2    0    0  0.16277254386E+00  0.83574212697E-01  0.15371559029E+01  0.15480077781E+01  0.51100000000E-03 0.  1.
    9000002    1    1    2    0    0 -0.39449886518E+00 -0.19678331858E+00  0.13186541108E+00  0.10447896993E+01  0.93800000000E+00 0. -1.
         22    1    1    2    0    0  0.23172632133E+00  0.11320910588E+00  0.23309786534E+01  0.23452025226E+01  0.00000000000E+00 0.  1.
</event>
<event>
 5    1  0.1461556E+002  0.1599589E+01  0.7818608E-02  0.3353809E+00
         11   -1    0    0    0    0  0.00000000000E+00  0.00000000000E+00  0.39999999674E+01  0.40000000000E+01  0.51100000000E-03 0. -1.
    9000002   -1    0    0    0    0 -0.00000000000E+00 -0.00000000000E+00  0.00000000000E+00  0.93800000000E+00  0.93800000000E+00 0.  1.
         11    1    1    2    0    0  0.10680206808E+00  0.60203944093E-01  0.12765748338E+01  0.12824487374E+01  0.51100000000E-03 0. -1.
    9000002    1    1    2    0    0 -0.33782549710E+00 -0.15385203678E+00  0.92689198926E-01  0.10130309982E+01  0.93800000000E+00 0.  1.
         22    1    1    2    0    0  0.23102342902E+00  0.93648092691E-01  0.26307359346E+01  0.26425202644E+01  0.00000000000E+00 0. -1.
</event>
<event>
 5    1  0.1461556E+002  0.1599667E+01  0.7818608E-02  0.3353725E+00
         11   -1    0    0    0    0  0.00000000000E+00  0.00000000000E+00  0.39999999674E+01  0.40000000000E+01  0.51100000000E-03 0. -1.
    9000002   -1    0    0    0    0 -0.00000000000E+00 -0.00000000000E+00  0.00000000000E+00  0.93800000000E+00  0.93800000000E+00 0.  1.
         11    1    1    2    0    0 -0.85654671471E-01 -0.13755627766E+00  0.80830068219E+00  0.82438383428E+00  0.51100000000E-03 0. -1.
    9000002    1    1    2    0    0  0.37199269111E+00  0.61197936241E+00  0.36819373214E+00  0.12362475184E+01  0.93800000000E+00 0.  1.
         22    1    1    2    0    0 -0.28633801964E+00 -0.47442308475E+00  0.28235055530E+01  0.28773686474E+01  0.00000000000E+00 0.  1.
</event>
<event>
 5    1  0.1461556E+002  0.1599677E+01  0.7818608E-02  0.3353714E+00
         11   -1    0    0    0    0  0.00000000000E+00  0.00000000000E+00  0.39999999674E+01  0.40000000000E+01  0.51100000000E-03 0.  1.
    9000002   -1    0    0    0    0 -0.00000000000E+00 -0.00000000000E+00  0.00000000000E+00  0.93800000000E+00  0.93800000000E+00 0. -1.
         11    1    1    2    0    0 -0.18130075445E+00 -0.39500356916E+00  0.23712732015E+01  0.24107746972E+01  0.51100000000E-03 0.  1.
    9000002    1    1    2    0    0  0.28064963071E+00  0.61292807749E+00  0.32259280164E+00  0.11993144538E+01  0.93800000000E+00 0. -1.
         22    1    1    2    0    0 -0.99348876261E-01 -0.21792450832E+00  0.13061339642E+01  0.13279108491E+01  0.00000000000E+00 0. -1.
</event>
<event>
 5    1  0.1461556E+002  0.1599028E+01  0.7818608E-02  0.3354419E+00
         11   -1    0    0    0    0  0.00000000000E+00  0.00000000000E+00  0.39999999674E+01  0.40000000000E+01  0.51100000000E-03 0.  1.
    9000002   -1    0    0    0    0 -0.00000000000E+00 -0.00000000000E+00  0.00000000000E+00  0.93800000000E+00  0.93800000000E+00 0. -1.
         11    1    1    2    0    0 -0.65597075744E-01  0.56468397163E-01  0.98987302806E+00  0.99365010393E+00  0.51100000000E-03 0.  1.
    9000002    1    1    2    0    0  0.17279331192E+00 -0.28320927853E+00  0.74172675748E-01  0.99770266609E+00  0.93800000000E+00 0. -1.
         22    1    1    2    0    0 -0.10719623618E+00  0.22674088137E+00  0.29359542635E+01  0.29466472300E+01  0.00000000000E+00 0.  1.
</event>
<event>
 5    1  0.1461556E+002  0.1565573E+01  0.7818608E-02  0.3391598E+00
         11   -1    0    0    0    0  0.00000000000E+00  0.00000000000E+00  0.39999999674E+01  0.40000000000E+01  0.51100000000E-03 0.  1.
    9000002   -1    0    0    0    0 -0.00000000000E+00 -0.00000000000E+00  0.00000000000E+00  0.93800000000E+00  0.93800000000E+00 0.  1.
         11    1    1    2    0    0  0.43195294134E-01 -0.17723593993E+00  0.11637314509E+01  0.11779429370E+01  0.51100000000E-03 0.  1.
    9000002    1    1    2    0    0 -0.13904238737E+00 -0.86117034473E-01  0.43376447427E-01  0.95313925809E+00  0.93800000000E+00 0.  1.
         22    1    1    2    0    0  0.95847093238E-01  0.26335297440E+00  0.27928920691E+01  0.28069178050E+01  0.00000000000E+00 0.  1.
</event>
<event>
 5    1  0.1461556E+002  0.1585075E+01  0.7818608E-02  0.3369723E+00
         11   -1    0    0    0    0  0.00000000000E+00  0.00000000000E+00  0.39999999674E+01  0.40000000000E+01  0.51100000000E-03 0.  1.
    9000002   -1    0    0    0    0 -0.00000000000E+00 -0.00000000000E+00  0.00000000000E+00  0.93800000000E+00  0.93800000000E+00 0. -1.
         11    1    1    2    0    0  0.18672457316E+00 -0.51282430669E-01  0.18710302455E+01  0.18810237624E+01  0.51100000000E-03 0.  1.
    9000002    1    1    2    0    0 -0.52892745671E+00  0.34549350637E+00  0.29564347642E+00  0.11689221884E+01  0.93800000000E+00 0. -1.
         22    1    1    2    0    0  0.34220288354E+00 -0.29421107570E+00  0.18333262454E+01  0.18880540492E+01  0.00000000000E+00 0. -1.
</event>
<event>
 5    1  0.1461556E+002  0.1599582E+01  0.7818608E-02  0.3353818E+00
         11   -1    0    0    0    0  0.00000000000E+00  0.00000000000E+00  0.39999999674E+01  0.40000000000E+01  0.51100000000E-03 0.  1.
    9000002   -1    0    0    0    0 -0.00000000000E+00 -0.00000000000E+00  0.00000000000E+00  0.93800000000E+00  0.93800000000E+00 0. -1.
         11    1    1    2    0    0 -0.12977460025E+00  0.41440455102E-01  0.16926901706E+01  0.16981634294E+01  0.51100000000E-03 0.  1.
    9000002    1    1    2    0    0  0.32672851533E+00 -0.10316428903E+00  0.78727334573E-01  0.10017167197E+01  0.93800000000E+00 0. -1.
         22    1    1    2    0    0 -0.19695391509E+00  0.61723833930E-01  0.22285824622E+01  0.22381198509E+01  0.00000000000E+00 0.  1.
</event>
<event>
 5    1  0.1461556E+002  0.1599085E+01  0.7818608E-02  0.3354357E+00
         11   -1    0    0    0    0  0.00000000000E+00  0.00000000000E+00  0.39999999674E+01  0.40000000000E+01  0.51100000000E-03 0. -1.
    9000002   -1    0    0    0    0 -0.00000000000E+00 -0.00000000000E+00  0.00000000000E+00  0.93800000000E+00  0.93800000000E+00 0.  1.
         11    1    1    2    0    0 -0.13002168714E+00  0.16701434607E+00  0.12962692730E+01  0.13134358454E+01  0.51100000000E-03 0. -1.
    9000002    1    1    2    0    0  0.39778364651E+00 -0.40741435223E+00  0.22535320874E+00  0.11201992468E+01  0.93800000000E+00 0.  1.
         22    1    1    2    0    0 -0.26776195936E+00  0.24040000616E+00  0.24783774857E+01  0.25043649078E+01  0.00000000000E+00 0. -1.
</event>
<event>
 5    1  0.1461556E+002  0.1599577E+01  0.7818608E-02  0.3353822E+00
         11   -1    0    0    0    0  0.00000000000E+00  0.00000000000E+00  0.39999999674E+01  0.40000000000E+01  0.51100000000E-03 0.  1.
    9000002   -1    0    0    0    0 -0.00000000000E+00 -0.00000000000E+00  0.00000000000E+00  0.93800000000E+00  0.93800000000E+00 0.  1.
         11    1    1    2    0    0  0.32576334338E-03  0.49742746607E-01  0.65366965001E+00  0.65555985190E+00  0.51100000000E-03 0.  1.
    9000002    1    1    2    0    0 -0.48897218151E-01 -0.27381967254E+00  0.51589767886E-01  0.97973141991E+00  0.93800000000E+00 0.  1.
         22    1    1    2    0    0  0.48571454807E-01  0.22407692593E+00  0.32947405495E+01  0.33027087282E+01  0.00000000000E+00 0.  1.
</event>
<event>
 5    1  0.1461556E+002  0.1599664E+01  0.7818608E-02  0.3353728E+00
         11   -1    0    0    0    0  0.00000000000E+00  0.00000000000E+00  0.39999999674E+01  0.40000000000E+01  0.51100000000E-03 0. -1.
    9000002   -1    0    0    0    0 -0.00000000000E+00 -0.00000000000E+00  0.00000000000E+00  0.93800000000E+00  0.93800000000E+00 0. -1.
         11    1    1    2    0    0  0.23715539210E-01 -0.12566584939E-02  0.21001446421E+00  0.21135359540E+00  0.51100000000E-03 0. -1.
    9000002    1    1    2    0    0 -0.40485585821E+00  0.16182103119E-01  0.11082081771E+00  0.10277623169E+01  0.93800000000E+00 0. -1.
         22    1    1    2    0    0  0.38114031900E+00 -0.14925444625E-01  0.36791646854E+01  0.36988840877E+01  0.00000000000E+00 0. -1.
</event>
<event>
 5    1  0.1461556E+002  0.1597173E+01  0.7818608E-02  0.3356437E+00
         11   -1    0    0    0    0  0.00000000000E+00  0.00000000000E+00  0.39999999674E+01  0.40000000000E+01  0.51100000000E-03 0. -1.
    9000002   -1    0    0    0    0 -0.00000000000E+00 -0.00000000000E+00  0.00000000000E+00  0.93800000000E+00  0.93800000000E+00 0.  1.
         11    1    1    2    0    0  0.85823887803E-03 -0.26589833599E-01  0.36227171721E+00  0.36324759330E+00  0.51100000000E-03 0. -1.
    9000002    1    1    2    0    0 -0.19233645844E+00 -0.41651529472E-01  0.27510524988E-01  0.95881645383E+00  0.93800000000E+00 0.  1.
         22    1    1    2    0    0  0.19147821956E+00  0.68241363071E-01  0.36102177252E+01  0.36159359529E+01  0.00000000000E+00 0. -1.
</event>
<event>
 5    1  0.1461556E+002  0.1599505E+01  0.7818608E-02  0.3353901E+00
         11   -1    0    0    0    0  0.00000000000E+00  0.00000000000E+00  0.39999999674E+01  0.40000000000E+01  0.51100000000E-03 0. -1.
    9000002   -1    0    0    0    0 -0.00000000000E+00 -0.00000000000E+00  0.00000000000E+00  0.93800000000E+00  0.93800000000E+00 0. -1.
         11    1    1    2    0    0 -0.13881051590E-01  0.18022181868E-01  0.35849696295E+00  0.35921834057E+00  0.51100000000E-03 0. -1.
    9000002    1    1    2    0    0  0.57719602450E-01 -0.22827037364E+00  0.36918615090E-01  0.96780468078E+00  0.93800000000E+00 0. -1.
         22    1    1    2    0    0 -0.43838550860E-01  0.21024819177E+00  0.36045843893E+01  0.36109769787E+01  0.00000000000E+00 0. -1.
</event>
<event>
 5    1  0.1461556E+002  0.1534908E+01  0.7818608E-02  0.3427191E+00
         11   -1    0    0    0    0  0.00000000000E+00  0.00000000000E+00  0.39999999674E+01  0.40000000000E+01  0.51100000000E-03 0. -1.
    9000002   -1    0    0    0    0 -0.00000000000E+00 -0.00000000000E+00  0.00000000000E+00  0.93800000000E+00  0.93800000000E+00 0. -1.
         11    1    1    2    0    0  0.59445099781E-01 -0.11125356003E+00  0.17750714894E+00  0.21776162094E+00  0.51100000000E-03 0. -1.
    9000002    1    1    2    0    0 -0.12852449209E-01 -0.17022719528E+00  0.68982440856E-01  0.95590013109E+00  0.93800000000E+00 0. -1.
         22    1    1    2    0    0 -0.46592650572E-01  0.28148075531E+00  0.37535103776E+01  0.37643382480E+01  0.00000000000E+00 0. -1.
</event>
<event>
 5    1  0.1461556E+002  0.1551893E+01  0.7818608E-02  0.3407291E+00
         11   -1    0    0    0    0  0.00000000000E+00  0.00000000000E+00  0.39999999674E+01  0.40000000000E+01  0.51100000000E-03 0. -1.
    9000002   -1    0    0    0    0 -0.00000000000E+00 -0.00000000000E+00  0.00000000000E+00  0.93800000000E+00  0.93800000000E+00 0. -1.
         11    1    1    2    0    0  0.58138769487E-01 -0.13968331169E+00  0.46688003385E+00  0.49078383349E+00  0.51100000000E-03 0. -1.
    9000002    1    1    2    0    0 -0.24958431031E-01 -0.18797836429E+00  0.60362801025E-01  0.95887770673E+00  0.93800000000E+00 0. -1.
         22    1    1    2    0    0 -0.33180338456E-01  0.32766167598E+00  0.34727571325E+01  0.34883384598E+01  0.00000000000E+00 0. -1.
</event>
<event>
 5    1  0.1461556E+002  0.1599665E+01  0.7818608E-02  0.3353727E+00
         11   -1    0    0    0    0  0.00000000000E+00  0.00000000000E+00  0.39999999674E+01  0.40000000000E+01  0.51100000000E-03 0.  1.
    9000002   -1    0    0    0    0 -0.00000000000E+00 -0.00000000000E+00  0.00000000000E+00  0.93800000000E+00  0.93800000000E+00 0.  1.
         11    1    1    2    0    0  0.26293258035E+00 -0.23138921025E+00  0.20668102158E+01  0.20962774716E+01  0.51100000000E-03 0.  1.
    9000002    1    1    2    0    0 -0.46787487025E+00  0.41285215456E+00  0.27309977442E+00  0.11592158050E+01  0.93800000000E+00 0.  1.
         22    1    1    2    0    0  0.20494228990E+00 -0.18146294432E+00  0.16600899771E+01  0.16825067235E+01  0.00000000000E+00 0.  1.
</event>
<event>
 5    1  0.1461556E+002  0.1599677E+01  0.7818608E-02  0.3353714E+00
         11   -1    0    0    0    0  0.00000000000E+00  0.00000000000E+00  0.39999999674E+01  0.40000000000E+01  0.51100000000E-03 0.  1.
    9000002   -1    0    0    0    0 -0.00000000000E+00 -0.00000000000E+00  0.00000000000E+00  0.93800000000E+00  0.93800000000E+00 0. -1.
         11    1    1    2    0    0  0.47956929598E+00 -0.72780113606E-01  0.25523076035E+01  0.25979911506E+01  0.51100000000E-03 0.  1.
    9000002    1    1    2    0    0 -0.68703349888E+00  0.10395459452E+00  0.34458579010E+00  0.12171298012E+01  0.93800000000E+00 0. -1.
         22    1    1    2    0    0  0.20746420290E+00 -0.31174480915E-01  0.11031065738E+01  0.11228790482E+01  0.00000000000E+00 0.  1.
</event>
<event>
 5    1  0.1461556E+002  0.1551707E+01  0.7818608E-02  0.3407507E+00
         11   -1    0    0    0    0  0.00000000000E+00  0.00000000000E+00  0.39999999674E+01  0.40000000000E+01  0.51100000000E-03 0. -1.
    9000002   -1    0    0    0    0 -0.00000000000E+00 -0.00000000000E+00  0.00000000000E+00  0.93800000000E+00  0.93800000000E+00 0.  1.
         11    1    1    2    0    0  0.97968259446E-01 -0.17586967709E+00  0.23356993268E+01  0.23443590871E+01  0.51100000000E-03 0. -1.
    9000002    1    1    2    0    0  0.97269495985E-01 -0.54129533026E-01  0.44121043539E-01  0.94561198579E+00  0.93800000000E+00 0.  1.
         22    1    1    2    0    0 -0.19523775543E+00  0.22999921012E+00  0.16201795970E+01  0.16480289271E+01  0.00000000000E+00 0. -1.
</event>
<event>
 5    1  0.1461556E+002  0.1549181E+01  0.7818608E-02  0.3410438E+00
         11   -1    0    0    0    0  0.00000000000E+00  0.00000000000E+00  0.39999999674E+01  0.40000000000E+01  0.51100000000E-03 0.  1.
    9000002   -1    0    0    0    0 -0.00000000000E+00 -0.00000000000E+00  0.00000000000E+00  0.93800000000E+00  0.93800000000E+00 0. -1.
         11    1    1    2    0    0 -0.23931214417E-01 -0.47426024850E+00  0.15939088464E+01  0.16631419537E+01  0.51100000000E-03 0.  1.
    9000002    1    1    2    0    0  0.29072169500E+00  0.52077702295E+00  0.29987436205E+00  0.11513020649E+01  0.93800000000E+00 0. -1.
         22    1    1    2    0    0 -0.26679048058E+00 -0.46516774446E-01  0.21062167589E+01  0.21235559814E+01  0.00000000000E+00 0.  1.
</event>
<event>
 5    1  0.1461556E+002  0.1540049E+01  0.7818608E-02  0.3421118E+00
         11   -1    0    0    0    0  0.00000000000E+00  0.00000000000E+00  0.39999999674E+01  0.40000000000E+01  0.51100000000E-03 0.  1.
    9000002   -1    0    0    0    0 -0.00000000000E+00 -0.00000000000E+00  0.00000000000E+00  0.93800000000E+00  0.93800000000E+00 0.  1.
         11    1    1    2    0    0  0.20936915073E+00  0.18502934912E+00  0.10410902217E+01  0.10779333987E+01  0.51100000000E-03 0.  1.
    9000002    1    1    2    0    0  0.42972515172E-02 -0.12170001048E+00  0.54841614719E-01  0.94746026915E+00  0.93800000000E+00 0.  1.
         22    1    1    2    0    0 -0.21366640225E+00 -0.63329338640E-01  0.29040681310E+01  0.29126063321E+01  0.00000000000E+00 0.  1.
</event>
<event>
 5    1  0.1461556E+002  0.1534454E+01  0.7818608E-02  0.3427729E+00
         11   -1    0    0    0    0  0.00000000000E+00  0.00000000000E+00  0.39999999674E+01  0.40000000000E+01  0.51100000000E-03 0. -1.
    9000002   -1    0    0    0    0 -0.00000000000E+00 -0.00000000000E+00  0.00000000000E+00  0.93800000000E+00  0.93800000000E+00 0.  1.
         11    1    1    2    0    0  0.14662362052E+00  0.12149686579E+00  0.34842029486E+01  0.34894025882E+01  0.51100000000E-03 0. -1.
    9000002    1    1    2    0    0 -0.94496698823E-01  0.77757941190E-01  0.59320333677E-01  0.94780737784E+00  0.93800000000E+00 0.  1.
         22    1    1    2    0    0 -0.52126921699E-01 -0.19925480698E+00  0.45647668511E+00  0.50079003396E+00  0.00000000000E+00 0.  1.
</event>
<event>
 5    1  0.1461556E+002  0.1590057E+01  0.7818608E-02  0.3364226E+00
         11   -1    0    0    0    0  0.00000000000E+00  0.00000000000E+00  0.39999999674E+01  0.40000000000E+01  0.51100000000E-03 0. -1.
    9000002   -1    0    0    0    0 -0.00000000000E+00 -0.00000000000E+00  0.00000000000E+00  0.93800000000E+00  0.93800000000E+00 0.  1.
         11    1    1    2    0    0  0.22237380394E+00  0.10262567796E+00  0.17462111716E+01  0.17633025422E+01  0.51100000000E-03 0. -1.
    9000002    1    1    2    0    0 -0.38789571788E+00 -0.45672095485E+00  0.26008906478E+00  0.11430430614E+01  0.93800000000E+00 0.  1.
         22    1    1    2    0    0  0.16552191394E+00  0.35409527689E+00  0.19936997310E+01  0.20316543964E+01  0.00000000000E+00 0. -1.
</event>
<event>
 5    1  0.1461556E+002  0.1599671E+01  0.7818608E-02  0.3353720E+00
         11   -1    0    0    0    0  0.00000000000E+00  0.00000000000E+00  0.39999999674E+01  0.40000000000E+01  0.51100000000E-03 0.  1.
    9000002   -1    0    0    0    0 -0.00000000000E+00 -0.00000000000E+00  0.00000000000E+00  0.93800000000E+00  0.93800000000E+00 0.  1.
         11    1    1    2    0    0  0.32860196326E-01  0.15849208472E+00  0.16605391401E+01  0.16684094313E+01  0.51100000000E-03 0.  1.
    9000002    1    1    2    0    0 -0.70592498093E-01 -0.37209501460E+00  0.96500725591E-01  0.10161665172E+01  0.93800000000E+00 0.  1.
         22    1    1    2    0    0  0.37732301767E-01  0.21360292988E+00  0.22429601016E+01  0.22534240515E+01  0.00000000000E+00 0. -1.
</event>
<event>
 5    1  0.1461556E+002  0.1599675E+01  0.7818608E-02  0.3353716E+00
         11   -1    0    0    0    0  0.00000000000E+00  0.00000000000E+00  0.39999999674E+01  0.40000000000E+01  0.51100000000E-03 0.  1.
    9000002   -1    0    0    0    0 -0.00000000000E+00 -0.00000000000E+00  0.00000000000E+00  0.93800000000E+00  0.93800000000E+00 0. -1.
         11    1    1    2    0    0 -0.21726244637E-01 -0.82453668227E-02  0.41478275416E+00  0.41543352061E+00  0.51100000000E-03 0.  1.
    9000002    1    1    2    0    0  0.21648148030E+00  0.79223365483E-01  0.35251722207E-01  0.96655432174E+00  0.93800000000E+00 0. -1.
         22    1    1    2    0    0 -0.19475523566E+00 -0.70977998661E-01  0.35499654910E+01  0.35560121577E+01  0.00000000000E+00 0.  1.
</event>
<event>
 5    1  0.1461556E+002  0.1599657E+01  0.7818608E-02  0.3353736E+00
         11   -1    0    0    0    0  0.00000000000E+00  0.00000000000E+00  0.39999999674E+01  0.40000000000E+01  0.51100000000E-03 0. -1.
    9000002   -1    0    0    0    0 -0.00000000000E+00 -0.00000000000E+00  0.00000000000E+00  0.93800000000E+00  0.93800000000E+00 0.  1.
         11    1    1    2    0    0  0.20951947147E-01  0.34838019649E-01  0.46723068259E+00  0.46899620848E+00  0.51100000000E-03 0. -1.
    9000002    1    1    2    0    0 -0.20447784209E+00 -0.29237309074E+00  0.85431989442E-01  0.10071920556E+01  0.93800000000E+00 0.  1.
         22    1    1    2    0    0  0.18352589494E+00  0.25753507109E+00  0.34473372953E+01  0.34618117359E+01  0.00000000000E+00 0. -1.
</event>
<event>
 5    1  0.1582771E+002  0.1513766E+01  0.7818608E-02  0.3452629E+00
         11   -1    0    0    0    0  0.00000000000E+00  0.00000000000E+00  0.39999999674E+01  0.40000000000E+01  0.51100000000E-03 0. -1.
    9000002   -1    0    0    0    0 -0.00000000000E+00 -0.00000000000E+00  0.00000000000E+00  0.93800000000E+00  0.93800000000E+00 0.  1.
         11    1    1    2    0    0  0.43414282252E-01 -0.20528535514E+00  0.37888540825E+00  0.43310655807E+00  0.51100000000E-03 0. -1.
    9000002    1    1    2    0    0 -0.46170966309E-01 -0.49410788100E-01  0.68247430643E-01  0.94290768154E+00  0.93800000000E+00 0.  1.
         22    1    1    2    0    0  0.27566840568E-02  0.25469614324E+00  0.35528671285E+01  0.35619857604E+01  0.00000000000E+00 0. -1.
</event>
<event>
 5    1  0.1461556E+002  0.1599671E+01  0.7818608E-02  0.3353720E+00
         11   -1    0    0    0    0  0.00000000000E+00  0.00000000000E+00  0.39999999674E+01  0.40000000000E+01  0.51100000000E-03 0. -1.
    9000002   -1    0    0    0    0 -0.00000000000E+00 -0.00000000000E+00  0.00000000000E+00  0.93800000000E+00  0.93800000000E+00 0. -1.
         11    1    1    2    0    0 -0.48045298210E-01 -0.73632484887E-02  0.80849652651E+00  0.80995645723E+00  0.51100000000E-03 0. -1.
    9000002    1    1    2    0    0  0.24650761050E+00  0.36233086006E-01  0.41240049345E-01  0.97140289284E+00  0.93800000000E+00 0. -1.
         22    1    1    2    0    0 -0.19846231229E+00 -0.28869837518E-01  0.31502633915E+01  0.31566406499E+01  0.00000000000E+00 0. -1.
</event>
<event>
 5    1  0.1461556E+002  0.1599491E+01  0.7818608E-02  0.3353916E+00
         11   -1    0    0    0    0  0.00000000000E+00  0.00000000000E+00  0.39999999674E+01  0.40000000000E+01  0.51100000000E-03 0.  1.
    9000002   -1    0    0    0    0 -0.00000000000E+00 -0.00000000000E+00  0.00000000000E+00  0.93800000000E+00  0.93800000000E+00 0.  1.
         11    1    1    2    0    0 -0.21114043990E-03 -0.56287800193E-02  0.10439668038E+00  0.10454977637E+00  0.51100000000E-03 0.  1.
    9000002    1    1    2    0    0  0.17709475604E+00  0.10892315409E+00  0.28771004344E-01  0.96119642987E+00  0.93800000000E+00 0.  1.
         22    1    1    2    0    0 -0.17688361560E+00 -0.10329437407E+00  0.38668322826E+01  0.38722537938E+01  0.00000000000E+00 0.  1.
</event>
<event>
 5    1  0.1461556E+002  0.1596780E+01  0.7818608E-02  0.3356865E+00
         11   -1    0    0    0    0  0.00000000000E+00  0.00000000000E+00  0.39999999674E+01  0.40000000000E+01  0.51100000000E-03 0.  1.
    9000002   -1    0    0    0    0 -0.00000000000E+00 -0.00000000000E+00  0.00000000000E+00  0.93800000000E+00  0.93800000000E+00 0.  1.
         11    1    1    2    0    0  0.52030359852E-01  0.26680681352E-01  0.50093348632E+00  0.50433484506E+00  0.51100000000E-03 0.  1.
    9000002    1    1    2    0    0 -0.30999230393E+00  0.11534630531E+00  0.75512474120E-01  0.99746986540E+00  0.93800000000E+00 0.  1.
         22    1    1    2    0    0  0.25796194407E+00 -0.14202698666E+00  0.34235540069E+01  0.34361952895E+01  0.00000000000E+00 0.  1.
</event>
<event>
 5    1  0.1461556E+002  0.1568046E+01  0.7818608E-02  0.3388792E+00
         11   -1    0    0    0    0  0.00000000000E+00  0.00000000000E+00  0.39999999674E+01  0.40000000000E+01  0.51100000000E-03 0.  1.
    9000002   -1    0    0    0    0 -0.00000000000E+00 -0.00000000000E+00  0.00000000000E+00  0.93800000000E+00  0.93800000000E+00 0. -1.
         11    1    1    2    0    0 -0.14299262145E+00  0.78757356377E-01  0.37277692380E+00  0.40695516585E+00  0.51100000000E-03 0.  1.
    9000002    1    1    2    0    0  0.23853459836E+00 -0.30572459347E+00  0.12784473924E+00  0.10230124921E+01  0.93800000000E+00 0. -1.
         22    1    1    2    0    0 -0.95541976912E-01  0.22696723709E+00  0.34993783043E+01  0.35080323420E+01  0.00000000000E+00 0.  1.
</event>
<event>
 5    1  0.1461556E+002  0.1588838E+01  0.7818608E-02  0.3365568E+00
         11   -1    0    0    0    0  0.00000000000E+00  0.00000000000E+00  0.39999999674E+01  0.40000000000E+01  0.51100000000E-03 0.  1.
    9000002   -1    0    0    0    0 -0.00000000000E+00 -0.00000000000E+00  0.00000000000E+00  0.93800000000E+00  0.93800000000E+00 0.  1.
         11    1    1    2    0    0 -0.33102572163E-01 -0.59599659487E-01  0.69548248121E+00  0.69881617217E+00  0.51100000000E-03 0.  1.
    9000002    1    1    2    0    0 -0.38772116684E-01 -0.15339887414E+00  0.24597201266E-01  0.95156897487E+00  0.93800000000E+00 0.  1.
         22    1    1    2    0    0  0.71874688847E-01  0.21299853363E+00  0.32799202849E+01  0.32876148530E+01  0.00000000000E+00 0.  1.
</event>
<event>
 5    1  0.1461556E+002  0.1599671E+01  0.7818608E-02  0.3353720E+00
         11   -1    0    0    0    0  0.00000000000E+00  0.00000000000E+00  0.39999999674E+01  0.40000000000E+01  0.51100000000E-03 0.  1.
    9000002   -1    0    0    0    0 -0.00000000000E+00 -0.00000000000E+00  0.00000000000E+00  0.93800000000E+00  0.93800000000E+00 0.  1.
         11    1    1    2    0    0 -0.12803362349E-03  0.72922286985E-01  0.96646628673E+00  0.96921360950E+00  0.51100000000E-03 0.  1.
    9000002    1    1    2    0    0 -0.95260916275E-02 -0.29847982698E+00  0.59490665849E-01  0.98618664200E+00  0.93800000000E+00 0.  1.
         22    1    1    2    0    0  0.96541252510E-02  0.22555754000E+00  0.29740430148E+01  0.29825997485E+01  0.00000000000E+00 0. -1.
</event>
<event>
 5    1  0.1461556E+002  0.1520189E+01  0.7818608E-02  0.3444820E+00
         11   -1    0    0    0    0  0.00000000000E+00  0.00000000000E+00  0.39999999674E+01  0.40000000000E+01  0.51100000000E-03 0. -1.
    9000002   -1    0    0    0    0 -0.00000000000E+00 -0.00000000000E+00  0.00000000000E+00  0.93800000000E+00  0.93800000000E+00 0.  1.
         11    1    1    2    0    0  0.30018919461E+00  0.41207910478E-01  0.10407369248E+01  0.10839489159E+01  0.51100000000E-03 0. -1.
    9000002    1    1    2    0    0  0.76458060885E-03 -0.11398996198E+00  0.69181119708E-01  0.94743037915E+00  0.93800000000E+00 0.  1.
         22    1    1    2    0    0 -0.30095377522E+00  0.72782051498E-01  0.28900819229E+01  0.29066207050E+01  0.00000000000E+00 0. -1.
</event>
<event>
 5    1  0.1461556E+002  0.1599676E+01  0.7818608E-02  0.3353715E+00
         11   -1    0    0    0    0  0.00000000000E+00  0.00000000000E+00  0.39999999674E+01  0.40000000000E+01  0.51100000000E-03 0.  1.
    9000002   -1    0    0    0    0 -0.00000000000E+00 -0.00000000000E+00  0.00000000000E+00  0.93800000000E+00  0.93800000000E+00 0. -1.
         11    1    1    2    0    0  0.76378998485E-01 -0.29758817254E+00  0.19562403217E+01  0.19802194144E+01  0.51100000000E-03 0.  1.
    9000002    1    1    2    0    0 -0.14470939394E+00  0.57150082766E+00  0.24195364601E+00  0.11339927564E+01  0.93800000000E+00 0. -1.
         22    1    1    2    0    0  0.68330395454E-01 -0.27391265513E+00  0.18018059997E+01  0.18237878292E+01  0.00000000000E+00 0.  1.
</event>
<event>
 5    1  0.1461556E+002  0.1582263E+01  0.7818608E-02  0.3372843E+00
         11   -1    0    0    0    0  0.00000000000E+00  0.00000000000E+00  0.39999999674E+01  0.40000000000E+01  0.51100000000E-03 0.  1.
    9000002   -1    0    0    0    0 -0.00000000000E+00 -0.00000000000E+00  0.00000000000E+00  0.93800000000E+00  0.93800000000E+00 0. -1.
         11    1    1    2    0    0 -0.52981743176E-01 -0.14421359756E-02  0.82263146138E-01  0.97860263640E-01  0.51100000000E-03 0.  1.
    9000002    1    1    2    0    0  0.25126606739E+00 -0.10937063350E+00  0.63560309041E-01  0.97927548983E+00  0.93800000000E+00 0. -1.
         22    1    1    2    0    0 -0.19828432421E+00  0.11081276947E+00  0.38541765122E+01  0.38608642465E+01  0.00000000000E+00 0.  1.
</event>
<event>
 5    1  0.1461556E+002  0.1597809E+01  0.7818608E-02  0.3355745E+00
         11   -1    0    0    0    0  0.00000000000E+00  0.00000000000E+00  0.39999999674E+01  0.40000000000E+01  0.51100000000E-03 0. -1.
    9000002   -1    0    0    0    0 -0.00000000000E+00 -0.00000000000E+00  0.00000000000E+00  0.93800000000E+00  0.93800000000E+00 0. -1.
         11    1    1    2    0    0 -0.10015723607E+00  0.16267916934E+00  0.18244714743E+01  0.18344460760E+01  0.51100000000E-03 0. -1.
    9000002    1    1    2    0    0  0.13767665670E+00 -0.42560288043E+00  0.13745805513E+00  0.10482515874E+01  0.93800000000E+00 0. -1.
         22    1    1    2    0    0 -0.37519420628E-01  0.26292371109E+00  0.20380704379E+01  0.20553023365E+01  0.00000000000E+00 0. -1.
</event>
<event>
 5    1  0.1461556E+002  0.1599644E+01  0.7818608E-02  0.3353750E+00
         11   -1    0    0    0    0  0.00000000000E+00  0.00000000000E+00  0.39999999674E+01  0.40000000000E+01  0.51100000000E-03 0.  1.
    9000002   -1    0    0    0    0 -0.00000000000E+00 -0.00000000000E+00  0.00000000000E+00  0.93800000000E+00  0.93800000000E+00 0.  1.
         11    1    1    2    0    0 -0.36038777374E-01  0.83767047390E-02  0.55312059814E+00  0.55435694265E+00  0.51100000000E-03 0.  1.
    9000002    1    1    2    0    0  0.25269798219E+00 -0.26208151854E-01  0.42913926326E-01  0.97274289640E+00  0.93800000000E+00 0.  1.
         22    1    1    2    0    0 -0.21665920482E+00  0.17831447115E-01  0.34039654429E+01  0.34109001609E+01  0.00000000000E+00 0.  1.
</event>
<event>
 5    1  0.1461556E+002  0.1593120E+01  0.7818608E-02  0.3360864E+00
         11   -1    0    0    0    0  0.00000000000E+00  0.00000000000E+00  0.39999999674E+01  0.40000000000E+01  0.51100000000E-03 0.  1.
    9000002   -1    0    0    0    0 -0.00000000000E+00 -0.00000000000E+00  0.00000000000E+00  0.93800000000E+00  0.93800000000E+00 0.  1.
         11    1    1    2    0    0 -0.29265597656E-01  0.33099497767E-01  0.19412243330E+01  0.19417271240E+01  0.51100000000E-03 0.  1.
    9000002    1    1    2    0    0  0.25696174339E+00 -0.45815410385E-01  0.50348199344E-01  0.97493965484E+00  0.93800000000E+00 0.  1.
         22    1    1    2    0    0 -0.22769614574E+00  0.12715912618E-01  0.20084274350E+01  0.20213332211E+01  0.00000000000E+00 0.  1.
</event>
<event>
 5    1  0.1461556E+002  0.1599611E+01  0.7818608E-02  0.3353786E+00
         11   -1    0    0    0    0  0.00000000000E+00  0.00000000000E+00  0.39999999674E+01  0.40000000000E+01  0.51100000000E-03 0.  1.
    9000002   -1    0    0    0    0 -0.00000000000E+00 -0.00000000000E+00  0.00000000000E+00  0.93800000000E+00  0.93800000000E+00 0. -1.
         11    1    1    2    0    0 -0.40634908108E-02 -0.17275668077E+00  0.12730330737E+01  0.12847080799E+01  0.51100000000E-03 0.  1.
    9000002    1    1    2    0    0 -0.12530739814E-01  0.50636136680E+00  0.17588270464E+00  0.10804339772E+01  0.93800000000E+00 0. -1.
         22    1    1    2    0    0  0.16594230625E-01 -0.33360468602E+00  0.25510841890E+01  0.25728579429E+01  0.00000000000E+00 0.  1.
</event>
<event>
 5    1  0.1461556E+002  0.1599672E+01  0.7818608E-02  0.3353719E+00
         11   -1    0    0    0    0  0.00000000000E+00  0.00000000000E+00  0.39999999674E+01  0.40000000000E+01  0.51100000000E-03 0. -1.
    9000002   -1    0    0    0    0 -0.00000000000E+00 -0.00000000000E+00  0.00000000000E+00  0.93800000000E+00  0.93800000000E+00 0. -1.
         11    1    1    2    0    0 -0.34426868837E+00 -0.43272357274E+00  0.25111341508E+01  0.25712964832E+01  0.51100000000E-03 0. -1.
    9000002    1    1    2    0    0  0.48649092651E+00  0.61502577551E+00  0.45059736806E+00  0.13030011950E+01  0.93800000000E+00 0. -1.
         22    1    1    2    0    0 -0.14222223815E+00 -0.18230220277E+00  0.10382684485E+01  0.10637023218E+01  0.00000000000E+00 0. -1.
</event>
<event>
 5    1  0.1461556E+002  0.1546907E+01  0.7818608E-02  0.3413084E+00
         11   -1    0    0    0    0  0.00000000000E+00  0.00000000000E+00  0.39999999674E+01  0.40000000000E+01  0.51100000000E-03 0. -1.
    9000002   -1    0    0    0    0 -0.00000000000E+00 -0.00000000000E+00  0.00000000000E+00  0.93800000000E+00  0.93800000000E+00 0. -1.
         11    1    1    2    0    0  0.96819045572E-01 -0.21963193649E+00  0.31641118724E+01  0.31732028484E+01  0.51100000000E-03 0. -1.
    9000002    1    1    2    0    0  0.32355811970E-01  0.42539584674E-01  0.41191098083E-01  0.94042395833E+00  0.93800000000E+00 0. -1.
         22    1    1    2    0    0 -0.12917485754E+00  0.17709235181E+00  0.79469699690E+00  0.82437319326E+00  0.00000000000E+00 0. -1.
</event>
<event>
 5    1  0.1461556E+002  0.1588051E+01  0.7818608E-02  0.3366436E+00
         11   -1    0    0    0    0  0.00000000000E+00  0.00000000000E+00  0.39999999674E+01  0.40000000000E+01  0.51100000000E-03 0.  1.
    9000002   -1    0    0    0    0 -0.00000000000E+00 -0.00000000000E+00  0.00000000000E+00  0.93800000000E+00  0.93800000000E+00 0. -1.
         11    1    1    2    0    0  0.40777035965E-01 -0.18731875820E-01  0.22532007642E+01  0.22536476199E+01  0.51100000000E-03 0.  1.
    9000002    1    1    2    0    0 -0.22922796855E+00  0.19240448517E+00  0.68898229305E-01  0.98699337054E+00  0.93800000000E+00 0. -1.
         22    1    1    2    0    0  0.18845093259E+00 -0.17367260935E+00  0.16779009738E+01  0.16973590095E+01  0.00000000000E+00 0. -1.
</event>
<event>
 5    1  0.1461556E+002  0.1588928E+01  0.7818608E-02  0.3365469E+00
         11   -1    0    0    0    0  0.00000000000E+00  0.00000000000E+00  0.39999999674E+01  0.40000000000E+01  0.51100000000E-03 0.  1.
    9000002   -1    0    0    0    0 -0.00000000000E+00 -0.00000000000E+00  0.00000000000E+00  0.93800000000E+00  0.93800000000E+00 0. -1.
         11    1    1    2    0    0  0.96447176928E-02 -0.83053758028E-01  0.58484869939E+00  0.59079540418E+00  0.51100000000E-03 0.  1.
    9000002    1    1    2    0    0 -0.20094186959E+00 -0.21862658735E-01  0.35155832014E-01  0.96017474624E+00  0.93800000000E+00 0. -1.
         22    1    1    2    0    0  0.19129715190E+00  0.10491641676E+00  0.33799954360E+01  0.33870298496E+01  0.00000000000E+00 0.  1.
</event>
<event>
 5    1  0.1690665E+002  0.1579752E+01  0.7818608E-02  0.3375637E+00
         11   -1    0    0    0    0  0.00000000000E+00  0.00000000000E+00  0.39999999674E+01  0.40000000000E+01  0.51100000000E-03 0. -1.
    9000002   -1    0    0    0    0 -0.00000000000E+00 -0.00000000000E+00  0.00000000000E+00  0.93800000000E+00  0.93800000000E+00 0. -1.
         11    1    1    2    0    0  0.49179808721E-01  0.46780567645E-01  0.19768025592E+00  0.20900913807E+00  0.51100000000E-03 0. -1.
    9000002    1    1    2    0    0  0.10697918607E+00  0.83548556014E-01  0.26957799120E-01  0.94815380102E+00  0.93800000000E+00 0. -1.
         22    1    1    2    0    0 -0.15615899479E+00 -0.13032912366E+00  0.37753619123E+01  0.37808370609E+01  0.00000000000E+00 0. -1.
</event>
<event>
 5    1  0.1461556E+002  0.1599677E+01  0.7818608E-02  0.3353714E+00
         11   -1    0    0    0    0  0.00000000000E+00  0.00000000000E+00  0.39999999674E+01  0.40000000000E+01  0.51100000000E-03 0.  1.
    9000002   -1    0    0    0    0 -0.00000000000E+00 -0.00000000000E+00  0.00000000000E+00  0.93800000000E+00  0.93800000000E+00 0. -1.
         11    1    1    2    0    0 -0.39829465184E+00  0.27498612987E+00  0.20962350551E+01  0.21513850582E+01  0.51100000000E-03 0.  1.
    9000002    1    1    2    0    0  0.66773887596E+00 -0.46179430009E+00  0.48751374153E+00  0.13329076601E+01  0.93800000000E+00 0. -1.
         22    1    1    2    0    0 -0.26944422412E+00  0.18680817022E+00  0.14162511707E+01  0.14537072817E+01  0.00000000000E+00 0. -1.
</event>
<event>
 5    1  0.1461556E+002  0.1599670E+01  0.7818608E-02  0.3353722E+00
         11   -1    0    0    0    0  0.00000000000E+00  0.00000000000E+00  0.39999999674E+01  0.40000000000E+01  0.51100000000E-03 0. -1.
    9000002   -1    0    0    0    0 -0.00000000000E+00 -0.00000000000E+00  0.00000000000E+00  0.93800000000E+00  0.93800000000E+00 0.  1.
         11    1    1    2    0    0  0.17880703244E+00  0.86080634083E-01  0.18064998518E+01  0.18173672733E+01  0.51100000000E-03 0. -1.
    9000002    1    1    2    0    0 -0.37717720817E+00 -0.18572811545E+00  0.11955492145E+00  0.10348405474E+01  0.93800000000E+00 0.  1.
         22    1    1    2    0    0  0.19837017573E+00  0.99647481363E-01  0.20739451942E+01  0.20857921794E+01  0.00000000000E+00 0. -1.
</event>
<event>
 5    1  0.1461556E+002  0.1568882E+01  0.7818608E-02  0.3387846E+00
         11   -1    0    0    0    0  0.00000000000E+00  0.00000000000E+00  0.39999999674E+01  0.40000000000E+01  0.51100000000E-03 0. -1.
    9000002   -1    0    0    0    0 -0.00000000000E+00 -0.00000000000E+00  0.00000000000E+00  0.93800000000E+00  0.93800000000E+00 0. -1.
         11    1    1    2    0    0  0.16026472464E+00  0.56781139535E-01  0.20537867691E+01  0.20608127605E+01  0.51100000000E-03 0. -1.
    9000002    1    1    2    0    0 -0.77565104767E-01  0.22447037628E+00  0.61219479427E-01  0.96953345479E+00  0.93800000000E+00 0. -1.
         22    1    1    2    0    0 -0.82699619873E-01 -0.28125151582E+00  0.18849937188E+01  0.19076537847E+01  0.00000000000E+00 0. -1.
</event>
<event>
 5    1  0.1461556E+002  0.1536339E+01  0.7818608E-02  0.3425496E+00
         11   -1    0    0    0    0  0.00000000000E+00  0.00000000000E+00  0.39999999674E+01  0.40000000000E+01  0.51100000000E-03 0.  1.
    9000002   -1    0    0    0    0 -0.00000000000E+00 -0.00000000000E+00  0.00000000000E+00  0.93800000000E+00  0.93800000000E+00 0. -1.
         11    1    1    2    0    0  0.95870116673E-01 -0.15908322147E-01  0.91577458980E-01  0.13353219124E+00  0.51100000000E-03 0.  1.
    9000002    1    1    2    0    0  0.77704230352E-01 -0.33834686504E+00  0.13357207748E+00  0.10090599825E+01  0.93800000000E+00 0. -1.
         22    1    1    2    0    0 -0.17357434702E+00  0.35425518719E+00  0.37748504309E+01  0.37954078262E+01  0.00000000000E+00 0.  1.
</event>
<event>
 5    1  0.1461556E+002  0.1596845E+01  0.7818608E-02  0.3356795E+00
         11   -1    0    0    0    0  0.00000000000E+00  0.00000000000E+00  0.39999999674E+01  0.40000000000E+01  0.51100000000E-03 0.  1.
    9000002   -1    0    0    0    0 -0.00000000000E+00 -0.00000000000E+00  0.00000000000E+00  0.93800000000E+00  0.93800000000E+00 0. -1.
         11    1    1    2    0    0 -0.16434073504E-02  0.37902212211E-01  0.53694308263E+00  0.53828190902E+00  0.51100000000E-03 0.  1.
    9000002    1    1    2    0    0  0.17679765703E+00 -0.53647603458E+00  0.22372970680E+00  0.11175701002E+01  0.93800000000E+00 0. -1.
         22    1    1    2    0    0 -0.17515424967E+00  0.49857382237E+00  0.32393271779E+01  0.32821479908E+01  0.00000000000E+00 0.  1.
</event>
<event>
 5    1  0.1461556E+002  0.1599669E+01  0.7818608E-02  0.3353723E+00
         11   -1    0    0    0    0  0.00000000000E+00  0.00000000000E+00  0.39999999674E+01  0.40000000000E+01  0.51100000000E-03 0. -1.
    9000002   -1    0    0    0    0 -0.00000000000E+00 -0.00000000000E+00  0.00000000000E+00  0.93800000000E+00  0.93800000000E+00 0.  1.
         11    1    1    2    0    0 -0.68797329773E-01  0.42824148675E-01  0.51522822990E+00  0.52156243184E+00  0.51100000000E-03 0. -1.
    9000002    1    1    2    0    0  0.51685680339E+00 -0.30863137182E+00  0.25295773843E+00  0.11429024002E+01  0.93800000000E+00 0.  1.
         22    1    1    2    0    0 -0.44805947362E+00  0.26580722314E+00  0.32318139990E+01  0.32735351680E+01  0.00000000000E+00 0. -1.
</event>
<event>
 5    1  0.1461556E+002  0.1528779E+01  0.7818608E-02  0.3434487E+00
         11   -1    0    0    0    0  0.00000000000E+00  0.00000000000E+00  0.39999999674E+01  0.40000000000E+01  0.51100000000E-03 0.  1.
    9000002   -1    0    0    0    0 -0.00000000000E+00 -0.00000000000E+00  0.00000000000E+00  0.93800000000E+00  0.93800000000E+00 0. -1.
         11    1    1    2    0    0 -0.28936465297E+00 -0.20507242643E-01  0.10502383482E+01  0.10895656467E+01  0.51100000000E-03 0.  1.
    9000002    1    1    2    0    0  0.20316915586E-01  0.22769243736E-01  0.53838584628E-01  0.94003925913E+00  0.93800000000E+00 0. -1.
         22    1    1    2    0    0  0.26904773739E+00 -0.22620010937E-02  0.28959230345E+01  0.29083950941E+01  0.00000000000E+00 0.  1.
</event>
<event>
 5    1  0.1461556E+002  0.1472547E+01  0.7818608E-02  0.3504486E+00
         11   -1    0    0    0    0  0.00000000000E+00  0.00000000000E+00  0.39999999674E+01  0.40000000000E+01  0.51100000000E-03 0.  1.
    9000002   -1    0    0    0    0 -0.00000000000E+00 -0.00000000000E+00  0.00000000000E+00  0.93800000000E+00  0.93800000000E+00 0. -1.
         11    1    1    2    0    0  0.15367135059E+00 -0.12134452424E-01  0.91264614379E-01  0.17914134053E+00  0.51100000000E-03 0.  1.
    9000002    1    1    2    0    0  0.50565874672E-01 -0.12097218736E+00  0.11133443994E+00  0.95364067411E+00  0.93800000000E+00 0. -1.
         22    1    1    2    0    0 -0.20423722526E+00  0.13310663978E+00  0.37974009130E+01  0.38052179854E+01  0.00000000000E+00 0.  1.
</event>
<event>
 5    1  0.1461556E+002  0.1597721E+01  0.7818608E-02  0.3355841E+00
         11   -1    0    0    0    0  0.00000000000E+00  0.00000000000E+00  0.39999999674E+01  0.40000000000E+01  0.51100000000E-03 0. -1.
    9000002   -1    0    0    0    0 -0.00000000000E+00 -0.00000000000E+00  0.00000000000E+00  0.93800000000E+00  0.93800000000E+00 0. -1.
         11    1    1    2    0    0 -0.78838685702E-01  0.30131616700E+00  0.19492502224E+01  0.19739766112E+01  0.51100000000E-03 0. -1.
    9000002    1    1    2    0    0  0.73153335037E-01 -0.52233990270E+00  0.19315554690E+00  0.10933176344E+01  0.93800000000E+00 0. -1.
         22    1    1    2    0    0  0.56853506645E-02  0.22102373570E+00  0.18575941980E+01  0.18707057544E+01  0.00000000000E+00 0. -1.
</event>
<event>
 5    1  0.1461556E+002  0.1599677E+01  0.7818608E-02  0.3353715E+00
         11   -1    0    0    0    0  0.00000000000E+00  0.00000000000E+00  0.39999999674E+01  0.40000000000E+01  0.51100000000E-03 0. -1.
    9000002   -1    0    0    0    0 -0.00000000000E+00 -0.00000000000E+00  0.00000000000E+00  0.93800000000E+00  0.93800000000E+00 0.  1.
         11    1    1    2    0    0 -0.23475458507E+00 -0.32149045147E+00  0.18547603493E+01  0.18969981655E+01  0.51100000000E-03 0. -1.
    9000002    1    1    2    0    0  0.45150365096E+00  0.62054573428E+00  0.42923250965E+00  0.12856971270E+01  0.93800000000E+00 0.  1.
         22    1    1    2    0    0 -0.21674906589E+00 -0.29905528281E+00  0.17160071084E+01  0.17553047074E+01  0.00000000000E+00 0. -1.
</event>
<event>
 5    1  0.1461556E+002  0.1599665E+01  0.7818608E-02  0.3353727E+00
         11   -1    0    0    0    0  0.00000000000E+00  0.00000000000E+00  0.39999999674E+01  0.40000000000E+01  0.51100000000E-03 0. -1.
    9000002   -1    0    0    0    0 -0.00000000000E+00 -0.00000000000E+00  0.00000000000E+00  0.93800000000E+00  0.93800000000E+00 0.  1.
         11    1    1    2    0    0 -0.26183630995E-01 -0.31137015143E-01  0.66008420031E+00  0.66133691025E+00  0.51100000000E-03 0.  1.
    9000002    1    1    2    0    0  0.17503045584E+00  0.18987821769E+00  0.44338657797E-01  0.97390929485E+00  0.93800000000E+00 0.  1.
         22    1    1    2    0    0 -0.14884682484E+00 -0.15874120255E+00  0.32955771093E+01  0.33027537949E+01  0.00000000000E+00 0. -1.
</event>
<event>
 5    1  0.1461556E+002  0.1598872E+01  0.7818608E-02  0.3354589E+00
         11   -1    0    0    0    0  0.00000000000E+00  0.00000000000E+00  0.39999999674E+01  0.40000000000E+01  0.51100000000E-03 0. -1.
    9000002   -1    0    0    0    0 -0.00000000000E+00 -0.00000000000E+00  0.00000000000E+00  0.93800000000E+00  0.93800000000E+00 0. -1.
         11    1    1    2    0    0 -0.53908603867E-02  0.11444990264E-01  0.14908101849E+00  0.14961771410E+00  0.51100000000E-03 0. -1.
    9000002    1    1    2    0    0 -0.16634687754E+00 -0.15161139032E+00  0.34199791366E-01  0.96523102057E+00  0.93800000000E+00 0. -1.
         22    1    1    2    0    0  0.17173773792E+00  0.14016640005E+00  0.38167191575E+01  0.38231512653E+01  0.00000000000E+00 0. -1.
</event>
<event>
 5    1  0.1461556E+002  0.1599605E+01  0.7818608E-02  0.3353792E+00
         11   -1    0    0    0    0  0.00000000000E+00  0.00000000000E+00  0.39999999674E+01  0.40000000000E+01  0.51100000000E-03 0.  1.
    9000002   -1    0    0    0    0 -0.00000000000E+00 -0.00000000000E+00  0.00000000000E+00  0.93800000000E+00  0.93800000000E+00 0.  1.
         11    1    1    2    0    0  0.33001270904E-01  0.19621553279E-01  0.40096240765E+00  0.40279672628E+00  0.51100000000E-03 0.  1.
    9000002    1    1    2    0    0 -0.26427585698E+00 -0.18067145294E+00  0.68557758100E-01  0.99349286293E+00  0.93800000000E+00 0.  1.
         22    1    1    2    0    0  0.23127458607E+00  0.16104989966E+00  0.35304798016E+01  0.35417104108E+01  0.00000000000E+00 0.  1.
</event>
<event>
 5    1  0.1461556E+002  0.1578064E+01  0.7818608E-02  0.3377522E+00
         11   -1    0    0    0    0  0.00000000000E+00  0.00000000000E+00  0.39999999674E+01  0.40000000000E+01  0.51100000000E-03 0. -1.
    9000002   -1    0    0    0    0 -0.00000000000E+00 -0.00000000000E+00  0.00000000000E+00  0.93800000000E+00  0.93800000000E+00 0. -1.
         11    1    1    2    0    0  0.12381489708E+00 -0.10224397736E+00  0.13158918215E+01  0.13256528605E+01  0.51100000000E-03 0. -1.
    9000002    1    1    2    0    0 -0.73071593759E-01 -0.94266445564E-01  0.25389559059E-01  0.94589336095E+00  0.93800000000E+00 0. -1.
         22    1    1    2    0    0 -0.50743303321E-01  0.19651042292E+00  0.26587185868E+01  0.26664537785E+01  0.00000000000E+00 0. -1.
</event>
<event>
 5    1  0.1461556E+002  0.1599580E+01  0.7818608E-02  0.3353819E+00
         11   -1    0    0    0    0  0.00000000000E+00  0.00000000000E+00  0.39999999674E+01  0.40000000000E+01  0.51100000000E-03 0.  1.
    9000002   -1    0    0    0    0 -0.00000000000E+00 -0.00000000000E+00  0.00000000000E+00  0.93800000000E+00  0.93800000000E+00 0.  1.
         11    1    1    2    0    0 -0.43413449378E-03  0.11217224180E-02  0.82489861639E-02  0.83518637246E-02  0.51100000000E-03 0. -1.
    9000002    1    1    2    0    0 -0.20828984991E+00 -0.33989465620E+00  0.10725165429E+00  0.10248219144E+01  0.93800000000E+00 0.  1.
         22    1    1    2    0    0  0.20872398441E+00  0.33877293378E+00  0.38844993269E+01  0.39048262219E+01  0.00000000000E+00 0.  1.
</event>
<event>
 5    1  0.1461556E+002  0.1599652E+01  0.7818608E-02  0.3353742E+00
         11   -1    0    0    0    0  0.00000000000E+00  0.00000000000E+00  0.39999999674E+01  0.40000000000E+01  0.51100000000E-03 0.  1.
    9000002   -1    0    0    0    0 -0.00000000000E+00 -0.00000000000E+00  0.00000000000E+00  0.93800000000E+00  0.93800000000E+00 0.  1.
         11    1    1    2    0    0  0.12435288785E+00  0.70645032328E-01  0.11762798135E+01  0.11849425396E+01  0.51100000000E-03 0.  1.
    9000002    1    1    2    0    0 -0.39078650964E+00 -0.22587697017E+00  0.13842328424E+00  0.10501140449E+01  0.93800000000E+00 0.  1.
         22    1    1    2    0    0  0.26643362178E+00  0.15523193784E+00  0.26852968696E+01  0.27029434154E+01  0.00000000000E+00 0.  1.
</event>
<event>
 5    1  0.1461556E+002  0.1489364E+01  0.7818608E-02  0.3482953E+00
         11   -1    0    0    0    0  0.00000000000E+00  0.00000000000E+00  0.39999999674E+01  0.40000000000E+01  0.51100000000E-03 0.  1.
    9000002   -1    0    0    0    0 -0.00000000000E+00 -0.00000000000E+00  0.00000000000E+00  0.93800000000E+00  0.93800000000E+00 0. -1.
         11    1    1    2    0    0 -0.18200704515E+00 -0.47552433560E+00  0.27025821106E+01  0.27501273214E+01  0.51100000000E-03 0.  1.
    9000002    1    1    2    0    0 -0.13109547359E+00  0.33418634946E+00  0.18193468179E+00  0.10206913186E+01  0.93800000000E+00 0. -1.
         22    1    1    2    0    0  0.31310251874E+00  0.14133798614E+00  0.11154831749E+01  0.11671813600E+01  0.00000000000E+00 0.  1.
</event>
<event>
 5    1  0.1461556E+002  0.1587176E+01  0.7818608E-02  0.3367401E+00
         11   -1    0    0    0    0  0.00000000000E+00  0.00000000000E+00  0.39999999674E+01  0.40000000000E+01  0.51100000000E-03 0.  1.
    9000002   -1    0    0    0    0 -0.00000000000E+00 -0.00000000000E+00  0.00000000000E+00  0.93800000000E+00  0.93800000000E+00 0.  1.
         11    1    1    2    0    0  0.87763501620E-01  0.10022859684E+00  0.46287073184E+00  0.48166147796E+00  0.51100000000E-03 0.  1.
    9000002    1    1    2    0    0 -0.63389749244E+00 -0.87557318092E-01  0.30138671863E+00  0.11748064815E+01  0.93800000000E+00 0.  1.
         22    1    1    2    0    0  0.54613399082E+00 -0.12671278749E-01  0.32357425169E+01  0.32815320405E+01  0.00000000000E+00 0.  1.
</event>
<event>
 5    1  0.1461556E+002  0.1599377E+01  0.7818608E-02  0.3354040E+00
         11   -1    0    0    0    0  0.00000000000E+00  0.00000000000E+00  0.39999999674E+01  0.40000000000E+01  0.51100000000E-03 0. -1.
    9000002   -1    0    0    0    0 -0.00000000000E+00 -0.00000000000E+00  0.00000000000E+00  0.93800000000E+00  0.93800000000E+00 0. -1.
         11    1    1    2    0    0  0.28741544523E-01  0.91918544238E-01  0.11146874390E+01  0.11188402223E+01  0.51100000000E-03 0. -1.
    9000002    1    1    2    0    0 -0.13619183489E+00 -0.26817315211E+00  0.60589590192E-01  0.98690432862E+00  0.93800000000E+00 0. -1.
         22    1    1    2    0    0  0.10745029036E+00  0.17625460787E+00  0.28247229381E+01  0.28322554491E+01  0.00000000000E+00 0. -1.
</event>
<event>
 5    1  0.1461556E+002  0.1599547E+01  0.7818608E-02  0.3353855E+00
         11   -1    0    0    0    0  0.00000000000E+00  0.00000000000E+00  0.39999999674E+01  0.40000000000E+01  0.51100000000E-03 0. -1.
    9000002   -1    0    0    0    0 -0.00000000000E+00 -0.00000000000E+00  0.00000000000E+00  0.93800000000E+00  0.93800000000E+00 0.  1.
         11    1    1    2    0    0 -0.16113451449E+00 -0.12723925423E+00  0.18490771903E+01  0.18604410435E+01  0.51100000000E-03 0. -1.
    9000002    1    1    2    0    0  0.32105801407E+00  0.28999762900E+00  0.12692046618E+00  0.10407351623E+01  0.93800000000E+00 0.  1.
         22    1    1    2    0    0 -0.15992349958E+00 -0.16275837478E+00  0.20240023109E+01  0.20368237943E+01  0.00000000000E+00 0.  1.
</event>
<event>
 5    1  0.1461556E+002  0.1599649E+01  0.7818608E-02  0.3353744E+00
         11   -1    0    0    0    0  0.00000000000E+00  0.00000000000E+00  0.39999999674E+01  0.40000000000E+01  0.51100000000E-03 0.  1.
    9000002   -1    0    0    0    0 -0.00000000000E+00 -0.00000000000E+00  0.00000000000E+00  0.93800000000E+00  0.93800000000E+00 0. -1.
         11    1    1    2    0    0  0.85657992014E-01 -0.80991201941E-01  0.10626731220E+01  0.10691918872E+01  0.51100000000E-03 0.  1.
    9000002    1    1    2    0    0 -0.29243748706E+00  0.29351417492E+00  0.11603615221E+00  0.10319780246E+01  0.93800000000E+00 0. -1.
         22    1    1    2    0    0  0.20677949505E+00 -0.21252297298E+00  0.28212906932E+01  0.28368300881E+01  0.00000000000E+00 0.  1.
</event>
<event>
 5    1  0.1461556E+002  0.1564927E+01  0.7818608E-02  0.3392333E+00
         11   -1    0    0    0    0  0.00000000000E+00  0.00000000000E+00  0.39999999674E+01  0.40000000000E+01  0.51100000000E-03 0.  1.
    9000002   -1    0    0    0    0 -0.00000000000E+00 -0.00000000000E+00  0.00000000000E+00  0.93800000000E+00  0.93800000000E+00 0.  1.
         11    1    1    2    0    0  0.95968830157E-01  0.22063054091E+00  0.16454449627E+01  0.16629423436E+01  0.51100000000E-03 0.  1.
    9000002    1    1    2    0    0 -0.23189245279E+00  0.15673516259E-02  0.62510824149E-01  0.96826038305E+00  0.93800000000E+00 0.  1.
         22    1    1    2    0    0  0.13592362263E+00 -0.22219789254E+00  0.22920441805E+01  0.23067972733E+01  0.00000000000E+00 0. -1.
</event>
<event>
 5    1  0.1461556E+002  0.1599627E+01  0.7818608E-02  0.3353768E+00
         11   -1    0    0    0    0  0.00000000000E+00  0.00000000000E+00  0.39999999674E+01  0.40000000000E+01  0.51100000000E-03 0.  1.
    9000002   -1    0    0    0    0 -0.00000000000E+00 -0.00000000000E+00  0.00000000000E+00  0.93800000000E+00  0.93800000000E+00 0.  1.
         11    1    1    2    0    0  0.31411562494E-01 -0.30688072789E-01  0.42688339466E+00  0.42913650256E+00  0.51100000000E-03 0.  1.
    9000002    1    1    2    0    0 -0.24684126037E+00  0.30762824142E+00  0.10489919088E+00  0.10229435874E+01  0.93800000000E+00 0.  1.
         22    1    1    2    0    0  0.21542969788E+00 -0.27694016863E+00  0.34682173818E+01  0.34859199100E+01  0.00000000000E+00 0.  1.
</event>
<event>
 5    1  0.1461556E+002  0.1599677E+01  0.7818608E-02  0.3353714E+00
         11   -1    0    0    0    0  0.00000000000E+00  0.00000000000E+00  0.39999999674E+01  0.40000000000E+01  0.51100000000E-03 0. -1.
    9000002   -1    0    0    0    0 -0.00000000000E+00 -0.00000000000E+00  0.00000000000E+00  0.93800000000E+00  0.93800000000E+00 0. -1.
         11    1    1    2    0    0  0.49408683259E-01 -0.71163456259E-01  0.11455636127E+01  0.11488349348E+01  0.51100000000E-03 0. -1.
    9000002    1    1    2    0    0 -0.16864560439E+00  0.24336895913E+00  0.58464689968E-01  0.98535877229E+00  0.93800000000E+00 0. -1.
         22    1    1    2    0    0  0.11923692113E+00 -0.17220550287E+00  0.27959716646E+01  0.28038062929E+01  0.00000000000E+00 0. -1.
</event>
<event>
 5    1  0.1461556E+002  0.1598183E+01  0.7818608E-02  0.3355338E+00
         11   -1    0    0    0    0  0.00000000000E+00  0.00000000000E+00  0.39999999674E+01  0.40000000000E+01  0.51100000000E-03 0.  1.
    9000002   -1    0    0    0    0 -0.00000000000E+00 -0.00000000000E+00  0.00000000000E+00  0.93800000000E+00  0.93800000000E+00 0.  1.
         11    1    1    2    0    0  0.67027318440E-02 -0.23311603309E-01  0.84386929529E+00  0.84421798495E+00  0.51100000000E-03 0.  1.
    9000002    1    1    2    0    0 -0.20597341743E+00  0.69434218074E-01  0.32439594359E-01  0.96340151889E+00  0.93800000000E+00 0.  1.
         22    1    1    2    0    0  0.19927068558E+00 -0.46122614765E-01  0.31236910777E+01  0.31303804962E+01  0.00000000000E+00 0.  1.
</event>
<event>
 5    1  0.1461556E+002  0.1599067E+01  0.7818608E-02  0.3354377E+00
         11   -1    0    0    0    0  0.00000000000E+00  0.00000000000E+00  0.39999999674E+01  0.40000000000E+01  0.51100000000E-03 0.  1.
    9000002   -1    0    0    0    0 -0.00000000000E+00 -0.00000000000E+00  0.00000000000E+00  0.93800000000E+00  0.93800000000E+00 0.  1.
         11    1    1    2    0    0 -0.39152594947E-02 -0.58915979824E-02  0.43033795341E-01  0.43614319278E-01  0.51100000000E-03 0.  1.
    9000002    1    1    2    0    0 -0.82012166816E-01  0.18829633647E+00  0.28392628392E-01  0.96064126873E+00  0.93800000000E+00 0.  1.
         22    1    1    2    0    0  0.85927426310E-01 -0.18240473849E+00  0.39285735436E+01  0.39337444120E+01  0.00000000000E+00 0.  1.
</event>
<event>
 5    1  0.1461556E+002  0.1592516E+01  0.7818608E-02  0.3361527E+00
         11   -1    0    0    0    0  0.00000000000E+00  0.00000000000E+00  0.39999999674E+01  0.40000000000E+01  0.51100000000E-03 0. -1.
    9000002   -1    0    0    0    0 -0.00000000000E+00 -0.00000000000E+00  0.00000000000E+00  0.93800000000E+00  0.93800000000E+00 0. -1.
         11    1    1    2    0    0  0.60008850876E-01 -0.36808196474E-01  0.42941052102E+00  0.43514315139E+00  0.51100000000E-03 0. -1.
    9000002    1    1    2    0    0 -0.41140173997E+00 -0.23110853927E+00  0.15805466582E+00  0.10618322965E+01  0.93800000000E+00 0. -1.
         22    1    1    2    0    0  0.35139288909E+00  0.26791673575E+00  0.34125347805E+01  0.34410245521E+01  0.00000000000E+00 0. -1.
</event>
<event>
 5    1  0.1461556E+002  0.1599115E+01  0.7818608E-02  0.3354324E+00
         11   -1    0    0    0    0  0.00000000000E+00  0.00000000000E+00  0.39999999674E+01  0.40000000000E+01  0.51100000000E-03 0. -1.
    9000002   -1    0    0    0    0 -0.00000000000E+00 -0.00000000000E+00  0.00000000000E+00  0.93800000000E+00  0.93800000000E+00 0. -1.
         11    1    1    2    0    0 -0.31080829276E-01  0.18309266913E-01  0.47143464946E+00  0.47281300430E+00  0.51100000000E-03 0. -1.
    9000002    1    1    2    0    0  0.16857171509E+00 -0.27776980245E+00  0.71045451979E-01  0.99522054969E+00  0.93800000000E+00 0. -1.
         22    1    1    2    0    0 -0.13749088581E+00  0.25946053554E+00  0.34575198659E+01  0.34699664460E+01  0.00000000000E+00 0. -1.
</event>
<event>
 5    1  0.1461556E+002  0.1597021E+01  0.7818608E-02  0.3356603E+00
         11   -1    0    0    0    0  0.00000000000E+00  0.00000000000E+00  0.39999999674E+01  0.40000000000E+01  0.51100000000E-03 0. -1.
    9000002   -1    0    0    0    0 -0.00000000000E+00 -0.00000000000E+00  0.00000000000E+00  0.93800000000E+00  0.93800000000E+00 0. -1.
         11    1    1    2    0    0  0.56040091896E-01 -0.19596535449E+00  0.14858337985E+01  0.14997483955E+01  0.51100000000E-03 0. -1.
    9000002    1    1    2    0    0 -0.99925754635E-02  0.57608062982E+00  0.23304834699E+00  0.11252218784E+01  0.93800000000E+00 0. -1.
         22    1    1    2    0    0 -0.46047516433E-01 -0.38011527533E+00  0.22811178219E+01  0.23130297261E+01  0.00000000000E+00 0. -1.
</event>
<event>
 5    1  0.1461556E+002  0.1599677E+01  0.7818608E-02  0.3353714E+00
         11   -1    0    0    0    0  0.00000000000E+00  0.00000000000E+00  0.39999999674E+01  0.40000000000E+01  0.51100000000E-03 0. -1.
    9000002   -1    0    0    0    0 -0.00000000000E+00 -0.00000000000E+00  0.00000000000E+00  0.93800000000E+00  0.93800000000E+00 0.  1.
         11    1    1    2    0    0 -0.22545351001E-01  0.71873064758E-01  0.72646300733E+00  0.73035798923E+00  0.51100000000E-03 0. -1.
    9000002    1    1    2    0    0  0.11847246106E+00 -0.38373741625E+00  0.10881627014E+00  0.10261457544E+01  0.93800000000E+00 0.  1.
         22    1    1    2    0    0 -0.95927110062E-01  0.31186435149E+00  0.31647206899E+01  0.31814962564E+01  0.00000000000E+00 0. -1.
</event>
<event>
 5    1  0.1461556E+002  0.1595407E+01  0.7818608E-02  0.3358364E+00
         11   -1    0    0    0    0  0.00000000000E+00  0.00000000000E+00  0.39999999674E+01  0.40000000000E+01  0.51100000000E-03 0.  1.
    9000002   -1    0    0    0    0 -0.00000000000E+00 -0.00000000000E+00  0.00000000000E+00  0.93800000000E+00  0.93800000000E+00 0. -1.
         11    1    1    2    0    0 -0.31389091628E-02  0.18348455326E-01  0.60900928559E+00  0.60929392711E+00  0.51100000000E-03 0.  1.
    9000002    1    1    2    0    0  0.29658832255E+00  0.12370741059E+00  0.72422497941E-01  0.99416154357E+00  0.93800000000E+00 0. -1.
         22    1    1    2    0    0 -0.29344941339E+00 -0.14205586591E+00  0.33185681838E+01  0.33345445293E+01  0.00000000000E+00 0.  1.
</event>
<event>
 5    1  0.1461556E+002  0.1597689E+01  0.7818608E-02  0.3355875E+00
         11   -1    0    0    0    0  0.00000000000E+00  0.00000000000E+00  0.39999999674E+01  0.40000000000E+01  0.51100000000E-03 0. -1.
    9000002   -1    0    0    0    0 -0.00000000000E+00 -0.00000000000E+00  0.00000000000E+00  0.93800000000E+00  0.93800000000E+00 0.  1.
         11    1    1    2    0    0  0.39624213820E-02 -0.53948590509E-01  0.63247508105E+00  0.63478432595E+00  0.51100000000E-03 0. -1.
    9000002    1    1    2    0    0 -0.19665267462E+00  0.16144455526E+00  0.44542167368E-01  0.97291552744E+00  0.93800000000E+00 0.  1.
         22    1    1    2    0    0  0.19269025324E+00 -0.10749596475E+00  0.33229827189E+01  0.33303001466E+01  0.00000000000E+00 0. -1.
</event>
<event>
 5    1  0.1461556E+002  0.1599672E+01  0.7818608E-02  0.3353720E+00
         11   -1    0    0    0    0  0.00000000000E+00  0.00000000000E+00  0.39999999674E+01  0.40000000000E+01  0.51100000000E-03 0. -1.
    9000002   -1    0    0    0    0 -0.00000000000E+00 -0.00000000000E+00  0.00000000000E+00  0.93800000000E+00  0.93800000000E+00 0. -1.
         11    1    1    2    0    0  0.33661266817E-01 -0.13928734260E+00  0.13630979782E+01  0.13706095009E+01  0.51100000000E-03 0. -1.
    9000002    1    1    2    0    0 -0.10343164159E+00  0.39805407526E+00  0.11426414394E+00  0.10305558917E+01  0.93800000000E+00 0. -1.
         22    1    1    2    0    0  0.69770374775E-01 -0.25876673266E+00  0.25226378452E+01  0.25368346074E+01  0.00000000000E+00 0. -1.
</event>
<event>
 5    1  0.1461556E+002  0.1599668E+01  0.7818608E-02  0.3353724E+00
         11   -1    0    0    0    0  0.00000000000E+00  0.00000000000E+00  0.39999999674E+01  0.40000000000E+01  0.51100000000E-03 0.  1.
    9000002   -1    0    0    0    0 -0.00000000000E+00 -0.00000000000E+00  0.00000000000E+00  0.93800000000E+00  0.93800000000E+00 0.  1.
         11    1    1    2    0    0 -0.45070191139E-04 -0.44186082907E-02  0.61678907677E-01  0.61839104973E-01  0.51100000000E-03 0. -1.
    9000002    1    1    2    0    0 -0.19738424832E-01  0.32522528065E+00  0.71007272929E-01  0.99551349634E+00  0.93800000000E+00 0.  1.
         22    1    1    2    0    0  0.19783495023E-01 -0.32080667236E+00  0.38673137868E+01  0.38806473987E+01  0.00000000000E+00 0.  1.
</event>
<event>
 5    1  0.1461556E+002  0.1544192E+01  0.7818608E-02  0.3416256E+00
         11   -1    0    0    0    0  0.00000000000E+00  0.00000000000E+00  0.39999999674E+01  0.40000000000E+01  0.51100000000E-03 0. -1.
    9000002   -1    0    0    0    0 -0.00000000000E+00 -0.00000000000E+00  0.00000000000E+00  0.93800000000E+00  0.93800000000E+00 0. -1.
         11    1    1    2    0    0  0.20731914818E+00 -0.86769871465E-01  0.32986599876E+01  0.33063073382E+01  0.51100000000E-03 0. -1.
    9000002    1    1    2    0    0 -0.75945605010E-01 -0.82728368118E-01  0.50070558002E-01  0.94602472409E+00  0.93800000000E+00 0. -1.
         22    1    1    2    0    0 -0.13137354317E+00  0.16949823958E+00  0.65126942172E+00  0.68566793766E+00  0.00000000000E+00 0. -1.
</event>
<event>
 5    1  0.1461556E+002  0.1595521E+01  0.7818608E-02  0.3358239E+00
         11   -1    0    0    0    0  0.00000000000E+00  0.00000000000E+00  0.39999999674E+01  0.40000000000E+01  0.51100000000E-03 0.  1.
    9000002   -1    0    0    0    0 -0.00000000000E+00 -0.00000000000E+00  0.00000000000E+00  0.93800000000E+00  0.93800000000E+00 0. -1.
         11    1    1    2    0    0 -0.52353889560E-02  0.11083869301E-01  0.28471899516E+00  0.28498320790E+00  0.51100000000E-03 0.  1.
    9000002    1    1    2    0    0  0.39039636927E+00  0.29625484765E+00  0.16786387802E+00  0.10715402659E+01  0.93800000000E+00 0. -1.
         22    1    1    2    0    0 -0.38516098031E+00 -0.30733871696E+00  0.35474170942E+01  0.35814765262E+01  0.00000000000E+00 0.  1.
</event>
<event>
 5    1  0.1461556E+002  0.1599672E+01  0.7818608E-02  0.3353719E+00
         11   -1    0    0    0    0  0.00000000000E+00  0.00000000000E+00  0.39999999674E+01  0.40000000000E+01  0.51100000000E-03 0.  1.
    9000002   -1    0    0    0    0 -0.00000000000E+00 -0.00000000000E+00  0.00000000000E+00  0.93800000000E+00  0.93800000000E+00 0. -1.
         11    1    1    2    0    0  0.16395670891E-01  0.18783822540E-01  0.41107593742E+00  0.41183168584E+00  0.51100000000E-03 0.  1.
    9000002    1    1    2    0    0 -0.15726094880E+00 -0.16658705381E+00  0.34813584585E-01  0.96619782559E+00  0.93800000000E+00 0. -1.
         22    1    1    2    0    0  0.14086527791E+00  0.14780323127E+00  0.35541104454E+01  0.35599704886E+01  0.00000000000E+00 0.  1.
</event>
<event>
 5    1  0.1461556E+002  0.1599628E+01  0.7818608E-02  0.3353767E+00
         11   -1    0    0    0    0  0.00000000000E+00  0.00000000000E+00  0.39999999674E+01  0.40000000000E+01  0.51100000000E-03 0.  1.
    9000002   -1    0    0    0    0 -0.00000000000E+00 -0.00000000000E+00  0.00000000000E+00  0.93800000000E+00  0.93800000000E+00 0.  1.
         11    1    1    2    0    0 -0.44084435753E-02  0.30155512085E-01  0.50422267223E+00  0.50514310210E+00  0.51100000000E-03 0.  1.
    9000002    1    1    2    0    0  0.78386950840E-01 -0.23150541106E+00  0.39704947528E-01  0.97013388368E+00  0.93800000000E+00 0.  1.
         22    1    1    2    0    0 -0.73978507265E-01  0.20134989898E+00  0.34560723476E+01  0.34627230142E+01  0.00000000000E+00 0.  1.
</event>
<event>
 5    1  0.1461556E+002  0.1590694E+01  0.7818608E-02  0.3363526E+00
         11   -1    0    0    0    0  0.00000000000E+00  0.00000000000E+00  0.39999999674E+01  0.40000000000E+01  0.51100000000E-03 0.  1.
    9000002   -1    0    0    0    0 -0.00000000000E+00 -0.00000000000E+00  0.00000000000E+00  0.93800000000E+00  0.93800000000E+00 0. -1.
         11    1    1    2    0    0  0.15425546532E+00 -0.12506336526E-01  0.99261624887E+00  0.10046085982E+01  0.51100000000E-03 0.  1.
    9000002    1    1    2    0    0 -0.88891409804E+00  0.38350486169E-01  0.61702660540E+00  0.14325518718E+01  0.93800000000E+00 0. -1.
         22    1    1    2    0    0  0.73465863272E+00 -0.25844149642E-01  0.23903571131E+01  0.25008395300E+01  0.00000000000E+00 0.  1.
</event>
<event>
 5    1  0.1461556E+002  0.1599273E+01  0.7818608E-02  0.3354153E+00
         11   -1    0    0    0    0  0.00000000000E+00  0.00000000000E+00  0.39999999674E+01  0.40000000000E+01  0.51100000000E-03 0.  1.
    9000002   -1    0    0    0    0 -0.00000000000E+00 -0.00000000000E+00  0.00000000000E+00  0.93800000000E+00  0.93800000000E+00 0. -1.
         11    1    1    2    0    0 -0.13050843108E+00 -0.13792992002E+00  0.14928843029E+01  0.15049122620E+01  0.51100000000E-03 0.  1.
    9000002    1    1    2    0    0  0.27904933910E+00  0.37548045491E+00  0.14939707106E+00  0.10587811816E+01  0.93800000000E+00 0. -1.
         22    1    1    2    0    0 -0.14854090802E+00 -0.23755053489E+00  0.23577185934E+01  0.23743065564E+01  0.00000000000E+00 0.  1.
</event>
<event>
 5    1  0.1461556E+002  0.1584117E+01  0.7818608E-02  0.3370785E+00
         11   -1    0    0    0    0  0.00000000000E+00  0.00000000000E+00  0.39999999674E+01  0.40000000000E+01  0.51100000000E-03 0. -1.
    9000002   -1    0    0    0    0 -0.00000000000E+00 -0.00000000000E+00  0.00000000000E+00  0.93800000000E+00  0.93800000000E+00 0.  1.
         11    1    1    2    0    0 -0.41702263596E-01  0.77081446107E-01  0.60741868599E+00  0.61370868442E+00  0.51100000000E-03 0. -1.
    9000002    1    1    2    0    0  0.36367841194E-01  0.16233071247E+00  0.29912985844E-01  0.95310684963E+00  0.93800000000E+00 0.  1.
         22    1    1    2    0    0  0.53344224018E-02 -0.23941215858E+00  0.33626682955E+01  0.33711844660E+01  0.00000000000E+00 0. -1.
</event>
<event>
 5    1  0.1461556E+002  0.1599203E+01  0.7818608E-02  0.3354228E+00
         11   -1    0    0    0    0  0.00000000000E+00  0.00000000000E+00  0.39999999674E+01  0.40000000000E+01  0.51100000000E-03 0. -1.
    9000002   -1    0    0    0    0 -0.00000000000E+00 -0.00000000000E+00  0.00000000000E+00  0.93800000000E+00  0.93800000000E+00 0. -1.
         11    1    1    2    0    0  0.88467630059E-02 -0.14241863064E-01  0.60664437031E+00  0.60687622216E+00  0.51100000000E-03 0. -1.
    9000002    1    1    2    0    0 -0.81775060560E-01  0.21404272338E+00  0.35181817867E-01  0.96622109699E+00  0.93800000000E+00 0. -1.
         22    1    1    2    0    0  0.72928297554E-01 -0.19980086031E+00  0.33581737792E+01  0.33649026808E+01  0.00000000000E+00 0. -1.
</event>
<event>
 5    1  0.1461556E+002  0.1511871E+01  0.7818608E-02  0.3454945E+00
         11   -1    0    0    0    0  0.00000000000E+00  0.00000000000E+00  0.39999999674E+01  0.40000000000E+01  0.51100000000E-03 0. -1.
    9000002   -1    0    0    0    0 -0.00000000000E+00 -0.00000000000E+00  0.00000000000E+00  0.93800000000E+00  0.93800000000E+00 0.  1.
         11    1    1    2    0    0 -0.18379793628E+00 -0.30480305060E+00  0.50283928145E+00  0.61606345868E+00  0.51100000000E-03 0. -1.
    9000002    1    1    2    0    0  0.10163918497E+00  0.70033975498E+00  0.46611172745E+00  0.12640848226E+01  0.93800000000E+00 0.  1.
         22    1    1    2    0    0  0.82158751315E-01 -0.39553670438E+00  0.30310489585E+01  0.30578517187E+01  0.00000000000E+00 0. -1.
</event>
<event>
 5    1  0.1461556E+002  0.1599677E+01  0.7818608E-02  0.3353714E+00
         11   -1    0    0    0    0  0.00000000000E+00  0.00000000000E+00  0.39999999674E+01  0.40000000000E+01  0.51100000000E-03 0. -1.
    9000002   -1    0    0    0    0 -0.00000000000E+00 -0.00000000000E+00  0.00000000000E+00  0.93800000000E+00  0.93800000000E+00 0. -1.
         11    1    1    2    0    0 -0.44516166257E+00 -0.18776138459E+00  0.25493618894E+01  0.25947388206E+01  0.51100000000E-03 0. -1.
    9000002    1    1    2    0    0  0.63901865102E+00  0.26871462128E+00  0.34281773113E+00  0.12156974874E+01  0.93800000000E+00 0. -1.
         22    1    1    2    0    0 -0.19385698845E+00 -0.80953236695E-01  0.11078203469E+01  0.11275636920E+01  0.00000000000E+00 0. -1.
</event>
<event>
 5    1  0.1461556E+002  0.1599641E+01  0.7818608E-02  0.3353753E+00
         11   -1    0    0    0    0  0.00000000000E+00  0.00000000000E+00  0.39999999674E+01  0.40000000000E+01  0.51100000000E-03 0. -1.
    9000002   -1    0    0    0    0 -0.00000000000E+00 -0.00000000000E+00  0.00000000000E+00  0.93800000000E+00  0.93800000000E+00 0. -1.
         11    1    1    2    0    0  0.76730975839E-02 -0.30443418895E-01  0.58195317733E+00  0.58279965675E+00  0.51100000000E-03 0. -1.
    9000002    1    1    2    0    0 -0.37293180606E-01  0.23869835798E+00  0.38776138802E-01  0.96938912536E+00  0.93800000000E+00 0. -1.
         22    1    1    2    0    0  0.29620083022E-01 -0.20825493908E+00  0.33792706512E+01  0.33858112179E+01  0.00000000000E+00 0. -1.
</event>
<event>
 5    1  0.1461556E+002  0.1571157E+01  0.7818608E-02  0.3385276E+00
         11   -1    0    0    0    0  0.00000000000E+00  0.00000000000E+00  0.39999999674E+01  0.40000000000E+01  0.51100000000E-03 0. -1.
    9000002   -1    0    0    0    0 -0.00000000000E+00 -0.00000000000E+00  0.00000000000E+00  0.93800000000E+00  0.93800000000E+00 0.  1.
         11    1    1    2    0    0 -0.11999663662E-01  0.19832857312E-01  0.92717281568E-03  0.23204631598E-01  0.51100000000E-03 0. -1.
    9000002    1    1    2    0    0  0.18405429198E+00 -0.17819927105E+00  0.65801919725E-01  0.97457932219E+00  0.93800000000E+00 0.  1.
         22    1    1    2    0    0 -0.17205462832E+00  0.15836641374E+00  0.39332708748E+01  0.39402160462E+01  0.00000000000E+00 0. -1.
</event>
<event>
 5    1  0.1461556E+002  0.1594541E+01  0.7818608E-02  0.3359309E+00
         11   -1    0    0    0    0  0.00000000000E+00  0.00000000000E+00  0.39999999674E+01  0.40000000000E+01  0.51100000000E-03 0. -1.
    9000002   -1    0    0    0    0 -0.00000000000E+00 -0.00000000000E+00  0.00000000000E+00  0.93800000000E+00  0.93800000000E+00 0.  1.
         11    1    1    2    0    0 -0.46434163007E+00  0.27267712866E+00  0.20978992878E+01  0.21659057340E+01  0.51100000000E-03 0. -1.
    9000002    1    1    2    0    0  0.71758941819E+00 -0.56737156292E+00  0.65295814740E+00  0.14639137289E+01  0.93800000000E+00 0.  1.
         22    1    1    2    0    0 -0.25324778812E+00  0.29469443426E+00  0.12491425322E+01  0.13081805371E+01  0.00000000000E+00 0. -1.
</event>
<event>
 5    1  0.1461556E+002  0.1593543E+01  0.7818608E-02  0.3360401E+00
         11   -1    0    0    0    0  0.00000000000E+00  0.00000000000E+00  0.39999999674E+01  0.40000000000E+01  0.51100000000E-03 0.  1.
    9000002   -1    0    0    0    0 -0.00000000000E+00 -0.00000000000E+00  0.00000000000E+00  0.93800000000E+00  0.93800000000E+00 0.  1.
         11    1    1    2    0    0 -0.68455206802E-02  0.57460609726E-03  0.14265147533E+01  0.14265313855E+01  0.51100000000E-03 0.  1.
    9000002    1    1    2    0    0  0.19103469668E+00  0.18110016527E+00  0.50807650331E-01  0.97555980982E+00  0.93800000000E+00 0.  1.
         22    1    1    2    0    0 -0.18418917600E+00 -0.18167477137E+00  0.25226775638E+01  0.25359088047E+01  0.00000000000E+00 0.  1.
</event>
<event>
 5    1  0.1461556E+002  0.1451564E+01  0.7818608E-02  0.3532111E+00
         11   -1    0    0    0    0  0.00000000000E+00  0.00000000000E+00  0.39999999674E+01  0.40000000000E+01  0.51100000000E-03 0. -1.
    9000002   -1    0    0    0    0 -0.00000000000E+00 -0.00000000000E+00  0.00000000000E+00  0.93800000000E+00  0.93800000000E+00 0. -1.
         11    1    1    2    0    0  0.31566550465E-01  0.41083580421E+00  0.73933346080E+00  0.84640222855E+00  0.51100000000E-03 0. -1.
    9000002    1    1    2    0    0 -0.24011435053E+00 -0.18359281328E+00  0.18772701272E+00  0.10032181486E+01  0.93800000000E+00 0. -1.
         22    1    1    2    0    0  0.20854780007E+00 -0.22724299092E+00  0.30729394938E+01  0.30883796228E+01  0.00000000000E+00 0. -1.
</event>
<event>
 5    1  0.1461556E+002  0.1582178E+01  0.7818608E-02  0.3372937E+00
         11   -1    0    0    0    0  0.00000000000E+00  0.00000000000E+00  0.39999999674E+01  0.40000000000E+01  0.51100000000E-03 0. -1.
    9000002   -1    0    0    0    0 -0.00000000000E+00 -0.00000000000E+00  0.00000000000E+00  0.93800000000E+00  0.93800000000E+00 0. -1.
         11    1    1    2    0    0  0.49887655870E-01 -0.21901722393E-01  0.79585022190E-01  0.96449471382E-01  0.51100000000E-03 0. -1.
    9000002    1    1    2    0    0 -0.35229054300E+00  0.15806355807E-01  0.97657870740E-01  0.10068463275E+01  0.93800000000E+00 0. -1.
         22    1    1    2    0    0  0.30240288713E+00  0.60953665853E-02  0.38227570744E+01  0.38347042011E+01  0.00000000000E+00 0. -1.
</event>
<event>
 5    1  0.1461556E+002  0.1550850E+01  0.7818608E-02  0.3408500E+00
         11   -1    0    0    0    0  0.00000000000E+00  0.00000000000E+00  0.39999999674E+01  0.40000000000E+01  0.51100000000E-03 0. -1.
    9000002   -1    0    0    0    0 -0.00000000000E+00 -0.00000000000E+00  0.00000000000E+00  0.93800000000E+00  0.93800000000E+00 0.  1.
         11    1    1    2    0    0  0.84007691377E-01 -0.82723500023E-01  0.18539241624E+00  0.21970680187E+00  0.51100000000E-03 0. -1.
    9000002    1    1    2    0    0  0.10823731755E+00  0.14135642825E+00  0.58206656331E-01  0.95651919560E+00  0.93800000000E+00 0.  1.
         22    1    1    2    0    0 -0.19224500892E+00 -0.58632928229E-01  0.37564008948E+01  0.37617740025E+01  0.00000000000E+00 0. -1.
</event>
<event>
 5    1  0.1461556E+002  0.1596911E+01  0.7818608E-02  0.3356722E+00
         11   -1    0    0    0    0  0.00000000000E+00  0.00000000000E+00  0.39999999674E+01  0.40000000000E+01  0.51100000000E-03 0.  1.
    9000002   -1    0    0    0    0 -0.00000000000E+00 -0.00000000000E+00  0.00000000000E+00  0.93800000000E+00  0.93800000000E+00 0. -1.
         11    1    1    2    0    0  0.24908608251E+00  0.49240758444E-01  0.22278684916E+01  0.22422905266E+01  0.51100000000E-03 0.  1.
    9000002    1    1    2    0    0 -0.42195176196E+00 -0.19291159324E+00  0.14892633594E+00  0.10570152439E+01  0.93800000000E+00 0. -1.
         22    1    1    2    0    0  0.17286567945E+00  0.14367083479E+00  0.16232051398E+01  0.16386942295E+01  0.00000000000E+00 0.  1.
</event>
<event>
 5    1  0.1461556E+002  0.1599609E+01  0.7818608E-02  0.3353788E+00
         11   -1    0    0    0    0  0.00000000000E+00  0.00000000000E+00  0.39999999674E+01  0.40000000000E+01  0.51100000000E-03 0. -1.
    9000002   -1    0    0    0    0 -0.00000000000E+00 -0.00000000000E+00  0.00000000000E+00  0.93800000000E+00  0.93800000000E+00 0.  1.
         11    1    1    2    0    0  0.20791626428E-01 -0.32572854960E+00  0.22363681498E+01  0.22600606502E+01  0.51100000000E-03 0. -1.
    9000002    1    1    2    0    0 -0.20885593879E-01  0.55931501678E+00  0.21684381406E+00  0.11136133690E+01  0.93800000000E+00 0.  1.
         22    1    1    2    0    0  0.93967451017E-04 -0.23358646718E+00  0.15467880035E+01  0.15643259808E+01  0.00000000000E+00 0. -1.
</event>
<event>
 5    1  0.1461556E+002  0.1599674E+01  0.7818608E-02  0.3353718E+00
         11   -1    0    0    0    0  0.00000000000E+00  0.00000000000E+00  0.39999999674E+01  0.40000000000E+01  0.51100000000E-03 0. -1.
    9000002   -1    0    0    0    0 -0.00000000000E+00 -0.00000000000E+00  0.00000000000E+00  0.93800000000E+00  0.93800000000E+00 0. -1.
         11    1    1    2    0    0 -0.90196801975E-02  0.38325344990E-01  0.62503553717E+00  0.62627459676E+00  0.51100000000E-03 0. -1.
    9000002    1    1    2    0    0  0.65153726789E-01 -0.23665623633E+00  0.40013132084E-01  0.97041034261E+00  0.93800000000E+00 0. -1.
         22    1    1    2    0    0 -0.56134046591E-01  0.19833089134E+00  0.33349512981E+01  0.33413150606E+01  0.00000000000E+00 0. -1.
</event>
<event>
 5    1  0.1461556E+002  0.1597061E+01  0.7818608E-02  0.3356559E+00
         11   -1    0    0    0    0  0.00000000000E+00  0.00000000000E+00  0.39999999674E+01  0.40000000000E+01  0.51100000000E-03 0. -1.
    9000002   -1    0    0    0    0 -0.00000000000E+00 -0.00000000000E+00  0.00000000000E+00  0.93800000000E+00  0.93800000000E+00 0. -1.
         11    1    1    2    0    0 -0.17910190743E-03 -0.64083302517E-01  0.82098019639E+00  0.82347765344E+00  0.51100000000E-03 0. -1.
    9000002    1    1    2    0    0 -0.19725254133E+00  0.17239541487E+00  0.47644568632E-01  0.97506038226E+00  0.93800000000E+00 0. -1.
         22    1    1    2    0    0  0.19743164324E+00 -0.10831211236E+00  0.31313752023E+01  0.31394619643E+01  0.00000000000E+00 0. -1.
</event>
<event>
 5    1  0.1461556E+002  0.1599677E+01  0.7818608E-02  0.3353714E+00
         11   -1    0    0    0    0  0.00000000000E+00  0.00000000000E+00  0.39999999674E+01  0.40000000000E+01  0.51100000000E-03 0. -1.
    9000002   -1    0    0    0    0 -0.00000000000E+00 -0.00000000000E+00  0.00000000000E+00  0.93800000000E+00  0.93800000000E+00 0. -1.
         11    1    1    2    0    0 -0.16128998940E-01  0.10332054977E+00  0.11796381891E+01  0.11842642437E+01  0.51100000000E-03 0.  1.
    9000002    1    1    2    0    0  0.53381060168E-01 -0.34168188482E+00  0.80153916286E-01  0.10029280624E+01  0.93800000000E+00 0. -1.
         22    1    1    2    0    0 -0.37252061229E-01  0.23836133505E+00  0.27402078620E+01  0.27508076939E+01  0.00000000000E+00 0. -1.
</event>
<event>
 5    1  0.1461556E+002  0.1599676E+01  0.7818608E-02  0.3353715E+00
         11   -1    0    0    0    0  0.00000000000E+00  0.00000000000E+00  0.39999999674E+01  0.40000000000E+01  0.51100000000E-03 0. -1.
    9000002   -1    0    0    0    0 -0.00000000000E+00 -0.00000000000E+00  0.00000000000E+00  0.93800000000E+00  0.93800000000E+00 0. -1.
         11    1    1    2    0    0  0.13318908512E-02 -0.93375987152E-01  0.72742841662E+00  0.73339839878E+00  0.51100000000E-03 0. -1.
    9000002    1    1    2    0    0 -0.12306210195E-01  0.49285209676E+00  0.16619211945E+00  0.10726222320E+01  0.93800000000E+00 0. -1.
         22    1    1    2    0    0  0.10974319344E-01 -0.39947610961E+00  0.31063794313E+01  0.31319793692E+01  0.00000000000E+00 0. -1.
</event>
<event>
 5    1  0.1461556E+002  0.1578886E+01  0.7818608E-02  0.3376604E+00
         11   -1    0    0    0    0  0.00000000000E+00  0.00000000000E+00  0.39999999674E+01  0.40000000000E+01  0.51100000000E-03 0. -1.
    9000002   -1    0    0    0    0 -0.00000000000E+00 -0.00000000000E+00  0.00000000000E+00  0.93800000000E+00  0.93800000000E+00 0.  1.
         11    1    1    2    0    0 -0.80960683835E-01  0.48570716522E-01  0.31095643840E+00  0.32497371361E+00  0.51100000000E-03 0. -1.
    9000002    1    1    2    0    0  0.15316413349E+00  0.20127129060E+00  0.58585639777E-01  0.97326546296E+00  0.93800000000E+00 0.  1.
         22    1    1    2    0    0 -0.72203449655E-01 -0.24984200712E+00  0.36304578892E+01  0.36397608234E+01  0.00000000000E+00 0. -1.
</event>
<event>
 5    1  0.1461556E+002  0.1599317E+01  0.7818608E-02  0.3354105E+00
         11   -1    0    0    0    0  0.00000000000E+00  0.00000000000E+00  0.39999999674E+01  0.40000000000E+01  0.51100000000E-03 0. -1.
    9000002   -1    0    0    0    0 -0.00000000000E+00 -0.00000000000E+00  0.00000000000E+00  0.93800000000E+00  0.93800000000E+00 0.  1.
         11    1    1    2    0    0 -0.33311152576E-01 -0.52536168503E-01  0.12227215222E+01  0.12243030115E+01  0.51100000000E-03 0. -1.
    9000002    1    1    2    0    0  0.11889818611E+00  0.23726098829E+00  0.47119671664E-01  0.97595789801E+00  0.93800000000E+00 0.  1.
         22    1    1    2    0    0 -0.85587033535E-01 -0.18472481979E+00  0.27301587735E+01  0.27377390905E+01  0.00000000000E+00 0. -1.
</event>
<event>
 5    1  0.1461556E+002  0.1599311E+01  0.7818608E-02  0.3354111E+00
         11   -1    0    0    0    0  0.00000000000E+00  0.00000000000E+00  0.39999999674E+01  0.40000000000E+01  0.51100000000E-03 0.  1.
    9000002   -1    0    0    0    0 -0.00000000000E+00 -0.00000000000E+00  0.00000000000E+00  0.93800000000E+00  0.93800000000E+00 0. -1.
         11    1    1    2    0    0  0.76173785554E-01  0.76819147932E-01  0.87582930295E+00  0.88248561242E+00  0.51100000000E-03 0.  1.
    9000002    1    1    2    0    0 -0.25569027477E+00 -0.36670435256E+00  0.13599084130E+00  0.10479442293E+01  0.93800000000E+00 0. -1.
         22    1    1    2    0    0  0.17951648921E+00  0.28988520463E+00  0.29881798231E+01  0.30075701583E+01  0.00000000000E+00 0.  1.
</event>
<event>
 5    1  0.1461556E+002  0.1571406E+01  0.7818608E-02  0.3384995E+00
         11   -1    0    0    0    0  0.00000000000E+00  0.00000000000E+00  0.39999999674E+01  0.40000000000E+01  0.51100000000E-03 0. -1.
    9000002   -1    0    0    0    0 -0.00000000000E+00 -0.00000000000E+00  0.00000000000E+00  0.93800000000E+00  0.93800000000E+00 0.  1.
         11    1    1    2    0    0 -0.14455177552E+00  0.24426675796E-02  0.10779814338E+01  0.10876329413E+01  0.51100000000E-03 0. -1.
    9000002    1    1    2    0    0 -0.12283031762E+00 -0.11042843095E+00  0.39279437345E-01  0.95324110250E+00  0.93800000000E+00 0.  1.
         22    1    1    2    0    0  0.26738209314E+00  0.10798576337E+00  0.28827390963E+01  0.28971259562E+01  0.00000000000E+00 0. -1.
</event>
<event>
 5    1  0.1461556E+002  0.1557404E+01  0.7818608E-02  0.3400934E+00
         11   -1    0    0    0    0  0.00000000000E+00  0.00000000000E+00  0.39999999674E+01  0.40000000000E+01  0.51100000000E-03 0. -1.
    9000002   -1    0    0    0    0 -0.00000000000E+00 -0.00000000000E+00  0.00000000000E+00  0.93800000000E+00  0.93800000000E+00 0.  1.
         11    1    1    2    0    0 -0.14427388660E-01  0.17848748370E+00  0.47924804822E+00  0.51161009003E+00  0.51100000000E-03 0. -1.
    9000002    1    1    2    0    0 -0.20321502729E+00 -0.15473377089E+00  0.76469934181E-01  0.97515667357E+00  0.93800000000E+00 0.  1.
         22    1    1    2    0    0  0.21764241595E+00 -0.23753712809E-01  0.34442819850E+01  0.34512332364E+01  0.00000000000E+00 0. -1.
</event>
<event>
 5    1  0.1461556E+002  0.1596614E+01  0.7818608E-02  0.3357046E+00
         11   -1    0    0    0    0  0.00000000000E+00  0.00000000000E+00  0.39999999674E+01  0.40000000000E+01  0.51100000000E-03 0.  1.
    9000002   -1    0    0    0    0 -0.00000000000E+00 -0.00000000000E+00  0.00000000000E+00  0.93800000000E+00  0.93800000000E+00 0. -1.
         11    1    1    2    0    0 -0.34379873264E-02 -0.82219075470E-02  0.54825930298E+00  0.54833196509E+00  0.51100000000E-03 0.  1.
    9000002    1    1    2    0    0 -0.19387013904E+00 -0.19040237816E+00  0.51503091445E-01  0.97792395658E+00  0.93800000000E+00 0. -1.
         22    1    1    2    0    0  0.19730812636E+00  0.19862428571E+00  0.34002375729E+01  0.34117440783E+01  0.00000000000E+00 0.  1.
</event>
<event>
 5    1  0.1461556E+002  0.1599599E+01  0.7818608E-02  0.3353798E+00
         11   -1    0    0    0    0  0.00000000000E+00  0.00000000000E+00  0.39999999674E+01  0.40000000000E+01  0.51100000000E-03 0. -1.
    9000002   -1    0    0    0    0 -0.00000000000E+00 -0.00000000000E+00  0.00000000000E+00  0.93800000000E+00  0.93800000000E+00 0.  1.
         11    1    1    2    0    0 -0.17811044295E-01 -0.15646846466E-01  0.46568297153E+00  0.46628633713E+00  0.51100000000E-03 0. -1.
    9000002    1    1    2    0    0  0.20521196781E+00  0.15436020953E+00  0.43885173303E-01  0.97350343320E+00  0.93800000000E+00 0.  1.
         22    1    1    2    0    0 -0.18740092351E+00 -0.13871336307E+00  0.34904318225E+01  0.34982102297E+01  0.00000000000E+00 0. -1.
</event>
<event>
 5    1  0.1461556E+002  0.1571575E+01  0.7818608E-02  0.3384805E+00
         11   -1    0    0    0    0  0.00000000000E+00  0.00000000000E+00  0.39999999674E+01  0.40000000000E+01  0.51100000000E-03 0. -1.
    9000002   -1    0    0    0    0 -0.00000000000E+00 -0.00000000000E+00  0.00000000000E+00  0.93800000000E+00  0.93800000000E+00 0.  1.
         11    1    1    2    0    0 -0.12591342978E+00  0.19051611716E+00  0.88877747659E+00  0.91764712537E+00  0.51100000000E-03 0. -1.
    9000002    1    1    2    0    0  0.34067347680E+00 -0.11745850612E+00  0.11030529706E+00  0.10108739669E+01  0.93800000000E+00 0.  1.
         22    1    1    2    0    0 -0.21476004702E+00 -0.73057611045E-01  0.30009171937E+01  0.30094789077E+01  0.00000000000E+00 0. -1.
</event>
<event>
 5    1  0.1461556E+002  0.1599357E+01  0.7818608E-02  0.3354061E+00
         11   -1    0    0    0    0  0.00000000000E+00  0.00000000000E+00  0.39999999674E+01  0.40000000000E+01  0.51100000000E-03 0. -1.
    9000002   -1    0    0    0    0 -0.00000000000E+00 -0.00000000000E+00  0.00000000000E+00  0.93800000000E+00  0.93800000000E+00 0. -1.
         11    1    1    2    0    0  0.31752096628E-01  0.19079653209E+00  0.96276058376E+00  0.98199781826E+00  0.51100000000E-03 0. -1.
    9000002    1    1    2    0    0 -0.68675705455E-01 -0.67668682695E+00  0.32925277457E+00  0.12045218154E+01  0.93800000000E+00 0. -1.
         22    1    1    2    0    0  0.36923608827E-01  0.48589029486E+00  0.27079866090E+01  0.27514803663E+01  0.00000000000E+00 0. -1.
</event>
<event>
 5    1  0.1461556E+002  0.1599672E+01  0.7818608E-02  0.3353719E+00
         11   -1    0    0    0    0  0.00000000000E+00  0.00000000000E+00  0.39999999674E+01  0.40000000000E+01  0.51100000000E-03 0. -1.
    9000002   -1    0    0    0    0 -0.00000000000E+00 -0.00000000000E+00  0.00000000000E+00  0.93800000000E+00  0.93800000000E+00 0.  1.
         11    1    1    2    0    0  0.16449951107E-01 -0.43459273670E-01  0.61153434283E+00  0.61329749954E+00  0.51100000000E-03 0. -1.
    9000002    1    1    2    0    0 -0.96848899977E-01  0.27261958732E+00  0.55787264418E-01  0.98318735127E+00  0.93800000000E+00 0.  1.
         22    1    1    2    0    0  0.80398948870E-01 -0.22916031365E+00  0.33326783601E+01  0.33415151492E+01  0.00000000000E+00 0. -1.
</event>
<event>
 5    1  0.1461556E+002  0.1598587E+01  0.7818608E-02  0.3354898E+00
         11   -1    0    0    0    0  0.00000000000E+00  0.00000000000E+00  0.39999999674E+01  0.40000000000E+01  0.51100000000E-03 0.  1.
    9000002   -1    0    0    0    0 -0.00000000000E+00 -0.00000000000E+00  0.00000000000E+00  0.93800000000E+00  0.93800000000E+00 0. -1.
         11    1    1    2    0    0  0.15927573484E+00  0.10144636275E+00  0.13978020082E+01  0.14105002090E+01  0.51100000000E-03 0.  1.
    9000002    1    1    2    0    0 -0.35427537608E+00 -0.34295473002E+00  0.16721984951E+00  0.10728166046E+01  0.93800000000E+00 0. -1.
         22    1    1    2    0    0  0.19499964124E+00  0.24150836727E+00  0.24349781096E+01  0.24546831865E+01  0.00000000000E+00 0.  1.
</event>
<event>
 5    1  0.1461556E+002  0.1599226E+01  0.7818608E-02  0.3354204E+00
         11   -1    0    0    0    0  0.00000000000E+00  0.00000000000E+00  0.39999999674E+01  0.40000000000E+01  0.51100000000E-03 0. -1.
    9000002   -1    0    0    0    0 -0.00000000000E+00 -0.00000000000E+00  0.00000000000E+00  0.93800000000E+00  0.93800000000E+00 0.  1.
         11    1    1    2    0    0  0.27432893887E-02 -0.18482926981E-02  0.80904776152E-02  0.87554995066E-02  0.51100000000E-03 0. -1.
    9000002    1    1    2    0    0 -0.38929935538E+00  0.23088984839E+00  0.13958501355E+00  0.10508054464E+01  0.93800000000E+00 0.  1.
         22    1    1    2    0    0  0.38655606599E+00 -0.22904155569E+00  0.38523244762E+01  0.38784390541E+01  0.00000000000E+00 0. -1.
</event>
<event>
 5    1  0.1461556E+002  0.1597512E+01  0.7818608E-02  0.3356068E+00
         11   -1    0    0    0    0  0.00000000000E+00  0.00000000000E+00  0.39999999674E+01  0.40000000000E+01  0.51100000000E-03 0.  1.
    9000002   -1    0    0    0    0 -0.00000000000E+00 -0.00000000000E+00  0.00000000000E+00  0.93800000000E+00  0.93800000000E+00 0.  1.
         11    1    1    2    0    0  0.23064738845E+00 -0.59617477251E-02  0.22421109706E+01  0.22539511143E+01  0.51100000000E-03 0.  1.
    9000002    1    1    2    0    0 -0.43641265348E+00  0.97345413195E-01  0.13760154604E+00  0.10481938366E+01  0.93800000000E+00 0.  1.
         22    1    1    2    0    0  0.20576526503E+00 -0.91383665470E-01  0.16202874507E+01  0.16358550491E+01  0.00000000000E+00 0.  1.
</event>
<event>
 5    1  0.1461556E+002  0.1599084E+01  0.7818608E-02  0.3354358E+00
         11   -1    0    0    0    0  0.00000000000E+00  0.00000000000E+00  0.39999999674E+01  0.40000000000E+01  0.51100000000E-03 0. -1.
    9000002   -1    0    0    0    0 -0.00000000000E+00 -0.00000000000E+00  0.00000000000E+00  0.93800000000E+00  0.93800000000E+00 0. -1.
         11    1    1    2    0    0  0.75464321960E-03  0.23748168599E-02  0.83067201827E-01  0.83106139255E-01  0.51100000000E-03 0. -1.
    9000002    1    1    2    0    0 -0.31727447098E+00  0.16868289821E+00  0.87145291826E-01  0.10082436769E+01  0.93800000000E+00 0. -1.
         22    1    1    2    0    0  0.31651982776E+00 -0.17105771507E+00  0.38297874737E+01  0.38466501839E+01  0.00000000000E+00 0. -1.
</event>
<event>
 5    1  0.1461556E+002  0.1597342E+01  0.7818608E-02  0.3356254E+00
         11   -1    0    0    0    0  0.00000000000E+00  0.00000000000E+00  0.39999999674E+01  0.40000000000E+01  0.51100000000E-03 0. -1.
    9000002   -1    0    0    0    0 -0.00000000000E+00 -0.00000000000E+00  0.00000000000E+00  0.93800000000E+00  0.93800000000E+00 0. -1.
         11    1    1    2    0    0  0.30406227531E+00 -0.72124939025E-01  0.25938765087E+01  0.26126330545E+01  0.51100000000E-03 0. -1.
    9000002    1    1    2    0    0 -0.51033477201E+00  0.56189837578E-01  0.18299406758E+00  0.10848639113E+01  0.93800000000E+00 0. -1.
         22    1    1    2    0    0  0.20627249670E+00  0.15935101448E-01  0.12231293911E+01  0.12405030341E+01  0.00000000000E+00 0. -1.
</event>
<event>
 5    1  0.1461556E+002  0.1597665E+01  0.7818608E-02  0.3355901E+00
         11   -1    0    0    0    0  0.00000000000E+00  0.00000000000E+00  0.39999999674E+01  0.40000000000E+01  0.51100000000E-03 0. -1.
    9000002   -1    0    0    0    0 -0.00000000000E+00 -0.00000000000E+00  0.00000000000E+00  0.93800000000E+00  0.93800000000E+00 0. -1.
         11    1    1    2    0    0 -0.18964073973E-01  0.45160566338E-01  0.13493391091E+01  0.13502279087E+01  0.51100000000E-03 0. -1.
    9000002    1    1    2    0    0  0.18806530384E+00 -0.20232452139E+00  0.52353040184E-01  0.97922857969E+00  0.93800000000E+00 0. -1.
         22    1    1    2    0    0 -0.16910122987E+00  0.15716395505E+00  0.25983078181E+01  0.26085435116E+01  0.00000000000E+00 0. -1.
</event>
<event>
 5    1  0.1461556E+002  0.1558782E+01  0.7818608E-02  0.3399352E+00
         11   -1    0    0    0    0  0.00000000000E+00  0.00000000000E+00  0.39999999674E+01  0.40000000000E+01  0.51100000000E-03 0. -1.
    9000002   -1    0    0    0    0 -0.00000000000E+00 -0.00000000000E+00  0.00000000000E+00  0.93800000000E+00  0.93800000000E+00 0.  1.
         11    1    1    2    0    0  0.19411608177E+00  0.10614136084E+00  0.17077765331E+01  0.17220476155E+01  0.51100000000E-03 0. -1.
    9000002    1    1    2    0    0  0.92366675795E-02  0.72141050968E-01  0.33829080769E-01  0.94142341907E+00  0.93800000000E+00 0.  1.
         22    1    1    2    0    0 -0.20335274935E+00 -0.17828241180E+00  0.22583943534E+01  0.22745289655E+01  0.00000000000E+00 0.  1.
</event>
<event>
 5    1  0.1461556E+002  0.1599666E+01  0.7818608E-02  0.3353726E+00
         11   -1    0    0    0    0  0.00000000000E+00  0.00000000000E+00  0.39999999674E+01  0.40000000000E+01  0.51100000000E-03 0. -1.
    9000002   -1    0    0    0    0 -0.00000000000E+00 -0.00000000000E+00  0.00000000000E+00  0.93800000000E+00  0.93800000000E+00 0.  1.
         11    1    1    2    0    0  0.82439209228E-01  0.70833992923E-01  0.96433498359E+00  0.97044108501E+00  0.51100000000E-03 0. -1.
    9000002    1    1    2    0    0 -0.34018117160E+00 -0.29316397779E+00  0.13696051228E+00  0.10489378100E+01  0.93800000000E+00 0.  1.
         22    1    1    2    0    0  0.25774196237E+00  0.22232998487E+00  0.28987044715E+01  0.29186211050E+01  0.00000000000E+00 0. -1.
</event>
<event>
 5    1  0.1461556E+002  0.1599663E+01  0.7818608E-02  0.3353729E+00
         11   -1    0    0    0    0  0.00000000000E+00  0.00000000000E+00  0.39999999674E+01  0.40000000000E+01  0.51100000000E-03 0.  1.
    9000002   -1    0    0    0    0 -0.00000000000E+00 -0.00000000000E+00  0.00000000000E+00  0.93800000000E+00  0.93800000000E+00 0.  1.
         11    1    1    2    0    0  0.85117202369E-02 -0.34466062662E-03  0.18000249037E+00  0.18020467762E+00  0.51100000000E-03 0.  1.
    9000002    1    1    2    0    0 -0.20821272960E+00 -0.25960037250E-01  0.29174242997E-01  0.96162445932E+00  0.93800000000E+00 0.  1.
         22    1    1    2    0    0  0.19970100936E+00  0.26304697876E-01  0.37908232340E+01  0.37961708631E+01  0.00000000000E+00 0.  1.
</event>
<event>
 5    1  0.1461556E+002  0.1293003E+01  0.7818608E-02  0.3795410E+00
         11   -1    0    0    0    0  0.00000000000E+00  0.00000000000E+00  0.39999999674E+01  0.40000000000E+01  0.51100000000E-03 0. -1.
    9000002   -1    0    0    0    0 -0.00000000000E+00 -0.00000000000E+00  0.00000000000E+00  0.93800000000E+00  0.93800000000E+00 0.  1.
         11    1    1    2    0    0  0.81615728302E+00 -0.59435877711E-01  0.25074477742E+01  0.26376011707E+01  0.51100000000E-03 0. -1.
    9000002    1    1    2    0    0 -0.36522371400E+00 -0.25802562695E+00  0.47400908837E+00  0.11421445623E+01  0.93800000000E+00 0.  1.
         22    1    1    2    0    0 -0.45093356902E+00  0.31746150467E+00  0.10185431048E+01  0.11582542669E+01  0.00000000000E+00 0.  1.
</event>
<event>
 5    1  0.1461556E+002  0.1599676E+01  0.7818608E-02  0.3353715E+00
         11   -1    0    0    0    0  0.00000000000E+00  0.00000000000E+00  0.39999999674E+01  0.40000000000E+01  0.51100000000E-03 0. -1.
    9000002   -1    0    0    0    0 -0.00000000000E+00 -0.00000000000E+00  0.00000000000E+00  0.93800000000E+00  0.93800000000E+00 0. -1.
         11    1    1    2    0    0  0.36817271737E-01  0.11303349181E+00  0.13860891443E+01  0.13911777237E+01  0.51100000000E-03 0. -1.
    9000002    1    1    2    0    0 -0.10109086006E+00 -0.31841990814E+00  0.74709078911E-01  0.99851692342E+00  0.93800000000E+00 0. -1.
         22    1    1    2    0    0  0.64273588321E-01  0.20538641633E+00  0.25392017441E+01  0.25483053529E+01  0.00000000000E+00 0. -1.
</event>
<event>
 5    1  0.1461556E+002  0.1599674E+01  0.7818608E-02  0.3353717E+00
         11   -1    0    0    0    0  0.00000000000E+00  0.00000000000E+00  0.39999999674E+01  0.40000000000E+01  0.51100000000E-03 0.  1.
    9000002   -1    0    0    0    0 -0.00000000000E+00 -0.00000000000E+00  0.00000000000E+00  0.93800000000E+00  0.93800000000E+00 0. -1.
         11    1    1    2    0    0 -0.11441855382E+00  0.13849963414E+00  0.14449829773E+01  0.14561077638E+01  0.51100000000E-03 0.  1.
    9000002    1    1    2    0    0  0.30803133316E+00 -0.36449533738E+00  0.15532536458E+00  0.10638186509E+01  0.93800000000E+00 0. -1.
         22    1    1    2    0    0 -0.19361277934E+00  0.22599570323E+00  0.23996916255E+01  0.24180735853E+01  0.00000000000E+00 0.  1.
</event>
<event>
 5    1  0.1461556E+002  0.1596607E+01  0.7818608E-02  0.3357054E+00
         11   -1    0    0    0    0  0.00000000000E+00  0.00000000000E+00  0.39999999674E+01  0.40000000000E+01  0.51100000000E-03 0.  1.
    9000002   -1    0    0    0    0 -0.00000000000E+00 -0.00000000000E+00  0.00000000000E+00  0.93800000000E+00  0.93800000000E+00 0.  1.
         11    1    1    2    0    0  0.18448865297E-01  0.64836894685E-01  0.13897539774E+01  0.13913879985E+01  0.51100000000E-03 0.  1.
    9000002    1    1    2    0    0 -0.15553774848E+00 -0.32959825593E+00  0.91705586115E-01  0.10104854853E+01  0.93800000000E+00 0.  1.
         22    1    1    2    0    0  0.13708888318E+00  0.26476136124E+00  0.25185404039E+01  0.25361265162E+01  0.00000000000E+00 0.  1.
</event>
<event>
 5    1  0.1461556E+002  0.1599672E+01  0.7818608E-02  0.3353719E+00
         11   -1    0    0    0    0  0.00000000000E+00  0.00000000000E+00  0.39999999674E+01  0.40000000000E+01  0.51100000000E-03 0. -1.
    9000002   -1    0    0    0    0 -0.00000000000E+00 -0.00000000000E+00  0.00000000000E+00  0.93800000000E+00  0.93800000000E+00 0. -1.
         11    1    1    2    0    0  0.33532251096E-01  0.39668726963E-01  0.68063643400E+00  0.68261573097E+00  0.51100000000E-03 0. -1.
    9000002    1    1    2    0    0 -0.20265648249E+00 -0.22226476606E+00  0.60362592938E-01  0.98689357012E+00  0.93800000000E+00 0. -1.
         22    1    1    2    0    0  0.16912423139E+00  0.18259603910E+00  0.32590009404E+01  0.32684906989E+01  0.00000000000E+00 0. -1.
</event>
<event>
 5    1  0.1461556E+002  0.1599677E+01  0.7818608E-02  0.3353714E+00
         11   -1    0    0    0    0  0.00000000000E+00  0.00000000000E+00  0.39999999674E+01  0.40000000000E+01  0.51100000000E-03 0.  1.
    9000002   -1    0    0    0    0 -0.00000000000E+00 -0.00000000000E+00  0.00000000000E+00  0.93800000000E+00  0.93800000000E+00 0. -1.
         11    1    1    2    0    0 -0.17139614475E+00  0.82962996842E+00  0.20578636504E+01  0.22254135768E+01  0.51100000000E-03 0.  1.
    9000002    1    1    2    0    0  0.23334584991E+00 -0.11288651917E+01  0.12004707265E+01  0.19104347337E+01  0.93800000000E+00 0. -1.
         22    1    1    2    0    0 -0.61949705167E-01  0.29923522329E+00  0.74166559046E+00  0.80215168946E+00  0.00000000000E+00 0.  1.
</event>
<event>
 5    1  0.1461556E+002  0.1598458E+01  0.7818608E-02  0.3355039E+00
         11   -1    0    0    0    0  0.00000000000E+00  0.00000000000E+00  0.39999999674E+01  0.40000000000E+01  0.51100000000E-03 0.  1.
    9000002   -1    0    0    0    0 -0.00000000000E+00 -0.00000000000E+00  0.00000000000E+00  0.93800000000E+00  0.93800000000E+00 0.  1.
         11    1    1    2    0    0 -0.34797363109E+00 -0.50371322164E-01  0.16296796082E+01  0.16671768966E+01  0.51100000000E-03 0.  1.
    9000002    1    1    2    0    0  0.74896401949E+00  0.20483744534E-01  0.40832316644E+00  0.12680451469E+01  0.93800000000E+00 0.  1.
         22    1    1    2    0    0 -0.40099038841E+00  0.29887577630E-01  0.19619971927E+01  0.20027779565E+01  0.00000000000E+00 0.  1.
</event>
<event>
 5    1  0.1461556E+002  0.1599668E+01  0.7818608E-02  0.3353723E+00
         11   -1    0    0    0    0  0.00000000000E+00  0.00000000000E+00  0.39999999674E+01  0.40000000000E+01  0.51100000000E-03 0. -1.
    9000002   -1    0    0    0    0 -0.00000000000E+00 -0.00000000000E+00  0.00000000000E+00  0.93800000000E+00  0.93800000000E+00 0. -1.
         11    1    1    2    0    0 -0.91269934204E-01  0.86303847226E-01  0.12206921475E+01  0.12271381890E+01  0.51100000000E-03 0. -1.
    9000002    1    1    2    0    0  0.30113538708E+00 -0.27484855174E+00  0.11224097745E+00  0.10289151009E+01  0.93800000000E+00 0. -1.
         22    1    1    2    0    0 -0.20986545287E+00  0.18854470452E+00  0.26670668424E+01  0.26819467101E+01  0.00000000000E+00 0. -1.
</event>
<event>
 5    1  0.1461556E+002  0.1598811E+01  0.7818608E-02  0.3354655E+00
         11   -1    0    0    0    0  0.00000000000E+00  0.00000000000E+00  0.39999999674E+01  0.40000000000E+01  0.51100000000E-03 0.  1.
    9000002   -1    0    0    0    0 -0.00000000000E+00 -0.00000000000E+00  0.00000000000E+00  0.93800000000E+00  0.93800000000E+00 0. -1.
         11    1    1    2    0    0 -0.46174133330E-01  0.19592476304E+00  0.16554743861E+01  0.16676673132E+01  0.51100000000E-03 0.  1.
    9000002    1    1    2    0    0  0.43107365645E-01 -0.40938764238E+00  0.11520288563E+00  0.10308114239E+01  0.93800000000E+00 0. -1.
         22    1    1    2    0    0  0.30667676852E-02  0.21346287934E+00  0.22293226956E+01  0.22395212629E+01  0.00000000000E+00 0.  1.
</event>
<event>
 5    1  0.1461556E+002  0.1579542E+01  0.7818608E-02  0.3375872E+00
         11   -1    0    0    0    0  0.00000000000E+00  0.00000000000E+00  0.39999999674E+01  0.40000000000E+01  0.51100000000E-03 0.  1.
    9000002   -1    0    0    0    0 -0.00000000000E+00 -0.00000000000E+00  0.00000000000E+00  0.93800000000E+00  0.93800000000E+00 0. -1.
         11    1    1    2    0    0 -0.11578148497E+00 -0.85708315534E-01  0.11871155921E+01  0.11958239660E+01  0.51100000000E-03 0.  1.
    9000002    1    1    2    0    0  0.49346338178E-01 -0.11240522596E+00  0.24853092996E-01  0.94632535216E+00  0.93800000000E+00 0. -1.
         22    1    1    2    0    0  0.66435146794E-01  0.19811354150E+00  0.27880312823E+01  0.27958506818E+01  0.00000000000E+00 0.  1.
</event>
<event>
 5    1  0.1461556E+002  0.1599676E+01  0.7818608E-02  0.3353715E+00
         11   -1    0    0    0    0  0.00000000000E+00  0.00000000000E+00  0.39999999674E+01  0.40000000000E+01  0.51100000000E-03 0.  1.
    9000002   -1    0    0    0    0 -0.00000000000E+00 -0.00000000000E+00  0.00000000000E+00  0.93800000000E+00  0.93800000000E+00 0.  1.
         11    1    1    2    0    0  0.31473753457E+00  0.39638519874E+00  0.21164686370E+01  0.21761481324E+01  0.51100000000E-03 0.  1.
    9000002    1    1    2    0    0 -0.51692571401E+00 -0.65117173986E+00  0.51484030765E+00  0.13550429406E+01  0.93800000000E+00 0.  1.
         22    1    1    2    0    0  0.20218817944E+00  0.25478654112E+00  0.13686910227E+01  0.14068089270E+01  0.00000000000E+00 0.  1.
</event>
<event>
 5    1  0.1461556E+002  0.1598934E+01  0.7818608E-02  0.3354521E+00
         11   -1    0    0    0    0  0.00000000000E+00  0.00000000000E+00  0.39999999674E+01  0.40000000000E+01  0.51100000000E-03 0.  1.
    9000002   -1    0    0    0    0 -0.00000000000E+00 -0.00000000000E+00  0.00000000000E+00  0.93800000000E+00  0.93800000000E+00 0.  1.
         11    1    1    2    0    0  0.13516087538E+00  0.79180459465E-02  0.15862482282E+01  0.15920159736E+01  0.51100000000E-03 0.  1.
    9000002    1    1    2    0    0 -0.36273725600E+00 -0.93024401574E-01  0.94898729946E-01  0.10144366048E+01  0.93800000000E+00 0.  1.
         22    1    1    2    0    0  0.22757638063E+00  0.85106355628E-01  0.23188530092E+01  0.23315474216E+01  0.00000000000E+00 0. -1.
</event>
<event>
 5    1  0.1461556E+002  0.1598338E+01  0.7818608E-02  0.3355169E+00
         11   -1    0    0    0    0  0.00000000000E+00  0.00000000000E+00  0.39999999674E+01  0.40000000000E+01  0.51100000000E-03 0. -1.
    9000002   -1    0    0    0    0 -0.00000000000E+00 -0.00000000000E+00  0.00000000000E+00  0.93800000000E+00  0.93800000000E+00 0. -1.
         11    1    1    2    0    0 -0.22200599176E-01  0.86942496281E-01  0.96718489181E+00  0.97133863319E+00  0.51100000000E-03 0. -1.
    9000002    1    1    2    0    0 -0.63538084303E-01 -0.34228059392E+00  0.82321922688E-01  0.10038993934E+01  0.93800000000E+00 0. -1.
         22    1    1    2    0    0  0.85738683478E-01  0.25533809763E+00  0.29504931529E+01  0.29627619734E+01  0.00000000000E+00 0. -1.
</event>
<event>
 5    1  0.1461556E+002  0.1599676E+01  0.7818608E-02  0.3353715E+00
         11   -1    0    0    0    0  0.00000000000E+00  0.00000000000E+00  0.39999999674E+01  0.40000000000E+01  0.51100000000E-03 0.  1.
    9000002   -1    0    0    0    0 -0.00000000000E+00 -0.00000000000E+00  0.00000000000E+00  0.93800000000E+00  0.93800000000E+00 0. -1.
         11    1    1    2    0    0 -0.34240185992E-02 -0.33716324681E-01  0.55136938217E+00  0.55241014760E+00  0.51100000000E-03 0.  1.
    9000002    1    1    2    0    0  0.25710031099E-01  0.24682547337E+00  0.40904439937E-01  0.97113386987E+00  0.93800000000E+00 0. -1.
         22    1    1    2    0    0 -0.22286012500E-01 -0.21310914869E+00  0.34077261453E+01  0.34144559825E+01  0.00000000000E+00 0.  1.
</event>
<event>
 5    1  0.1461556E+002  0.1599656E+01  0.7818608E-02  0.3353737E+00
         11   -1    0    0    0    0  0.00000000000E+00  0.00000000000E+00  0.39999999674E+01  0.40000000000E+01  0.51100000000E-03 0. -1.
    9000002   -1    0    0    0    0 -0.00000000000E+00 -0.00000000000E+00  0.00000000000E+00  0.93800000000E+00  0.93800000000E+00 0. -1.
         11    1    1    2    0    0  0.10585669309E+00  0.25994342166E+00  0.19863035679E+01  0.20060354800E+01  0.51100000000E-03 0. -1.
    9000002    1    1    2    0    0 -0.19878453031E+00 -0.50665840196E+00  0.20439618851E+00  0.11035578044E+01  0.93800000000E+00 0. -1.
         22    1    1    2    0    0  0.92927837222E-01  0.24671498029E+00  0.18093002109E+01  0.18284067156E+01  0.00000000000E+00 0. -1.
</event>
<event>
 5    1  0.1461556E+002  0.1598635E+01  0.7818608E-02  0.3354846E+00
         11   -1    0    0    0    0  0.00000000000E+00  0.00000000000E+00  0.39999999674E+01  0.40000000000E+01  0.51100000000E-03 0.  1.
    9000002   -1    0    0    0    0 -0.00000000000E+00 -0.00000000000E+00  0.00000000000E+00  0.93800000000E+00  0.93800000000E+00 0. -1.
         11    1    1    2    0    0  0.19317707682E+00  0.22550146133E+00  0.20589345303E+01  0.20802355524E+01  0.51100000000E-03 0.  1.
    9000002    1    1    2    0    0 -0.36308271089E+00 -0.34696607905E+00  0.17366016909E+00  0.10780613940E+01  0.93800000000E+00 0. -1.
         22    1    1    2    0    0  0.16990563407E+00  0.12146461772E+00  0.17674052680E+01  0.17797030536E+01  0.00000000000E+00 0. -1.
</event>
<event>
 5    1  0.1461556E+002  0.1578019E+01  0.7818608E-02  0.3377572E+00
         11   -1    0    0    0    0  0.00000000000E+00  0.00000000000E+00  0.39999999674E+01  0.40000000000E+01  0.51100000000E-03 0. -1.
    9000002   -1    0    0    0    0 -0.00000000000E+00 -0.00000000000E+00  0.00000000000E+00  0.93800000000E+00  0.93800000000E+00 0. -1.
         11    1    1    2    0    0 -0.13782181701E+00 -0.79406885772E-01  0.19574902460E+01  0.19639421150E+01  0.51100000000E-03 0. -1.
    9000002    1    1    2    0    0  0.17244847263E+00 -0.18099843411E+00  0.58255598092E-01  0.97248990924E+00  0.93800000000E+00 0. -1.
         22    1    1    2    0    0 -0.34626655621E-01  0.26040531988E+00  0.19842541233E+01  0.20015679758E+01  0.00000000000E+00 0. -1.
</event>
<event>
 5    1  0.1461556E+002  0.1599677E+01  0.7818608E-02  0.3353714E+00
         11   -1    0    0    0    0  0.00000000000E+00  0.00000000000E+00  0.39999999674E+01  0.40000000000E+01  0.51100000000E-03 0. -1.
    9000002   -1    0    0    0    0 -0.00000000000E+00 -0.00000000000E+00  0.00000000000E+00  0.93800000000E+00  0.93800000000E+00 0.  1.
         11    1    1    2    0    0 -0.25349001933E-01 -0.19836304368E+00  0.16952308347E+01  0.17069851531E+01  0.51100000000E-03 0. -1.
    9000002    1    1    2    0    0  0.58089838492E-01  0.45073061444E+00  0.14036653445E+00  0.10517030380E+01  0.93800000000E+00 0.  1.
         22    1    1    2    0    0 -0.32740836558E-01 -0.25236757076E+00  0.21644025982E+01  0.21793118089E+01  0.00000000000E+00 0. -1.
</event>
<event>
 5    1  0.1461556E+002  0.1599674E+01  0.7818608E-02  0.3353717E+00
         11   -1    0    0    0    0  0.00000000000E+00  0.00000000000E+00  0.39999999674E+01  0.40000000000E+01  0.51100000000E-03 0. -1.
    9000002   -1    0    0    0    0 -0.00000000000E+00 -0.00000000000E+00  0.00000000000E+00  0.93800000000E+00  0.93800000000E+00 0.  1.
         11    1    1    2    0    0  0.11296790419E-01 -0.41812566373E-01  0.60182892259E+00  0.60338563238E+00  0.51100000000E-03 0. -1.
    9000002    1    1    2    0    0 -0.72535070804E-01  0.28309528414E+00  0.56935863090E-01  0.98411887946E+00  0.93800000000E+00 0.  1.
         22    1    1    2    0    0  0.61238280385E-01 -0.24128271777E+00  0.33412351817E+01  0.33504954882E+01  0.00000000000E+00 0. -1.
</event>
<event>
 5    1  0.1904585E+002  0.1586010E+01  0.7818608E-02  0.3368689E+00
         11   -1    0    0    0    0  0.00000000000E+00  0.00000000000E+00  0.39999999674E+01  0.40000000000E+01  0.51100000000E-03 0.  1.
    9000002   -1    0    0    0    0 -0.00000000000E+00 -0.00000000000E+00  0.00000000000E+00  0.93800000000E+00  0.93800000000E+00 0. -1.
         11    1    1    2    0    0  0.72952968858E-02 -0.70257150491E-01  0.37922453666E+00  0.38574706594E+00  0.51100000000E-03 0.  1.
    9000002    1    1    2    0    0 -0.30377939055E-01 -0.13023332027E+00  0.21914940406E-01  0.94773825580E+00  0.93800000000E+00 0. -1.
         22    1    1    2    0    0  0.23082642169E-01  0.20049047077E+00  0.35988604903E+01  0.36045146783E+01  0.00000000000E+00 0.  1.
</event>
<event>
 5    1  0.1461556E+002  0.1599677E+01  0.7818608E-02  0.3353714E+00
         11   -1    0    0    0    0  0.00000000000E+00  0.00000000000E+00  0.39999999674E+01  0.40000000000E+01  0.51100000000E-03 0. -1.
    9000002   -1    0    0    0    0 -0.00000000000E+00 -0.00000000000E+00  0.00000000000E+00  0.93800000000E+00  0.93800000000E+00 0. -1.
         11    1    1    2    0    0  0.42627109905E-01 -0.38594335733E-01  0.87956683335E+00  0.88144464869E+00  0.51100000000E-03 0.  1.
    9000002    1    1    2    0    0 -0.19264419625E+00  0.17299940241E+00  0.44565515891E-01  0.97409992546E+00  0.93800000000E+00 0. -1.
         22    1    1    2    0    0  0.15001708635E+00 -0.13440506667E+00  0.30758676181E+01  0.30824554258E+01  0.00000000000E+00 0. -1.
</event>
<event>
 5    1  0.1461556E+002  0.1576404E+01  0.7818608E-02  0.3379378E+00
         11   -1    0    0    0    0  0.00000000000E+00  0.00000000000E+00  0.39999999674E+01  0.40000000000E+01  0.51100000000E-03 0. -1.
    9000002   -1    0    0    0    0 -0.00000000000E+00 -0.00000000000E+00  0.00000000000E+00  0.93800000000E+00  0.93800000000E+00 0. -1.
         11    1    1    2    0    0 -0.31484461037E-01  0.13684068811E+00  0.19358247826E+01  0.19409107386E+01  0.51100000000E-03 0. -1.
    9000002    1    1    2    0    0  0.10916322625E+00  0.93124076698E-01  0.30938903873E-01  0.94941556728E+00  0.93800000000E+00 0. -1.
         22    1    1    2    0    0 -0.77678765212E-01 -0.22996476481E+00  0.20332362809E+01  0.20476736941E+01  0.00000000000E+00 0. -1.
</event>
<event>
 5    1  0.1461556E+002  0.1599676E+01  0.7818608E-02  0.3353715E+00
         11   -1    0    0    0    0  0.00000000000E+00  0.00000000000E+00  0.39999999674E+01  0.40000000000E+01  0.51100000000E-03 0.  1.
    9000002   -1    0    0    0    0 -0.00000000000E+00 -0.00000000000E+00  0.00000000000E+00  0.93800000000E+00  0.93800000000E+00 0.  1.
         11    1    1    2    0    0 -0.31216678703E-01 -0.16654586569E+00  0.13321300285E+01  0.13428636120E+01  0.51100000000E-03 0.  1.
    9000002    1    1    2    0    0  0.93126331060E-01  0.48122005136E+00  0.16419400421E+00  0.10710036986E+01  0.93800000000E+00 0.  1.
         22    1    1    2    0    0 -0.61909652357E-01 -0.31467418567E+00  0.25036759347E+01  0.25241326895E+01  0.00000000000E+00 0.  1.
</event>
<event>
 5    1  0.1461556E+002  0.1593946E+01  0.7818608E-02  0.3359960E+00
         11   -1    0    0    0    0  0.00000000000E+00  0.00000000000E+00  0.39999999674E+01  0.40000000000E+01  0.51100000000E-03 0. -1.
    9000002   -1    0    0    0    0 -0.00000000000E+00 -0.00000000000E+00  0.00000000000E+00  0.93800000000E+00  0.93800000000E+00 0.  1.
         11    1    1    2    0    0 -0.41403296421E-01  0.62837942090E-01  0.46917702754E+00  0.47517384631E+00  0.51100000000E-03 0. -1.
    9000002    1    1    2    0    0  0.29665181138E+00 -0.33353031110E-01  0.63936681779E-01  0.98643125516E+00  0.93800000000E+00 0.  1.
         22    1    1    2    0    0 -0.25524851496E+00 -0.29484910980E-01  0.34668862580E+01  0.34763948985E+01  0.00000000000E+00 0. -1.
</event>
<event>
 5    1  0.1461556E+002  0.1599554E+01  0.7818608E-02  0.3353847E+00
         11   -1    0    0    0    0  0.00000000000E+00  0.00000000000E+00  0.39999999674E+01  0.40000000000E+01  0.51100000000E-03 0. -1.
    9000002   -1    0    0    0    0 -0.00000000000E+00 -0.00000000000E+00  0.00000000000E+00  0.93800000000E+00  0.93800000000E+00 0. -1.
         11    1    1    2    0    0 -0.19708886197E+00 -0.16375532689E+00  0.16414000916E+01  0.16612809360E+01  0.51100000000E-03 0. -1.
    9000002    1    1    2    0    0  0.43448624999E+00  0.35374553032E+00  0.21736667498E+00  0.11140047006E+01  0.93800000000E+00 0. -1.
         22    1    1    2    0    0 -0.23739738802E+00 -0.18999020343E+00  0.21412332008E+01  0.21627143634E+01  0.00000000000E+00 0. -1.
</event>
<event>
 5    1  0.1461556E+002  0.1596047E+01  0.7818608E-02  0.3357665E+00
         11   -1    0    0    0    0  0.00000000000E+00  0.00000000000E+00  0.39999999674E+01  0.40000000000E+01  0.51100000000E-03 0. -1.
    9000002   -1    0    0    0    0 -0.00000000000E+00 -0.00000000000E+00  0.00000000000E+00  0.93800000000E+00  0.93800000000E+00 0. -1.
         11    1    1    2    0    0  0.14304809048E+00 -0.17665514922E+00  0.12521047225E+01  0.12725707427E+01  0.51100000000E-03 0. -1.
    9000002    1    1    2    0    0 -0.23599080955E+00  0.47396674312E+00  0.19626023825E+00  0.10948507738E+01  0.93800000000E+00 0. -1.
         22    1    1    2    0    0  0.92942719073E-01 -0.29731159390E+00  0.25516350066E+01  0.25705784835E+01  0.00000000000E+00 0.  1.
</event>
<event>
 5    1  0.1461556E+002  0.1559795E+01  0.7818608E-02  0.3398191E+00
         11   -1    0    0    0    0  0.00000000000E+00  0.00000000000E+00  0.39999999674E+01  0.40000000000E+01  0.51100000000E-03 0.  1.
    9000002   -1    0    0    0    0 -0.00000000000E+00 -0.00000000000E+00  0.00000000000E+00  0.93800000000E+00  0.93800000000E+00 0.  1.
         11    1    1    2    0    0  0.35400881193E-01 -0.85158211400E-01  0.12837505165E+01  0.12870589703E+01  0.51100000000E-03 0.  1.
    9000002    1    1    2    0    0  0.19410342279E+00 -0.35584805758E+00  0.14500191226E+00  0.10320724458E+01  0.93800000000E+00 0.  1.
         22    1    1    2    0    0 -0.22950430398E+00  0.44100626898E+00  0.25712475386E+01  0.26188685839E+01  0.00000000000E+00 0.  1.
</event>
<event>
 5    1  0.1461556E+002  0.1591850E+01  0.7818608E-02  0.3362256E+00
         11   -1    0    0    0    0  0.00000000000E+00  0.00000000000E+00  0.39999999674E+01  0.40000000000E+01  0.51100000000E-03 0. -1.
    9000002   -1    0    0    0    0 -0.00000000000E+00 -0.00000000000E+00  0.00000000000E+00  0.93800000000E+00  0.93800000000E+00 0. -1.
         11    1    1    2    0    0  0.69122034252E-01 -0.18020464365E+00  0.19379540735E+01  0.19475414813E+01  0.51100000000E-03 0. -1.
    9000002    1    1    2    0    0  0.43339917957E-01  0.46795801258E+00  0.15736307743E+00  0.10608817975E+01  0.93800000000E+00 0. -1.
         22    1    1    2    0    0 -0.11246195221E+00 -0.28775336894E+00  0.19046828164E+01  0.19295767212E+01  0.00000000000E+00 0.  1.
</event>
<event>
 5    1  0.1461556E+002  0.1598586E+01  0.7818608E-02  0.3354899E+00
         11   -1    0    0    0    0  0.00000000000E+00  0.00000000000E+00  0.39999999674E+01  0.40000000000E+01  0.51100000000E-03 0. -1.
    9000002   -1    0    0    0    0 -0.00000000000E+00 -0.00000000000E+00  0.00000000000E+00  0.93800000000E+00  0.93800000000E+00 0.  1.
         11    1    1    2    0    0  0.20139917914E+00  0.35859800846E-02  0.20585447742E+01  0.20683764979E+01  0.51100000000E-03 0. -1.
    9000002    1    1    2    0    0 -0.44748390422E+00 -0.34282972846E-01  0.13771692384E+00  0.10489171168E+01  0.93800000000E+00 0.  1.
         22    1    1    2    0    0  0.24608472508E+00  0.30696992761E-01  0.18037382693E+01  0.18207063853E+01  0.00000000000E+00 0. -1.
</event>
<event>
 5    1  0.1461556E+002  0.1599677E+01  0.7818608E-02  0.3353714E+00
         11   -1    0    0    0    0  0.00000000000E+00  0.00000000000E+00  0.39999999674E+01  0.40000000000E+01  0.51100000000E-03 0. -1.
    9000002   -1    0    0    0    0 -0.00000000000E+00 -0.00000000000E+00  0.00000000000E+00  0.93800000000E+00  0.93800000000E+00 0. -1.
         11    1    1    2    0    0 -0.38103666496E-01 -0.56364593878E-01  0.97053947328E+00  0.97292136741E+00  0.51100000000E-03 0.  1.
    9000002    1    1    2    0    0  0.15471474930E+00  0.22908704917E+00  0.50872138229E-01  0.97920861117E+00  0.93800000000E+00 0. -1.
         22    1    1    2    0    0 -0.11661108281E+00 -0.17272245529E+00  0.29785883558E+01  0.29858700214E+01  0.00000000000E+00 0. -1.
</event>
<event>
 5    1  0.1461556E+002  0.1589273E+01  0.7818608E-02  0.3365089E+00
         11   -1    0    0    0    0  0.00000000000E+00  0.00000000000E+00  0.39999999674E+01  0.40000000000E+01  0.51100000000E-03 0. -1.
    9000002   -1    0    0    0    0 -0.00000000000E+00 -0.00000000000E+00  0.00000000000E+00  0.93800000000E+00  0.93800000000E+00 0. -1.
         11    1    1    2    0    0  0.47885430173E-02 -0.42904661567E-01  0.16016485851E+00  0.16588183491E+00  0.51100000000E-03 0. -1.
    9000002    1    1    2    0    0  0.25323920803E+00 -0.83970932864E-01  0.55402019190E-01  0.97677766036E+00  0.93800000000E+00 0. -1.
         22    1    1    2    0    0 -0.25802775105E+00  0.12687559443E+00  0.37844330897E+01  0.37953405047E+01  0.00000000000E+00 0. -1.
</event>
<event>
 5    1  0.1461556E+002  0.1599650E+01  0.7818608E-02  0.3353744E+00
         11   -1    0    0    0    0  0.00000000000E+00  0.00000000000E+00  0.39999999674E+01  0.40000000000E+01  0.51100000000E-03 0. -1.
    9000002   -1    0    0    0    0 -0.00000000000E+00 -0.00000000000E+00  0.00000000000E+00  0.93800000000E+00  0.93800000000E+00 0. -1.
         11    1    1    2    0    0 -0.70856993578E-02  0.30895039743E-02  0.11497188133E+00  0.11523257694E+00  0.51100000000E-03 0. -1.
    9000002    1    1    2    0    0  0.21549625932E+00 -0.41775181160E-01  0.31958843480E-01  0.96387196827E+00  0.93800000000E+00 0. -1.
         22    1    1    2    0    0 -0.20841055996E+00  0.38685677186E-01  0.38530692426E+01  0.38588954548E+01  0.00000000000E+00 0. -1.
</event>
<event>
 5    1  0.1461556E+002  0.1599677E+01  0.7818608E-02  0.3353714E+00
         11   -1    0    0    0    0  0.00000000000E+00  0.00000000000E+00  0.39999999674E+01  0.40000000000E+01  0.51100000000E-03 0. -1.
    9000002   -1    0    0    0    0 -0.00000000000E+00 -0.00000000000E+00  0.00000000000E+00  0.93800000000E+00  0.93800000000E+00 0.  1.
         11    1    1    2    0    0 -0.41388113949E-01 -0.37107290638E-01  0.46408860454E+00  0.46740605578E+00  0.51100000000E-03 0.  1.
    9000002    1    1    2    0    0  0.34390867802E+00  0.30782969962E+00  0.14493899711E+00  0.10554068484E+01  0.93800000000E+00 0.  1.
         22    1    1    2    0    0 -0.30252056407E+00 -0.27072240898E+00  0.33909723657E+01  0.34151870958E+01  0.00000000000E+00 0. -1.
</event>
<event>
 5    1  0.1461556E+002  0.1599425E+01  0.7818608E-02  0.3353988E+00
         11   -1    0    0    0    0  0.00000000000E+00  0.00000000000E+00  0.39999999674E+01  0.40000000000E+01  0.51100000000E-03 0. -1.
    9000002   -1    0    0    0    0 -0.00000000000E+00 -0.00000000000E+00  0.00000000000E+00  0.93800000000E+00  0.93800000000E+00 0. -1.
         11    1    1    2    0    0  0.29322683371E+00  0.15591988257E+00  0.17397154245E+01  0.17711304315E+01  0.51100000000E-03 0. -1.
    9000002    1    1    2    0    0 -0.63562368978E+00 -0.35529612296E+00  0.38223155583E+00  0.12474765618E+01  0.93800000000E+00 0. -1.
         22    1    1    2    0    0  0.34239685607E+00  0.19937624038E+00  0.18780529870E+01  0.19193930067E+01  0.00000000000E+00 0. -1.
</event>
<event>
 5    1  0.1461556E+002  0.1599670E+01  0.7818608E-02  0.3353721E+00
         11   -1    0    0    0    0  0.00000000000E+00  0.00000000000E+00  0.39999999674E+01  0.40000000000E+01  0.51100000000E-03 0.  1.
    9000002   -1    0    0    0    0 -0.00000000000E+00 -0.00000000000E+00  0.00000000000E+00  0.93800000000E+00  0.93800000000E+00 0.  1.
         11    1    1    2    0    0  0.10865609377E+00  0.13080073980E+00  0.11842465743E+01  0.11963925736E+01  0.51100000000E-03 0.  1.
    9000002    1    1    2    0    0 -0.34584933941E+00 -0.42775697976E+00  0.20900713719E+00  0.11073011256E+01  0.93800000000E+00 0.  1.
         22    1    1    2    0    0  0.23719324564E+00  0.29695623996E+00  0.26067462559E+01  0.26343063009E+01  0.00000000000E+00 0.  1.
</event>
<event>
 5    1  0.1461556E+002  0.1599600E+01  0.7818608E-02  0.3353797E+00
         11   -1    0    0    0    0  0.00000000000E+00  0.00000000000E+00  0.39999999674E+01  0.40000000000E+01  0.51100000000E-03 0.  1.
    9000002   -1    0    0    0    0 -0.00000000000E+00 -0.00000000000E+00  0.00000000000E+00  0.93800000000E+00  0.93800000000E+00 0.  1.
         11    1    1    2    0    0 -0.56546783586E+00  0.65161590512E-01  0.24930311284E+01  0.25571868087E+01  0.51100000000E-03 0.  1.
    9000002    1    1    2    0    0  0.79032931118E+00 -0.10065352388E+00  0.46715149766E+00  0.13163685175E+01  0.93800000000E+00 0.  1.
         22    1    1    2    0    0 -0.22486147533E+00  0.35491933370E-01  0.10398173413E+01  0.10644446739E+01  0.00000000000E+00 0. -1.
</event>
<event>
 5    1  0.1461556E+002  0.1551055E+01  0.7818608E-02  0.3408263E+00
         11   -1    0    0    0    0  0.00000000000E+00  0.00000000000E+00  0.39999999674E+01  0.40000000000E+01  0.51100000000E-03 0.  1.
    9000002   -1    0    0    0    0 -0.00000000000E+00 -0.00000000000E+00  0.00000000000E+00  0.93800000000E+00  0.93800000000E+00 0. -1.
         11    1    1    2    0    0  0.11532161067E+00  0.21643058081E+00  0.21221175549E+01  0.21362407280E+01  0.51100000000E-03 0.  1.
    9000002    1    1    2    0    0  0.24444371658E-01  0.28063594408E-01  0.37007689166E-01  0.93946722226E+00  0.93800000000E+00 0. -1.
         22    1    1    2    0    0 -0.13976598233E+00 -0.24449417522E+00  0.18408747233E+01  0.18622920497E+01  0.00000000000E+00 0. -1.
</event>
<event>
 5    1  0.1461556E+002  0.1597268E+01  0.7818608E-02  0.3356334E+00
         11   -1    0    0    0    0  0.00000000000E+00  0.00000000000E+00  0.39999999674E+01  0.40000000000E+01  0.51100000000E-03 0.  1.
    9000002   -1    0    0    0    0 -0.00000000000E+00 -0.00000000000E+00  0.00000000000E+00  0.93800000000E+00  0.93800000000E+00 0. -1.
         11    1    1    2    0    0 -0.55167161657E-01  0.74216650196E-01  0.95351670782E+00  0.95799055324E+00  0.51100000000E-03 0.  1.
    9000002    1    1    2    0    0  0.20317070383E-01 -0.28305310111E+00  0.55517176462E-01  0.98155896322E+00  0.93800000000E+00 0. -1.
         22    1    1    2    0    0  0.34850091273E-01  0.20883645091E+00  0.29909660831E+01  0.29984504835E+01  0.00000000000E+00 0.  1.
</event>
<event>
 5    1  0.1461556E+002  0.1599637E+01  0.7818608E-02  0.3353757E+00
         11   -1    0    0    0    0  0.00000000000E+00  0.00000000000E+00  0.39999999674E+01  0.40000000000E+01  0.51100000000E-03 0.  1.
    9000002   -1    0    0    0    0 -0.00000000000E+00 -0.00000000000E+00  0.00000000000E+00  0.93800000000E+00  0.93800000000E+00 0. -1.
         11    1    1    2    0    0 -0.31649114879E-01  0.50248238176E-01  0.70520175658E+00  0.70769790908E+00  0.51100000000E-03 0.  1.
    9000002    1    1    2    0    0  0.18792269236E+00 -0.30878291099E+00  0.87755358450E-01  0.10090623506E+01  0.93800000000E+00 0. -1.
         22    1    1    2    0    0 -0.15627357748E+00  0.25853467281E+00  0.32070428523E+01  0.32212397403E+01  0.00000000000E+00 0.  1.
</event>
<event>
 5    1  0.1461556E+002  0.1599670E+01  0.7818608E-02  0.3353722E+00
         11   -1    0    0    0    0  0.00000000000E+00  0.00000000000E+00  0.39999999674E+01  0.40000000000E+01  0.51100000000E-03 0. -1.
    9000002   -1    0    0    0    0 -0.00000000000E+00 -0.00000000000E+00  0.00000000000E+00  0.93800000000E+00  0.93800000000E+00 0.  1.
         11    1    1    2    0    0  0.25855764099E-01  0.68850811511E-02  0.42202722397E+00  0.42287487957E+00  0.51100000000E-03 0. -1.
    9000002    1    1    2    0    0 -0.22902235076E+00 -0.53207127495E-01  0.36688173977E-01  0.96771496717E+00  0.93800000000E+00 0.  1.
         22    1    1    2    0    0  0.20316658666E+00  0.46322046344E-01  0.35412845694E+01  0.35474101533E+01  0.00000000000E+00 0. -1.
</event>
<event>
 5    1  0.1461556E+002  0.1524901E+01  0.7818608E-02  0.3439136E+00
         11   -1    0    0    0    0  0.00000000000E+00  0.00000000000E+00  0.39999999674E+01  0.40000000000E+01  0.51100000000E-03 0. -1.
    9000002   -1    0    0    0    0 -0.00000000000E+00 -0.00000000000E+00  0.00000000000E+00  0.93800000000E+00  0.93800000000E+00 0. -1.
         11    1    1    2    0    0 -0.20154492905E-01 -0.92660859618E-01  0.47996185163E-01  0.10628326962E+00  0.51100000000E-03 0. -1.
    9000002    1    1    2    0    0 -0.13749296939E+00  0.21713175753E+00  0.10359855963E+00  0.97807319681E+00  0.93800000000E+00 0. -1.
         22    1    1    2    0    0  0.15764746230E+00 -0.12447089791E+00  0.38484052226E+01  0.38536435336E+01  0.00000000000E+00 0. -1.
</event>
<event>
 5    1  0.1461556E+002  0.1599609E+01  0.7818608E-02  0.3353788E+00
         11   -1    0    0    0    0  0.00000000000E+00  0.00000000000E+00  0.39999999674E+01  0.40000000000E+01  0.51100000000E-03 0. -1.
    9000002   -1    0    0    0    0 -0.00000000000E+00 -0.00000000000E+00  0.00000000000E+00  0.93800000000E+00  0.93800000000E+00 0.  1.
         11    1    1    2    0    0 -0.10392774370E+00 -0.98245493181E-01  0.16397717564E+01  0.16459966061E+01  0.51100000000E-03 0. -1.
    9000002    1    1    2    0    0  0.27102659495E+00  0.23871914677E+00  0.87627860344E-01  0.10089424603E+01  0.93800000000E+00 0.  1.
         22    1    1    2    0    0 -0.16709885125E+00 -0.14047365359E+00  0.22726003506E+01  0.22830609337E+01  0.00000000000E+00 0. -1.
</event>
<event>
 5    1  0.1461556E+002  0.1599673E+01  0.7818608E-02  0.3353718E+00
         11   -1    0    0    0    0  0.00000000000E+00  0.00000000000E+00  0.39999999674E+01  0.40000000000E+01  0.51100000000E-03 0.  1.
    9000002   -1    0    0    0    0 -0.00000000000E+00 -0.00000000000E+00  0.00000000000E+00  0.93800000000E+00  0.93800000000E+00 0. -1.
         11    1    1    2    0    0 -0.61228822073E-02 -0.13311770559E+00  0.10559826477E+01  0.10643577531E+01  0.51100000000E-03 0.  1.
    9000002    1    1    2    0    0  0.14450026096E-01  0.48404825306E+00  0.16012464292E+00  0.10677056785E+01  0.93800000000E+00 0. -1.
         22    1    1    2    0    0 -0.83271438886E-02 -0.35093054747E+00  0.27838926767E+01  0.28059365684E+01  0.00000000000E+00 0.  1.
</event>
<event>
 5    1  0.1461556E+002  0.1599534E+01  0.7818608E-02  0.3353870E+00
         11   -1    0    0    0    0  0.00000000000E+00  0.00000000000E+00  0.39999999674E+01  0.40000000000E+01  0.51100000000E-03 0.  1.
    9000002   -1    0    0    0    0 -0.00000000000E+00 -0.00000000000E+00  0.00000000000E+00  0.93800000000E+00  0.93800000000E+00 0. -1.
         11    1    1    2    0    0  0.28170672254E-01 -0.26435275462E-01  0.52966456855E+00  0.53107177185E+00  0.51100000000E-03 0.  1.
    9000002    1    1    2    0    0 -0.26346403017E+00  0.24294546540E+00  0.86314107971E-01  0.10078342719E+01  0.93800000000E+00 0. -1.
         22    1    1    2    0    0  0.23529335792E+00 -0.21651018993E+00  0.33840212908E+01  0.33990939563E+01  0.00000000000E+00 0.  1.
</event>
<event>
 5    1  0.1461556E+002  0.1598898E+01  0.7818608E-02  0.3354560E+00
         11   -1    0    0    0    0  0.00000000000E+00  0.00000000000E+00  0.39999999674E+01  0.40000000000E+01  0.51100000000E-03 0.  1.
    9000002   -1    0    0    0    0 -0.00000000000E+00 -0.00000000000E+00  0.00000000000E+00  0.93800000000E+00  0.93800000000E+00 0.  1.
         11    1    1    2    0    0 -0.31713250382E-03  0.48689020496E-02  0.37791968131E-01  0.38109063966E-01  0.51100000000E-03 0.  1.
    9000002    1    1    2    0    0 -0.23440300817E+00  0.11800052353E+00  0.46392404889E-01  0.97512314557E+00  0.93800000000E+00 0.  1.
         22    1    1    2    0    0  0.23472014068E+00 -0.12286942558E+00  0.39158155943E+01  0.39247677905E+01  0.00000000000E+00 0.  1.
</event>
<event>
 5    1  0.1461556E+002  0.1586970E+01  0.7818608E-02  0.3367628E+00
         11   -1    0    0    0    0  0.00000000000E+00  0.00000000000E+00  0.39999999674E+01  0.40000000000E+01  0.51100000000E-03 0.  1.
    9000002   -1    0    0    0    0 -0.00000000000E+00 -0.00000000000E+00  0.00000000000E+00  0.93800000000E+00  0.93800000000E+00 0.  1.
         11    1    1    2    0    0 -0.12255509323E+00  0.15602991237E+00  0.77189952419E+00  0.79699072830E+00  0.51100000000E-03 0.  1.
    9000002    1    1    2    0    0  0.34985468192E+00 -0.29495405167E+00  0.15350545086E+00  0.10548953097E+01  0.93800000000E+00 0.  1.
         22    1    1    2    0    0 -0.22729958869E+00  0.13892413930E+00  0.30745949923E+01  0.30861139620E+01  0.00000000000E+00 0. -1.
</event>
<event>
 5    1  0.1461556E+002  0.1599667E+01  0.7818608E-02  0.3353724E+00
         11   -1    0    0    0    0  0.00000000000E+00  0.00000000000E+00  0.39999999674E+01  0.40000000000E+01  0.51100000000E-03 0.  1.
    9000002   -1    0    0    0    0 -0.00000000000E+00 -0.00000000000E+00  0.00000000000E+00  0.93800000000E+00  0.93800000000E+00 0.  1.
         11    1    1    2    0    0  0.38895323183E-01 -0.46109018471E-01  0.78646601767E+00  0.78877623304E+00  0.51100000000E-03 0.  1.
    9000002    1    1    2    0    0 -0.20186653785E+00  0.21798025478E+00  0.58874592639E-01  0.98568540023E+00  0.93800000000E+00 0.  1.
         22    1    1    2    0    0  0.16297121466E+00 -0.17187123631E+00  0.31546593571E+01  0.31635383667E+01  0.00000000000E+00 0. -1.
</event>
<event>
 5    1  0.1461556E+002  0.1599676E+01  0.7818608E-02  0.3353715E+00
         11   -1    0    0    0    0  0.00000000000E+00  0.00000000000E+00  0.39999999674E+01  0.40000000000E+01  0.51100000000E-03 0.  1.
    9000002   -1    0    0    0    0 -0.00000000000E+00 -0.00000000000E+00  0.00000000000E+00  0.93800000000E+00  0.93800000000E+00 0.  1.
         11    1    1    2    0    0 -0.12583209003E+00  0.38676699904E-01  0.14002459654E+01  0.14064205014E+01  0.51100000000E-03 0.  1.
    9000002    1    1    2    0    0  0.35046468479E+00 -0.10489856108E+00  0.89895441804E-01  0.10108186751E+01  0.93800000000E+00 0.  1.
         22    1    1    2    0    0 -0.22463259475E+00  0.66221861179E-01  0.25098585601E+01  0.25207608235E+01  0.00000000000E+00 0.  1.
</event>
<event>
 5    1  0.1461556E+002  0.1599677E+01  0.7818608E-02  0.3353714E+00
         11   -1    0    0    0    0  0.00000000000E+00  0.00000000000E+00  0.39999999674E+01  0.40000000000E+01  0.51100000000E-03 0.  1.
    9000002   -1    0    0    0    0 -0.00000000000E+00 -0.00000000000E+00  0.00000000000E+00  0.93800000000E+00  0.93800000000E+00 0. -1.
         11    1    1    2    0    0 -0.18143793625E+00 -0.75104652140E-01  0.15149986242E+01  0.15276719301E+01  0.51100000000E-03 0.  1.
    9000002    1    1    2    0    0  0.45943533059E+00  0.18829216649E+00  0.16866911414E+00  0.10746292538E+01  0.93800000000E+00 0. -1.
         22    1    1    2    0    0 -0.27799739434E+00 -0.11318751435E+00  0.23163322290E+01  0.23356988161E+01  0.00000000000E+00 0.  1.
</event>
<event>
 5    1  0.1461556E+002  0.1599656E+01  0.7818608E-02  0.3353737E+00
         11   -1    0    0    0    0  0.00000000000E+00  0.00000000000E+00  0.39999999674E+01  0.40000000000E+01  0.51100000000E-03 0.  1.
    9000002   -1    0    0    0    0 -0.00000000000E+00 -0.00000000000E+00  0.00000000000E+00  0.93800000000E+00  0.93800000000E+00 0. -1.
         11    1    1    2    0    0  0.15340149638E-01  0.19245952009E+00  0.18541744923E+01  0.18641993713E+01  0.51100000000E-03 0.  1.
    9000002    1    1    2    0    0 -0.27277486256E-01 -0.39373684253E+00  0.10501816798E+00  0.10230569769E+01  0.93800000000E+00 0. -1.
         22    1    1    2    0    0  0.11937336618E-01  0.20127732243E+00  0.20408073071E+01  0.20507436518E+01  0.00000000000E+00 0.  1.
</event>
<event>
 5    1  0.1461556E+002  0.1599676E+01  0.7818608E-02  0.3353715E+00
         11   -1    0    0    0    0  0.00000000000E+00  0.00000000000E+00  0.39999999674E+01  0.40000000000E+01  0.51100000000E-03 0. -1.
    9000002   -1    0    0    0    0 -0.00000000000E+00 -0.00000000000E+00  0.00000000000E+00  0.93800000000E+00  0.93800000000E+00 0. -1.
         11    1    1    2    0    0 -0.32963521311E-01  0.76365817695E-01  0.81918549374E+00  0.82339751404E+00  0.51100000000E-03 0.  1.
    9000002    1    1    2    0    0  0.15284423533E+00 -0.36321065477E+00  0.10466323171E+00  0.10227813706E+01  0.93800000000E+00 0. -1.
         22    1    1    2    0    0 -0.11988071402E+00  0.28684483708E+00  0.30761512419E+01  0.30918211153E+01  0.00000000000E+00 0. -1.
</event>
<event>
 5    1  0.1461556E+002  0.1598575E+01  0.7818608E-02  0.3354912E+00
         11   -1    0    0    0    0  0.00000000000E+00  0.00000000000E+00  0.39999999674E+01  0.40000000000E+01  0.51100000000E-03 0. -1.
    9000002   -1    0    0    0    0 -0.00000000000E+00 -0.00000000000E+00  0.00000000000E+00  0.93800000000E+00  0.93800000000E+00 0. -1.
         11    1    1    2    0    0 -0.12638412772E+00  0.10439835692E+00  0.92744668069E+00  0.94182247335E+00  0.51100000000E-03 0. -1.
    9000002    1    1    2    0    0  0.38038428857E+00 -0.38953771773E+00  0.20556705865E+00  0.11038721195E+01  0.93800000000E+00 0. -1.
         22    1    1    2    0    0 -0.25400016086E+00  0.28513936081E+00  0.28669862280E+01  0.28923054072E+01  0.00000000000E+00 0. -1.
</event>
<event>
 5    1  0.1461556E+002  0.1599625E+01  0.7818608E-02  0.3353770E+00
         11   -1    0    0    0    0  0.00000000000E+00  0.00000000000E+00  0.39999999674E+01  0.40000000000E+01  0.51100000000E-03 0.  1.
    9000002   -1    0    0    0    0 -0.00000000000E+00 -0.00000000000E+00  0.00000000000E+00  0.93800000000E+00  0.93800000000E+00 0.  1.
         11    1    1    2    0    0  0.38346282046E-01  0.21672288997E-01  0.78460933124E+00  0.78584488880E+00  0.51100000000E-03 0.  1.
    9000002    1    1    2    0    0 -0.20357161069E+00 -0.14269755442E+00  0.41090967451E-01  0.97125509539E+00  0.93800000000E+00 0.  1.
         22    1    1    2    0    0  0.16522532864E+00  0.12102526542E+00  0.31742996687E+01  0.31809000158E+01  0.00000000000E+00 0.  1.
</event>
<event>
 5    1  0.1461556E+002  0.1504188E+01  0.7818608E-02  0.3464405E+00
         11   -1    0    0    0    0  0.00000000000E+00  0.00000000000E+00  0.39999999674E+01  0.40000000000E+01  0.51100000000E-03 0. -1.
    9000002   -1    0    0    0    0 -0.00000000000E+00 -0.00000000000E+00  0.00000000000E+00  0.93800000000E+00  0.93800000000E+00 0. -1.
         11    1    1    2    0    0  0.27932913755E+00  0.95545401971E-01  0.27352218066E+00  0.40245289831E+00  0.51100000000E-03 0. -1.
    9000002    1    1    2    0    0  0.13892876998E+00  0.10329618522E+00  0.19466981734E+00  0.97350482423E+00  0.93800000000E+00 0. -1.
         22    1    1    2    0    0 -0.41825790754E+00 -0.19884158719E+00  0.35318079694E+01  0.35620422775E+01  0.00000000000E+00 0. -1.
</event>
<event>
 5    1  0.1461556E+002  0.1540234E+01  0.7818608E-02  0.3420900E+00
         11   -1    0    0    0    0  0.00000000000E+00  0.00000000000E+00  0.39999999674E+01  0.40000000000E+01  0.51100000000E-03 0.  1.
    9000002   -1    0    0    0    0 -0.00000000000E+00 -0.00000000000E+00  0.00000000000E+00  0.93800000000E+00  0.93800000000E+00 0. -1.
         11    1    1    2    0    0  0.19503596790E+00 -0.15423406032E+00  0.16232150845E+01  0.16421493982E+01  0.51100000000E-03 0.  1.
    9000002    1    1    2    0    0 -0.16158451952E-01 -0.15689261386E+00  0.61757411588E-01  0.95317069077E+00  0.93800000000E+00 0. -1.
         22    1    1    2    0    0 -0.17887751594E+00  0.31112667418E+00  0.23150274712E+01  0.23426799111E+01  0.00000000000E+00 0.  1.
</event>
<event>
 5    1  0.1461556E+002  0.1598120E+01  0.7818608E-02  0.3355406E+00
         11   -1    0    0    0    0  0.00000000000E+00  0.00000000000E+00  0.39999999674E+01  0.40000000000E+01  0.51100000000E-03 0.  1.
    9000002   -1    0    0    0    0 -0.00000000000E+00 -0.00000000000E+00  0.00000000000E+00  0.93800000000E+00  0.93800000000E+00 0.  1.
         11    1    1    2    0    0 -0.46096596644E-01 -0.16511022775E+00  0.21118283024E+01  0.21187744862E+01  0.51100000000E-03 0.  1.
    9000002    1    1    2    0    0  0.15972633886E+00  0.35078504651E+00  0.10130877183E+00  0.10191516666E+01  0.93800000000E+00 0.  1.
         22    1    1    2    0    0 -0.11362974222E+00 -0.18567481876E+00  0.17868628932E+01  0.18000738473E+01  0.00000000000E+00 0. -1.
</event>
<event>
 5    1  0.1461556E+002  0.1599644E+01  0.7818608E-02  0.3353750E+00
         11   -1    0    0    0    0  0.00000000000E+00  0.00000000000E+00  0.39999999674E+01  0.40000000000E+01  0.51100000000E-03 0. -1.
    9000002   -1    0    0    0    0 -0.00000000000E+00 -0.00000000000E+00  0.00000000000E+00  0.93800000000E+00  0.93800000000E+00 0.  1.
         11    1    1    2    0    0 -0.51682073838E-01  0.47044969837E-03  0.62819253331E+00  0.63031530055E+00  0.51100000000E-03 0. -1.
    9000002    1    1    2    0    0  0.33814824242E+00 -0.30718731807E-01  0.77240742586E-01  0.10005488527E+01  0.93800000000E+00 0.  1.
         22    1    1    2    0    0 -0.28646616859E+00  0.30248282108E-01  0.32945666915E+01  0.33071358467E+01  0.00000000000E+00 0. -1.
</event>
<event>
 5    1  0.1461556E+002  0.1599359E+01  0.7818608E-02  0.3354060E+00
         11   -1    0    0    0    0  0.00000000000E+00  0.00000000000E+00  0.39999999674E+01  0.40000000000E+01  0.51100000000E-03 0. -1.
    9000002   -1    0    0    0    0 -0.00000000000E+00 -0.00000000000E+00  0.00000000000E+00  0.93800000000E+00  0.93800000000E+00 0. -1.
         11    1    1    2    0    0 -0.15474093459E-01  0.41411665009E-01  0.62163504943E+00  0.62320523856E+00  0.51100000000E-03 0. -1.
    9000002    1    1    2    0    0  0.18736689412E+00 -0.21922233522E+00  0.55669235830E-01  0.98290785381E+00  0.93800000000E+00 0. -1.
         22    1    1    2    0    0 -0.17189280066E+00  0.17781067021E+00  0.33226956821E+01  0.33318869076E+01  0.00000000000E+00 0. -1.
</event>
<event>
 5    1  0.1461556E+002  0.1572977E+01  0.7818608E-02  0.3383226E+00
         11   -1    0    0    0    0  0.00000000000E+00  0.00000000000E+00  0.39999999674E+01  0.40000000000E+01  0.51100000000E-03 0. -1.
    9000002   -1    0    0    0    0 -0.00000000000E+00 -0.00000000000E+00  0.00000000000E+00  0.93800000000E+00  0.93800000000E+00 0. -1.
         11    1    1    2    0    0  0.10457842768E+00 -0.11129702590E-01  0.22307374409E+01  0.22332152402E+01  0.51100000000E-03 0. -1.
    9000002    1    1    2    0    0 -0.37520413179E-01 -0.29102564052E+00  0.78532660720E-01  0.98595896651E+00  0.93800000000E+00 0. -1.
         22    1    1    2    0    0 -0.67058014501E-01  0.30215534311E+00  0.16907298657E+01  0.17188257932E+01  0.00000000000E+00 0. -1.
</event>
<event>
 5    1  0.1461556E+002  0.1587346E+01  0.7818608E-02  0.3367213E+00
         11   -1    0    0    0    0  0.00000000000E+00  0.00000000000E+00  0.39999999674E+01  0.40000000000E+01  0.51100000000E-03 0.  1.
    9000002   -1    0    0    0    0 -0.00000000000E+00 -0.00000000000E+00  0.00000000000E+00  0.93800000000E+00  0.93800000000E+00 0.  1.
         11    1    1    2    0    0 -0.11203298294E+00 -0.43236733468E-01  0.48637480541E+00  0.50098055535E+00  0.51100000000E-03 0.  1.
    9000002    1    1    2    0    0  0.45979262238E+00 -0.22574100151E+00  0.19129709351E+00  0.10857287107E+01  0.93800000000E+00 0.  1.
         22    1    1    2    0    0 -0.34775963944E+00  0.26897773498E+00  0.33223280684E+01  0.33512907339E+01  0.00000000000E+00 0.  1.
</event>
<event>
 5    1  0.1461556E+002  0.1599677E+01  0.7818608E-02  0.3353714E+00
         11   -1    0    0    0    0  0.00000000000E+00  0.00000000000E+00  0.39999999674E+01  0.40000000000E+01  0.51100000000E-03 0. -1.
    9000002   -1    0    0    0    0 -0.00000000000E+00 -0.00000000000E+00  0.00000000000E+00  0.93800000000E+00  0.93800000000E+00 0.  1.
         11    1    1    2    0    0 -0.45047213864E-01 -0.79031490164E-01  0.11604515397E+01  0.11640117118E+01  0.51100000000E-03 0.  1.
    9000002    1    1    2    0    0  0.15130222497E+00  0.26918603355E+00  0.63664597908E-01  0.98957094994E+00  0.93800000000E+00 0.  1.
         22    1    1    2    0    0 -0.10625501110E+00 -0.19015454339E+00  0.27758838297E+01  0.27844173383E+01  0.00000000000E+00 0. -1.
</event>
<event>
 5    1  0.1461556E+002  0.1599588E+01  0.7818608E-02  0.3353810E+00
         11   -1    0    0    0    0  0.00000000000E+00  0.00000000000E+00  0.39999999674E+01  0.40000000000E+01  0.51100000000E-03 0. -1.
    9000002   -1    0    0    0    0 -0.00000000000E+00 -0.00000000000E+00  0.00000000000E+00  0.93800000000E+00  0.93800000000E+00 0. -1.
         11    1    1    2    0    0 -0.22030188728E-01  0.37722599081E-01  0.76915481412E+00  0.77039451770E+00  0.51100000000E-03 0. -1.
    9000002    1    1    2    0    0  0.98229458515E-01 -0.23758448811E+00  0.43998592192E-01  0.97358887197E+00  0.93800000000E+00 0. -1.
         22    1    1    2    0    0 -0.76199269787E-01  0.19986188903E+00  0.31868465610E+01  0.31940166103E+01  0.00000000000E+00 0.  1.
</event>
<event>
 5    1  0.1461556E+002  0.1599676E+01  0.7818608E-02  0.3353716E+00
         11   -1    0    0    0    0  0.00000000000E+00  0.00000000000E+00  0.39999999674E+01  0.40000000000E+01  0.51100000000E-03 0.  1.
    9000002   -1    0    0    0    0 -0.00000000000E+00 -0.00000000000E+00  0.00000000000E+00  0.93800000000E+00  0.93800000000E+00 0.  1.
         11    1    1    2    0    0  0.12237487348E-01  0.19434836072E-02  0.21654570911E+00  0.21690052670E+00  0.51100000000E-03 0. -1.
    9000002    1    1    2    0    0 -0.22498340327E+00 -0.26780994032E-01  0.34044181591E-01  0.96557638729E+00  0.93800000000E+00 0.  1.
         22    1    1    2    0    0  0.21274591592E+00  0.24837510425E-01  0.37494100767E+01  0.37555230860E+01  0.00000000000E+00 0.  1.
</event>
<event>
 5    1  0.1461556E+002  0.1599655E+01  0.7818608E-02  0.3353738E+00
         11   -1    0    0    0    0  0.00000000000E+00  0.00000000000E+00  0.39999999674E+01  0.40000000000E+01  0.51100000000E-03 0. -1.
    9000002   -1    0    0    0    0 -0.00000000000E+00 -0.00000000000E+00  0.00000000000E+00  0.93800000000E+00  0.93800000000E+00 0.  1.
         11    1    1    2    0    0 -0.17326786056E+00 -0.16579245691E+00  0.18007625341E+01  0.18166603578E+01  0.51100000000E-03 0. -1.
    9000002    1    1    2    0    0  0.37880900194E+00  0.35378451291E+00  0.18451241450E+00  0.10874504920E+01  0.93800000000E+00 0.  1.
         22    1    1    2    0    0 -0.20554114137E+00 -0.18799205600E+00  0.20147250188E+01  0.20338891502E+01  0.00000000000E+00 0.  1.
</event>
<event>
 5    1  0.1461556E+002  0.1599174E+01  0.7818608E-02  0.3354260E+00
         11   -1    0    0    0    0  0.00000000000E+00  0.00000000000E+00  0.39999999674E+01  0.40000000000E+01  0.51100000000E-03 0. -1.
    9000002   -1    0    0    0    0 -0.00000000000E+00 -0.00000000000E+00  0.00000000000E+00  0.93800000000E+00  0.93800000000E+00 0.  1.
         11    1    1    2    0    0  0.36754756699E-03  0.12228466629E-02  0.32373111848E-02  0.35173498379E-02  0.51100000000E-03 0. -1.
    9000002    1    1    2    0    0  0.25382920188E+00  0.17780939572E+00  0.64529157103E-01  0.98997649318E+00  0.93800000000E+00 0.  1.
         22    1    1    2    0    0 -0.25419674945E+00 -0.17903224239E+00  0.39322334991E+01  0.39445061570E+01  0.00000000000E+00 0. -1.
</event>
<event>
 5    1  0.1461556E+002  0.1237364E+01  0.7818608E-02  0.3909264E+00
         11   -1    0    0    0    0  0.00000000000E+00  0.00000000000E+00  0.39999999674E+01  0.40000000000E+01  0.51100000000E-03 0. -1.
    9000002   -1    0    0    0    0 -0.00000000000E+00 -0.00000000000E+00  0.00000000000E+00  0.93800000000E+00  0.93800000000E+00 0.  1.
         11    1    1    2    0    0 -0.15695875077E+00 -0.60973919511E+00  0.56495092640E+00  0.84592419628E+00  0.51100000000E-03 0. -1.
    9000002    1    1    2    0    0  0.86678153309E-01  0.30726884516E+00  0.44540871175E+00  0.10863517690E+01  0.93800000000E+00 0.  1.
         22    1    1    2    0    0  0.70280597457E-01  0.30247034995E+00  0.29896403292E+01  0.30057240347E+01  0.00000000000E+00 0. -1.
</event>
<event>
 5    1  0.1461556E+002  0.1599576E+01  0.7818608E-02  0.3353823E+00
         11   -1    0    0    0    0  0.00000000000E+00  0.00000000000E+00  0.39999999674E+01  0.40000000000E+01  0.51100000000E-03 0.  1.
    9000002   -1    0    0    0    0 -0.00000000000E+00 -0.00000000000E+00  0.00000000000E+00  0.93800000000E+00  0.93800000000E+00 0. -1.
         11    1    1    2    0    0 -0.13645007046E+00  0.10377671825E-01  0.13022241492E+01  0.13093946363E+01  0.51100000000E-03 0.  1.
    9000002    1    1    2    0    0  0.38059235979E+00 -0.50526417357E-01  0.99309272586E-01  0.10183858772E+01  0.93800000000E+00 0. -1.
         22    1    1    2    0    0 -0.24414228934E+00  0.40148745532E-01  0.25984665456E+01  0.26102194865E+01  0.00000000000E+00 0.  1.
</event>
<event>
 5    1  0.1461556E+002  0.1599424E+01  0.7818608E-02  0.3353989E+00
         11   -1    0    0    0    0  0.00000000000E+00  0.00000000000E+00  0.39999999674E+01  0.40000000000E+01  0.51100000000E-03 0.  1.
    9000002   -1    0    0    0    0 -0.00000000000E+00 -0.00000000000E+00  0.00000000000E+00  0.93800000000E+00  0.93800000000E+00 0.  1.
         11    1    1    2    0    0  0.21050978749E-01  0.14500645202E+00  0.15432641813E+01  0.15502046991E+01  0.51100000000E-03 0.  1.
    9000002    1    1    2    0    0 -0.27320036822E-01 -0.40511496854E+00  0.11150278804E+00  0.10281738150E+01  0.93800000000E+00 0.  1.
         22    1    1    2    0    0  0.62690580724E-02  0.26010851652E+00  0.23452329980E+01  0.23596214858E+01  0.00000000000E+00 0.  1.
</event>
<event>
 5    1  0.1461556E+002  0.1599675E+01  0.7818608E-02  0.3353717E+00
         11   -1    0    0    0    0  0.00000000000E+00  0.00000000000E+00  0.39999999674E+01  0.40000000000E+01  0.51100000000E-03 0. -1.
    9000002   -1    0    0    0    0 -0.00000000000E+00 -0.00000000000E+00  0.00000000000E+00  0.93800000000E+00  0.93800000000E+00 0.  1.
         11    1    1    2    0    0 -0.35607591836E-01  0.10430440546E+00  0.13048471950E+01  0.13094937087E+01  0.51100000000E-03 0. -1.
    9000002    1    1    2    0    0  0.10188382488E+00 -0.31482874996E+00  0.73271358893E-01  0.99735156670E+00  0.93800000000E+00 0.  1.
         22    1    1    2    0    0 -0.66276233045E-01  0.21052434450E+00  0.26218814135E+01  0.26311547246E+01  0.00000000000E+00 0. -1.
</event>
<event>
 5    1  0.1461556E+002  0.1595909E+01  0.7818608E-02  0.3357816E+00
         11   -1    0    0    0    0  0.00000000000E+00  0.00000000000E+00  0.39999999674E+01  0.40000000000E+01  0.51100000000E-03 0.  1.
    9000002   -1    0    0    0    0 -0.00000000000E+00 -0.00000000000E+00  0.00000000000E+00  0.93800000000E+00  0.93800000000E+00 0.  1.
         11    1    1    2    0    0 -0.22084433856E-02 -0.46953329035E-01  0.97803965678E+00  0.97916869010E+00  0.51100000000E-03 0.  1.
    9000002    1    1    2    0    0  0.22220107627E+00  0.44856883254E-01  0.36934201195E-01  0.96570885545E+00  0.93800000000E+00 0.  1.
         22    1    1    2    0    0 -0.21999263288E+00  0.20964457807E-02  0.29850261094E+01  0.29931224545E+01  0.00000000000E+00 0.  1.
</event>
<event>
 5    1  0.1461556E+002  0.1599661E+01  0.7818608E-02  0.3353732E+00
         11   -1    0    0    0    0  0.00000000000E+00  0.00000000000E+00  0.39999999674E+01  0.40000000000E+01  0.51100000000E-03 0.  1.
    9000002   -1    0    0    0    0 -0.00000000000E+00 -0.00000000000E+00  0.00000000000E+00  0.93800000000E+00  0.93800000000E+00 0.  1.
         11    1    1    2    0    0 -0.17484980612E+00 -0.74394653983E-01  0.18833693531E+01  0.18929309022E+01  0.51100000000E-03 0.  1.
    9000002    1    1    2    0    0  0.37138114637E+00  0.15333113477E+00  0.10892954442E+00  0.10262280635E+01  0.93800000000E+00 0.  1.
         22    1    1    2    0    0 -0.19653134025E+00 -0.78936480783E-01  0.20077010699E+01  0.20188410343E+01  0.00000000000E+00 0.  1.
</event>
<event>
 5    1  0.1461556E+002  0.1576245E+01  0.7818608E-02  0.3379557E+00
         11   -1    0    0    0    0  0.00000000000E+00  0.00000000000E+00  0.39999999674E+01  0.40000000000E+01  0.51100000000E-03 0.  1.
    9000002   -1    0    0    0    0 -0.00000000000E+00 -0.00000000000E+00  0.00000000000E+00  0.93800000000E+00  0.93800000000E+00 0.  1.
         11    1    1    2    0    0  0.14431107620E+00  0.24323339274E+00  0.11571560263E+01  0.11912172347E+01  0.51100000000E-03 0.  1.
    9000002    1    1    2    0    0 -0.47976407318E-01 -0.44236459618E+00  0.15481440780E+00  0.10496664577E+01  0.93800000000E+00 0.  1.
         22    1    1    2    0    0 -0.96334668877E-01  0.19913120344E+00  0.26880295333E+01  0.26971163075E+01  0.00000000000E+00 0.  1.
</event>
<event>
 5    1  0.1461556E+002  0.1599194E+01  0.7818608E-02  0.3354238E+00
         11   -1    0    0    0    0  0.00000000000E+00  0.00000000000E+00  0.39999999674E+01  0.40000000000E+01  0.51100000000E-03 0.  1.
    9000002   -1    0    0    0    0 -0.00000000000E+00 -0.00000000000E+00  0.00000000000E+00  0.93800000000E+00  0.93800000000E+00 0.  1.
         11    1    1    2    0    0  0.30337687894E-02 -0.19192424103E-02  0.16938825304E-01  0.17322591267E-01  0.51100000000E-03 0.  1.
    9000002    1    1    2    0    0  0.76984079669E-01  0.28297058396E+00  0.57711922019E-01  0.98446613240E+00  0.93800000000E+00 0.  1.
         22    1    1    2    0    0 -0.80017848458E-01 -0.28105134155E+00  0.39253492200E+01  0.39362112763E+01  0.00000000000E+00 0.  1.
</event>
<event>
 5    1  0.1461556E+002  0.1586313E+01  0.7818608E-02  0.3368354E+00
         11   -1    0    0    0    0  0.00000000000E+00  0.00000000000E+00  0.39999999674E+01  0.40000000000E+01  0.51100000000E-03 0. -1.
    9000002   -1    0    0    0    0 -0.00000000000E+00 -0.00000000000E+00  0.00000000000E+00  0.93800000000E+00  0.93800000000E+00 0. -1.
         11    1    1    2    0    0 -0.21138670508E+00 -0.20361005962E-01  0.83471040931E+00  0.86130171147E+00  0.51100000000E-03 0. -1.
    9000002    1    1    2    0    0  0.44498659993E+00  0.18840077341E+00  0.17136902926E+00  0.10689804815E+01  0.93800000000E+00 0. -1.
         22    1    1    2    0    0 -0.23359989485E+00 -0.16803976745E+00  0.29939205288E+01  0.30077178071E+01  0.00000000000E+00 0. -1.
</event>
<event>
 5    1  0.1461556E+002  0.1598499E+01  0.7818608E-02  0.3354994E+00
         11   -1    0    0    0    0  0.00000000000E+00  0.00000000000E+00  0.39999999674E+01  0.40000000000E+01  0.51100000000E-03 0. -1.
    9000002   -1    0    0    0    0 -0.00000000000E+00 -0.00000000000E+00  0.00000000000E+00  0.93800000000E+00  0.93800000000E+00 0. -1.
         11    1    1    2    0    0 -0.14499696392E+00 -0.40781366860E+00  0.23937935309E+01  0.24326084431E+01  0.51100000000E-03 0. -1.
    9000002    1    1    2    0    0  0.19269283360E+00  0.67465561199E+00  0.35330658012E+00  0.12235032744E+01  0.93800000000E+00 0. -1.
         22    1    1    2    0    0 -0.47695869679E-01 -0.26684194339E+00  0.12528998564E+01  0.12818882825E+01  0.00000000000E+00 0. -1.
</event>
<event>
 5    1  0.1461556E+002  0.1599674E+01  0.7818608E-02  0.3353717E+00
         11   -1    0    0    0    0  0.00000000000E+00  0.00000000000E+00  0.39999999674E+01  0.40000000000E+01  0.51100000000E-03 0. -1.
    9000002   -1    0    0    0    0 -0.00000000000E+00 -0.00000000000E+00  0.00000000000E+00  0.93800000000E+00  0.93800000000E+00 0. -1.
         11    1    1    2    0    0 -0.23807224988E-01  0.23043702615E-01  0.41820275208E+00  0.41951352679E+00  0.51100000000E-03 0. -1.
    9000002    1    1    2    0    0  0.21324495859E+00 -0.21592092439E+00  0.61460021362E-01  0.98778367681E+00  0.93800000000E+00 0. -1.
         22    1    1    2    0    0 -0.18943773361E+00  0.19287722177E+00  0.35203371939E+01  0.35307027964E+01  0.00000000000E+00 0. -1.
</event>
<event>
 5    1  0.1461556E+002  0.1599676E+01  0.7818608E-02  0.3353715E+00
         11   -1    0    0    0    0  0.00000000000E+00  0.00000000000E+00  0.39999999674E+01  0.40000000000E+01  0.51100000000E-03 0. -1.
    9000002   -1    0    0    0    0 -0.00000000000E+00 -0.00000000000E+00  0.00000000000E+00  0.93800000000E+00  0.93800000000E+00 0. -1.
         11    1    1    2    0    0 -0.36941061441E-01  0.13000810774E+00  0.10226356218E+01  0.10315282963E+01  0.51100000000E-03 0. -1.
    9000002    1    1    2    0    0  0.13749465658E+00 -0.48992244890E+00  0.17751875015E+00  0.10817974363E+01  0.93800000000E+00 0. -1.
         22    1    1    2    0    0 -0.10055359514E+00  0.35991434115E+00  0.27998455954E+01  0.28246742674E+01  0.00000000000E+00 0. -1.
</event>
<event>
 5    1  0.1461556E+002  0.1566894E+01  0.7818608E-02  0.3390099E+00
         11   -1    0    0    0    0  0.00000000000E+00  0.00000000000E+00  0.39999999674E+01  0.40000000000E+01  0.51100000000E-03 0.  1.
    9000002   -1    0    0    0    0 -0.00000000000E+00 -0.00000000000E+00  0.00000000000E+00  0.93800000000E+00  0.93800000000E+00 0.  1.
         11    1    1    2    0    0  0.21722619221E-01  0.17467322512E+00  0.81891440724E+00  0.83761785754E+00  0.51100000000E-03 0.  1.
    9000002    1    1    2    0    0  0.19177445030E+00 -0.41433503582E-01  0.50427744283E-01  0.95962551675E+00  0.93800000000E+00 0.  1.
         22    1    1    2    0    0 -0.21349706952E+00 -0.13323972154E+00  0.31306578158E+01  0.31407566257E+01  0.00000000000E+00 0.  1.
</event>
<event>
 5    1  0.1461556E+002  0.1584707E+01  0.7818608E-02  0.3370131E+00
         11   -1    0    0    0    0  0.00000000000E+00  0.00000000000E+00  0.39999999674E+01  0.40000000000E+01  0.51100000000E-03 0. -1.
    9000002   -1    0    0    0    0 -0.00000000000E+00 -0.00000000000E+00  0.00000000000E+00  0.93800000000E+00  0.93800000000E+00 0. -1.
         11    1    1    2    0    0 -0.22319742291E-03  0.13062211317E+00  0.61707570792E+00  0.63074945635E+00  0.51100000000E-03 0. -1.
    9000002    1    1    2    0    0  0.23300084971E+00 -0.18679261044E+00  0.71288413568E-01  0.98696854721E+00  0.93800000000E+00 0. -1.
         22    1    1    2    0    0 -0.23277765229E+00  0.56170497272E-01  0.33116358459E+01  0.33202819964E+01  0.00000000000E+00 0. -1.
</event>
<event>
 5    1  0.1461556E+002  0.1598970E+01  0.7818608E-02  0.3354482E+00
         11   -1    0    0    0    0  0.00000000000E+00  0.00000000000E+00  0.39999999674E+01  0.40000000000E+01  0.51100000000E-03 0. -1.
    9000002   -1    0    0    0    0 -0.00000000000E+00 -0.00000000000E+00  0.00000000000E+00  0.93800000000E+00  0.93800000000E+00 0.  1.
         11    1    1    2    0    0 -0.12610128535E-01  0.36528213943E-01  0.34636349302E+00  0.34851292110E+00  0.51100000000E-03 0. -1.
    9000002    1    1    2    0    0  0.18603181311E-01 -0.25249228969E+00  0.43131503423E-01  0.97252391297E+00  0.93800000000E+00 0.  1.
         22    1    1    2    0    0 -0.59930527760E-02  0.21596407575E+00  0.36105049709E+01  0.36169631659E+01  0.00000000000E+00 0. -1.
</event>
<event>
 5    1  0.1461556E+002  0.1599622E+01  0.7818608E-02  0.3353773E+00
         11   -1    0    0    0    0  0.00000000000E+00  0.00000000000E+00  0.39999999674E+01  0.40000000000E+01  0.51100000000E-03 0.  1.
    9000002   -1    0    0    0    0 -0.00000000000E+00 -0.00000000000E+00  0.00000000000E+00  0.93800000000E+00  0.93800000000E+00 0.  1.
         11    1    1    2    0    0  0.14212829822E+00  0.15000605258E-01  0.15982606414E+01  0.16046379063E+01  0.51100000000E-03 0.  1.
    9000002    1    1    2    0    0 -0.35528977004E+00 -0.16534762029E-01  0.84920146354E-01  0.10067569967E+01  0.93800000000E+00 0.  1.
         22    1    1    2    0    0  0.21316147182E+00  0.15341567716E-02  0.23168191796E+01  0.23266050971E+01  0.00000000000E+00 0.  1.
</event>
<event>
 5    1  0.1810768E+002  0.1569225E+01  0.7818608E-02  0.3387458E+00
         11   -1    0    0    0    0  0.00000000000E+00  0.00000000000E+00  0.39999999674E+01  0.40000000000E+01  0.51100000000E-03 0.  1.
    9000002   -1    0    0    0    0 -0.00000000000E+00 -0.00000000000E+00  0.00000000000E+00  0.93800000000E+00  0.93800000000E+00 0.  1.
         11    1    1    2    0    0  0.10967372652E+00  0.16708247600E+00  0.13775458987E+01  0.13919690529E+01  0.51100000000E-03 0.  1.
    9000002    1    1    2    0    0  0.46676717745E-01 -0.33809480923E-01  0.24625605249E-01  0.94009160054E+00  0.93800000000E+00 0.  1.
         22    1    1    2    0    0 -0.15635044427E+00 -0.13327299508E+00  0.25978284634E+01  0.26059393465E+01  0.00000000000E+00 0.  1.
</event>
<event>
 5    1  0.1461556E+002  0.1599244E+01  0.7818608E-02  0.3354184E+00
         11   -1    0    0    0    0  0.00000000000E+00  0.00000000000E+00  0.39999999674E+01  0.40000000000E+01  0.51100000000E-03 0.  1.
    9000002   -1    0    0    0    0 -0.00000000000E+00 -0.00000000000E+00  0.00000000000E+00  0.93800000000E+00  0.93800000000E+00 0.  1.
         11    1    1    2    0    0  0.10163813357E+00  0.12412106511E+00  0.15863790108E+01  0.15944701240E+01  0.51100000000E-03 0.  1.
    9000002    1    1    2    0    0 -0.27177387342E+00 -0.35743718970E+00  0.13729242364E+00  0.10489592902E+01  0.93800000000E+00 0.  1.
         22    1    1    2    0    0  0.17013573985E+00  0.23331612460E+00  0.22763285329E+01  0.22945705859E+01  0.00000000000E+00 0. -1.
</event>
<event>
 5    1  0.1461556E+002  0.1599521E+01  0.7818608E-02  0.3353883E+00
         11   -1    0    0    0    0  0.00000000000E+00  0.00000000000E+00  0.39999999674E+01  0.40000000000E+01  0.51100000000E-03 0.  1.
    9000002   -1    0    0    0    0 -0.00000000000E+00 -0.00000000000E+00  0.00000000000E+00  0.93800000000E+00  0.93800000000E+00 0.  1.
         11    1    1    2    0    0  0.60417718078E-01  0.11937652624E+00  0.14482693319E+01  0.14544364457E+01  0.51100000000E-03 0.  1.
    9000002    1    1    2    0    0 -0.18633202005E+00 -0.29113485188E+00  0.80199040852E-01  0.10028733768E+01  0.93800000000E+00 0.  1.
         22    1    1    2    0    0  0.12591430197E+00  0.17175832564E+00  0.24715315946E+01  0.24806901775E+01  0.00000000000E+00 0.  1.
</event>
<event>
 5    1  0.1461556E+002  0.1598242E+01  0.7818608E-02  0.3355273E+00
         11   -1    0    0    0    0  0.00000000000E+00  0.00000000000E+00  0.39999999674E+01  0.40000000000E+01  0.51100000000E-03 0.  1.
    9000002   -1    0    0    0    0 -0.00000000000E+00 -0.00000000000E+00  0.00000000000E+00  0.93800000000E+00  0.93800000000E+00 0.  1.
         11    1    1    2    0    0  0.35424282658E-01  0.20463725886E+00  0.16793970986E+01  0.16921897540E+01  0.51100000000E-03 0.  1.
    9000002    1    1    2    0    0  0.80389766219E-02 -0.41944803117E+00  0.12023416785E+00  0.10345537836E+01  0.93800000000E+00 0.  1.
         22    1    1    2    0    0 -0.43463259280E-01  0.21481077231E+00  0.22003687009E+01  0.22112564624E+01  0.00000000000E+00 0.  1.
</event>
<event>
 5    1  0.1461556E+002  0.1599677E+01  0.7818608E-02  0.3353714E+00
         11   -1    0    0    0    0  0.00000000000E+00  0.00000000000E+00  0.39999999674E+01  0.40000000000E+01  0.51100000000E-03 0.  1.
    9000002   -1    0    0    0    0 -0.00000000000E+00 -0.00000000000E+00  0.00000000000E+00  0.93800000000E+00  0.93800000000E+00 0.  1.
         11    1    1    2    0    0  0.55265226201E+00  0.25550803272E+00  0.22630657828E+01  0.23435391774E+01  0.51100000000E-03 0.  1.
    9000002    1    1    2    0    0 -0.82295351660E+00 -0.38009824575E+00  0.63075227725E+00  0.14489374045E+01  0.93800000000E+00 0.  1.
         22    1    1    2    0    0  0.27030125460E+00  0.12459021303E+00  0.11061819073E+01  0.11455234181E+01  0.00000000000E+00 0.  1.
</event>
<event>
 5    1  0.1461556E+002  0.1599660E+01  0.7818608E-02  0.3353732E+00
         11   -1    0    0    0    0  0.00000000000E+00  0.00000000000E+00  0.39999999674E+01  0.40000000000E+01  0.51100000000E-03 0.  1.
    9000002   -1    0    0    0    0 -0.00000000000E+00 -0.00000000000E+00  0.00000000000E+00  0.93800000000E+00  0.93800000000E+00 0. -1.
         11    1    1    2    0    0  0.88533658142E-01 -0.16794046652E-01  0.95848529221E+00  0.96271208839E+00  0.51100000000E-03 0.  1.
    9000002    1    1    2    0    0 -0.36851716692E+00  0.52842376571E-01  0.93181673480E-01  0.10134712839E+01  0.93800000000E+00 0. -1.
         22    1    1    2    0    0  0.27998350878E+00 -0.36048329920E-01  0.29483330017E+01  0.29618166277E+01  0.00000000000E+00 0.  1.
</event>
<event>
 5    1  0.1461556E+002  0.1599278E+01  0.7818608E-02  0.3354147E+00
         11   -1    0    0    0    0  0.00000000000E+00  0.00000000000E+00  0.39999999674E+01  0.40000000000E+01  0.51100000000E-03 0. -1.
    9000002   -1    0    0    0    0 -0.00000000000E+00 -0.00000000000E+00  0.00000000000E+00  0.93800000000E+00  0.93800000000E+00 0.  1.
         11    1    1    2    0    0 -0.17395228545E-01 -0.71777313271E-01  0.80413448658E+00  0.80751910832E+00  0.51100000000E-03 0. -1.
    9000002    1    1    2    0    0  0.14689102002E+00  0.27909304272E+00  0.66770289581E-01  0.99185289727E+00  0.93800000000E+00 0.  1.
         22    1    1    2    0    0 -0.12949579148E+00 -0.20731572945E+00  0.31290951912E+01  0.31386279944E+01  0.00000000000E+00 0. -1.
</event>
<event>
 5    1  0.1461556E+002  0.1599677E+01  0.7818608E-02  0.3353714E+00
         11   -1    0    0    0    0  0.00000000000E+00  0.00000000000E+00  0.39999999674E+01  0.40000000000E+01  0.51100000000E-03 0.  1.
    9000002   -1    0    0    0    0 -0.00000000000E+00 -0.00000000000E+00  0.00000000000E+00  0.93800000000E+00  0.93800000000E+00 0. -1.
         11    1    1    2    0    0 -0.45856495444E-01  0.61886172561E-01  0.98403736960E+00  0.98704737597E+00  0.51100000000E-03 0.  1.
    9000002    1    1    2    0    0  0.18247729002E+00 -0.24972159583E+00  0.63871584899E-01  0.98973855950E+00  0.93800000000E+00 0. -1.
         22    1    1    2    0    0 -0.13662079457E+00  0.18783542327E+00  0.29520910129E+01  0.29612140645E+01  0.00000000000E+00 0.  1.
</event>
<event>
 5    1  0.1461556E+002  0.1555746E+01  0.7818608E-02  0.3402842E+00
         11   -1    0    0    0    0  0.00000000000E+00  0.00000000000E+00  0.39999999674E+01  0.40000000000E+01  0.51100000000E-03 0. -1.
    9000002   -1    0    0    0    0 -0.00000000000E+00 -0.00000000000E+00  0.00000000000E+00  0.93800000000E+00  0.93800000000E+00 0.  1.
         11    1    1    2    0    0  0.19460984673E+00 -0.42095362153E-01  0.19124455701E+01  0.19227827052E+01  0.51100000000E-03 0. -1.
    9000002    1    1    2    0    0  0.11884421086E+00  0.93975826116E-01  0.48325160377E-01  0.95138568597E+00  0.93800000000E+00 0.  1.
         22    1    1    2    0    0 -0.31345405759E+00 -0.51880463964E-01  0.20392292369E+01  0.20638316088E+01  0.00000000000E+00 0.  1.
</event>
<event>
 5    1  0.1461556E+002  0.1599677E+01  0.7818608E-02  0.3353714E+00
         11   -1    0    0    0    0  0.00000000000E+00  0.00000000000E+00  0.39999999674E+01  0.40000000000E+01  0.51100000000E-03 0.  1.
    9000002   -1    0    0    0    0 -0.00000000000E+00 -0.00000000000E+00  0.00000000000E+00  0.93800000000E+00  0.93800000000E+00 0. -1.
         11    1    1    2    0    0 -0.46261339842E-01  0.13357727697E-01  0.62042050245E+00  0.62228643038E+00  0.51100000000E-03 0.  1.
    9000002    1    1    2    0    0  0.29179468229E+00 -0.82950796390E-01  0.61410567035E-01  0.98774502225E+00  0.93800000000E+00 0. -1.
         22    1    1    2    0    0 -0.24553334245E+00  0.69593068692E-01  0.33181688979E+01  0.33279685474E+01  0.00000000000E+00 0.  1.
</event>
<event>
 5    1  0.1461556E+002  0.1599677E+01  0.7818608E-02  0.3353714E+00
         11   -1    0    0    0    0  0.00000000000E+00  0.00000000000E+00  0.39999999674E+01  0.40000000000E+01  0.51100000000E-03 0. -1.
    9000002   -1    0    0    0    0 -0.00000000000E+00 -0.00000000000E+00  0.00000000000E+00  0.93800000000E+00  0.93800000000E+00 0. -1.
         11    1    1    2    0    0 -0.22882765201E+00  0.11144236019E+00  0.18864363914E+01  0.19035293573E+01  0.51100000000E-03 0. -1.
    9000002    1    1    2    0    0  0.46353627628E+00 -0.22680664893E+00  0.18280434858E+00  0.10860794470E+01  0.93800000000E+00 0. -1.
         22    1    1    2    0    0 -0.23470862427E+00  0.11536428873E+00  0.19307592274E+01  0.19483911957E+01  0.00000000000E+00 0. -1.
</event>
<event>
 5    1  0.1461556E+002  0.1599672E+01  0.7818608E-02  0.3353719E+00
         11   -1    0    0    0    0  0.00000000000E+00  0.00000000000E+00  0.39999999674E+01  0.40000000000E+01  0.51100000000E-03 0. -1.
    9000002   -1    0    0    0    0 -0.00000000000E+00 -0.00000000000E+00  0.00000000000E+00  0.93800000000E+00  0.93800000000E+00 0. -1.
         11    1    1    2    0    0 -0.57313517079E-01 -0.14132052894E-01  0.82963088224E+00  0.83172845090E+00  0.51100000000E-03 0. -1.
    9000002    1    1    2    0    0  0.26386371447E+00  0.71671601144E-01  0.49760161033E-01  0.97830514251E+00  0.93800000000E+00 0. -1.
         22    1    1    2    0    0 -0.20655019739E+00 -0.57539548251E-01  0.31206089241E+01  0.31279664066E+01  0.00000000000E+00 0. -1.
</event>
<event>
 5    1  0.1461556E+002  0.1591303E+01  0.7818608E-02  0.3362858E+00
         11   -1    0    0    0    0  0.00000000000E+00  0.00000000000E+00  0.39999999674E+01  0.40000000000E+01  0.51100000000E-03 0.  1.
    9000002   -1    0    0    0    0 -0.00000000000E+00 -0.00000000000E+00  0.00000000000E+00  0.93800000000E+00  0.93800000000E+00 0.  1.
         11    1    1    2    0    0 -0.11225325545E-01 -0.89284702723E-01  0.10494561802E+01  0.10533073158E+01  0.51100000000E-03 0.  1.
    9000002    1    1    2    0    0 -0.22208188109E+00  0.82777998230E-01  0.43670613116E-01  0.96846459995E+00  0.93800000000E+00 0.  1.
         22    1    1    2    0    0  0.23330720663E+00  0.65067044928E-02  0.29068731740E+01  0.29162280843E+01  0.00000000000E+00 0.  1.
</event>
<event>
 5    1  0.1461556E+002  0.1594816E+01  0.7818608E-02  0.3359010E+00
         11   -1    0    0    0    0  0.00000000000E+00  0.00000000000E+00  0.39999999674E+01  0.40000000000E+01  0.51100000000E-03 0.  1.
    9000002   -1    0    0    0    0 -0.00000000000E+00 -0.00000000000E+00  0.00000000000E+00  0.93800000000E+00  0.93800000000E+00 0. -1.
         11    1    1    2    0    0 -0.33594474099E-01 -0.42215062771E-01  0.13790034382E+01  0.13800584929E+01  0.51100000000E-03 0.  1.
    9000002    1    1    2    0    0 -0.39035658973E-01  0.30509492485E+00  0.66988387035E-01  0.98941302793E+00  0.93800000000E+00 0. -1.
         22    1    1    2    0    0  0.72630133072E-01 -0.26287986208E+00  0.25540081421E+01  0.25685284792E+01  0.00000000000E+00 0.  1.
</event>
<event>
 5    1  0.1461556E+002  0.1599677E+01  0.7818608E-02  0.3353714E+00
         11   -1    0    0    0    0  0.00000000000E+00  0.00000000000E+00  0.39999999674E+01  0.40000000000E+01  0.51100000000E-03 0. -1.
    9000002   -1    0    0    0    0 -0.00000000000E+00 -0.00000000000E+00  0.00000000000E+00  0.93800000000E+00  0.93800000000E+00 0.  1.
         11    1    1    2    0    0 -0.13958588321E+00 -0.59000068359E-02  0.16106817566E+01  0.16167297273E+01  0.51100000000E-03 0. -1.
    9000002    1    1    2    0    0  0.33970403427E+00  0.15151109319E-01  0.77446327676E-01  0.10007348903E+01  0.93800000000E+00 0.  1.
         22    1    1    2    0    0 -0.20011815105E+00 -0.92511024829E-02  0.23118718831E+01  0.23205353824E+01  0.00000000000E+00 0. -1.
</event>
<event>
 5    1  0.1461556E+002  0.1599596E+01  0.7818608E-02  0.3353802E+00
         11   -1    0    0    0    0  0.00000000000E+00  0.00000000000E+00  0.39999999674E+01  0.40000000000E+01  0.51100000000E-03 0.  1.
    9000002   -1    0    0    0    0 -0.00000000000E+00 -0.00000000000E+00  0.00000000000E+00  0.93800000000E+00  0.93800000000E+00 0. -1.
         11    1    1    2    0    0  0.17563297036E-01 -0.14389280412E-01  0.34378392454E+00  0.34453326209E+00  0.51100000000E-03 0.  1.
    9000002    1    1    2    0    0 -0.13563846517E+00  0.18634523928E+00  0.35299180187E-01  0.96654662255E+00  0.93800000000E+00 0. -1.
         22    1    1    2    0    0  0.11807516813E+00 -0.17195595887E+00  0.36209168626E+01  0.36269201154E+01  0.00000000000E+00 0.  1.
</event>
<event>
 5    1  0.1461556E+002  0.1580077E+01  0.7818608E-02  0.3375275E+00
         11   -1    0    0    0    0  0.00000000000E+00  0.00000000000E+00  0.39999999674E+01  0.40000000000E+01  0.51100000000E-03 0. -1.
    9000002   -1    0    0    0    0 -0.00000000000E+00 -0.00000000000E+00  0.00000000000E+00  0.93800000000E+00  0.93800000000E+00 0.  1.
         11    1    1    2    0    0  0.59639375263E-02 -0.52744426215E-01  0.93035465427E-01  0.10711396732E+00  0.51100000000E-03 0. -1.
    9000002    1    1    2    0    0  0.22720110310E+00  0.46763502545E-01  0.50711828422E-01  0.96758609744E+00  0.93800000000E+00 0.  1.
         22    1    1    2    0    0 -0.23316504063E+00  0.59809236701E-02  0.38562526735E+01  0.38632999352E+01  0.00000000000E+00 0. -1.
</event>
<event>
 5    1  0.1461556E+002  0.1599677E+01  0.7818608E-02  0.3353714E+00
         11   -1    0    0    0    0  0.00000000000E+00  0.00000000000E+00  0.39999999674E+01  0.40000000000E+01  0.51100000000E-03 0.  1.
    9000002   -1    0    0    0    0 -0.00000000000E+00 -0.00000000000E+00  0.00000000000E+00  0.93800000000E+00  0.93800000000E+00 0.  1.
         11    1    1    2    0    0  0.46757457909E-01  0.10522011108E+00  0.59014790641E+00  0.60127559755E+00  0.51100000000E-03 0.  1.
    9000002    1    1    2    0    0 -0.28674514557E+00 -0.64966322160E+00  0.36139506406E+00  0.12307459008E+01  0.93800000000E+00 0.  1.
         22    1    1    2    0    0  0.23998768766E+00  0.54444311053E+00  0.30484569969E+01  0.31059785016E+01  0.00000000000E+00 0.  1.
</event>
<event>
 5    1  0.1461556E+002  0.1597131E+01  0.7818608E-02  0.3356483E+00
         11   -1    0    0    0    0  0.00000000000E+00  0.00000000000E+00  0.39999999674E+01  0.40000000000E+01  0.51100000000E-03 0.  1.
    9000002   -1    0    0    0    0 -0.00000000000E+00 -0.00000000000E+00  0.00000000000E+00  0.93800000000E+00  0.93800000000E+00 0.  1.
         11    1    1    2    0    0  0.18513311335E-02 -0.90562376456E-02  0.80162720554E+00  0.80168066002E+00  0.51100000000E-03 0.  1.
    9000002    1    1    2    0    0 -0.23260688893E+00  0.13447269534E+00  0.49990338353E-01  0.97700148644E+00  0.93800000000E+00 0.  1.
         22    1    1    2    0    0  0.23075555780E+00 -0.12541645770E+00  0.31483824235E+01  0.31593178535E+01  0.00000000000E+00 0.  1.
</event>
<event>
 5    1  0.1461556E+002  0.1599649E+01  0.7818608E-02  0.3353744E+00
         11   -1    0    0    0    0  0.00000000000E+00  0.00000000000E+00  0.39999999674E+01  0.40000000000E+01  0.51100000000E-03 0. -1.
    9000002   -1    0    0    0    0 -0.00000000000E+00 -0.00000000000E+00  0.00000000000E+00  0.93800000000E+00  0.93800000000E+00 0.  1.
         11    1    1    2    0    0 -0.14732416000E+00  0.19289597050E+00  0.17513007342E+01  0.17680406631E+01  0.51100000000E-03 0. -1.
    9000002    1    1    2    0    0  0.30901320276E+00 -0.41368114484E+00  0.18305461748E+00  0.10862661930E+01  0.93800000000E+00 0.  1.
         22    1    1    2    0    0 -0.16168904275E+00  0.22078517435E+00  0.20656446157E+01  0.20836931439E+01  0.00000000000E+00 0. -1.
</event>
<event>
 5    1  0.1461556E+002  0.1599675E+01  0.7818608E-02  0.3353716E+00
         11   -1    0    0    0    0  0.00000000000E+00  0.00000000000E+00  0.39999999674E+01  0.40000000000E+01  0.51100000000E-03 0. -1.
    9000002   -1    0    0    0    0 -0.00000000000E+00 -0.00000000000E+00  0.00000000000E+00  0.93800000000E+00  0.93800000000E+00 0.  1.
         11    1    1    2    0    0 -0.64187562706E-01  0.21792235234E-01  0.90756017998E+00  0.91008828480E+00  0.51100000000E-03 0. -1.
    9000002    1    1    2    0    0  0.27891856018E+00 -0.88900403303E-01  0.57134030773E-01  0.98428001219E+00  0.93800000000E+00 0.  1.
         22    1    1    2    0    0 -0.21473099747E+00  0.67108168068E-01  0.30353057566E+01  0.30436317030E+01  0.00000000000E+00 0. -1.
</event>
<event>
 5    1  0.1461556E+002  0.1574703E+01  0.7818608E-02  0.3381286E+00
         11   -1    0    0    0    0  0.00000000000E+00  0.00000000000E+00  0.39999999674E+01  0.40000000000E+01  0.51100000000E-03 0.  1.
    9000002   -1    0    0    0    0 -0.00000000000E+00 -0.00000000000E+00  0.00000000000E+00  0.93800000000E+00  0.93800000000E+00 0.  1.
         11    1    1    2    0    0  0.11713563965E+00  0.30442280448E-01  0.20896119326E+01  0.20931138957E+01  0.51100000000E-03 0.  1.
    9000002    1    1    2    0    0  0.11944940617E+00  0.57788597728E-01  0.30201746358E-01  0.94782056748E+00  0.93800000000E+00 0.  1.
         22    1    1    2    0    0 -0.23658504582E+00 -0.88230878176E-01  0.18801862884E+01  0.18970655368E+01  0.00000000000E+00 0.  1.
</event>
<event>
 5    1  0.1461556E+002  0.1599331E+01  0.7818608E-02  0.3354090E+00
         11   -1    0    0    0    0  0.00000000000E+00  0.00000000000E+00  0.39999999674E+01  0.40000000000E+01  0.51100000000E-03 0. -1.
    9000002   -1    0    0    0    0 -0.00000000000E+00 -0.00000000000E+00  0.00000000000E+00  0.93800000000E+00  0.93800000000E+00 0. -1.
         11    1    1    2    0    0 -0.18399784252E-01 -0.42907122006E-02  0.10873885671E+00  0.11036920925E+00  0.51100000000E-03 0. -1.
    9000002    1    1    2    0    0  0.39356969298E+00  0.12084499169E+00  0.11479698803E+00  0.10307875454E+01  0.93800000000E+00 0. -1.
         22    1    1    2    0    0 -0.37516990873E+00 -0.11655427949E+00  0.37764641226E+01  0.37968432454E+01  0.00000000000E+00 0. -1.
</event>
<event>
 5    1  0.1461556E+002  0.1599677E+01  0.7818608E-02  0.3353714E+00
         11   -1    0    0    0    0  0.00000000000E+00  0.00000000000E+00  0.39999999674E+01  0.40000000000E+01  0.51100000000E-03 0. -1.
    9000002   -1    0    0    0    0 -0.00000000000E+00 -0.00000000000E+00  0.00000000000E+00  0.93800000000E+00  0.93800000000E+00 0.  1.
         11    1    1    2    0    0 -0.33440469031E-01  0.59874072897E-01  0.71936576013E+00  0.72262751646E+00  0.51100000000E-03 0. -1.
    9000002    1    1    2    0    0  0.18201317886E+00 -0.32546858566E+00  0.93484885451E-01  0.10137267982E+01  0.93800000000E+00 0.  1.
         22    1    1    2    0    0 -0.14857270983E+00  0.26559451276E+00  0.31871493218E+01  0.32016456854E+01  0.00000000000E+00 0. -1.
</event>
<event>
 5    1  0.1461556E+002  0.1598599E+01  0.7818608E-02  0.3354886E+00
         11   -1    0    0    0    0  0.00000000000E+00  0.00000000000E+00  0.39999999674E+01  0.40000000000E+01  0.51100000000E-03 0. -1.
    9000002   -1    0    0    0    0 -0.00000000000E+00 -0.00000000000E+00  0.00000000000E+00  0.93800000000E+00  0.93800000000E+00 0.  1.
         11    1    1    2    0    0 -0.50298469946E-01  0.20882178451E-01  0.53287113205E+00  0.53564718420E+00  0.51100000000E-03 0. -1.
    9000002    1    1    2    0    0  0.18458532320E+00 -0.22413860311E+00  0.57034904466E-01  0.98356841921E+00  0.93800000000E+00 0.  1.
         22    1    1    2    0    0 -0.13428685325E+00  0.20325642466E+00  0.34100939308E+01  0.34187843966E+01  0.00000000000E+00 0. -1.
</event>
<event>
 5    1  0.1461556E+002  0.1599677E+01  0.7818608E-02  0.3353714E+00
         11   -1    0    0    0    0  0.00000000000E+00  0.00000000000E+00  0.39999999674E+01  0.40000000000E+01  0.51100000000E-03 0.  1.
    9000002   -1    0    0    0    0 -0.00000000000E+00 -0.00000000000E+00  0.00000000000E+00  0.93800000000E+00  0.93800000000E+00 0. -1.
         11    1    1    2    0    0 -0.22125721081E+00 -0.17166376442E+00  0.20280224964E+01  0.20472661547E+01  0.51100000000E-03 0.  1.
    9000002    1    1    2    0    0  0.41603419577E+00  0.32377199988E+00  0.19114737777E+00  0.10928376275E+01  0.93800000000E+00 0. -1.
         22    1    1    2    0    0 -0.19477698496E+00 -0.15210823546E+00  0.17808300932E+01  0.17978962178E+01  0.00000000000E+00 0.  1.
</event>
<event>
 5    1  0.1461556E+002  0.1599660E+01  0.7818608E-02  0.3353733E+00
         11   -1    0    0    0    0  0.00000000000E+00  0.00000000000E+00  0.39999999674E+01  0.40000000000E+01  0.51100000000E-03 0.  1.
    9000002   -1    0    0    0    0 -0.00000000000E+00 -0.00000000000E+00  0.00000000000E+00  0.93800000000E+00  0.93800000000E+00 0. -1.
         11    1    1    2    0    0 -0.13174884340E-01 -0.49517343444E-02  0.22883879929E+00  0.22927179162E+00  0.51100000000E-03 0.  1.
    9000002    1    1    2    0    0  0.19381376947E+00  0.10570351203E+00  0.32320752036E-01  0.96417096031E+00  0.93800000000E+00 0. -1.
         22    1    1    2    0    0 -0.18063888513E+00 -0.10075177768E+00  0.37388404160E+01  0.37445572481E+01  0.00000000000E+00 0.  1.
</event>
<event>
 5    1  0.1461556E+002  0.1599677E+01  0.7818608E-02  0.3353714E+00
         11   -1    0    0    0    0  0.00000000000E+00  0.00000000000E+00  0.39999999674E+01  0.40000000000E+01  0.51100000000E-03 0.  1.
    9000002   -1    0    0    0    0 -0.00000000000E+00 -0.00000000000E+00  0.00000000000E+00  0.93800000000E+00  0.93800000000E+00 0.  1.
         11    1    1    2    0    0  0.34910650276E-01  0.80007272753E-01  0.10766607966E+01  0.10801938017E+01  0.51100000000E-03 0.  1.
    9000002    1    1    2    0    0 -0.12702181709E+00 -0.29281578666E+00  0.68088203381E-01  0.99315438396E+00  0.93800000000E+00 0.  1.
         22    1    1    2    0    0  0.92111166816E-01  0.21280851390E+00  0.28552509674E+01  0.28646518144E+01  0.00000000000E+00 0. -1.
</event>
<event>
 5    1  0.1461556E+002  0.1599509E+01  0.7818608E-02  0.3353897E+00
         11   -1    0    0    0    0  0.00000000000E+00  0.00000000000E+00  0.39999999674E+01  0.40000000000E+01  0.51100000000E-03 0.  1.
    9000002   -1    0    0    0    0 -0.00000000000E+00 -0.00000000000E+00  0.00000000000E+00  0.93800000000E+00  0.93800000000E+00 0.  1.
         11    1    1    2    0    0 -0.16153673413E+00  0.15007575659E+00  0.20940863568E+01  0.21056625513E+01  0.51100000000E-03 0.  1.
    9000002    1    1    2    0    0  0.32080986499E+00 -0.29592648628E+00  0.12926893800E+00  0.10426149400E+01  0.93800000000E+00 0.  1.
         22    1    1    2    0    0 -0.15927313086E+00  0.14585072969E+00  0.17766446725E+01  0.17897225087E+01  0.00000000000E+00 0.  1.
</event>
<event>
 5    1  0.1461556E+002  0.1599653E+01  0.7818608E-02  0.3353740E+00
         11   -1    0    0    0    0  0.00000000000E+00  0.00000000000E+00  0.39999999674E+01  0.40000000000E+01  0.51100000000E-03 0. -1.
    9000002   -1    0    0    0    0 -0.00000000000E+00 -0.00000000000E+00  0.00000000000E+00  0.93800000000E+00  0.93800000000E+00 0. -1.
         11    1    1    2    0    0 -0.32034128762E-01  0.15884842642E-01  0.29364017758E+00  0.29580961553E+00  0.51100000000E-03 0. -1.
    9000002    1    1    2    0    0  0.42499467484E+00 -0.16852983635E+00  0.14213757201E+00  0.10531238620E+01  0.93800000000E+00 0. -1.
         22    1    1    2    0    0 -0.39296054608E+00  0.15264499370E+00  0.35642222178E+01  0.35890665224E+01  0.00000000000E+00 0. -1.
</event>
<event>
 5    1  0.1461556E+002  0.1599676E+01  0.7818608E-02  0.3353715E+00
         11   -1    0    0    0    0  0.00000000000E+00  0.00000000000E+00  0.39999999674E+01  0.40000000000E+01  0.51100000000E-03 0.  1.
    9000002   -1    0    0    0    0 -0.00000000000E+00 -0.00000000000E+00  0.00000000000E+00  0.93800000000E+00  0.93800000000E+00 0. -1.
         11    1    1    2    0    0 -0.17122665796E+00 -0.97851423827E-01  0.16573917306E+01  0.16690839042E+01  0.51100000000E-03 0.  1.
    9000002    1    1    2    0    0  0.39847965105E+00  0.22502663137E+00  0.14239936246E+00  0.10533492277E+01  0.93800000000E+00 0. -1.
         22    1    1    2    0    0 -0.22725299309E+00 -0.12717520754E+00  0.22002088743E+01  0.22155668680E+01  0.00000000000E+00 0.  1.
</event>
<event>
 5    1  0.1461556E+002  0.1589891E+01  0.7818608E-02  0.3364409E+00
         11   -1    0    0    0    0  0.00000000000E+00  0.00000000000E+00  0.39999999674E+01  0.40000000000E+01  0.51100000000E-03 0. -1.
    9000002   -1    0    0    0    0 -0.00000000000E+00 -0.00000000000E+00  0.00000000000E+00  0.93800000000E+00  0.93800000000E+00 0.  1.
         11    1    1    2    0    0 -0.49172556396E-01 -0.15389429303E-01  0.39115461429E+00  0.39453386197E+00  0.51100000000E-03 0. -1.
    9000002    1    1    2    0    0 -0.17224319286E+00 -0.10554492453E+00  0.34393686867E-01  0.96012206218E+00  0.93800000000E+00 0.  1.
         22    1    1    2    0    0  0.22141574926E+00  0.12093435384E+00  0.35744516662E+01  0.35833440759E+01  0.00000000000E+00 0. -1.
</event>
<event>
 5    1  0.1461556E+002  0.1596496E+01  0.7818608E-02  0.3357176E+00
         11   -1    0    0    0    0  0.00000000000E+00  0.00000000000E+00  0.39999999674E+01  0.40000000000E+01  0.51100000000E-03 0. -1.
    9000002   -1    0    0    0    0 -0.00000000000E+00 -0.00000000000E+00  0.00000000000E+00  0.93800000000E+00  0.93800000000E+00 0. -1.
         11    1    1    2    0    0 -0.15407591652E+00  0.17893177278E+00  0.97031225894E+00  0.99863011587E+00  0.51100000000E-03 0. -1.
    9000002    1    1    2    0    0  0.45232291921E+00 -0.48922917324E+00  0.31793908980E+00  0.11936793841E+01  0.93800000000E+00 0. -1.
         22    1    1    2    0    0 -0.29824700269E+00  0.31029740046E+00  0.27117486186E+01  0.27456905000E+01  0.00000000000E+00 0. -1.
</event>
<event>
 5    1  0.1461556E+002  0.1599673E+01  0.7818608E-02  0.3353719E+00
         11   -1    0    0    0    0  0.00000000000E+00  0.00000000000E+00  0.39999999674E+01  0.40000000000E+01  0.51100000000E-03 0. -1.
    9000002   -1    0    0    0    0 -0.00000000000E+00 -0.00000000000E+00  0.00000000000E+00  0.93800000000E+00  0.93800000000E+00 0.  1.
         11    1    1    2    0    0 -0.18935337146E+00 -0.70313738577E-01  0.16493290312E+01  0.16616513580E+01  0.51100000000E-03 0. -1.
    9000002    1    1    2    0    0  0.43853998653E+00  0.15957281507E+00  0.14828944697E+00  0.10581184070E+01  0.93800000000E+00 0.  1.
         22    1    1    2    0    0 -0.24918661508E+00 -0.89259076491E-01  0.22023814892E+01  0.22182302351E+01  0.00000000000E+00 0.  1.
</event>
<event>
 5    1  0.1461556E+002  0.1597739E+01  0.7818608E-02  0.3355821E+00
         11   -1    0    0    0    0  0.00000000000E+00  0.00000000000E+00  0.39999999674E+01  0.40000000000E+01  0.51100000000E-03 0. -1.
    9000002   -1    0    0    0    0 -0.00000000000E+00 -0.00000000000E+00  0.00000000000E+00  0.93800000000E+00  0.93800000000E+00 0. -1.
         11    1    1    2    0    0  0.10904887366E-01  0.93143131569E-02  0.78020172590E+00  0.78033368965E+00  0.51100000000E-03 0. -1.
    9000002    1    1    2    0    0  0.39782632470E-01 -0.23898370626E+00  0.40446123496E-01  0.96962660783E+00  0.93800000000E+00 0. -1.
         22    1    1    2    0    0 -0.50687519836E-01  0.22966939310E+00  0.31793521180E+01  0.31880397025E+01  0.00000000000E+00 0. -1.
</event>
<event>
 5    1  0.1461556E+002  0.1599307E+01  0.7818608E-02  0.3354116E+00
         11   -1    0    0    0    0  0.00000000000E+00  0.00000000000E+00  0.39999999674E+01  0.40000000000E+01  0.51100000000E-03 0.  1.
    9000002   -1    0    0    0    0 -0.00000000000E+00 -0.00000000000E+00  0.00000000000E+00  0.93800000000E+00  0.93800000000E+00 0.  1.
         11    1    1    2    0    0 -0.25597742816E-02 -0.50237337190E-02  0.21186665727E-01  0.21930031247E-01  0.51100000000E-03 0.  1.
    9000002    1    1    2    0    0  0.15313208784E+00  0.37831643774E+00  0.11278503323E+00  0.10291439293E+01  0.93800000000E+00 0.  1.
         22    1    1    2    0    0 -0.15057231356E+00 -0.37329270402E+00  0.38660282684E+01  0.38869260395E+01  0.00000000000E+00 0.  1.
</event>
<event>
 5    1  0.1461556E+002  0.1599605E+01  0.7818608E-02  0.3353792E+00
         11   -1    0    0    0    0  0.00000000000E+00  0.00000000000E+00  0.39999999674E+01  0.40000000000E+01  0.51100000000E-03 0. -1.
    9000002   -1    0    0    0    0 -0.00000000000E+00 -0.00000000000E+00  0.00000000000E+00  0.93800000000E+00  0.93800000000E+00 0.  1.
         11    1    1    2    0    0 -0.13730055946E-01 -0.13159608667E-03  0.17863585232E+00  0.17916350245E+00  0.51100000000E-03 0. -1.
    9000002    1    1    2    0    0  0.21605871043E+00  0.31322203779E-01  0.31644080271E-01  0.96359109306E+00  0.93800000000E+00 0.  1.
         22    1    1    2    0    0 -0.20232865448E+00 -0.31190607693E-01  0.37897200348E+01  0.37952454045E+01  0.00000000000E+00 0. -1.
</event>
<event>
 5    1  0.1461556E+002  0.1566570E+01  0.7818608E-02  0.3390466E+00
         11   -1    0    0    0    0  0.00000000000E+00  0.00000000000E+00  0.39999999674E+01  0.40000000000E+01  0.51100000000E-03 0.  1.
    9000002   -1    0    0    0    0 -0.00000000000E+00 -0.00000000000E+00  0.00000000000E+00  0.93800000000E+00  0.93800000000E+00 0. -1.
         11    1    1    2    0    0 -0.58675090382E-01 -0.95353965024E-01  0.34211634201E+00  0.35997082863E+00  0.51100000000E-03 0.  1.
    9000002    1    1    2    0    0 -0.47861957952E-01 -0.13343772415E+00  0.38056904731E-01  0.94941493629E+00  0.93800000000E+00 0. -1.
         22    1    1    2    0    0  0.10653704833E+00  0.22879168918E+00  0.36198267206E+01  0.36286142351E+01  0.00000000000E+00 0.  1.
</event>
<event>
 5    1  0.1461556E+002  0.1599675E+01  0.7818608E-02  0.3353716E+00
         11   -1    0    0    0    0  0.00000000000E+00  0.00000000000E+00  0.39999999674E+01  0.40000000000E+01  0.51100000000E-03 0.  1.
    9000002   -1    0    0    0    0 -0.00000000000E+00 -0.00000000000E+00  0.00000000000E+00  0.93800000000E+00  0.93800000000E+00 0. -1.
         11    1    1    2    0    0 -0.12971690854E+00  0.48280257653E-01  0.15534402794E+01  0.15595943134E+01  0.51100000000E-03 0.  1.
    9000002    1    1    2    0    0  0.32370219748E+00 -0.12112657374E+00  0.80058484304E-01  0.10028499990E+01  0.93800000000E+00 0. -1.
         22    1    1    2    0    0 -0.19398528893E+00  0.72846316090E-01  0.23665012037E+01  0.23755556876E+01  0.00000000000E+00 0.  1.
</event>
<event>
 5    1  0.1461556E+002  0.1591835E+01  0.7818608E-02  0.3362273E+00
         11   -1    0    0    0    0  0.00000000000E+00  0.00000000000E+00  0.39999999674E+01  0.40000000000E+01  0.51100000000E-03 0.  1.
    9000002   -1    0    0    0    0 -0.00000000000E+00 -0.00000000000E+00  0.00000000000E+00  0.93800000000E+00  0.93800000000E+00 0. -1.
         11    1    1    2    0    0  0.12154114567E+00  0.55788264008E-02  0.71098874088E+00  0.72132421572E+00  0.51100000000E-03 0.  1.
    9000002    1    1    2    0    0 -0.24886381003E+00 -0.19970493679E+00  0.74274476461E-01  0.99356728789E+00  0.93800000000E+00 0. -1.
         22    1    1    2    0    0  0.12732266436E+00  0.19412611039E+00  0.32147367500E+01  0.32231084964E+01  0.00000000000E+00 0.  1.
</event>
<event>
 5    1  0.1461556E+002  0.1448745E+01  0.7818608E-02  0.3535888E+00
         11   -1    0    0    0    0  0.00000000000E+00  0.00000000000E+00  0.39999999674E+01  0.40000000000E+01  0.51100000000E-03 0.  1.
    9000002   -1    0    0    0    0 -0.00000000000E+00 -0.00000000000E+00  0.00000000000E+00  0.93800000000E+00  0.93800000000E+00 0.  1.
         11    1    1    2    0    0  0.10118607885E+00  0.37087215690E+00  0.34803383467E+01  0.35015053974E+01  0.51100000000E-03 0.  1.
    9000002    1    1    2    0    0 -0.21123816305E+00 -0.11073583474E+00  0.16290896076E+00  0.98146182611E+00  0.93800000000E+00 0.  1.
         22    1    1    2    0    0  0.11005208420E+00 -0.26013632216E+00  0.35675265991E+00  0.45503277651E+00  0.00000000000E+00 0.  1.
</event>
<event>
 5    1  0.1461556E+002  0.1578736E+01  0.7818608E-02  0.3376770E+00
         11   -1    0    0    0    0  0.00000000000E+00  0.00000000000E+00  0.39999999674E+01  0.40000000000E+01  0.51100000000E-03 0. -1.
    9000002   -1    0    0    0    0 -0.00000000000E+00 -0.00000000000E+00  0.00000000000E+00  0.93800000000E+00  0.93800000000E+00 0. -1.
         11    1    1    2    0    0 -0.10313947016E-01 -0.54577211908E-01  0.10093728497E+00  0.11521131100E+00  0.51100000000E-03 0. -1.
    9000002    1    1    2    0    0 -0.23711736509E+00  0.13377096377E-01  0.53524322273E-01  0.96907814164E+00  0.93800000000E+00 0. -1.
         22    1    1    2    0    0  0.24743131211E+00  0.41200115531E-01  0.38455383601E+01  0.38537105474E+01  0.00000000000E+00 0. -1.
</event>
<event>
 5    1  0.1461556E+002  0.1501792E+01  0.7818608E-02  0.3467376E+00
         11   -1    0    0    0    0  0.00000000000E+00  0.00000000000E+00  0.39999999674E+01  0.40000000000E+01  0.51100000000E-03 0. -1.
    9000002   -1    0    0    0    0 -0.00000000000E+00 -0.00000000000E+00  0.00000000000E+00  0.93800000000E+00  0.93800000000E+00 0. -1.
         11    1    1    2    0    0  0.21802689588E+00  0.12304234859E+00  0.28522364449E+00  0.37951012552E+00  0.51100000000E-03 0. -1.
    9000002    1    1    2    0    0 -0.45167220411E+00 -0.95803981680E-01  0.23602138623E+00  0.10717911539E+01  0.93800000000E+00 0. -1.
         22    1    1    2    0    0  0.23364530823E+00 -0.27238366909E-01  0.34787549366E+01  0.34866987206E+01  0.00000000000E+00 0. -1.
</event>
<event>
 5    1  0.1461556E+002  0.1599677E+01  0.7818608E-02  0.3353714E+00
         11   -1    0    0    0    0  0.00000000000E+00  0.00000000000E+00  0.39999999674E+01  0.40000000000E+01  0.51100000000E-03 0.  1.
    9000002   -1    0    0    0    0 -0.00000000000E+00 -0.00000000000E+00  0.00000000000E+00  0.93800000000E+00  0.93800000000E+00 0. -1.
         11    1    1    2    0    0 -0.13734911691E+00  0.13542303361E+00  0.15715753348E+01  0.15833677627E+01  0.51100000000E-03 0.  1.
    9000002    1    1    2    0    0  0.33587704344E+00 -0.33315447461E+00  0.15253978283E+00  0.10615637888E+01  0.93800000000E+00 0. -1.
         22    1    1    2    0    0 -0.19852792652E+00  0.19773144100E+00  0.22758848497E+01  0.22930684485E+01  0.00000000000E+00 0.  1.
</event>
<event>
 5    1  0.1461556E+002  0.1593798E+01  0.7818608E-02  0.3360122E+00
         11   -1    0    0    0    0  0.00000000000E+00  0.00000000000E+00  0.39999999674E+01  0.40000000000E+01  0.51100000000E-03 0.  1.
    9000002   -1    0    0    0    0 -0.00000000000E+00 -0.00000000000E+00  0.00000000000E+00  0.93800000000E+00  0.93800000000E+00 0. -1.
         11    1    1    2    0    0  0.18458155365E+00 -0.18636924563E-01  0.10290931752E+01  0.10456819351E+01  0.51100000000E-03 0.  1.
    9000002    1    1    2    0    0 -0.38839854130E+00  0.52240957907E-01  0.10836796731E+00  0.10223356400E+01  0.93800000000E+00 0. -1.
         22    1    1    2    0    0  0.20381698765E+00 -0.33604033344E-01  0.28625388248E+01  0.28699824249E+01  0.00000000000E+00 0.  1.
</event>
<event>
 5    1  0.1461556E+002  0.1597322E+01  0.7818608E-02  0.3356275E+00
         11   -1    0    0    0    0  0.00000000000E+00  0.00000000000E+00  0.39999999674E+01  0.40000000000E+01  0.51100000000E-03 0. -1.
    9000002   -1    0    0    0    0 -0.00000000000E+00 -0.00000000000E+00  0.00000000000E+00  0.93800000000E+00  0.93800000000E+00 0. -1.
         11    1    1    2    0    0 -0.11291380248E-01  0.33794605799E-02  0.74552547253E-01  0.75480192400E-01  0.51100000000E-03 0. -1.
    9000002    1    1    2    0    0 -0.24364322967E+00 -0.14363390096E+00  0.55111023752E-01  0.98126140544E+00  0.93800000000E+00 0. -1.
         22    1    1    2    0    0  0.25493460992E+00  0.14025444038E+00  0.38703363964E+01  0.38812584022E+01  0.00000000000E+00 0. -1.
</event>
<event>
 5    1  0.1461556E+002  0.1599674E+01  0.7818608E-02  0.3353717E+00
         11   -1    0    0    0    0  0.00000000000E+00  0.00000000000E+00  0.39999999674E+01  0.40000000000E+01  0.51100000000E-03 0.  1.
    9000002   -1    0    0    0    0 -0.00000000000E+00 -0.00000000000E+00  0.00000000000E+00  0.93800000000E+00  0.93800000000E+00 0. -1.
         11    1    1    2    0    0 -0.13195793173E-01 -0.68127630729E-02  0.13675698122E+00  0.13756189782E+00  0.51100000000E-03 0. -1.
    9000002    1    1    2    0    0  0.35936004616E+00  0.19392530660E+00  0.11259824638E+00  0.10292079636E+01  0.93800000000E+00 0. -1.
         22    1    1    2    0    0 -0.34616425299E+00 -0.18711254352E+00  0.37506447398E+01  0.37712301385E+01  0.00000000000E+00 0.  1.
</event>
<event>
 5    1  0.1461556E+002  0.1599509E+01  0.7818608E-02  0.3353896E+00
         11   -1    0    0    0    0  0.00000000000E+00  0.00000000000E+00  0.39999999674E+01  0.40000000000E+01  0.51100000000E-03 0. -1.
    9000002   -1    0    0    0    0 -0.00000000000E+00 -0.00000000000E+00  0.00000000000E+00  0.93800000000E+00  0.93800000000E+00 0. -1.
         11    1    1    2    0    0 -0.85901725241E-01  0.96554855296E-01  0.12480229552E+01  0.12546965786E+01  0.51100000000E-03 0. -1.
    9000002    1    1    2    0    0  0.22501018583E+00 -0.31524684332E+00  0.10116147135E+00  0.10198469489E+01  0.93800000000E+00 0. -1.
         22    1    1    2    0    0 -0.13910846059E+00  0.21869198803E+00  0.26508155408E+01  0.26634564725E+01  0.00000000000E+00 0. -1.
</event>
<event>
 5    1  0.1737471E+002  0.1567469E+01  0.7818608E-02  0.3389446E+00
         11   -1    0    0    0    0  0.00000000000E+00  0.00000000000E+00  0.39999999674E+01  0.40000000000E+01  0.51100000000E-03 0. -1.
    9000002   -1    0    0    0    0 -0.00000000000E+00 -0.00000000000E+00  0.00000000000E+00  0.93800000000E+00  0.93800000000E+00 0. -1.
         11    1    1    2    0    0 -0.18697460294E+00 -0.23230309352E-01  0.24361008416E+01  0.24433760907E+01  0.51100000000E-03 0. -1.
    9000002    1    1    2    0    0 -0.29578438166E-01 -0.39258508932E-01  0.25324759330E-01  0.93962836162E+00  0.93800000000E+00 0. -1.
         22    1    1    2    0    0  0.21655304111E+00  0.62488818284E-01  0.15385743665E+01  0.15549955476E+01  0.00000000000E+00 0.  1.
</event>
<event>
 5    1  0.1461556E+002  0.1568735E+01  0.7818608E-02  0.3388013E+00
         11   -1    0    0    0    0  0.00000000000E+00  0.00000000000E+00  0.39999999674E+01  0.40000000000E+01  0.51100000000E-03 0.  1.
    9000002   -1    0    0    0    0 -0.00000000000E+00 -0.00000000000E+00  0.00000000000E+00  0.93800000000E+00  0.93800000000E+00 0.  1.
         11    1    1    2    0    0 -0.19420783097E+00 -0.31744179551E+00  0.25357297626E+01  0.25628912707E+01  0.51100000000E-03 0.  1.
    9000002    1    1    2    0    0 -0.56545687276E-02  0.43136606435E+00  0.15289713124E+00  0.10437098200E+01  0.93800000000E+00 0.  1.
         22    1    1    2    0    0  0.19986239970E+00 -0.11392426884E+00  0.13113730735E+01  0.13313989093E+01  0.00000000000E+00 0.  1.
</event>
<event>
 5    1  0.1461556E+002  0.1599677E+01  0.7818608E-02  0.3353714E+00
         11   -1    0    0    0    0  0.00000000000E+00  0.00000000000E+00  0.39999999674E+01  0.40000000000E+01  0.51100000000E-03 0.  1.
    9000002   -1    0    0    0    0 -0.00000000000E+00 -0.00000000000E+00  0.00000000000E+00  0.93800000000E+00  0.93800000000E+00 0. -1.
         11    1    1    2    0    0  0.43874396572E-01 -0.60349096255E-02  0.57881241200E+00  0.58050448079E+00  0.51100000000E-03 0. -1.
    9000002    1    1    2    0    0 -0.29910044426E+00  0.42293700039E-01  0.60885853839E-01  0.98732006969E+00  0.93800000000E+00 0. -1.
         22    1    1    2    0    0  0.25522604769E+00 -0.36258790414E-01  0.33603017015E+01  0.33701754495E+01  0.00000000000E+00 0.  1.
</event>
<event>
 5    1  0.1461556E+002  0.1566329E+01  0.7818608E-02  0.3390739E+00
         11   -1    0    0    0    0  0.00000000000E+00  0.00000000000E+00  0.39999999674E+01  0.40000000000E+01  0.51100000000E-03 0.  1.
    9000002   -1    0    0    0    0 -0.00000000000E+00 -0.00000000000E+00  0.00000000000E+00  0.93800000000E+00  0.93800000000E+00 0. -1.
         11    1    1    2    0    0  0.15800402326E+00  0.86937132380E-01  0.67011560267E+00  0.69395858552E+00  0.51100000000E-03 0.  1.
    9000002    1    1    2    0    0 -0.18997298593E+00  0.12773442887E+00  0.60461054255E-01  0.96742201690E+00  0.93800000000E+00 0. -1.
         22    1    1    2    0    0  0.31968962674E-01 -0.21467156125E+00  0.32694233104E+01  0.32766193976E+01  0.00000000000E+00 0.  1.
</event>
<event>
 5    1  0.1461556E+002  0.1537673E+01  0.7818608E-02  0.3423919E+00
         11   -1    0    0    0    0  0.00000000000E+00  0.00000000000E+00  0.39999999674E+01  0.40000000000E+01  0.51100000000E-03 0. -1.
    9000002   -1    0    0    0    0 -0.00000000000E+00 -0.00000000000E+00  0.00000000000E+00  0.93800000000E+00  0.93800000000E+00 0. -1.
         11    1    1    2    0    0  0.15213428256E-02 -0.32136858709E+00  0.21244269474E+01  0.21485972632E+01  0.51100000000E-03 0. -1.
    9000002    1    1    2    0    0 -0.25949400308E-02  0.42053159141E-01  0.47534768517E-01  0.94014826284E+00  0.93800000000E+00 0. -1.
         22    1    1    2    0    0  0.10735972052E-02  0.27931542795E+00  0.18280382514E+01  0.18492544740E+01  0.00000000000E+00 0. -1.
</event>
<event>
 5    1  0.1461556E+002  0.1575910E+01  0.7818608E-02  0.3379932E+00
         11   -1    0    0    0    0  0.00000000000E+00  0.00000000000E+00  0.39999999674E+01  0.40000000000E+01  0.51100000000E-03 0.  1.
    9000002   -1    0    0    0    0 -0.00000000000E+00 -0.00000000000E+00  0.00000000000E+00  0.93800000000E+00  0.93800000000E+00 0. -1.
         11    1    1    2    0    0 -0.34533610055E-01  0.18362945402E-01  0.43894126811E-01  0.58793906799E-01  0.51100000000E-03 0.  1.
    9000002    1    1    2    0    0 -0.16284198230E+00  0.16198497228E+00  0.53224809980E-01  0.96717812364E+00  0.93800000000E+00 0. -1.
         22    1    1    2    0    0  0.19737559236E+00 -0.18034791768E+00  0.39028810306E+01  0.39120279696E+01  0.00000000000E+00 0.  1.
</event>
<event>
 5    1  0.1461556E+002  0.1596384E+01  0.7818608E-02  0.3357298E+00
         11   -1    0    0    0    0  0.00000000000E+00  0.00000000000E+00  0.39999999674E+01  0.40000000000E+01  0.51100000000E-03 0.  1.
    9000002   -1    0    0    0    0 -0.00000000000E+00 -0.00000000000E+00  0.00000000000E+00  0.93800000000E+00  0.93800000000E+00 0. -1.
         11    1    1    2    0    0  0.85390368237E-01  0.24817257061E-01  0.46926767315E+00  0.47761890815E+00  0.51100000000E-03 0.  1.
    9000002    1    1    2    0    0 -0.34063967650E+00 -0.13542163808E+00  0.92952732197E-01  0.10113647313E+01  0.93800000000E+00 0. -1.
         22    1    1    2    0    0  0.25524930826E+00  0.11060438102E+00  0.34377795620E+01  0.34490163606E+01  0.00000000000E+00 0.  1.
</event>
<event>
 5    1  0.1461556E+002  0.1599646E+01  0.7818608E-02  0.3353747E+00
         11   -1    0    0    0    0  0.00000000000E+00  0.00000000000E+00  0.39999999674E+01  0.40000000000E+01  0.51100000000E-03 0.  1.
    9000002   -1    0    0    0    0 -0.00000000000E+00 -0.00000000000E+00  0.00000000000E+00  0.93800000000E+00  0.93800000000E+00 0. -1.
         11    1    1    2    0    0 -0.33923924685E-01 -0.83400886065E-01  0.11411590338E+01  0.11447055264E+01  0.51100000000E-03 0.  1.
    9000002    1    1    2    0    0  0.12509745239E+00  0.26873875049E+00  0.58623625671E-01  0.98546974489E+00  0.93800000000E+00 0. -1.
         22    1    1    2    0    0 -0.91173527707E-01 -0.18533786443E+00  0.28002173078E+01  0.28078247287E+01  0.00000000000E+00 0.  1.
</event>
<event>
 5    1  0.1461556E+002  0.1597523E+01  0.7818608E-02  0.3356057E+00
         11   -1    0    0    0    0  0.00000000000E+00  0.00000000000E+00  0.39999999674E+01  0.40000000000E+01  0.51100000000E-03 0. -1.
    9000002   -1    0    0    0    0 -0.00000000000E+00 -0.00000000000E+00  0.00000000000E+00  0.93800000000E+00  0.93800000000E+00 0. -1.
         11    1    1    2    0    0 -0.50315201302E-01 -0.72746907006E-01  0.16469355468E+01  0.16493091549E+01  0.51100000000E-03 0. -1.
    9000002    1    1    2    0    0  0.88875444499E-01  0.30177718536E+00  0.67816428556E-01  0.99167100503E+00  0.93800000000E+00 0. -1.
         22    1    1    2    0    0 -0.38560243197E-01 -0.22903027836E+00  0.22852479920E+01  0.22970198401E+01  0.00000000000E+00 0. -1.
</event>
<event>
 5    1  0.1461556E+002  0.1580757E+01  0.7818608E-02  0.3374518E+00
         11   -1    0    0    0    0  0.00000000000E+00  0.00000000000E+00  0.39999999674E+01  0.40000000000E+01  0.51100000000E-03 0. -1.
    9000002   -1    0    0    0    0 -0.00000000000E+00 -0.00000000000E+00  0.00000000000E+00  0.93800000000E+00  0.93800000000E+00 0.  1.
         11    1    1    2    0    0 -0.11153701139E+00  0.72341979196E-01  0.24221494354E+01  0.24257951306E+01  0.51100000000E-03 0. -1.
    9000002    1    1    2    0    0 -0.79633291140E-01 -0.15296219600E+00  0.33843764612E-01  0.95432085530E+00  0.93800000000E+00 0.  1.
         22    1    1    2    0    0  0.19117030253E+00  0.80620216799E-01  0.15440067673E+01  0.15578840141E+01  0.00000000000E+00 0.  1.
</event>
<event>
 5    1  0.1461556E+002  0.1599677E+01  0.7818608E-02  0.3353714E+00
         11   -1    0    0    0    0  0.00000000000E+00  0.00000000000E+00  0.39999999674E+01  0.40000000000E+01  0.51100000000E-03 0. -1.
    9000002   -1    0    0    0    0 -0.00000000000E+00 -0.00000000000E+00  0.00000000000E+00  0.93800000000E+00  0.93800000000E+00 0. -1.
         11    1    1    2    0    0 -0.12221794885E+00 -0.24629496184E+00  0.76026000994E+00  0.80845159353E+00  0.51100000000E-03 0. -1.
    9000002    1    1    2    0    0  0.48288699089E+00  0.97027671459E+00  0.99856066821E+00  0.17468784036E+01  0.93800000000E+00 0. -1.
         22    1    1    2    0    0 -0.36066904204E+00 -0.72398175276E+00  0.22411792892E+01  0.23826700029E+01  0.00000000000E+00 0. -1.
</event>
<event>
 5    1  0.1461556E+002  0.1599458E+01  0.7818608E-02  0.3353952E+00
         11   -1    0    0    0    0  0.00000000000E+00  0.00000000000E+00  0.39999999674E+01  0.40000000000E+01  0.51100000000E-03 0.  1.
    9000002   -1    0    0    0    0 -0.00000000000E+00 -0.00000000000E+00  0.00000000000E+00  0.93800000000E+00  0.93800000000E+00 0.  1.
         11    1    1    2    0    0 -0.43842703578E-01  0.58567144421E-01  0.60452633433E+00  0.60893730636E+00  0.51100000000E-03 0.  1.
    9000002    1    1    2    0    0  0.20288151796E+00 -0.35074026306E+00  0.11099992810E+00  0.10277862747E+01  0.93800000000E+00 0.  1.
         22    1    1    2    0    0 -0.15903881438E+00  0.29217311864E+00  0.32844737049E+01  0.33012764189E+01  0.00000000000E+00 0.  1.
</event>
<event>
 5    1  0.1461556E+002  0.1599659E+01  0.7818608E-02  0.3353734E+00
         11   -1    0    0    0    0  0.00000000000E+00  0.00000000000E+00  0.39999999674E+01  0.40000000000E+01  0.51100000000E-03 0.  1.
    9000002   -1    0    0    0    0 -0.00000000000E+00 -0.00000000000E+00  0.00000000000E+00  0.93800000000E+00  0.93800000000E+00 0.  1.
         11    1    1    2    0    0 -0.15806635993E+00 -0.43449764602E-01  0.14039958124E+01  0.14135336425E+01  0.51100000000E-03 0.  1.
    9000002    1    1    2    0    0  0.44457836876E+00  0.11055145029E+00  0.14272980154E+00  0.10536068267E+01  0.93800000000E+00 0.  1.
         22    1    1    2    0    0 -0.28651200882E+00 -0.67101685683E-01  0.24532743534E+01  0.24708595307E+01  0.00000000000E+00 0.  1.
</event>
<event>
 5    1  0.1461556E+002  0.1598709E+01  0.7818608E-02  0.3354766E+00
         11   -1    0    0    0    0  0.00000000000E+00  0.00000000000E+00  0.39999999674E+01  0.40000000000E+01  0.51100000000E-03 0. -1.
    9000002   -1    0    0    0    0 -0.00000000000E+00 -0.00000000000E+00  0.00000000000E+00  0.93800000000E+00  0.93800000000E+00 0.  1.
         11    1    1    2    0    0 -0.69554189326E-02  0.10571056713E+00  0.10415780396E+01  0.10469518497E+01  0.51100000000E-03 0. -1.
    9000002    1    1    2    0    0  0.10325520531E+00 -0.30069166968E+00  0.68311429935E-01  0.99276763097E+00  0.93800000000E+00 0.  1.
         22    1    1    2    0    0 -0.96299786379E-01  0.19498110255E+00  0.28901104978E+01  0.28982805193E+01  0.00000000000E+00 0. -1.
</event>
<event>
 5    1  0.1461556E+002  0.1516010E+01  0.7818608E-02  0.3449892E+00
         11   -1    0    0    0    0  0.00000000000E+00  0.00000000000E+00  0.39999999674E+01  0.40000000000E+01  0.51100000000E-03 0.  1.
    9000002   -1    0    0    0    0 -0.00000000000E+00 -0.00000000000E+00  0.00000000000E+00  0.93800000000E+00  0.93800000000E+00 0. -1.
         11    1    1    2    0    0 -0.46781622881E-01 -0.25323094508E+00  0.30897919464E+01  0.31005046307E+01  0.51100000000E-03 0.  1.
    9000002    1    1    2    0    0 -0.44463134762E-01 -0.29601273439E-01  0.65232532941E-01  0.94178155062E+00  0.93800000000E+00 0. -1.
         22    1    1    2    0    0  0.91244757642E-01  0.28283221852E+00  0.84497548805E+00  0.89571381872E+00  0.00000000000E+00 0. -1.
</event>
<event>
 5    1  0.1461556E+002  0.1599676E+01  0.7818608E-02  0.3353715E+00
         11   -1    0    0    0    0  0.00000000000E+00  0.00000000000E+00  0.39999999674E+01  0.40000000000E+01  0.51100000000E-03 0.  1.
    9000002   -1    0    0    0    0 -0.00000000000E+00 -0.00000000000E+00  0.00000000000E+00  0.93800000000E+00  0.93800000000E+00 0.  1.
         11    1    1    2    0    0 -0.20496627889E+00  0.71486531708E-01  0.19157345774E+01  0.19279939658E+01  0.51100000000E-03 0.  1.
    9000002    1    1    2    0    0  0.41175575540E+00 -0.14479191583E+00  0.12913723815E+00  0.10426063146E+01  0.93800000000E+00 0.  1.
         22    1    1    2    0    0 -0.20678947651E+00  0.73305384123E-01  0.19551281518E+01  0.19673997196E+01  0.00000000000E+00 0.  1.
</event>
<event>
 5    1  0.1461556E+002  0.1599674E+01  0.7818608E-02  0.3353718E+00
         11   -1    0    0    0    0  0.00000000000E+00  0.00000000000E+00  0.39999999674E+01  0.40000000000E+01  0.51100000000E-03 0. -1.
    9000002   -1    0    0    0    0 -0.00000000000E+00 -0.00000000000E+00  0.00000000000E+00  0.93800000000E+00  0.93800000000E+00 0. -1.
         11    1    1    2    0    0 -0.11899640317E-01 -0.10533446580E-01  0.25450790605E+00  0.25500409859E+00  0.51100000000E-03 0. -1.
    9000002    1    1    2    0    0  0.17625117519E+00  0.17658208018E+00  0.41350220757E-01  0.97149346295E+00  0.93800000000E+00 0. -1.
         22    1    1    2    0    0 -0.16435153488E+00 -0.16604863360E+00  0.37041418406E+01  0.37115024385E+01  0.00000000000E+00 0. -1.
</event>
<event>
 5    1  0.1461556E+002  0.1556695E+01  0.7818608E-02  0.3401750E+00
         11   -1    0    0    0    0  0.00000000000E+00  0.00000000000E+00  0.39999999674E+01  0.40000000000E+01  0.51100000000E-03 0.  1.
    9000002   -1    0    0    0    0 -0.00000000000E+00 -0.00000000000E+00  0.00000000000E+00  0.93800000000E+00  0.93800000000E+00 0. -1.
         11    1    1    2    0    0 -0.19961107100E+00  0.13804801020E+00  0.21204803781E+01  0.21343240447E+01  0.51100000000E-03 0.  1.
    9000002    1    1    2    0    0 -0.26603223480E-01 -0.20022581719E-01  0.32539123116E-01  0.93915463573E+00  0.93800000000E+00 0. -1.
         22    1    1    2    0    0  0.22621429448E+00 -0.11802542848E+00  0.18469804661E+01  0.18645213196E+01  0.00000000000E+00 0.  1.
</event>
<event>
 5    1  0.1461556E+002  0.1595887E+01  0.7818608E-02  0.3357840E+00
         11   -1    0    0    0    0  0.00000000000E+00  0.00000000000E+00  0.39999999674E+01  0.40000000000E+01  0.51100000000E-03 0. -1.
    9000002   -1    0    0    0    0 -0.00000000000E+00 -0.00000000000E+00  0.00000000000E+00  0.93800000000E+00  0.93800000000E+00 0. -1.
         11    1    1    2    0    0  0.29223635563E-01  0.32014667867E-01  0.32722119242E+00  0.33008018681E+00  0.51100000000E-03 0. -1.
    9000002    1    1    2    0    0  0.11414479223E+00 -0.22735917187E+00  0.45915739894E-01  0.97297147019E+00  0.93800000000E+00 0. -1.
         22    1    1    2    0    0 -0.14336842779E+00  0.19534450400E+00  0.36268630350E+01  0.36349483430E+01  0.00000000000E+00 0. -1.
</event>
<event>
 5    1  0.1461556E+002  0.1599673E+01  0.7818608E-02  0.3353718E+00
         11   -1    0    0    0    0  0.00000000000E+00  0.00000000000E+00  0.39999999674E+01  0.40000000000E+01  0.51100000000E-03 0.  1.
    9000002   -1    0    0    0    0 -0.00000000000E+00 -0.00000000000E+00  0.00000000000E+00  0.93800000000E+00  0.93800000000E+00 0.  1.
         11    1    1    2    0    0  0.11855082782E-02  0.48100547681E-01  0.52656828583E+00  0.52876222339E+00  0.51100000000E-03 0.  1.
    9000002    1    1    2    0    0 -0.65938928862E-03 -0.34988688877E+00  0.82086690542E-01  0.10044916597E+01  0.93800000000E+00 0.  1.
         22    1    1    2    0    0 -0.52611898960E-03  0.30178634108E+00  0.33913449910E+01  0.34047461169E+01  0.00000000000E+00 0.  1.
</event>
<event>
 5    1  0.1741483E+002  0.1562341E+01  0.7818608E-02  0.3395280E+00
         11   -1    0    0    0    0  0.00000000000E+00  0.00000000000E+00  0.39999999674E+01  0.40000000000E+01  0.51100000000E-03 0.  1.
    9000002   -1    0    0    0    0 -0.00000000000E+00 -0.00000000000E+00  0.00000000000E+00  0.93800000000E+00  0.93800000000E+00 0.  1.
         11    1    1    2    0    0 -0.19453404695E+00 -0.16797528015E+00  0.22269078393E+01  0.22416908744E+01  0.51100000000E-03 0.  1.
    9000002    1    1    2    0    0  0.25713783257E-01  0.42272812877E-01  0.29196680823E-01  0.93975775364E+00  0.93800000000E+00 0.  1.
         22    1    1    2    0    0  0.16882026369E+00  0.12570246727E+00  0.17438954472E+01  0.17565513720E+01  0.00000000000E+00 0.  1.
</event>
<event>
 5    1  0.1461556E+002  0.1599605E+01  0.7818608E-02  0.3353792E+00
         11   -1    0    0    0    0  0.00000000000E+00  0.00000000000E+00  0.39999999674E+01  0.40000000000E+01  0.51100000000E-03 0. -1.
    9000002   -1    0    0    0    0 -0.00000000000E+00 -0.00000000000E+00  0.00000000000E+00  0.93800000000E+00  0.93800000000E+00 0. -1.
         11    1    1    2    0    0  0.86532130402E-01 -0.18864927683E-01  0.10902788179E+01  0.10938701280E+01  0.51100000000E-03 0. -1.
    9000002    1    1    2    0    0 -0.32169016667E+00  0.99266824939E-01  0.75942940332E-01  0.99947476009E+00  0.93800000000E+00 0. -1.
         22    1    1    2    0    0  0.23515803626E+00 -0.80401897257E-01  0.28337782091E+01  0.28446551119E+01  0.00000000000E+00 0. -1.
</event>
<event>
 5    1  0.1461556E+002  0.1583305E+01  0.7818608E-02  0.3371685E+00
         11   -1    0    0    0    0  0.00000000000E+00  0.00000000000E+00  0.39999999674E+01  0.40000000000E+01  0.51100000000E-03 0.  1.
    9000002   -1    0    0    0    0 -0.00000000000E+00 -0.00000000000E+00  0.00000000000E+00  0.93800000000E+00  0.93800000000E+00 0. -1.
         11    1    1    2    0    0 -0.34107210737E-01 -0.30482922073E-01  0.99637541346E-01  0.10963763555E+00  0.51100000000E-03 0.  1.
    9000002    1    1    2    0    0  0.40831623136E-02 -0.19922987038E+00  0.38654894728E-01  0.95971215182E+00  0.93800000000E+00 0. -1.
         22    1    1    2    0    0  0.30024048423E-01  0.22971279245E+00  0.38617075313E+01  0.38686502126E+01  0.00000000000E+00 0.  1.
</event>
<event>
 5    1  0.1461556E+002  0.1571929E+01  0.7818608E-02  0.3384406E+00
         11   -1    0    0    0    0  0.00000000000E+00  0.00000000000E+00  0.39999999674E+01  0.40000000000E+01  0.51100000000E-03 0.  1.
    9000002   -1    0    0    0    0 -0.00000000000E+00 -0.00000000000E+00  0.00000000000E+00  0.93800000000E+00  0.93800000000E+00 0.  1.
         11    1    1    2    0    0 -0.56404303131E-01 -0.42255067012E-01  0.13201773401E+00  0.14965252859E+00  0.51100000000E-03 0.  1.
    9000002    1    1    2    0    0 -0.20422695234E+00  0.11284345527E+00  0.57482536122E-01  0.96829258771E+00  0.93800000000E+00 0.  1.
         22    1    1    2    0    0  0.26063125547E+00 -0.70588388257E-01  0.38104996972E+01  0.38200548837E+01  0.00000000000E+00 0.  1.
</event>
<event>
 5    1  0.1461556E+002  0.1599677E+01  0.7818608E-02  0.3353714E+00
         11   -1    0    0    0    0  0.00000000000E+00  0.00000000000E+00  0.39999999674E+01  0.40000000000E+01  0.51100000000E-03 0. -1.
    9000002   -1    0    0    0    0 -0.00000000000E+00 -0.00000000000E+00  0.00000000000E+00  0.93800000000E+00  0.93800000000E+00 0. -1.
         11    1    1    2    0    0  0.40492131016E-02 -0.85035479949E-01  0.10584699906E+01  0.10618881350E+01  0.51100000000E-03 0. -1.
    9000002    1    1    2    0    0 -0.15958060231E-01  0.31390553601E+00  0.65995336750E-01  0.99145888957E+00  0.93800000000E+00 0. -1.
         22    1    1    2    0    0  0.11908847129E-01 -0.22887005607E+00  0.28755346400E+01  0.28846529755E+01  0.00000000000E+00 0. -1.
</event>
<event>
 5    1  0.1461556E+002  0.1563309E+01  0.7818608E-02  0.3394175E+00
         11   -1    0    0    0    0  0.00000000000E+00  0.00000000000E+00  0.39999999674E+01  0.40000000000E+01  0.51100000000E-03 0. -1.
    9000002   -1    0    0    0    0 -0.00000000000E+00 -0.00000000000E+00  0.00000000000E+00  0.93800000000E+00  0.93800000000E+00 0.  1.
         11    1    1    2    0    0 -0.87788674565E-01 -0.10908867629E+00  0.50163453584E+00  0.52081153918E+00  0.51100000000E-03 0. -1.
    9000002    1    1    2    0    0 -0.19209885127E+00  0.32916811368E-01  0.52856559021E-01  0.95949116773E+00  0.93800000000E+00 0.  1.
         22    1    1    2    0    0  0.27988752583E+00  0.76171864923E-01  0.34455088725E+01  0.34576972931E+01  0.00000000000E+00 0. -1.
</event>
<event>
 5    1  0.1461556E+002  0.1449136E+01  0.7818608E-02  0.3535363E+00
         11   -1    0    0    0    0  0.00000000000E+00  0.00000000000E+00  0.39999999674E+01  0.40000000000E+01  0.51100000000E-03 0. -1.
    9000002   -1    0    0    0    0 -0.00000000000E+00 -0.00000000000E+00  0.00000000000E+00  0.93800000000E+00  0.93800000000E+00 0.  1.
         11    1    1    2    0    0 -0.62883554365E+00 -0.17656868114E+00  0.33272847662E+01  0.33907867548E+01  0.51100000000E-03 0. -1.
    9000002    1    1    2    0    0  0.44754989747E+00 -0.90045222680E-02  0.27973600140E+00  0.10763262622E+01  0.93800000000E+00 0.  1.
         22    1    1    2    0    0  0.18128564618E+00  0.18557320340E+00  0.39297919972E+00  0.47088698299E+00  0.00000000000E+00 0. -1.
</event>
<event>
 5    1  0.1461556E+002  0.1599675E+01  0.7818608E-02  0.3353716E+00
         11   -1    0    0    0    0  0.00000000000E+00  0.00000000000E+00  0.39999999674E+01  0.40000000000E+01  0.51100000000E-03 0. -1.
    9000002   -1    0    0    0    0 -0.00000000000E+00 -0.00000000000E+00  0.00000000000E+00  0.93800000000E+00  0.93800000000E+00 0.  1.
         11    1    1    2    0    0 -0.87677835171E-01  0.16905932901E+00  0.18867751930E+01  0.18963621357E+01  0.51100000000E-03 0. -1.
    9000002    1    1    2    0    0  0.17955898472E+00 -0.35186816638E+00  0.10519541084E+00  0.10232119575E+01  0.93800000000E+00 0.  1.
         22    1    1    2    0    0 -0.91881149549E-01  0.18280883738E+00  0.20080293635E+01  0.20184259068E+01  0.00000000000E+00 0. -1.
</event>
<event>
 5    1  0.1461556E+002  0.1599677E+01  0.7818608E-02  0.3353714E+00
         11   -1    0    0    0    0  0.00000000000E+00  0.00000000000E+00  0.39999999674E+01  0.40000000000E+01  0.51100000000E-03 0.  1.
    9000002   -1    0    0    0    0 -0.00000000000E+00 -0.00000000000E+00  0.00000000000E+00  0.93800000000E+00  0.93800000000E+00 0. -1.
         11    1    1    2    0    0 -0.41264132335E-01 -0.12874360360E+00  0.13348061550E+01  0.13416353367E+01  0.51100000000E-03 0.  1.
    9000002    1    1    2    0    0  0.11918770487E+00  0.37491281038E+00  0.10430495308E+00  0.10224914902E+01  0.93800000000E+00 0. -1.
         22    1    1    2    0    0 -0.77923572537E-01 -0.24616920678E+00  0.25608888593E+01  0.25738731731E+01  0.00000000000E+00 0.  1.
</event>
<event>
 5    1  0.1461556E+002  0.1581795E+01  0.7818608E-02  0.3373363E+00
         11   -1    0    0    0    0  0.00000000000E+00  0.00000000000E+00  0.39999999674E+01  0.40000000000E+01  0.51100000000E-03 0. -1.
    9000002   -1    0    0    0    0 -0.00000000000E+00 -0.00000000000E+00  0.00000000000E+00  0.93800000000E+00  0.93800000000E+00 0. -1.
         11    1    1    2    0    0 -0.10958511844E+00  0.97537197753E-01  0.66504740454E+00  0.68103650015E+00  0.51100000000E-03 0. -1.
    9000002    1    1    2    0    0 -0.35918399211E-01 -0.35429287820E+00  0.99684536313E-01  0.10082631510E+01  0.93800000000E+00 0. -1.
         22    1    1    2    0    0  0.14550351765E+00  0.25675568045E+00  0.32352680265E+01  0.32487003488E+01  0.00000000000E+00 0. -1.
</event>
<event>
 5    1  0.1461556E+002  0.1596528E+01  0.7818608E-02  0.3357141E+00
         11   -1    0    0    0    0  0.00000000000E+00  0.00000000000E+00  0.39999999674E+01  0.40000000000E+01  0.51100000000E-03 0.  1.
    9000002   -1    0    0    0    0 -0.00000000000E+00 -0.00000000000E+00  0.00000000000E+00  0.93800000000E+00  0.93800000000E+00 0. -1.
         11    1    1    2    0    0  0.35657410425E-02  0.18332605054E-01  0.58591612451E+00  0.58621392426E+00  0.51100000000E-03 0.  1.
    9000002    1    1    2    0    0 -0.34458540806E+00 -0.92361762664E-01  0.87950614350E-01  0.10073971954E+01  0.93800000000E+00 0. -1.
         22    1    1    2    0    0  0.34101966702E+00  0.74029157610E-01  0.33261332285E+01  0.33443888804E+01  0.00000000000E+00 0.  1.
</event>
<event>
 5    1  0.1461556E+002  0.1570901E+01  0.7818608E-02  0.3385565E+00
         11   -1    0    0    0    0  0.00000000000E+00  0.00000000000E+00  0.39999999674E+01  0.40000000000E+01  0.51100000000E-03 0.  1.
    9000002   -1    0    0    0    0 -0.00000000000E+00 -0.00000000000E+00  0.00000000000E+00  0.93800000000E+00  0.93800000000E+00 0. -1.
         11    1    1    2    0    0 -0.42664343676E-01 -0.16737265932E+00  0.15187830503E+01  0.15285732132E+01  0.51100000000E-03 0.  1.
    9000002    1    1    2    0    0 -0.39035594679E+00  0.36734980341E+00  0.22524691969E+00  0.11035867968E+01  0.93800000000E+00 0. -1.
         22    1    1    2    0    0  0.43302029047E+00 -0.19997714409E+00  0.22559699974E+01  0.23058399900E+01  0.00000000000E+00 0.  1.
</event>
<event>
 5    1  0.1461556E+002  0.1599677E+01  0.7818608E-02  0.3353714E+00
         11   -1    0    0    0    0  0.00000000000E+00  0.00000000000E+00  0.39999999674E+01  0.40000000000E+01  0.51100000000E-03 0.  1.
    9000002   -1    0    0    0    0 -0.00000000000E+00 -0.00000000000E+00  0.00000000000E+00  0.93800000000E+00  0.93800000000E+00 0.  1.
         11    1    1    2    0    0 -0.19990365117E-01 -0.19528483996E+00  0.11046555996E+01  0.11219625832E+01  0.51100000000E-03 0.  1.
    9000002    1    1    2    0    0  0.66432528536E-01  0.65286288348E+00  0.30434106824E+00  0.11845297427E+01  0.93800000000E+00 0.  1.
         22    1    1    2    0    0 -0.46442163419E-01 -0.45757804352E+00  0.25910032996E+01  0.26315076741E+01  0.00000000000E+00 0.  1.
</event>
<event>
 5    1  0.1461556E+002  0.1599676E+01  0.7818608E-02  0.3353715E+00
         11   -1    0    0    0    0  0.00000000000E+00  0.00000000000E+00  0.39999999674E+01  0.40000000000E+01  0.51100000000E-03 0. -1.
    9000002   -1    0    0    0    0 -0.00000000000E+00 -0.00000000000E+00  0.00000000000E+00  0.93800000000E+00  0.93800000000E+00 0. -1.
         11    1    1    2    0    0 -0.48798211188E+00 -0.25148291518E+00  0.10693515787E+01  0.12020329688E+01  0.51100000000E-03 0. -1.
    9000002    1    1    2    0    0  0.11040636227E+01  0.57076205976E+00  0.15846907861E+01  0.22216693497E+01  0.93800000000E+00 0. -1.
         22    1    1    2    0    0 -0.61608151086E+00 -0.31927914458E+00  0.13459576026E+01  0.15142976815E+01  0.00000000000E+00 0.  1.
</event>
<event>
 5    1  0.1461556E+002  0.1598284E+01  0.7818608E-02  0.3355227E+00
         11   -1    0    0    0    0  0.00000000000E+00  0.00000000000E+00  0.39999999674E+01  0.40000000000E+01  0.51100000000E-03 0.  1.
    9000002   -1    0    0    0    0 -0.00000000000E+00 -0.00000000000E+00  0.00000000000E+00  0.93800000000E+00  0.93800000000E+00 0. -1.
         11    1    1    2    0    0 -0.18975340691E-03 -0.31981338701E-02  0.22963773630E+00  0.22966065210E+00  0.51100000000E-03 0.  1.
    9000002    1    1    2    0    0  0.35495571978E+00 -0.22282202739E-01  0.85992251355E-01  0.10068409640E+01  0.93800000000E+00 0. -1.
         22    1    1    2    0    0 -0.35476596637E+00  0.25480336609E-01  0.36843699797E+01  0.37014983839E+01  0.00000000000E+00 0.  1.
</event>
<event>
 5    1  0.1461556E+002  0.1593378E+01  0.7818608E-02  0.3360582E+00
         11   -1    0    0    0    0  0.00000000000E+00  0.00000000000E+00  0.39999999674E+01  0.40000000000E+01  0.51100000000E-03 0.  1.
    9000002   -1    0    0    0    0 -0.00000000000E+00 -0.00000000000E+00  0.00000000000E+00  0.93800000000E+00  0.93800000000E+00 0.  1.
         11    1    1    2    0    0 -0.82134717717E-01 -0.34173613978E-01  0.21593393832E+01  0.21611711595E+01  0.51100000000E-03 0.  1.
    9000002    1    1    2    0    0  0.31378691467E+00  0.66468102730E-02  0.70785218325E-01  0.99164557935E+00  0.93800000000E+00 0.  1.
         22    1    1    2    0    0 -0.23165219695E+00  0.27526803705E-01  0.17698753659E+01  0.17851832612E+01  0.00000000000E+00 0.  1.
</event>
<event>
 5    1  0.1461556E+002  0.1556058E+01  0.7818608E-02  0.3402482E+00
         11   -1    0    0    0    0  0.00000000000E+00  0.00000000000E+00  0.39999999674E+01  0.40000000000E+01  0.51100000000E-03 0.  1.
    9000002   -1    0    0    0    0 -0.00000000000E+00 -0.00000000000E+00  0.00000000000E+00  0.93800000000E+00  0.93800000000E+00 0.  1.
         11    1    1    2    0    0 -0.73370744197E-01 -0.23477815021E+00  0.26146288644E+01  0.26261737196E+01  0.51100000000E-03 0.  1.
    9000002    1    1    2    0    0 -0.38615240075E-01  0.27038257081E-01  0.33785632227E-01  0.93979129229E+00  0.93800000000E+00 0.  1.
         22    1    1    2    0    0  0.11198598427E+00  0.20773989313E+00  0.13515854708E+01  0.13720349881E+01  0.00000000000E+00 0.  1.
</event>
<event>
 5    1  0.1461556E+002  0.1517640E+01  0.7818608E-02  0.3447911E+00
         11   -1    0    0    0    0  0.00000000000E+00  0.00000000000E+00  0.39999999674E+01  0.40000000000E+01  0.51100000000E-03 0.  1.
    9000002   -1    0    0    0    0 -0.00000000000E+00 -0.00000000000E+00  0.00000000000E+00  0.93800000000E+00  0.93800000000E+00 0. -1.
         11    1    1    2    0    0  0.21025924382E+00  0.23072439824E+00  0.96097024169E+00  0.10103993092E+01  0.51100000000E-03 0.  1.
    9000002    1    1    2    0    0 -0.15099704856E+00  0.50086151860E-01  0.80073503158E-01  0.95475886861E+00  0.93800000000E+00 0. -1.
         22    1    1    2    0    0 -0.59262195263E-01 -0.28081055010E+00  0.29589562225E+01  0.29728418222E+01  0.00000000000E+00 0.  1.
</event>
<event>
 5    1  0.1461556E+002  0.1599675E+01  0.7818608E-02  0.3353716E+00
         11   -1    0    0    0    0  0.00000000000E+00  0.00000000000E+00  0.39999999674E+01  0.40000000000E+01  0.51100000000E-03 0. -1.
    9000002   -1    0    0    0    0 -0.00000000000E+00 -0.00000000000E+00  0.00000000000E+00  0.93800000000E+00  0.93800000000E+00 0.  1.
         11    1    1    2    0    0  0.18157061695E+00  0.15133543306E+00  0.20059093873E+01  0.20197878684E+01  0.51100000000E-03 0. -1.
    9000002    1    1    2    0    0 -0.35222068046E+00 -0.29152961827E+00  0.14213690024E+00  0.10531361852E+01  0.93800000000E+00 0.  1.
         22    1    1    2    0    0  0.17065006351E+00  0.14019418521E+00  0.18519536798E+01  0.18650759464E+01  0.00000000000E+00 0. -1.
</event>
<event>
 5    1  0.1461556E+002  0.1543259E+01  0.7818608E-02  0.3417348E+00
         11   -1    0    0    0    0  0.00000000000E+00  0.00000000000E+00  0.39999999674E+01  0.40000000000E+01  0.51100000000E-03 0.  1.
    9000002   -1    0    0    0    0 -0.00000000000E+00 -0.00000000000E+00  0.00000000000E+00  0.93800000000E+00  0.93800000000E+00 0.  1.
         11    1    1    2    0    0  0.22651403695E+00 -0.15205145128E+00  0.25876408927E+01  0.26019826870E+01  0.51100000000E-03 0.  1.
    9000002    1    1    2    0    0  0.13403737136E-01  0.23144422082E-01  0.42497229048E-01  0.93934303581E+00  0.93800000000E+00 0.  1.
         22    1    1    2    0    0 -0.23991777409E+00  0.12890702919E+00  0.13698618456E+01  0.13966742772E+01  0.00000000000E+00 0.  1.
</event>
<event>
 5    1  0.1461556E+002  0.1595412E+01  0.7818608E-02  0.3358358E+00
         11   -1    0    0    0    0  0.00000000000E+00  0.00000000000E+00  0.39999999674E+01  0.40000000000E+01  0.51100000000E-03 0.  1.
    9000002   -1    0    0    0    0 -0.00000000000E+00 -0.00000000000E+00  0.00000000000E+00  0.93800000000E+00  0.93800000000E+00 0.  1.
         11    1    1    2    0    0  0.30675526278E-01 -0.17995280958E-03  0.17168286368E+00  0.17440265794E+00  0.51100000000E-03 0.  1.
    9000002    1    1    2    0    0 -0.66280204650E-01  0.37886435131E+00  0.10310956280E+00  0.10190224944E+01  0.93800000000E+00 0.  1.
         22    1    1    2    0    0  0.35604678372E-01 -0.37868439850E+00  0.37252075409E+01  0.37445748476E+01  0.00000000000E+00 0.  1.
</event>
<event>
 5    1  0.1461556E+002  0.1598071E+01  0.7818608E-02  0.3355459E+00
         11   -1    0    0    0    0  0.00000000000E+00  0.00000000000E+00  0.39999999674E+01  0.40000000000E+01  0.51100000000E-03 0. -1.
    9000002   -1    0    0    0    0 -0.00000000000E+00 -0.00000000000E+00  0.00000000000E+00  0.93800000000E+00  0.93800000000E+00 0.  1.
         11    1    1    2    0    0  0.15800143319E+00 -0.74912964792E-02  0.15664311605E+01  0.15743974765E+01  0.51100000000E-03 0. -1.
    9000002    1    1    2    0    0 -0.48810895704E+00  0.75771365621E-01  0.16829755317E+00  0.10733870319E+01  0.93800000000E+00 0.  1.
         22    1    1    2    0    0  0.33010752384E+00 -0.68280069141E-01  0.22652712537E+01  0.22902154916E+01  0.00000000000E+00 0. -1.
</event>
<event>
 5    1  0.1461556E+002  0.1559957E+01  0.7818608E-02  0.3398006E+00
         11   -1    0    0    0    0  0.00000000000E+00  0.00000000000E+00  0.39999999674E+01  0.40000000000E+01  0.51100000000E-03 0. -1.
    9000002   -1    0    0    0    0 -0.00000000000E+00 -0.00000000000E+00  0.00000000000E+00  0.93800000000E+00  0.93800000000E+00 0. -1.
         11    1    1    2    0    0 -0.19455047375E+00 -0.10636508795E+00  0.18150051518E+01  0.18284986685E+01  0.51100000000E-03 0. -1.
    9000002    1    1    2    0    0  0.17464174138E-01 -0.93799100784E-01  0.35554767078E-01  0.94351015371E+00  0.93800000000E+00 0. -1.
         22    1    1    2    0    0  0.17708629962E+00  0.20016418874E+00  0.21494400485E+01  0.21659911778E+01  0.00000000000E+00 0.  1.
</event>
<event>
 5    1  0.1461556E+002  0.1599301E+01  0.7818608E-02  0.3354123E+00
         11   -1    0    0    0    0  0.00000000000E+00  0.00000000000E+00  0.39999999674E+01  0.40000000000E+01  0.51100000000E-03 0. -1.
    9000002   -1    0    0    0    0 -0.00000000000E+00 -0.00000000000E+00  0.00000000000E+00  0.93800000000E+00  0.93800000000E+00 0. -1.
         11    1    1    2    0    0 -0.71957803637E-03 -0.53058986098E-03  0.18955394676E-02  0.21571993474E-02  0.51100000000E-03 0. -1.
    9000002    1    1    2    0    0  0.90042483517E-01 -0.19395921707E+00  0.30582302033E-01  0.96255239022E+00  0.93800000000E+00 0. -1.
         22    1    1    2    0    0 -0.89322905481E-01  0.19448980693E+00  0.39675221259E+01  0.39732904104E+01  0.00000000000E+00 0. -1.
</event>
<event>
 5    1  0.1461556E+002  0.1599648E+01  0.7818608E-02  0.3353746E+00
         11   -1    0    0    0    0  0.00000000000E+00  0.00000000000E+00  0.39999999674E+01  0.40000000000E+01  0.51100000000E-03 0. -1.
    9000002   -1    0    0    0    0 -0.00000000000E+00 -0.00000000000E+00  0.00000000000E+00  0.93800000000E+00  0.93800000000E+00 0. -1.
         11    1    1    2    0    0 -0.53067300480E-01 -0.78902410270E-01  0.94830372722E+00  0.95305925781E+00  0.51100000000E-03 0. -1.
    9000002    1    1    2    0    0  0.24040679140E+00  0.31988676185E+00  0.10803266361E+00  0.10254940381E+01  0.93800000000E+00 0. -1.
         22    1    1    2    0    0 -0.18733949092E+00 -0.24098435158E+00  0.29436635765E+01  0.29594467041E+01  0.00000000000E+00 0. -1.
</event>
<event>
 5    1  0.1461556E+002  0.1599551E+01  0.7818608E-02  0.3353850E+00
         11   -1    0    0    0    0  0.00000000000E+00  0.00000000000E+00  0.39999999674E+01  0.40000000000E+01  0.51100000000E-03 0. -1.
    9000002   -1    0    0    0    0 -0.00000000000E+00 -0.00000000000E+00  0.00000000000E+00  0.93800000000E+00  0.93800000000E+00 0.  1.
         11    1    1    2    0    0 -0.14196498429E-01 -0.13364465038E-01  0.23137818104E+00  0.23219877966E+00  0.51100000000E-03 0. -1.
    9000002    1    1    2    0    0  0.18253051362E+00  0.13935858036E+00  0.35076412584E-01  0.96633977308E+00  0.93800000000E+00 0.  1.
         22    1    1    2    0    0 -0.16833401519E+00 -0.12599411532E+00  0.37335453737E+01  0.37394614473E+01  0.00000000000E+00 0. -1.
</event>
<event>
 5    1  0.1461556E+002  0.1599628E+01  0.7818608E-02  0.3353767E+00
         11   -1    0    0    0    0  0.00000000000E+00  0.00000000000E+00  0.39999999674E+01  0.40000000000E+01  0.51100000000E-03 0.  1.
    9000002   -1    0    0    0    0 -0.00000000000E+00 -0.00000000000E+00  0.00000000000E+00  0.93800000000E+00  0.93800000000E+00 0.  1.
         11    1    1    2    0    0  0.18905463435E-01  0.20882897501E-01  0.28888488675E+00  0.29025549240E+00  0.51100000000E-03 0.  1.
    9000002    1    1    2    0    0 -0.23674809618E+00 -0.33720921424E+00  0.11472700687E+00  0.10309054279E+01  0.93800000000E+00 0.  1.
         22    1    1    2    0    0  0.21784263274E+00  0.31632631674E+00  0.35963880737E+01  0.36168390797E+01  0.00000000000E+00 0.  1.
</event>
<event>
 5    1  0.1461556E+002  0.1449994E+01  0.7818608E-02  0.3534213E+00
         11   -1    0    0    0    0  0.00000000000E+00  0.00000000000E+00  0.39999999674E+01  0.40000000000E+01  0.51100000000E-03 0.  1.
    9000002   -1    0    0    0    0 -0.00000000000E+00 -0.00000000000E+00  0.00000000000E+00  0.93800000000E+00  0.93800000000E+00 0.  1.
         11    1    1    2    0    0 -0.46685538274E+00  0.15786807926E+00  0.19216462555E+01  0.19838348901E+01  0.51100000000E-03 0.  1.
    9000002    1    1    2    0    0  0.46270362200E-01 -0.35669507484E-01  0.12001730867E+00  0.94744995359E+00  0.93800000000E+00 0.  1.
         22    1    1    2    0    0  0.42058502054E+00 -0.12219857178E+00  0.19583364032E+01  0.20067151563E+01  0.00000000000E+00 0.  1.
</event>
<event>
 5    1  0.1461556E+002  0.1585935E+01  0.7818608E-02  0.3368772E+00
         11   -1    0    0    0    0  0.00000000000E+00  0.00000000000E+00  0.39999999674E+01  0.40000000000E+01  0.51100000000E-03 0. -1.
    9000002   -1    0    0    0    0 -0.00000000000E+00 -0.00000000000E+00  0.00000000000E+00  0.93800000000E+00  0.93800000000E+00 0.  1.
         11    1    1    2    0    0  0.66751944838E-01 -0.10049555811E+00  0.57002328238E+00  0.58265082418E+00  0.51100000000E-03 0. -1.
    9000002    1    1    2    0    0 -0.35135313206E+00  0.11754760945E-01  0.94040190954E-01  0.10061186587E+01  0.93800000000E+00 0.  1.
         22    1    1    2    0    0  0.28460118722E+00  0.88740797163E-01  0.33359364940E+01  0.33492305171E+01  0.00000000000E+00 0. -1.
</event>
<event>
 5    1  0.1461556E+002  0.1633880E+01  0.7818608E-02  0.3317393E+00
         11   -1    0    0    0    0  0.00000000000E+00  0.00000000000E+00  0.39999999674E+01  0.40000000000E+01  0.51100000000E-03 0. -1.
    9000002   -1    0    0    0    0 -0.00000000000E+00 -0.00000000000E+00  0.00000000000E+00  0.93800000000E+00  0.93800000000E+00 0. -1.
         11    1    1    2    0    0  0.33959764312E+00 -0.40035052559E+00  0.40817952642E+00  0.66499465371E+00  0.51100000000E-03 0. -1.
    9000002    1    1    2    0    0 -0.36020232345E+00  0.58939288942E-03  0.44174986357E+00  0.10976032995E+01  0.93800000000E+00 0. -1.
         22    1    1    2    0    0  0.20604680325E-01  0.39976113270E+00  0.31500705774E+01  0.31754020467E+01  0.00000000000E+00 0. -1.
</event>
<event>
 5    1  0.1461556E+002  0.1597190E+01  0.7818608E-02  0.3356418E+00
         11   -1    0    0    0    0  0.00000000000E+00  0.00000000000E+00  0.39999999674E+01  0.40000000000E+01  0.51100000000E-03 0.  1.
    9000002   -1    0    0    0    0 -0.00000000000E+00 -0.00000000000E+00  0.00000000000E+00  0.93800000000E+00  0.93800000000E+00 0.  1.
         11    1    1    2    0    0 -0.10412538846E+00 -0.18722762816E+00  0.24987629159E+01  0.25079299536E+01  0.51100000000E-03 0.  1.
    9000002    1    1    2    0    0  0.16891514674E+00  0.38028473649E+00  0.11913551095E+00  0.10330469871E+01  0.93800000000E+00 0.  1.
         22    1    1    2    0    0 -0.64789758281E-01 -0.19305710833E+00  0.13821015406E+01  0.13970230593E+01  0.00000000000E+00 0.  1.
</event>
<event>
 5    1  0.1461556E+002  0.1594910E+01  0.7818608E-02  0.3358906E+00
         11   -1    0    0    0    0  0.00000000000E+00  0.00000000000E+00  0.39999999674E+01  0.40000000000E+01  0.51100000000E-03 0.  1.
    9000002   -1    0    0    0    0 -0.00000000000E+00 -0.00000000000E+00  0.00000000000E+00  0.93800000000E+00  0.93800000000E+00 0.  1.
         11    1    1    2    0    0  0.71095889868E-01 -0.93125800946E-02  0.74351716325E+00  0.74696678833E+00  0.51100000000E-03 0.  1.
    9000002    1    1    2    0    0 -0.80317239556E-01  0.22421146387E+00  0.41279731026E-01  0.96864320350E+00  0.93800000000E+00 0.  1.
         22    1    1    2    0    0  0.92213496877E-02 -0.21489888378E+00  0.32152030731E+01  0.32223900082E+01  0.00000000000E+00 0.  1.
</event>
<event>
 5    1  0.1461556E+002  0.1599635E+01  0.7818608E-02  0.3353760E+00
         11   -1    0    0    0    0  0.00000000000E+00  0.00000000000E+00  0.39999999674E+01  0.40000000000E+01  0.51100000000E-03 0.  1.
    9000002   -1    0    0    0    0 -0.00000000000E+00 -0.00000000000E+00  0.00000000000E+00  0.93800000000E+00  0.93800000000E+00 0.  1.
         11    1    1    2    0    0 -0.12481671497E+00  0.59713645581E-01  0.11684386685E+01  0.11766027856E+01  0.51100000000E-03 0.  1.
    9000002    1    1    2    0    0  0.40349413868E+00 -0.17591695928E+00  0.13144307300E+00  0.10444498925E+01  0.93800000000E+00 0.  1.
         22    1    1    2    0    0 -0.27867742371E+00  0.11620331370E+00  0.27001182259E+01  0.27169473219E+01  0.00000000000E+00 0.  1.
</event>
<event>
 5    1  0.1461556E+002  0.1599583E+01  0.7818608E-02  0.3353816E+00
         11   -1    0    0    0    0  0.00000000000E+00  0.00000000000E+00  0.39999999674E+01  0.40000000000E+01  0.51100000000E-03 0. -1.
    9000002   -1    0    0    0    0 -0.00000000000E+00 -0.00000000000E+00  0.00000000000E+00  0.93800000000E+00  0.93800000000E+00 0. -1.
         11    1    1    2    0    0  0.96916072067E-02 -0.43387585239E-01  0.76090749173E+00  0.76220527543E+00  0.51100000000E-03 0. -1.
    9000002    1    1    2    0    0 -0.92529329720E-01  0.24782231227E+00  0.46610903086E-01  0.97570187640E+00  0.93800000000E+00 0. -1.
         22    1    1    2    0    0  0.82837722513E-01 -0.20443472703E+00  0.31924815725E+01  0.32000928482E+01  0.00000000000E+00 0. -1.
</event>
<event>
 5    1  0.1461556E+002  0.1583456E+01  0.7818608E-02  0.3371517E+00
         11   -1    0    0    0    0  0.00000000000E+00  0.00000000000E+00  0.39999999674E+01  0.40000000000E+01  0.51100000000E-03 0.  1.
    9000002   -1    0    0    0    0 -0.00000000000E+00 -0.00000000000E+00  0.00000000000E+00  0.93800000000E+00  0.93800000000E+00 0.  1.
         11    1    1    2    0    0  0.31389209103E-01 -0.97342746511E-01  0.82312879480E+00  0.82945896023E+00  0.51100000000E-03 0.  1.
    9000002    1    1    2    0    0 -0.20440161813E+00 -0.12792663767E+00  0.51052009097E-01  0.96984305625E+00  0.93800000000E+00 0.  1.
         22    1    1    2    0    0  0.17301240903E+00  0.22526938418E+00  0.31258191635E+01  0.31386979835E+01  0.00000000000E+00 0.  1.
</event>
<event>
 5    1  0.1461556E+002  0.1528249E+01  0.7818608E-02  0.3435121E+00
         11   -1    0    0    0    0  0.00000000000E+00  0.00000000000E+00  0.39999999674E+01  0.40000000000E+01  0.51100000000E-03 0.  1.
    9000002   -1    0    0    0    0 -0.00000000000E+00 -0.00000000000E+00  0.00000000000E+00  0.93800000000E+00  0.93800000000E+00 0. -1.
         11    1    1    2    0    0 -0.18949272313E+00  0.25072792957E+00  0.31428489948E+01  0.31585237141E+01  0.51100000000E-03 0.  1.
    9000002    1    1    2    0    0  0.38885094969E-02 -0.87388905693E-01  0.59008127589E-01  0.94391625713E+00  0.93800000000E+00 0. -1.
         22    1    1    2    0    0  0.18560421363E+00 -0.16333902388E+00  0.79814284493E+00  0.83556002881E+00  0.00000000000E+00 0. -1.
</event>
<event>
 5    1  0.1461556E+002  0.1599677E+01  0.7818608E-02  0.3353714E+00
         11   -1    0    0    0    0  0.00000000000E+00  0.00000000000E+00  0.39999999674E+01  0.40000000000E+01  0.51100000000E-03 0. -1.
    9000002   -1    0    0    0    0 -0.00000000000E+00 -0.00000000000E+00  0.00000000000E+00  0.93800000000E+00  0.93800000000E+00 0.  1.
         11    1    1    2    0    0 -0.34082265975E+00 -0.83317993257E-01  0.18701968434E+01  0.19028238142E+01  0.51100000000E-03 0. -1.
    9000002    1    1    2    0    0  0.66764610312E+00  0.16448740472E+00  0.33679519249E+00  0.12108189076E+01  0.93800000000E+00 0.  1.
         22    1    1    2    0    0 -0.32682344336E+00 -0.81169411461E-01  0.17930079314E+01  0.18243572782E+01  0.00000000000E+00 0.  1.
</event>
<event>
 5    1  0.1605235E+002  0.1587675E+01  0.7818608E-02  0.3366851E+00
         11   -1    0    0    0    0  0.00000000000E+00  0.00000000000E+00  0.39999999674E+01  0.40000000000E+01  0.51100000000E-03 0. -1.
    9000002   -1    0    0    0    0 -0.00000000000E+00 -0.00000000000E+00  0.00000000000E+00  0.93800000000E+00  0.93800000000E+00 0.  1.
         11    1    1    2    0    0  0.72864352855E-01  0.32639482028E-01  0.96569933711E+00  0.96899433461E+00  0.51100000000E-03 0. -1.
    9000002    1    1    2    0    0  0.80740719004E-01  0.13340065553E+00  0.24984740283E-01  0.95120083886E+00  0.93800000000E+00 0.  1.
         22    1    1    2    0    0 -0.15360507186E+00 -0.16604013756E+00  0.30093158900E+01  0.30178048265E+01  0.00000000000E+00 0. -1.
</event>
<event>
 5    1  0.1461556E+002  0.1599575E+01  0.7818608E-02  0.3353825E+00
         11   -1    0    0    0    0  0.00000000000E+00  0.00000000000E+00  0.39999999674E+01  0.40000000000E+01  0.51100000000E-03 0. -1.
    9000002   -1    0    0    0    0 -0.00000000000E+00 -0.00000000000E+00  0.00000000000E+00  0.93800000000E+00  0.93800000000E+00 0.  1.
         11    1    1    2    0    0  0.18104263367E-01  0.28970100196E-01  0.32174903724E+00  0.32355793167E+00  0.51100000000E-03 0. -1.
    9000002    1    1    2    0    0 -0.15544465042E+00 -0.30449955314E+00  0.78383566831E-01  0.10014344715E+01  0.93800000000E+00 0.  1.
         22    1    1    2    0    0  0.13734038705E+00  0.27552945294E+00  0.35998673633E+01  0.36130075968E+01  0.00000000000E+00 0. -1.
</event>
<event>
 5    1  0.1461556E+002  0.1599677E+01  0.7818608E-02  0.3353714E+00
         11   -1    0    0    0    0  0.00000000000E+00  0.00000000000E+00  0.39999999674E+01  0.40000000000E+01  0.51100000000E-03 0. -1.
    9000002   -1    0    0    0    0 -0.00000000000E+00 -0.00000000000E+00  0.00000000000E+00  0.93800000000E+00  0.93800000000E+00 0.  1.
         11    1    1    2    0    0  0.19732136895E+00  0.25890173419E-02  0.18948110140E+01  0.19050594388E+01  0.51100000000E-03 0. -1.
    9000002    1    1    2    0    0 -0.40391886236E+00 -0.58562604580E-02  0.11012787583E+00  0.10272083003E+01  0.93800000000E+00 0.  1.
         22    1    1    2    0    0  0.20659749341E+00  0.32672431161E-02  0.19950610775E+01  0.20057322609E+01  0.00000000000E+00 0. -1.
</event>
<event>
 5    1  0.1461556E+002  0.1599646E+01  0.7818608E-02  0.3353748E+00
         11   -1    0    0    0    0  0.00000000000E+00  0.00000000000E+00  0.39999999674E+01  0.40000000000E+01  0.51100000000E-03 0.  1.
    9000002   -1    0    0    0    0 -0.00000000000E+00 -0.00000000000E+00  0.00000000000E+00  0.93800000000E+00  0.93800000000E+00 0.  1.
         11    1    1    2    0    0 -0.10344236206E-01 -0.31620062191E-02  0.95566863664E-01  0.96178417837E-01  0.51100000000E-03 0.  1.
    9000002    1    1    2    0    0  0.34388155382E+00  0.10751190439E+00  0.87166768215E-01  0.10085907882E+01  0.93800000000E+00 0.  1.
         22    1    1    2    0    0 -0.33353731761E+00 -0.10434989817E+00  0.38172663355E+01  0.38332307939E+01  0.00000000000E+00 0.  1.
</event>
<event>
 5    1  0.2989717E+002  0.1564134E+01  0.7818608E-02  0.3393235E+00
         11   -1    0    0    0    0  0.00000000000E+00  0.00000000000E+00  0.39999999674E+01  0.40000000000E+01  0.51100000000E-03 0.  1.
    9000002   -1    0    0    0    0 -0.00000000000E+00 -0.00000000000E+00  0.00000000000E+00  0.93800000000E+00  0.93800000000E+00 0. -1.
         11    1    1    2    0    0 -0.85255868717E-01  0.15244359074E+00  0.76878190866E+00  0.78837395677E+00  0.51100000000E-03 0.  1.
    9000002    1    1    2    0    0  0.49640197111E-02  0.33009398468E-01  0.26938627214E-01  0.93898027217E+00  0.93800000000E+00 0. -1.
         22    1    1    2    0    0  0.80291849006E-01 -0.18545298920E+00  0.32042794315E+01  0.32106457711E+01  0.00000000000E+00 0.  1.
</event>
<event>
 5    1  0.1461556E+002  0.1598946E+01  0.7818608E-02  0.3354508E+00
         11   -1    0    0    0    0  0.00000000000E+00  0.00000000000E+00  0.39999999674E+01  0.40000000000E+01  0.51100000000E-03 0.  1.
    9000002   -1    0    0    0    0 -0.00000000000E+00 -0.00000000000E+00  0.00000000000E+00  0.93800000000E+00  0.93800000000E+00 0. -1.
         11    1    1    2    0    0 -0.22039136409E+00  0.91840589096E-01  0.20235069874E+01  0.20375445606E+01  0.51100000000E-03 0.  1.
    9000002    1    1    2    0    0  0.47260919923E+00 -0.19814948659E+00  0.18082838724E+00  0.10840505430E+01  0.93800000000E+00 0. -1.
         22    1    1    2    0    0 -0.25221783514E+00  0.10630889749E+00  0.17956645928E+01  0.18164048964E+01  0.00000000000E+00 0.  1.
</event>
<event>
 5    1  0.1461556E+002  0.1599561E+01  0.7818608E-02  0.3353840E+00
         11   -1    0    0    0    0  0.00000000000E+00  0.00000000000E+00  0.39999999674E+01  0.40000000000E+01  0.51100000000E-03 0.  1.
    9000002   -1    0    0    0    0 -0.00000000000E+00 -0.00000000000E+00  0.00000000000E+00  0.93800000000E+00  0.93800000000E+00 0. -1.
         11    1    1    2    0    0 -0.56966995338E-01  0.18012926239E+00  0.17364554059E+01  0.17467024439E+01  0.51100000000E-03 0.  1.
    9000002    1    1    2    0    0  0.12673701942E+00 -0.42961389959E+00  0.13632297785E+00  0.10483598281E+01  0.93800000000E+00 0. -1.
         22    1    1    2    0    0 -0.69770024083E-01  0.24948463721E+00  0.21272215836E+01  0.21429377280E+01  0.00000000000E+00 0.  1.
</event>
<event>
 5    1  0.1461556E+002  0.1599660E+01  0.7818608E-02  0.3353732E+00
         11   -1    0    0    0    0  0.00000000000E+00  0.00000000000E+00  0.39999999674E+01  0.40000000000E+01  0.51100000000E-03 0. -1.
    9000002   -1    0    0    0    0 -0.00000000000E+00 -0.00000000000E+00  0.00000000000E+00  0.93800000000E+00  0.93800000000E+00 0. -1.
         11    1    1    2    0    0  0.64881839748E-01 -0.81816335590E-01  0.13544401958E+01  0.13584594477E+01  0.51100000000E-03 0. -1.
    9000002    1    1    2    0    0 -0.20207907474E+00  0.23710296953E+00  0.64829897537E-01  0.99050526815E+00  0.93800000000E+00 0. -1.
         22    1    1    2    0    0  0.13719723500E+00 -0.15528663394E+00  0.25807298740E+01  0.25890352841E+01  0.00000000000E+00 0. -1.
</event>
<event>
 5    1  0.1461556E+002  0.1599677E+01  0.7818608E-02  0.3353714E+00
         11   -1    0    0    0    0  0.00000000000E+00  0.00000000000E+00  0.39999999674E+01  0.40000000000E+01  0.51100000000E-03 0. -1.
    9000002   -1    0    0    0    0 -0.00000000000E+00 -0.00000000000E+00  0.00000000000E+00  0.93800000000E+00  0.93800000000E+00 0.  1.
         11    1    1    2    0    0  0.31056661902E+00  0.44143549998E+00  0.25582415133E+01  0.26145586294E+01  0.51100000000E-03 0. -1.
    9000002    1    1    2    0    0 -0.43490783728E+00 -0.61859752312E+00  0.41530098528E+00  0.12744122688E+01  0.93800000000E+00 0.  1.
         22    1    1    2    0    0  0.12434121827E+00  0.17716202314E+00  0.10264574688E+01  0.10490291017E+01  0.00000000000E+00 0. -1.
</event>
<event>
 5    1  0.1461556E+002  0.1595294E+01  0.7818608E-02  0.3358487E+00
         11   -1    0    0    0    0  0.00000000000E+00  0.00000000000E+00  0.39999999674E+01  0.40000000000E+01  0.51100000000E-03 0. -1.
    9000002   -1    0    0    0    0 -0.00000000000E+00 -0.00000000000E+00  0.00000000000E+00  0.93800000000E+00  0.93800000000E+00 0. -1.
         11    1    1    2    0    0 -0.45721405577E+00  0.29254627070E+00  0.25534299522E+01  0.26104851647E+01  0.51100000000E-03 0. -1.
    9000002    1    1    2    0    0  0.72360769902E+00 -0.38492491400E+00  0.50410750228E+00  0.13437796193E+01  0.93800000000E+00 0. -1.
         22    1    1    2    0    0 -0.26639364325E+00  0.92378643300E-01  0.94246251286E+00  0.98373521592E+00  0.00000000000E+00 0.  1.
</event>
<event>
 5    1  0.1461556E+002  0.1543118E+01  0.7818608E-02  0.3417513E+00
         11   -1    0    0    0    0  0.00000000000E+00  0.00000000000E+00  0.39999999674E+01  0.40000000000E+01  0.51100000000E-03 0.  1.
    9000002   -1    0    0    0    0 -0.00000000000E+00 -0.00000000000E+00  0.00000000000E+00  0.93800000000E+00  0.93800000000E+00 0.  1.
         11    1    1    2    0    0 -0.51624730910E-02  0.49705056216E-01  0.70439381792E-02  0.50469019487E-01  0.51100000000E-03 0.  1.
    9000002    1    1    2    0    0  0.17906392374E+00 -0.15886907562E+00  0.82373631300E-01  0.97156198315E+00  0.93800000000E+00 0.  1.
         22    1    1    2    0    0 -0.17390145065E+00  0.10916401941E+00  0.39105823979E+01  0.39159689974E+01  0.00000000000E+00 0.  1.
</event>
<event>
 5    1  0.1461556E+002  0.1599664E+01  0.7818608E-02  0.3353728E+00
         11   -1    0    0    0    0  0.00000000000E+00  0.00000000000E+00  0.39999999674E+01  0.40000000000E+01  0.51100000000E-03 0.  1.
    9000002   -1    0    0    0    0 -0.00000000000E+00 -0.00000000000E+00  0.00000000000E+00  0.93800000000E+00  0.93800000000E+00 0. -1.
         11    1    1    2    0    0 -0.35566734789E-01  0.39627168935E-01  0.52400189948E+00  0.52670063311E+00  0.51100000000E-03 0.  1.
    9000002    1    1    2    0    0  0.24313151701E+00 -0.29621324794E+00  0.98859267905E-01  0.10180728744E+01  0.93800000000E+00 0. -1.
         22    1    1    2    0    0 -0.20756478222E+00  0.25658607901E+00  0.33771388000E+01  0.33932264925E+01  0.00000000000E+00 0.  1.
</event>
<event>
 5    1  0.1461556E+002  0.1528179E+01  0.7818608E-02  0.3435205E+00
         11   -1    0    0    0    0  0.00000000000E+00  0.00000000000E+00  0.39999999674E+01  0.40000000000E+01  0.51100000000E-03 0.  1.
    9000002   -1    0    0    0    0 -0.00000000000E+00 -0.00000000000E+00  0.00000000000E+00  0.93800000000E+00  0.93800000000E+00 0.  1.
         11    1    1    2    0    0  0.10585655317E+00 -0.26063464667E+00  0.16480714387E+01  0.16719078196E+01  0.51100000000E-03 0.  1.
    9000002    1    1    2    0    0  0.78779718287E-01 -0.59325250126E-01  0.60533625701E-01  0.94511060155E+00  0.93800000000E+00 0.  1.
         22    1    1    2    0    0 -0.18463627145E+00  0.31995989680E+00  0.22913949029E+01  0.23209815789E+01  0.00000000000E+00 0.  1.
</event>
<event>
 5    1  0.1461556E+002  0.1453040E+01  0.7818608E-02  0.3530139E+00
         11   -1    0    0    0    0  0.00000000000E+00  0.00000000000E+00  0.39999999674E+01  0.40000000000E+01  0.51100000000E-03 0. -1.
    9000002   -1    0    0    0    0 -0.00000000000E+00 -0.00000000000E+00  0.00000000000E+00  0.93800000000E+00  0.93800000000E+00 0.  1.
         11    1    1    2    0    0 -0.32829961893E+00 -0.24004244956E+00  0.63561325848E+00  0.75458961883E+00  0.51100000000E-03 0. -1.
    9000002    1    1    2    0    0  0.11202711368E+00  0.35356159404E+00  0.22361112439E+00  0.10331513974E+01  0.93800000000E+00 0.  1.
         22    1    1    2    0    0  0.21627250525E+00 -0.11351914449E+00  0.31407755845E+01  0.31502589838E+01  0.00000000000E+00 0. -1.
</event>
<event>
 5    1  0.1461556E+002  0.1599666E+01  0.7818608E-02  0.3353726E+00
         11   -1    0    0    0    0  0.00000000000E+00  0.00000000000E+00  0.39999999674E+01  0.40000000000E+01  0.51100000000E-03 0.  1.
    9000002   -1    0    0    0    0 -0.00000000000E+00 -0.00000000000E+00  0.00000000000E+00  0.93800000000E+00  0.93800000000E+00 0. -1.
         11    1    1    2    0    0  0.45134175435E-02 -0.18271829009E-01  0.22879681436E+00  0.22957019418E+00  0.51100000000E-03 0.  1.
    9000002    1    1    2    0    0 -0.60818919533E-01  0.33997625615E+00  0.79948908343E-01  0.10027555154E+01  0.93800000000E+00 0. -1.
         22    1    1    2    0    0  0.56305501989E-01 -0.32170442714E+00  0.36912542447E+01  0.37056742904E+01  0.00000000000E+00 0.  1.
</event>
<event>
 5    1  0.1461556E+002  0.1599530E+01  0.7818608E-02  0.3353874E+00
         11   -1    0    0    0    0  0.00000000000E+00  0.00000000000E+00  0.39999999674E+01  0.40000000000E+01  0.51100000000E-03 0. -1.
    9000002   -1    0    0    0    0 -0.00000000000E+00 -0.00000000000E+00  0.00000000000E+00  0.93800000000E+00  0.93800000000E+00 0.  1.
         11    1    1    2    0    0 -0.15910701851E-01  0.21976866857E-01  0.51119342320E+00  0.51191318615E+00  0.51100000000E-03 0. -1.
    9000002    1    1    2    0    0  0.10898271723E+00 -0.24437255240E+00  0.47739773515E-01  0.97658500039E+00  0.93800000000E+00 0.  1.
         22    1    1    2    0    0 -0.93072015382E-01  0.22239568554E+00  0.34410667706E+01  0.34495018135E+01  0.00000000000E+00 0. -1.
</event>
<event>
 5    1  0.1461556E+002  0.1569857E+01  0.7818608E-02  0.3386744E+00
         11   -1    0    0    0    0  0.00000000000E+00  0.00000000000E+00  0.39999999674E+01  0.40000000000E+01  0.51100000000E-03 0.  1.
    9000002   -1    0    0    0    0 -0.00000000000E+00 -0.00000000000E+00  0.00000000000E+00  0.93800000000E+00  0.93800000000E+00 0.  1.
         11    1    1    2    0    0 -0.22523355918E+00 -0.12477014484E+00  0.23881508754E+01  0.24019913843E+01  0.51100000000E-03 0.  1.
    9000002    1    1    2    0    0  0.24475939315E+00  0.49458592772E+00  0.23917713766E+00  0.11142585443E+01  0.93800000000E+00 0.  1.
         22    1    1    2    0    0 -0.19525833970E-01 -0.36981578287E+00  0.13726719543E+01  0.14217500714E+01  0.00000000000E+00 0.  1.
</event>
<event>
 5    1  0.1461556E+002  0.1599612E+01  0.7818608E-02  0.3353784E+00
         11   -1    0    0    0    0  0.00000000000E+00  0.00000000000E+00  0.39999999674E+01  0.40000000000E+01  0.51100000000E-03 0.  1.
    9000002   -1    0    0    0    0 -0.00000000000E+00 -0.00000000000E+00  0.00000000000E+00  0.93800000000E+00  0.93800000000E+00 0.  1.
         11    1    1    2    0    0  0.37738062660E-01  0.40014991940E+00  0.24580392381E+01  0.24906828936E+01  0.51100000000E-03 0.  1.
    9000002    1    1    2    0    0 -0.43602304414E-01 -0.61084039097E+00  0.26242544413E+00  0.11505382470E+01  0.93800000000E+00 0.  1.
         22    1    1    2    0    0  0.58642417545E-02  0.21069047157E+00  0.12795352851E+01  0.12967788594E+01  0.00000000000E+00 0.  1.
</event>
<event>
 5    1  0.1461556E+002  0.1599671E+01  0.7818608E-02  0.3353721E+00
         11   -1    0    0    0    0  0.00000000000E+00  0.00000000000E+00  0.39999999674E+01  0.40000000000E+01  0.51100000000E-03 0. -1.
    9000002   -1    0    0    0    0 -0.00000000000E+00 -0.00000000000E+00  0.00000000000E+00  0.93800000000E+00  0.93800000000E+00 0. -1.
         11    1    1    2    0    0  0.50861475860E-01  0.19492499136E+00  0.15575023580E+01  0.15704765195E+01  0.51100000000E-03 0. -1.
    9000002    1    1    2    0    0 -0.12089218943E+00 -0.48507229857E+00  0.17108033375E+00  0.10765790899E+01  0.93800000000E+00 0. -1.
         22    1    1    2    0    0  0.70030713575E-01  0.29014730721E+00  0.22714172756E+01  0.22909443906E+01  0.00000000000E+00 0. -1.
</event>
<event>
 5    1  0.1461556E+002  0.1599677E+01  0.7818608E-02  0.3353714E+00
         11   -1    0    0    0    0  0.00000000000E+00  0.00000000000E+00  0.39999999674E+01  0.40000000000E+01  0.51100000000E-03 0.  1.
    9000002   -1    0    0    0    0 -0.00000000000E+00 -0.00000000000E+00  0.00000000000E+00  0.93800000000E+00  0.93800000000E+00 0.  1.
         11    1    1    2    0    0  0.13511010681E+00  0.56406838804E+00  0.19438291402E+01  0.20285215983E+01  0.51100000000E-03 0.  1.
    9000002    1    1    2    0    0 -0.22711992571E+00 -0.94457379326E+00  0.74748635854E+00  0.15434969931E+01  0.93800000000E+00 0.  1.
         22    1    1    2    0    0  0.92009818897E-01  0.38050540523E+00  0.13086844686E+01  0.13659814085E+01  0.00000000000E+00 0.  1.
</event>
<event>
 5    1  0.1461556E+002  0.1599659E+01  0.7818608E-02  0.3353733E+00
         11   -1    0    0    0    0  0.00000000000E+00  0.00000000000E+00  0.39999999674E+01  0.40000000000E+01  0.51100000000E-03 0.  1.
    9000002   -1    0    0    0    0 -0.00000000000E+00 -0.00000000000E+00  0.00000000000E+00  0.93800000000E+00  0.93800000000E+00 0.  1.
         11    1    1    2    0    0  0.99614383393E-01 -0.79104401034E-01  0.12840678827E+01  0.12903530990E+01  0.51100000000E-03 0.  1.
    9000002    1    1    2    0    0 -0.28888603646E+00  0.24453079233E+00  0.96381633235E-01  0.10160629260E+01  0.93800000000E+00 0.  1.
         22    1    1    2    0    0  0.18927165306E+00 -0.16542639130E+00  0.26195504514E+01  0.26315839749E+01  0.00000000000E+00 0.  1.
</event>
<event>
 5    1  0.1461556E+002  0.1599588E+01  0.7818608E-02  0.3353811E+00
         11   -1    0    0    0    0  0.00000000000E+00  0.00000000000E+00  0.39999999674E+01  0.40000000000E+01  0.51100000000E-03 0.  1.
    9000002   -1    0    0    0    0 -0.00000000000E+00 -0.00000000000E+00  0.00000000000E+00  0.93800000000E+00  0.93800000000E+00 0. -1.
         11    1    1    2    0    0  0.20851132041E+00  0.63045414936E-01  0.19049108373E+01  0.19173255472E+01  0.51100000000E-03 0.  1.
    9000002    1    1    2    0    0 -0.43921965195E+00 -0.11178237652E+00  0.13965459674E+00  0.10510740263E+01  0.93800000000E+00 0. -1.
         22    1    1    2    0    0  0.23070833154E+00  0.48736961588E-01  0.19554345334E+01  0.19696004265E+01  0.00000000000E+00 0.  1.
</event>
<event>
 5    1  0.1461556E+002  0.1599105E+01  0.7818608E-02  0.3354335E+00
         11   -1    0    0    0    0  0.00000000000E+00  0.00000000000E+00  0.39999999674E+01  0.40000000000E+01  0.51100000000E-03 0. -1.
    9000002   -1    0    0    0    0 -0.00000000000E+00 -0.00000000000E+00  0.00000000000E+00  0.93800000000E+00  0.93800000000E+00 0. -1.
         11    1    1    2    0    0 -0.85560799671E-02 -0.15302257531E-01  0.10828687406E+00  0.10969810301E+00  0.51100000000E-03 0. -1.
    9000002    1    1    2    0    0  0.20820148732E+00  0.22811932492E+00  0.64136202740E-01  0.98961797590E+00  0.93800000000E+00 0. -1.
         22    1    1    2    0    0 -0.19964540735E+00 -0.21281706739E+00  0.38275768906E+01  0.38386839211E+01  0.00000000000E+00 0. -1.
</event>
<event>
 5    1  0.1461556E+002  0.1599675E+01  0.7818608E-02  0.3353716E+00
         11   -1    0    0    0    0  0.00000000000E+00  0.00000000000E+00  0.39999999674E+01  0.40000000000E+01  0.51100000000E-03 0.  1.
    9000002   -1    0    0    0    0 -0.00000000000E+00 -0.00000000000E+00  0.00000000000E+00  0.93800000000E+00  0.93800000000E+00 0. -1.
         11    1    1    2    0    0  0.28962814557E-01 -0.22154387146E-01  0.48010917669E+00  0.48149220571E+00  0.51100000000E-03 0.  1.
    9000002    1    1    2    0    0 -0.24593296801E+00  0.18124811226E+00  0.62297925171E-01  0.98846291505E+00  0.93800000000E+00 0. -1.
         22    1    1    2    0    0  0.21697015345E+00 -0.15909372511E+00  0.34575928655E+01  0.34680448792E+01  0.00000000000E+00 0.  1.
</event>
<event>
 5    1  0.1461556E+002  0.1586047E+01  0.7818608E-02  0.3368648E+00
         11   -1    0    0    0    0  0.00000000000E+00  0.00000000000E+00  0.39999999674E+01  0.40000000000E+01  0.51100000000E-03 0. -1.
    9000002   -1    0    0    0    0 -0.00000000000E+00 -0.00000000000E+00  0.00000000000E+00  0.93800000000E+00  0.93800000000E+00 0. -1.
         11    1    1    2    0    0 -0.11174099340E+00  0.12823757501E+00  0.17844049638E+01  0.17924933086E+01  0.51100000000E-03 0. -1.
    9000002    1    1    2    0    0 -0.34547685139E-01 -0.40450936603E+00  0.12273916564E+00  0.10294320145E+01  0.93800000000E+00 0. -1.
         22    1    1    2    0    0  0.14628867854E+00  0.27627179102E+00  0.20928558379E+01  0.21160746769E+01  0.00000000000E+00 0. -1.
</event>
<event>
 5    1  0.1461556E+002  0.1599677E+01  0.7818608E-02  0.3353714E+00
         11   -1    0    0    0    0  0.00000000000E+00  0.00000000000E+00  0.39999999674E+01  0.40000000000E+01  0.51100000000E-03 0.  1.
    9000002   -1    0    0    0    0 -0.00000000000E+00 -0.00000000000E+00  0.00000000000E+00  0.93800000000E+00  0.93800000000E+00 0.  1.
         11    1    1    2    0    0 -0.11528930996E+00 -0.55691599147E+00  0.22509729401E+01  0.23217076656E+01  0.51100000000E-03 0.  1.
    9000002    1    1    2    0    0  0.17596835922E+00  0.84866434710E+00  0.56708434444E+00  0.13973634786E+01  0.93800000000E+00 0.  1.
         22    1    1    2    0    0 -0.60679049263E-01 -0.29174835562E+00  0.11819426828E+01  0.12189288558E+01  0.00000000000E+00 0.  1.
</event>
<event>
 5    1  0.1461556E+002  0.1599676E+01  0.7818608E-02  0.3353715E+00
         11   -1    0    0    0    0  0.00000000000E+00  0.00000000000E+00  0.39999999674E+01  0.40000000000E+01  0.51100000000E-03 0. -1.
    9000002   -1    0    0    0    0 -0.00000000000E+00 -0.00000000000E+00  0.00000000000E+00  0.93800000000E+00  0.93800000000E+00 0. -1.
         11    1    1    2    0    0  0.43881330942E-03  0.24196813106E-01  0.38179340858E+00  0.38255999043E+00  0.51100000000E-03 0. -1.
    9000002    1    1    2    0    0 -0.26038632976E-03 -0.25636161893E+00  0.43680571966E-01  0.97338242219E+00  0.93800000000E+00 0. -1.
         22    1    1    2    0    0 -0.17842697967E-03  0.23216480582E+00  0.35745259868E+01  0.35820575874E+01  0.00000000000E+00 0. -1.
</event>
<event>
 5    1  0.1461556E+002  0.1595833E+01  0.7818608E-02  0.3357899E+00
         11   -1    0    0    0    0  0.00000000000E+00  0.00000000000E+00  0.39999999674E+01  0.40000000000E+01  0.51100000000E-03 0.  1.
    9000002   -1    0    0    0    0 -0.00000000000E+00 -0.00000000000E+00  0.00000000000E+00  0.93800000000E+00  0.93800000000E+00 0.  1.
         11    1    1    2    0    0  0.46438081174E-01  0.13869662477E-01  0.36729102133E+00  0.37047512520E+00  0.51100000000E-03 0.  1.
    9000002    1    1    2    0    0 -0.20268745452E+00  0.21128865065E+00  0.60154016196E-01  0.98447326209E+00  0.93800000000E+00 0.  1.
         22    1    1    2    0    0  0.15624937335E+00 -0.22515831313E+00  0.35725549298E+01  0.35830516127E+01  0.00000000000E+00 0.  1.
</event>
<event>
 5    1  0.1461556E+002  0.1599677E+01  0.7818608E-02  0.3353715E+00
         11   -1    0    0    0    0  0.00000000000E+00  0.00000000000E+00  0.39999999674E+01  0.40000000000E+01  0.51100000000E-03 0.  1.
    9000002   -1    0    0    0    0 -0.00000000000E+00 -0.00000000000E+00  0.00000000000E+00  0.93800000000E+00  0.93800000000E+00 0. -1.
         11    1    1    2    0    0  0.32703170551E-01 -0.12842314420E+00  0.11482849335E+01  0.11559068089E+01  0.51100000000E-03 0.  1.
    9000002    1    1    2    0    0 -0.11124378277E+00  0.43428883277E+00  0.13647025998E+00  0.10485466615E+01  0.93800000000E+00 0. -1.
         22    1    1    2    0    0  0.78540612222E-01 -0.30586568858E+00  0.27152447739E+01  0.27335465296E+01  0.00000000000E+00 0.  1.
</event>
<event>
 5    1  0.1461556E+002  0.1584812E+01  0.7818608E-02  0.3370014E+00
         11   -1    0    0    0    0  0.00000000000E+00  0.00000000000E+00  0.39999999674E+01  0.40000000000E+01  0.51100000000E-03 0. -1.
    9000002   -1    0    0    0    0 -0.00000000000E+00 -0.00000000000E+00  0.00000000000E+00  0.93800000000E+00  0.93800000000E+00 0. -1.
         11    1    1    2    0    0 -0.75884866104E-01 -0.45050375838E-01  0.11059683927E+01  0.11094838421E+01  0.51100000000E-03 0. -1.
    9000002    1    1    2    0    0 -0.19684050820E+00  0.20835452272E+00  0.66388221771E-01  0.98306113177E+00  0.93800000000E+00 0. -1.
         22    1    1    2    0    0  0.27272537431E+00 -0.16330414689E+00  0.28276433529E+01  0.28454550261E+01  0.00000000000E+00 0. -1.
</event>
<event>
 5    1  0.1461556E+002  0.1599662E+01  0.7818608E-02  0.3353731E+00
         11   -1    0    0    0    0  0.00000000000E+00  0.00000000000E+00  0.39999999674E+01  0.40000000000E+01  0.51100000000E-03 0. -1.
    9000002   -1    0    0    0    0 -0.00000000000E+00 -0.00000000000E+00  0.00000000000E+00  0.93800000000E+00  0.93800000000E+00 0.  1.
         11    1    1    2    0    0 -0.96336406626E-04  0.46581168646E-02  0.80519283297E-01  0.80655585282E-01  0.51100000000E-03 0. -1.
    9000002    1    1    2    0    0  0.10835477114E-02 -0.28916822772E+00  0.55740458928E-01  0.98314314154E+00  0.93800000000E+00 0.  1.
         22    1    1    2    0    0 -0.98721130482E-03  0.28451011085E+00  0.38637402251E+01  0.38742012732E+01  0.00000000000E+00 0. -1.
</event>
<event>
 5    1  0.1461556E+002  0.1598361E+01  0.7818608E-02  0.3355144E+00
         11   -1    0    0    0    0  0.00000000000E+00  0.00000000000E+00  0.39999999674E+01  0.40000000000E+01  0.51100000000E-03 0. -1.
    9000002   -1    0    0    0    0 -0.00000000000E+00 -0.00000000000E+00  0.00000000000E+00  0.93800000000E+00  0.93800000000E+00 0. -1.
         11    1    1    2    0    0  0.11947653696E-01 -0.86222758381E-02  0.12140448917E+00  0.12229636618E+00  0.51100000000E-03 0. -1.
    9000002    1    1    2    0    0  0.95911760630E-01  0.20938771425E+00  0.36182612429E-01  0.96653787414E+00  0.93800000000E+00 0. -1.
         22    1    1    2    0    0 -0.10785941433E+00 -0.20076543841E+00  0.38424128658E+01  0.38491657597E+01  0.00000000000E+00 0. -1.
</event>
<event>
 5    1  0.1461556E+002  0.1593721E+01  0.7818608E-02  0.3360206E+00
         11   -1    0    0    0    0  0.00000000000E+00  0.00000000000E+00  0.39999999674E+01  0.40000000000E+01  0.51100000000E-03 0.  1.
    9000002   -1    0    0    0    0 -0.00000000000E+00 -0.00000000000E+00  0.00000000000E+00  0.93800000000E+00  0.93800000000E+00 0. -1.
         11    1    1    2    0    0 -0.45842309426E-02  0.31284401185E-01  0.33066489317E+00  0.33217354143E+00  0.51100000000E-03 0.  1.
    9000002    1    1    2    0    0  0.61635105713E+00 -0.16424365673E+00  0.29248443874E+00  0.11714332039E+01  0.93800000000E+00 0. -1.
         22    1    1    2    0    0 -0.61176682619E+00  0.13295925555E+00  0.33768506355E+01  0.34343932546E+01  0.00000000000E+00 0.  1.
</event>
<event>
 5    1  0.1461556E+002  0.1598635E+01  0.7818608E-02  0.3354846E+00
         11   -1    0    0    0    0  0.00000000000E+00  0.00000000000E+00  0.39999999674E+01  0.40000000000E+01  0.51100000000E-03 0.  1.
    9000002   -1    0    0    0    0 -0.00000000000E+00 -0.00000000000E+00  0.00000000000E+00  0.93800000000E+00  0.93800000000E+00 0.  1.
         11    1    1    2    0    0  0.50545527841E-01 -0.53915032581E-01  0.61612939038E+00  0.62054602402E+00  0.51100000000E-03 0.  1.
    9000002    1    1    2    0    0 -0.21550613747E+00  0.19932482603E+00  0.58266275910E-01  0.98458734527E+00  0.93800000000E+00 0.  1.
         22    1    1    2    0    0  0.16496060963E+00 -0.14540979345E+00  0.33256043011E+01  0.33328666307E+01  0.00000000000E+00 0.  1.
</event>
<event>
 5    1  0.1461556E+002  0.1520009E+01  0.7818608E-02  0.3445038E+00
         11   -1    0    0    0    0  0.00000000000E+00  0.00000000000E+00  0.39999999674E+01  0.40000000000E+01  0.51100000000E-03 0. -1.
    9000002   -1    0    0    0    0 -0.00000000000E+00 -0.00000000000E+00  0.00000000000E+00  0.93800000000E+00  0.93800000000E+00 0.  1.
         11    1    1    2    0    0  0.99522569790E-01  0.27619124701E+00  0.29521320140E+01  0.29666934517E+01  0.51100000000E-03 0. -1.
    9000002    1    1    2    0    0 -0.36265275941E+00 -0.62864422842E-01  0.15901944389E+00  0.10200981046E+01  0.93800000000E+00 0.  1.
         22    1    1    2    0    0  0.26313018962E+00 -0.21332682416E+00  0.88884850945E+00  0.95120844369E+00  0.00000000000E+00 0. -1.
</event>
<event>
 5    1  0.1461556E+002  0.1599663E+01  0.7818608E-02  0.3353729E+00
         11   -1    0    0    0    0  0.00000000000E+00  0.00000000000E+00  0.39999999674E+01  0.40000000000E+01  0.51100000000E-03 0. -1.
    9000002   -1    0    0    0    0 -0.00000000000E+00 -0.00000000000E+00  0.00000000000E+00  0.93800000000E+00  0.93800000000E+00 0. -1.
         11    1    1    2    0    0  0.12907692915E-01 -0.11185425433E+00  0.11946213085E+01  0.11999159615E+01  0.51100000000E-03 0. -1.
    9000002    1    1    2    0    0 -0.28983957376E-01  0.36777363356E+00  0.91462238192E-01  0.10120804594E+01  0.93800000000E+00 0. -1.
         22    1    1    2    0    0  0.16076264461E-01 -0.25591937923E+00  0.27139164207E+01  0.27260035791E+01  0.00000000000E+00 0. -1.
</event>
<event>
 5    1  0.1461556E+002  0.1574794E+01  0.7818608E-02  0.3381184E+00
         11   -1    0    0    0    0  0.00000000000E+00  0.00000000000E+00  0.39999999674E+01  0.40000000000E+01  0.51100000000E-03 0.  1.
    9000002   -1    0    0    0    0 -0.00000000000E+00 -0.00000000000E+00  0.00000000000E+00  0.93800000000E+00  0.93800000000E+00 0. -1.
         11    1    1    2    0    0 -0.49124372152E-01 -0.54633271572E-01  0.12242984556E+00  0.14278419557E+00  0.51100000000E-03 0.  1.
    9000002    1    1    2    0    0 -0.96409457458E-01  0.30736200940E+00  0.89351662773E-01  0.99578808386E+00  0.93800000000E+00 0. -1.
         22    1    1    2    0    0  0.14553382961E+00 -0.25272873783E+00  0.37882184590E+01  0.37994277206E+01  0.00000000000E+00 0.  1.
</event>
<event>
 5    1  0.1461556E+002  0.1599659E+01  0.7818608E-02  0.3353733E+00
         11   -1    0    0    0    0  0.00000000000E+00  0.00000000000E+00  0.39999999674E+01  0.40000000000E+01  0.51100000000E-03 0. -1.
    9000002   -1    0    0    0    0 -0.00000000000E+00 -0.00000000000E+00  0.00000000000E+00  0.93800000000E+00  0.93800000000E+00 0.  1.
         11    1    1    2    0    0  0.76812470215E-01 -0.23120759505E+00  0.16427581629E+01  0.16607262720E+01  0.51100000000E-03 0. -1.
    9000002    1    1    2    0    0 -0.16623217276E+00  0.53680713082E+00  0.21863961679E+00  0.11150974455E+01  0.93800000000E+00 0.  1.
         22    1    1    2    0    0  0.89419702541E-01 -0.30559953577E+00  0.21386021877E+01  0.21621762825E+01  0.00000000000E+00 0. -1.
</event>
<event>
 5    1  0.1461556E+002  0.1529636E+01  0.7818608E-02  0.3433463E+00
         11   -1    0    0    0    0  0.00000000000E+00  0.00000000000E+00  0.39999999674E+01  0.40000000000E+01  0.51100000000E-03 0.  1.
    9000002   -1    0    0    0    0 -0.00000000000E+00 -0.00000000000E+00  0.00000000000E+00  0.93800000000E+00  0.93800000000E+00 0.  1.
         11    1    1    2    0    0  0.12979772290E+00 -0.15681936127E+00  0.30427921732E+01  0.30495941092E+01  0.51100000000E-03 0.  1.
    9000002    1    1    2    0    0  0.11545582019E+00  0.62973466575E-03  0.61942796334E-01  0.94710683294E+00  0.93800000000E+00 0.  1.
         22    1    1    2    0    0 -0.24525354308E+00  0.15618962661E+00  0.89526499786E+00  0.94129905782E+00  0.00000000000E+00 0.  1.
</event>
<event>
 5    1  0.1461556E+002  0.1599674E+01  0.7818608E-02  0.3353718E+00
         11   -1    0    0    0    0  0.00000000000E+00  0.00000000000E+00  0.39999999674E+01  0.40000000000E+01  0.51100000000E-03 0. -1.
    9000002   -1    0    0    0    0 -0.00000000000E+00 -0.00000000000E+00  0.00000000000E+00  0.93800000000E+00  0.93800000000E+00 0. -1.
         11    1    1    2    0    0  0.42910848535E-01  0.55206483378E-01  0.95469193060E+00  0.95724920486E+00  0.51100000000E-03 0. -1.
    9000002    1    1    2    0    0 -0.17470729453E+00 -0.23514273533E+00  0.57213437865E-01  0.98434349808E+00  0.93800000000E+00 0. -1.
         22    1    1    2    0    0  0.13179644599E+00  0.17993625195E+00  0.29880945989E+01  0.29964072971E+01  0.00000000000E+00 0. -1.
</event>
<event>
 5    1  0.1461556E+002  0.1599673E+01  0.7818608E-02  0.3353719E+00
         11   -1    0    0    0    0  0.00000000000E+00  0.00000000000E+00  0.39999999674E+01  0.40000000000E+01  0.51100000000E-03 0. -1.
    9000002   -1    0    0    0    0 -0.00000000000E+00 -0.00000000000E+00  0.00000000000E+00  0.93800000000E+00  0.93800000000E+00 0. -1.
         11    1    1    2    0    0  0.76370150215E-01 -0.49017577260E-01  0.88601161386E+00  0.89064693551E+00  0.51100000000E-03 0. -1.
    9000002    1    1    2    0    0 -0.34420365158E+00  0.21473061793E+00  0.11110142993E+00  0.10279946108E+01  0.93800000000E+00 0. -1.
         22    1    1    2    0    0  0.26783350137E+00 -0.16571304067E+00  0.30028869236E+01  0.30193584537E+01  0.00000000000E+00 0. -1.
</event>
<event>
 5    1  0.1461556E+002  0.1599677E+01  0.7818608E-02  0.3353714E+00
         11   -1    0    0    0    0  0.00000000000E+00  0.00000000000E+00  0.39999999674E+01  0.40000000000E+01  0.51100000000E-03 0.  1.
    9000002   -1    0    0    0    0 -0.00000000000E+00 -0.00000000000E+00  0.00000000000E+00  0.93800000000E+00  0.93800000000E+00 0. -1.
         11    1    1    2    0    0  0.36282919920E+00 -0.78143028323E+00  0.23552036678E+01  0.25078402846E+01  0.51100000000E-03 0.  1.
    9000002    1    1    2    0    0 -0.45981179051E+00  0.98956418385E+00  0.10179808689E+01  0.17626097713E+01  0.93800000000E+00 0. -1.
         22    1    1    2    0    0  0.96982591304E-01 -0.20813390061E+00  0.62681543069E+00  0.66754994402E+00  0.00000000000E+00 0.  1.
</event>
<event>
 5    1  0.1461556E+002  0.1571964E+01  0.7818608E-02  0.3384367E+00
         11   -1    0    0    0    0  0.00000000000E+00  0.00000000000E+00  0.39999999674E+01  0.40000000000E+01  0.51100000000E-03 0.  1.
    9000002   -1    0    0    0    0 -0.00000000000E+00 -0.00000000000E+00  0.00000000000E+00  0.93800000000E+00  0.93800000000E+00 0. -1.
         11    1    1    2    0    0  0.11165594933E+00  0.83434859633E-01  0.23950212112E+01  0.23990738401E+01  0.51100000000E-03 0.  1.
    9000002    1    1    2    0    0 -0.57075897701E-01  0.16020018481E+00  0.39973134456E-01  0.95412976517E+00  0.93800000000E+00 0. -1.
         22    1    1    2    0    0 -0.54580051625E-01 -0.24363504444E+00  0.15650056217E+01  0.15847963948E+01  0.00000000000E+00 0.  1.
</event>
<event>
 5    1  0.1461556E+002  0.1505895E+01  0.7818608E-02  0.3462294E+00
         11   -1    0    0    0    0  0.00000000000E+00  0.00000000000E+00  0.39999999674E+01  0.40000000000E+01  0.51100000000E-03 0. -1.
    9000002   -1    0    0    0    0 -0.00000000000E+00 -0.00000000000E+00  0.00000000000E+00  0.93800000000E+00  0.93800000000E+00 0. -1.
         11    1    1    2    0    0 -0.25378022349E+00  0.16171676769E+00  0.90524086894E+00  0.95394863945E+00  0.51100000000E-03 0. -1.
    9000002    1    1    2    0    0  0.91111221771E-01  0.20459697372E+00  0.10786058845E+00  0.97038089580E+00  0.93800000000E+00 0. -1.
         22    1    1    2    0    0  0.16266900172E+00 -0.36631374141E+00  0.29868985100E+01  0.30136704648E+01  0.00000000000E+00 0. -1.
</event>
<event>
 5    1  0.1461556E+002  0.1599675E+01  0.7818608E-02  0.3353716E+00
         11   -1    0    0    0    0  0.00000000000E+00  0.00000000000E+00  0.39999999674E+01  0.40000000000E+01  0.51100000000E-03 0.  1.
    9000002   -1    0    0    0    0 -0.00000000000E+00 -0.00000000000E+00  0.00000000000E+00  0.93800000000E+00  0.93800000000E+00 0.  1.
         11    1    1    2    0    0 -0.44790289818E-01 -0.46588579235E-02  0.54453267704E+00  0.54639177566E+00  0.51100000000E-03 0.  1.
    9000002    1    1    2    0    0  0.31773726231E+00  0.38677061087E-01  0.68481528190E-01  0.99347199388E+00  0.93800000000E+00 0.  1.
         22    1    1    2    0    0 -0.27294697249E+00 -0.34018203163E-01  0.33869857621E+01  0.33981362305E+01  0.00000000000E+00 0.  1.
</event>
<event>
 5    1  0.1461556E+002  0.1484687E+01  0.7818608E-02  0.3488888E+00
         11   -1    0    0    0    0  0.00000000000E+00  0.00000000000E+00  0.39999999674E+01  0.40000000000E+01  0.51100000000E-03 0.  1.
    9000002   -1    0    0    0    0 -0.00000000000E+00 -0.00000000000E+00  0.00000000000E+00  0.93800000000E+00  0.93800000000E+00 0.  1.
         11    1    1    2    0    0 -0.21925161087E+00 -0.17908639860E+00  0.23553735499E+01  0.23723254472E+01  0.51100000000E-03 0.  1.
    9000002    1    1    2    0    0 -0.21688773725E+00 -0.21797236364E-01  0.12389223310E+00  0.97093186965E+00  0.93800000000E+00 0.  1.
         22    1    1    2    0    0  0.43613934812E+00  0.20088363497E+00  0.15207341844E+01  0.15947426831E+01  0.00000000000E+00 0.  1.
</event>
<event>
 5    1  0.1461556E+002  0.1599673E+01  0.7818608E-02  0.3353719E+00
         11   -1    0    0    0    0  0.00000000000E+00  0.00000000000E+00  0.39999999674E+01  0.40000000000E+01  0.51100000000E-03 0.  1.
    9000002   -1    0    0    0    0 -0.00000000000E+00 -0.00000000000E+00  0.00000000000E+00  0.93800000000E+00  0.93800000000E+00 0.  1.
         11    1    1    2    0    0  0.40338302965E-03  0.76145555982E-02  0.94643899790E-01  0.94951951340E-01  0.51100000000E-03 0.  1.
    9000002    1    1    2    0    0 -0.14661180656E-01 -0.29295738439E+00  0.57365728704E-01  0.98446625443E+00  0.93800000000E+00 0.  1.
         22    1    1    2    0    0  0.14257797626E-01  0.28534282879E+00  0.38479903389E+01  0.38585817942E+01  0.00000000000E+00 0.  1.
</event>
<event>
 5    1  0.1461556E+002  0.1551061E+01  0.7818608E-02  0.3408255E+00
         11   -1    0    0    0    0  0.00000000000E+00  0.00000000000E+00  0.39999999674E+01  0.40000000000E+01  0.51100000000E-03 0. -1.
    9000002   -1    0    0    0    0 -0.00000000000E+00 -0.00000000000E+00  0.00000000000E+00  0.93800000000E+00  0.93800000000E+00 0.  1.
         11    1    1    2    0    0  0.10242466450E+00 -0.17186200931E+00  0.74354879805E+00  0.76999508982E+00  0.51100000000E-03 0. -1.
    9000002    1    1    2    0    0 -0.49069705441E-01 -0.75992630288E-01  0.41702199443E-01  0.94327397361E+00  0.93800000000E+00 0.  1.
         22    1    1    2    0    0 -0.53354959057E-01  0.24785463960E+00  0.32147489699E+01  0.32247309366E+01  0.00000000000E+00 0. -1.
</event>
<event>
 5    1  0.1461556E+002  0.1597394E+01  0.7818608E-02  0.3356197E+00
         11   -1    0    0    0    0  0.00000000000E+00  0.00000000000E+00  0.39999999674E+01  0.40000000000E+01  0.51100000000E-03 0.  1.
    9000002   -1    0    0    0    0 -0.00000000000E+00 -0.00000000000E+00  0.00000000000E+00  0.93800000000E+00  0.93800000000E+00 0. -1.
         11    1    1    2    0    0  0.12700307194E+00 -0.20909008036E+00  0.22303522140E+01  0.22437289724E+01  0.51100000000E-03 0.  1.
    9000002    1    1    2    0    0 -0.31668996952E+00  0.36239671310E+00  0.16009907705E+00  0.10663487370E+01  0.93800000000E+00 0. -1.
         22    1    1    2    0    0  0.18968689759E+00 -0.15330663275E+00  0.16095486764E+01  0.16279222906E+01  0.00000000000E+00 0.  1.
</event>
<event>
 5    1  0.1461556E+002  0.1599671E+01  0.7818608E-02  0.3353720E+00
         11   -1    0    0    0    0  0.00000000000E+00  0.00000000000E+00  0.39999999674E+01  0.40000000000E+01  0.51100000000E-03 0.  1.
    9000002   -1    0    0    0    0 -0.00000000000E+00 -0.00000000000E+00  0.00000000000E+00  0.93800000000E+00  0.93800000000E+00 0. -1.
         11    1    1    2    0    0 -0.17239564230E-01 -0.18187489955E-01  0.31240247448E+00  0.31340637286E+00  0.51100000000E-03 0.  1.
    9000002    1    1    2    0    0  0.20621287447E+00  0.24427386771E+00  0.68308457881E-01  0.99332951102E+00  0.93800000000E+00 0. -1.
         22    1    1    2    0    0 -0.18897331024E+00 -0.22608637775E+00  0.36192890350E+01  0.36312641161E+01  0.00000000000E+00 0.  1.
</event>
<event>
 5    1  0.1461556E+002  0.1599677E+01  0.7818608E-02  0.3353714E+00
         11   -1    0    0    0    0  0.00000000000E+00  0.00000000000E+00  0.39999999674E+01  0.40000000000E+01  0.51100000000E-03 0. -1.
    9000002   -1    0    0    0    0 -0.00000000000E+00 -0.00000000000E+00  0.00000000000E+00  0.93800000000E+00  0.93800000000E+00 0. -1.
         11    1    1    2    0    0 -0.17971451467E+00 -0.17054552816E-01  0.14225118645E+01  0.14339206499E+01  0.51100000000E-03 0.  1.
    9000002    1    1    2    0    0  0.48482945725E+00  0.45761151910E-01  0.16199641380E+00  0.10692242626E+01  0.93800000000E+00 0. -1.
         22    1    1    2    0    0 -0.30511494258E+00 -0.28706599094E-01  0.24154916891E+01  0.24348550875E+01  0.00000000000E+00 0. -1.
</event>
<event>
 5    1  0.1461556E+002  0.1588214E+01  0.7818608E-02  0.3366256E+00
         11   -1    0    0    0    0  0.00000000000E+00  0.00000000000E+00  0.39999999674E+01  0.40000000000E+01  0.51100000000E-03 0.  1.
    9000002   -1    0    0    0    0 -0.00000000000E+00 -0.00000000000E+00  0.00000000000E+00  0.93800000000E+00  0.93800000000E+00 0. -1.
         11    1    1    2    0    0 -0.49604845816E-01 -0.85204590420E-01  0.20417376949E+01  0.20441168115E+01  0.51100000000E-03 0.  1.
    9000002    1    1    2    0    0  0.34092333353E+00  0.14947252944E+00  0.10257005413E+00  0.10143645165E+01  0.93800000000E+00 0. -1.
         22    1    1    2    0    0 -0.29131848771E+00 -0.64267939017E-01  0.18556922183E+01  0.18795186720E+01  0.00000000000E+00 0.  1.
</event>
<event>
 5    1  0.1461556E+002  0.1599654E+01  0.7818608E-02  0.3353739E+00
         11   -1    0    0    0    0  0.00000000000E+00  0.00000000000E+00  0.39999999674E+01  0.40000000000E+01  0.51100000000E-03 0. -1.
    9000002   -1    0    0    0    0 -0.00000000000E+00 -0.00000000000E+00  0.00000000000E+00  0.93800000000E+00  0.93800000000E+00 0. -1.
         11    1    1    2    0    0 -0.42994262855E-01 -0.81644722085E-02  0.53568138592E+00  0.53746625344E+00  0.51100000000E-03 0. -1.
    9000002    1    1    2    0    0  0.28955293273E+00  0.49206310692E-01  0.57531060054E-01  0.98458924671E+00  0.93800000000E+00 0. -1.
         22    1    1    2    0    0 -0.24655866987E+00 -0.41041838484E-01  0.34067875214E+01  0.34159444999E+01  0.00000000000E+00 0. -1.
</event>
<event>
 5    1  0.1461556E+002  0.1598145E+01  0.7818608E-02  0.3355379E+00
         11   -1    0    0    0    0  0.00000000000E+00  0.00000000000E+00  0.39999999674E+01  0.40000000000E+01  0.51100000000E-03 0. -1.
    9000002   -1    0    0    0    0 -0.00000000000E+00 -0.00000000000E+00  0.00000000000E+00  0.93800000000E+00  0.93800000000E+00 0.  1.
         11    1    1    2    0    0 -0.32968019201E-01  0.24222369542E+00  0.22237428001E+01  0.22371391353E+01  0.51100000000E-03 0. -1.
    9000002    1    1    2    0    0  0.13822997381E+00 -0.41633326251E+00  0.13180052090E+00  0.10438660299E+01  0.93800000000E+00 0.  1.
         22    1    1    2    0    0 -0.10526195461E+00  0.17410956709E+00  0.16444566464E+01  0.16569948347E+01  0.00000000000E+00 0. -1.
</event>
<event>
 5    1  0.1461556E+002  0.1596959E+01  0.7818608E-02  0.3356670E+00
         11   -1    0    0    0    0  0.00000000000E+00  0.00000000000E+00  0.39999999674E+01  0.40000000000E+01  0.51100000000E-03 0.  1.
    9000002   -1    0    0    0    0 -0.00000000000E+00 -0.00000000000E+00  0.00000000000E+00  0.93800000000E+00  0.93800000000E+00 0.  1.
         11    1    1    2    0    0 -0.42514727680E-02 -0.19613518605E-02  0.42547237399E+00  0.42549844192E+00  0.51100000000E-03 0.  1.
    9000002    1    1    2    0    0 -0.14099417076E+00 -0.29374282255E+00  0.73162245816E-01  0.99567108836E+00  0.93800000000E+00 0.  1.
         22    1    1    2    0    0  0.14524564353E+00  0.29570417441E+00  0.35013653476E+01  0.35168304697E+01  0.00000000000E+00 0.  1.
</event>
<event>
 5    1  0.1461556E+002  0.1599671E+01  0.7818608E-02  0.3353721E+00
         11   -1    0    0    0    0  0.00000000000E+00  0.00000000000E+00  0.39999999674E+01  0.40000000000E+01  0.51100000000E-03 0.  1.
    9000002   -1    0    0    0    0 -0.00000000000E+00 -0.00000000000E+00  0.00000000000E+00  0.93800000000E+00  0.93800000000E+00 0.  1.
         11    1    1    2    0    0  0.76724105340E-01 -0.54104383486E-01  0.46509963097E+00  0.47448055861E+00  0.51100000000E-03 0.  1.
    9000002    1    1    2    0    0 -0.59082891001E+00  0.43495378929E+00  0.38832942673E+00  0.12525603153E+01  0.93800000000E+00 0.  1.
         22    1    1    2    0    0  0.51410480467E+00 -0.38084940580E+00  0.31465709097E+01  0.32109591261E+01  0.00000000000E+00 0.  1.
</event>
<event>
 5    1  0.1461556E+002  0.1599463E+01  0.7818608E-02  0.3353947E+00
         11   -1    0    0    0    0  0.00000000000E+00  0.00000000000E+00  0.39999999674E+01  0.40000000000E+01  0.51100000000E-03 0.  1.
    9000002   -1    0    0    0    0 -0.00000000000E+00 -0.00000000000E+00  0.00000000000E+00  0.93800000000E+00  0.93800000000E+00 0. -1.
         11    1    1    2    0    0  0.54867256617E-01 -0.87454144025E-02  0.24137791198E+00  0.24769024130E+00  0.51100000000E-03 0.  1.
    9000002    1    1    2    0    0 -0.69732254856E+00  0.17267309672E+00  0.37093939522E+00  0.12383516342E+01  0.93800000000E+00 0. -1.
         22    1    1    2    0    0  0.64245529194E+00 -0.16392768232E+00  0.33876826602E+01  0.34519581245E+01  0.00000000000E+00 0.  1.
</event>
<event>
 5    1  0.1461556E+002  0.1599652E+01  0.7818608E-02  0.3353741E+00
         11   -1    0    0    0    0  0.00000000000E+00  0.00000000000E+00  0.39999999674E+01  0.40000000000E+01  0.51100000000E-03 0. -1.
    9000002   -1    0    0    0    0 -0.00000000000E+00 -0.00000000000E+00  0.00000000000E+00  0.93800000000E+00  0.93800000000E+00 0.  1.
         11    1    1    2    0    0 -0.51125539651E-01  0.22831481708E+00  0.62437042924E+00  0.66676845346E+00  0.51100000000E-03 0. -1.
    9000002    1    1    2    0    0  0.26179421842E+00 -0.10685945143E+01  0.10424117265E+01  0.17823851033E+01  0.93800000000E+00 0.  1.
         22    1    1    2    0    0 -0.21066867877E+00  0.84027969722E+00  0.23332178116E+01  0.24888464433E+01  0.00000000000E+00 0. -1.
</event>
<event>
 5    1  0.1461556E+002  0.1599557E+01  0.7818608E-02  0.3353845E+00
         11   -1    0    0    0    0  0.00000000000E+00  0.00000000000E+00  0.39999999674E+01  0.40000000000E+01  0.51100000000E-03 0. -1.
    9000002   -1    0    0    0    0 -0.00000000000E+00 -0.00000000000E+00  0.00000000000E+00  0.93800000000E+00  0.93800000000E+00 0. -1.
         11    1    1    2    0    0 -0.26121396139E-02  0.10455420026E-01  0.22278830159E+00  0.22304938361E+00  0.51100000000E-03 0. -1.
    9000002    1    1    2    0    0  0.14760928339E+00 -0.14840679336E+00  0.29112208973E-01  0.96151162113E+00  0.93800000000E+00 0. -1.
         22    1    1    2    0    0 -0.14499714378E+00  0.13795137333E+00  0.37480994568E+01  0.37534389953E+01  0.00000000000E+00 0. -1.
</event>
<event>
 5    1  0.1461556E+002  0.1594561E+01  0.7818608E-02  0.3359288E+00
         11   -1    0    0    0    0  0.00000000000E+00  0.00000000000E+00  0.39999999674E+01  0.40000000000E+01  0.51100000000E-03 0. -1.
    9000002   -1    0    0    0    0 -0.00000000000E+00 -0.00000000000E+00  0.00000000000E+00  0.93800000000E+00  0.93800000000E+00 0. -1.
         11    1    1    2    0    0 -0.15024765496E-01  0.14372699134E-01  0.79928648401E-01  0.82590362724E-01  0.51100000000E-03 0. -1.
    9000002    1    1    2    0    0 -0.28731066470E-01  0.21177155973E+00  0.34125138181E-01  0.96264281681E+00  0.93800000000E+00 0. -1.
         22    1    1    2    0    0  0.43755831965E-01 -0.22614425887E+00  0.38859461808E+01  0.38927668205E+01  0.00000000000E+00 0. -1.
</event>
<event>
 5    1  0.1461556E+002  0.1564466E+01  0.7818608E-02  0.3392858E+00
         11   -1    0    0    0    0  0.00000000000E+00  0.00000000000E+00  0.39999999674E+01  0.40000000000E+01  0.51100000000E-03 0.  1.
    9000002   -1    0    0    0    0 -0.00000000000E+00 -0.00000000000E+00  0.00000000000E+00  0.93800000000E+00  0.93800000000E+00 0. -1.
         11    1    1    2    0    0  0.18234121692E+00  0.11835898708E+00  0.16397030048E+01  0.16540505960E+01  0.51100000000E-03 0.  1.
    9000002    1    1    2    0    0 -0.47664567338E-01  0.80574911459E-01  0.31908033861E-01  0.94320005829E+00  0.93800000000E+00 0. -1.
         22    1    1    2    0    0 -0.13467664958E+00 -0.19893389854E+00  0.23283889287E+01  0.23407493457E+01  0.00000000000E+00 0.  1.
</event>
<event>
 5    1  0.1461556E+002  0.1599675E+01  0.7818608E-02  0.3353716E+00
         11   -1    0    0    0    0  0.00000000000E+00  0.00000000000E+00  0.39999999674E+01  0.40000000000E+01  0.51100000000E-03 0. -1.
    9000002   -1    0    0    0    0 -0.00000000000E+00 -0.00000000000E+00  0.00000000000E+00  0.93800000000E+00  0.93800000000E+00 0. -1.
         11    1    1    2    0    0  0.35747290784E-01  0.95124485540E-01  0.74255503912E+00  0.74947633972E+00  0.51100000000E-03 0. -1.
    9000002    1    1    2    0    0 -0.18106356697E+00 -0.48331003006E+00  0.18285262427E+00  0.10861177112E+01  0.93800000000E+00 0. -1.
         22    1    1    2    0    0  0.14531627618E+00  0.38818554452E+00  0.30745923040E+01  0.31024059491E+01  0.00000000000E+00 0. -1.
</event>
<event>
 5    1  0.1461556E+002  0.1590472E+01  0.7818608E-02  0.3363770E+00
         11   -1    0    0    0    0  0.00000000000E+00  0.00000000000E+00  0.39999999674E+01  0.40000000000E+01  0.51100000000E-03 0.  1.
    9000002   -1    0    0    0    0 -0.00000000000E+00 -0.00000000000E+00  0.00000000000E+00  0.93800000000E+00  0.93800000000E+00 0. -1.
         11    1    1    2    0    0 -0.56959053935E-01 -0.97029502502E-01  0.11973943394E+01  0.12026689168E+01  0.51100000000E-03 0.  1.
    9000002    1    1    2    0    0 -0.13704559647E+00  0.19001429869E+00  0.43439366352E-01  0.96779021889E+00  0.93800000000E+00 0. -1.
         22    1    1    2    0    0  0.19400465041E+00 -0.92984796192E-01  0.27591662616E+01  0.27675408643E+01  0.00000000000E+00 0.  1.
</event>
<event>
 5    1  0.1461556E+002  0.1559802E+01  0.7818608E-02  0.3398183E+00
         11   -1    0    0    0    0  0.00000000000E+00  0.00000000000E+00  0.39999999674E+01  0.40000000000E+01  0.51100000000E-03 0.  1.
    9000002   -1    0    0    0    0 -0.00000000000E+00 -0.00000000000E+00  0.00000000000E+00  0.93800000000E+00  0.93800000000E+00 0. -1.
         11    1    1    2    0    0 -0.20531662765E-01  0.19047852161E+00  0.10092600800E+01  0.10272827199E+01  0.51100000000E-03 0.  1.
    9000002    1    1    2    0    0  0.42453240089E-01  0.74138571135E-01  0.34434619459E-01  0.94251182928E+00  0.93800000000E+00 0. -1.
         22    1    1    2    0    0 -0.21921577324E-01 -0.26461709275E+00  0.29563052679E+01  0.29682054508E+01  0.00000000000E+00 0.  1.
</event>
<event>
 5    1  0.1461556E+002  0.1599506E+01  0.7818608E-02  0.3353900E+00
         11   -1    0    0    0    0  0.00000000000E+00  0.00000000000E+00  0.39999999674E+01  0.40000000000E+01  0.51100000000E-03 0.  1.
    9000002   -1    0    0    0    0 -0.00000000000E+00 -0.00000000000E+00  0.00000000000E+00  0.93800000000E+00  0.93800000000E+00 0.  1.
         11    1    1    2    0    0 -0.19243208891E-02 -0.57908250930E-03  0.68013892832E-01  0.68045492772E-01  0.51100000000E-03 0.  1.
    9000002    1    1    2    0    0  0.28770735337E+00  0.18912744072E+00  0.79573333902E-01  0.10023575338E+01  0.93800000000E+00 0.  1.
         22    1    1    2    0    0 -0.28578303248E+00 -0.18854835821E+00  0.38524127406E+01  0.38675969735E+01  0.00000000000E+00 0.  1.
</event>
<event>
 5    1  0.1461556E+002  0.1547528E+01  0.7818608E-02  0.3412361E+00
         11   -1    0    0    0    0  0.00000000000E+00  0.00000000000E+00  0.39999999674E+01  0.40000000000E+01  0.51100000000E-03 0. -1.
    9000002   -1    0    0    0    0 -0.00000000000E+00 -0.00000000000E+00  0.00000000000E+00  0.93800000000E+00  0.93800000000E+00 0.  1.
         11    1    1    2    0    0 -0.18989079190E+00 -0.15689512035E+00  0.93019720727E+00  0.96225864360E+00  0.51100000000E-03 0. -1.
    9000002    1    1    2    0    0 -0.40157903154E-01  0.14310850489E+00  0.54097564597E-01  0.95124300147E+00  0.93800000000E+00 0.  1.
         22    1    1    2    0    0  0.23004869505E+00  0.13786615463E-01  0.30157051955E+01  0.30244983549E+01  0.00000000000E+00 0. -1.
</event>
<event>
 5    1  0.1461556E+002  0.1599581E+01  0.7818608E-02  0.3353818E+00
         11   -1    0    0    0    0  0.00000000000E+00  0.00000000000E+00  0.39999999674E+01  0.40000000000E+01  0.51100000000E-03 0. -1.
    9000002   -1    0    0    0    0 -0.00000000000E+00 -0.00000000000E+00  0.00000000000E+00  0.93800000000E+00  0.93800000000E+00 0.  1.
         11    1    1    2    0    0 -0.47514294558E-01 -0.22051148204E-01  0.39665098737E+00  0.40009514897E+00  0.51100000000E-03 0. -1.
    9000002    1    1    2    0    0  0.40885300148E+00  0.17068228432E+00  0.13326637744E+00  0.10458953802E+01  0.93800000000E+00 0.  1.
         22    1    1    2    0    0 -0.36133870693E+00 -0.14863113612E+00  0.34700826026E+01  0.34920094708E+01  0.00000000000E+00 0. -1.
</event>
<event>
 5    1  0.1461556E+002  0.1581089E+01  0.7818608E-02  0.3374149E+00
         11   -1    0    0    0    0  0.00000000000E+00  0.00000000000E+00  0.39999999674E+01  0.40000000000E+01  0.51100000000E-03 0.  1.
    9000002   -1    0    0    0    0 -0.00000000000E+00 -0.00000000000E+00  0.00000000000E+00  0.93800000000E+00  0.93800000000E+00 0.  1.
         11    1    1    2    0    0 -0.50692918476E-01 -0.78854806807E-01  0.16255057674E+01  0.16282067171E+01  0.51100000000E-03 0.  1.
    9000002    1    1    2    0    0 -0.14508332024E+00 -0.95488106812E-01  0.33882473963E-01  0.95454657843E+00  0.93800000000E+00 0.  1.
         22    1    1    2    0    0  0.19577623872E+00  0.17434291362E+00  0.23406117260E+01  0.23552467045E+01  0.00000000000E+00 0. -1.
</event>
<event>
 5    1  0.1461556E+002  0.1599677E+01  0.7818608E-02  0.3353715E+00
         11   -1    0    0    0    0  0.00000000000E+00  0.00000000000E+00  0.39999999674E+01  0.40000000000E+01  0.51100000000E-03 0.  1.
    9000002   -1    0    0    0    0 -0.00000000000E+00 -0.00000000000E+00  0.00000000000E+00  0.93800000000E+00  0.93800000000E+00 0.  1.
         11    1    1    2    0    0 -0.70252709732E-02  0.75678503416E-01  0.72894516508E+00  0.73289692667E+00  0.51100000000E-03 0.  1.
    9000002    1    1    2    0    0  0.37308766677E-01 -0.40088698881E+00  0.10937856893E+00  0.10266011851E+01  0.93800000000E+00 0.  1.
         22    1    1    2    0    0 -0.30283495704E-01  0.32520848539E+00  0.31616762333E+01  0.31785018882E+01  0.00000000000E+00 0. -1.
</event>
<event>
 5    1  0.1461556E+002  0.1556803E+01  0.7818608E-02  0.3401625E+00
         11   -1    0    0    0    0  0.00000000000E+00  0.00000000000E+00  0.39999999674E+01  0.40000000000E+01  0.51100000000E-03 0.  1.
    9000002   -1    0    0    0    0 -0.00000000000E+00 -0.00000000000E+00  0.00000000000E+00  0.93800000000E+00  0.93800000000E+00 0. -1.
         11    1    1    2    0    0  0.20419454525E-01 -0.23193523752E+00  0.15239822275E+01  0.15416656575E+01  0.51100000000E-03 0.  1.
    9000002    1    1    2    0    0  0.60944745591E-01 -0.16938715160E-01  0.34444229325E-01  0.94076117427E+00  0.93800000000E+00 0. -1.
         22    1    1    2    0    0 -0.81364200115E-01  0.24887395268E+00  0.24415735105E+01  0.24555731682E+01  0.00000000000E+00 0.  1.
</event>
<event>
 5    1  0.1461556E+002  0.1599471E+01  0.7818608E-02  0.3353937E+00
         11   -1    0    0    0    0  0.00000000000E+00  0.00000000000E+00  0.39999999674E+01  0.40000000000E+01  0.51100000000E-03 0. -1.
    9000002   -1    0    0    0    0 -0.00000000000E+00 -0.00000000000E+00  0.00000000000E+00  0.93800000000E+00  0.93800000000E+00 0.  1.
         11    1    1    2    0    0 -0.14030983378E-01 -0.81021355192E-01  0.72052445217E+00  0.72520140360E+00  0.51100000000E-03 0. -1.
    9000002    1    1    2    0    0  0.36963044902E-02  0.44320695134E+00  0.13346765800E+00  0.10459941109E+01  0.93800000000E+00 0.  1.
         22    1    1    2    0    0  0.10334678888E-01 -0.36218559615E+00  0.31460078572E+01  0.31668044855E+01  0.00000000000E+00 0. -1.
</event>
<event>
 5    1  0.1461556E+002  0.1599668E+01  0.7818608E-02  0.3353724E+00
         11   -1    0    0    0    0  0.00000000000E+00  0.00000000000E+00  0.39999999674E+01  0.40000000000E+01  0.51100000000E-03 0.  1.
    9000002   -1    0    0    0    0 -0.00000000000E+00 -0.00000000000E+00  0.00000000000E+00  0.93800000000E+00  0.93800000000E+00 0.  1.
         11    1    1    2    0    0 -0.14059809110E-01  0.15807729274E-01  0.33171446339E+00  0.33238879175E+00  0.51100000000E-03 0.  1.
    9000002    1    1    2    0    0  0.18996392711E+00 -0.18136260327E+00  0.45874419142E-01  0.97515493630E+00  0.93800000000E+00 0.  1.
         22    1    1    2    0    0 -0.17590411800E+00  0.16555487399E+00  0.36224110848E+01  0.36304562719E+01  0.00000000000E+00 0.  1.
</event>
<event>
 5    1  0.1461556E+002  0.1562648E+01  0.7818608E-02  0.3394930E+00
         11   -1    0    0    0    0  0.00000000000E+00  0.00000000000E+00  0.39999999674E+01  0.40000000000E+01  0.51100000000E-03 0. -1.
    9000002   -1    0    0    0    0 -0.00000000000E+00 -0.00000000000E+00  0.00000000000E+00  0.93800000000E+00  0.93800000000E+00 0.  1.
         11    1    1    2    0    0  0.11571432401E+00 -0.37201131045E-01  0.31478524510E+00  0.33743701721E+00  0.51100000000E-03 0. -1.
    9000002    1    1    2    0    0 -0.39871711845E-03 -0.19217736158E+00  0.52643276732E-01  0.95893045205E+00  0.93800000000E+00 0.  1.
         22    1    1    2    0    0 -0.11531560689E+00  0.22937849262E+00  0.36325714455E+01  0.36416325307E+01  0.00000000000E+00 0. -1.
</event>
<event>
 5    1  0.1461556E+002  0.1599618E+01  0.7818608E-02  0.3353778E+00
         11   -1    0    0    0    0  0.00000000000E+00  0.00000000000E+00  0.39999999674E+01  0.40000000000E+01  0.51100000000E-03 0. -1.
    9000002   -1    0    0    0    0 -0.00000000000E+00 -0.00000000000E+00  0.00000000000E+00  0.93800000000E+00  0.93800000000E+00 0. -1.
         11    1    1    2    0    0 -0.10500199948E+00  0.11535370244E+00  0.14353191307E+01  0.14437704681E+01  0.51100000000E-03 0. -1.
    9000002    1    1    2    0    0  0.30514296069E+00 -0.32024465031E+00  0.13279729639E+00  0.10455371751E+01  0.93800000000E+00 0. -1.
         22    1    1    2    0    0 -0.20014096121E+00  0.20489094787E+00  0.24318835403E+01  0.24486923568E+01  0.00000000000E+00 0. -1.
</event>
<event>
 5    1  0.1461556E+002  0.1598882E+01  0.7818608E-02  0.3354578E+00
         11   -1    0    0    0    0  0.00000000000E+00  0.00000000000E+00  0.39999999674E+01  0.40000000000E+01  0.51100000000E-03 0.  1.
    9000002   -1    0    0    0    0 -0.00000000000E+00 -0.00000000000E+00  0.00000000000E+00  0.93800000000E+00  0.93800000000E+00 0. -1.
         11    1    1    2    0    0  0.51284666025E-01  0.19788415518E-01  0.90676135365E+00  0.90842617309E+00  0.51100000000E-03 0.  1.
    9000002    1    1    2    0    0 -0.19538580329E+00 -0.20720765346E+00  0.54653073263E-01  0.98180526694E+00  0.93800000000E+00 0. -1.
         22    1    1    2    0    0  0.14410113727E+00  0.18741923795E+00  0.30385855404E+01  0.30477685600E+01  0.00000000000E+00 0.  1.
</event>
<event>
 5    1  0.1461556E+002  0.1556365E+01  0.7818608E-02  0.3402129E+00
         11   -1    0    0    0    0  0.00000000000E+00  0.00000000000E+00  0.39999999674E+01  0.40000000000E+01  0.51100000000E-03 0.  1.
    9000002   -1    0    0    0    0 -0.00000000000E+00 -0.00000000000E+00  0.00000000000E+00  0.93800000000E+00  0.93800000000E+00 0.  1.
         11    1    1    2    0    0 -0.10482995028E+00  0.16020273126E+00  0.16941233306E+01  0.17049071394E+01  0.51100000000E-03 0.  1.
    9000002    1    1    2    0    0 -0.10246779244E+00  0.88888693547E-01  0.44699201270E-01  0.94881129152E+00  0.93800000000E+00 0.  1.
         22    1    1    2    0    0  0.20729774272E+00 -0.24909142481E+00  0.22611774355E+01  0.22842815690E+01  0.00000000000E+00 0.  1.
</event>
<event>
 5    1  0.1461556E+002  0.1527839E+01  0.7818608E-02  0.3435612E+00
         11   -1    0    0    0    0  0.00000000000E+00  0.00000000000E+00  0.39999999674E+01  0.40000000000E+01  0.51100000000E-03 0. -1.
    9000002   -1    0    0    0    0 -0.00000000000E+00 -0.00000000000E+00  0.00000000000E+00  0.93800000000E+00  0.93800000000E+00 0.  1.
         11    1    1    2    0    0 -0.20146332544E+00 -0.10443691181E+00  0.58700448988E+00  0.62934018806E+00  0.51100000000E-03 0. -1.
    9000002    1    1    2    0    0  0.99878382607E-02 -0.91366793703E-01  0.59894500358E-01  0.94439345565E+00  0.93800000000E+00 0.  1.
         22    1    1    2    0    0  0.19147548718E+00  0.19580370551E+00  0.33531009771E+01  0.33642663563E+01  0.00000000000E+00 0. -1.
</event>
<event>
 5    1  0.1461556E+002  0.1599677E+01  0.7818608E-02  0.3353714E+00
         11   -1    0    0    0    0  0.00000000000E+00  0.00000000000E+00  0.39999999674E+01  0.40000000000E+01  0.51100000000E-03 0.  1.
    9000002   -1    0    0    0    0 -0.00000000000E+00 -0.00000000000E+00  0.00000000000E+00  0.93800000000E+00  0.93800000000E+00 0. -1.
         11    1    1    2    0    0  0.30119422287E+00 -0.17951850491E+00  0.22579991536E+01  0.22850613323E+01  0.51100000000E-03 0.  1.
    9000002    1    1    2    0    0 -0.50199572664E+00  0.29937615339E+00  0.23757708378E+00  0.11304479915E+01  0.93800000000E+00 0. -1.
         22    1    1    2    0    0  0.20080150377E+00 -0.11985764848E+00  0.15044237300E+01  0.15224906762E+01  0.00000000000E+00 0. -1.
</event>
<event>
 5    1  0.1461556E+002  0.1599567E+01  0.7818608E-02  0.3353833E+00
         11   -1    0    0    0    0  0.00000000000E+00  0.00000000000E+00  0.39999999674E+01  0.40000000000E+01  0.51100000000E-03 0.  1.
    9000002   -1    0    0    0    0 -0.00000000000E+00 -0.00000000000E+00  0.00000000000E+00  0.93800000000E+00  0.93800000000E+00 0. -1.
         11    1    1    2    0    0 -0.68170411623E-01 -0.67275027149E-03  0.56955514465E+00  0.57362093889E+00  0.51100000000E-03 0.  1.
    9000002    1    1    2    0    0  0.44783791289E+00 -0.54223636980E-01  0.13833063363E+00  0.10499896967E+01  0.93800000000E+00 0. -1.
         22    1    1    2    0    0 -0.37966750126E+00  0.54896387252E-01  0.32921141891E+01  0.33143893644E+01  0.00000000000E+00 0.  1.
</event>
<event>
 5    1  0.1461556E+002  0.1594990E+01  0.7818608E-02  0.3358819E+00
         11   -1    0    0    0    0  0.00000000000E+00  0.00000000000E+00  0.39999999674E+01  0.40000000000E+01  0.51100000000E-03 0.  1.
    9000002   -1    0    0    0    0 -0.00000000000E+00 -0.00000000000E+00  0.00000000000E+00  0.93800000000E+00  0.93800000000E+00 0.  1.
         11    1    1    2    0    0  0.10110142970E-01  0.23397339841E-01  0.67136182267E-01  0.71813498682E-01  0.51100000000E-03 0.  1.
    9000002    1    1    2    0    0 -0.55128836221E-01 -0.21843176256E+00  0.37207289280E-01  0.96539111548E+00  0.93800000000E+00 0.  1.
         22    1    1    2    0    0  0.45018693251E-01  0.19503442272E+00  0.38956564958E+01  0.39007953858E+01  0.00000000000E+00 0.  1.
</event>
<event>
 5    1  0.1461556E+002  0.1599036E+01  0.7818608E-02  0.3354411E+00
         11   -1    0    0    0    0  0.00000000000E+00  0.00000000000E+00  0.39999999674E+01  0.40000000000E+01  0.51100000000E-03 0.  1.
    9000002   -1    0    0    0    0 -0.00000000000E+00 -0.00000000000E+00  0.00000000000E+00  0.93800000000E+00  0.93800000000E+00 0. -1.
         11    1    1    2    0    0 -0.93159614517E-01  0.58693518313E-01  0.10858734138E+01  0.10914416955E+01  0.51100000000E-03 0.  1.
    9000002    1    1    2    0    0  0.28169713463E+00 -0.13099967987E+00  0.64955916741E-01  0.99024111352E+00  0.93800000000E+00 0. -1.
         22    1    1    2    0    0 -0.18853752011E+00  0.72306161560E-01  0.28491706369E+01  0.28563171910E+01  0.00000000000E+00 0.  1.
</event>
<event>
 5    1  0.1461556E+002  0.1599673E+01  0.7818608E-02  0.3353718E+00
         11   -1    0    0    0    0  0.00000000000E+00  0.00000000000E+00  0.39999999674E+01  0.40000000000E+01  0.51100000000E-03 0. -1.
    9000002   -1    0    0    0    0 -0.00000000000E+00 -0.00000000000E+00  0.00000000000E+00  0.93800000000E+00  0.93800000000E+00 0.  1.
         11    1    1    2    0    0 -0.28533774231E-02  0.89924576770E-02  0.12301013559E+00  0.12337244683E+00  0.51100000000E-03 0. -1.
    9000002    1    1    2    0    0  0.73750538306E-01 -0.27807568509E+00  0.55154691520E-01  0.98267556627E+00  0.93800000000E+00 0.  1.
         22    1    1    2    0    0 -0.70897160883E-01  0.26908322741E+00  0.38218351402E+01  0.38319519869E+01  0.00000000000E+00 0. -1.
</event>
<event>
 5    1  0.1461556E+002  0.1599664E+01  0.7818608E-02  0.3353728E+00
         11   -1    0    0    0    0  0.00000000000E+00  0.00000000000E+00  0.39999999674E+01  0.40000000000E+01  0.51100000000E-03 0.  1.
    9000002   -1    0    0    0    0 -0.00000000000E+00 -0.00000000000E+00  0.00000000000E+00  0.93800000000E+00  0.93800000000E+00 0. -1.
         11    1    1    2    0    0 -0.46957627234E-01  0.14458618007E-01  0.62092978651E+00  0.62287087850E+00  0.51100000000E-03 0.  1.
    9000002    1    1    2    0    0  0.27851158949E+00 -0.88187783497E-01  0.56904301241E-01  0.98408733867E+00  0.93800000000E+00 0. -1.
         22    1    1    2    0    0 -0.23155396226E+00  0.73729165490E-01  0.33221658796E+01  0.33310417828E+01  0.00000000000E+00 0.  1.
</event>
<event>
 5    1  0.1461556E+002  0.1599673E+01  0.7818608E-02  0.3353719E+00
         11   -1    0    0    0    0  0.00000000000E+00  0.00000000000E+00  0.39999999674E+01  0.40000000000E+01  0.51100000000E-03 0.  1.
    9000002   -1    0    0    0    0 -0.00000000000E+00 -0.00000000000E+00  0.00000000000E+00  0.93800000000E+00  0.93800000000E+00 0. -1.
         11    1    1    2    0    0  0.38981630477E-02  0.61449247516E-03  0.49878017739E-01  0.50036497186E-01  0.51100000000E-03 0. -1.
    9000002    1    1    2    0    0 -0.31528397086E+00 -0.31581907632E-01  0.67090737067E-01  0.99234397573E+00  0.93800000000E+00 0. -1.
         22    1    1    2    0    0  0.31138580781E+00  0.30967415157E-01  0.38830312126E+01  0.38956195271E+01  0.00000000000E+00 0.  1.
</event>
<event>
 5    1  0.1461556E+002  0.1595906E+01  0.7818608E-02  0.3357819E+00
         11   -1    0    0    0    0  0.00000000000E+00  0.00000000000E+00  0.39999999674E+01  0.40000000000E+01  0.51100000000E-03 0.  1.
    9000002   -1    0    0    0    0 -0.00000000000E+00 -0.00000000000E+00  0.00000000000E+00  0.93800000000E+00  0.93800000000E+00 0.  1.
         11    1    1    2    0    0  0.12913702811E+00 -0.17031894014E-02  0.63649736660E+00  0.64946780651E+00  0.51100000000E-03 0.  1.
    9000002    1    1    2    0    0 -0.83780761047E+00 -0.26603842098E+00  0.59184865483E+00  0.14152126568E+01  0.93800000000E+00 0.  1.
         22    1    1    2    0    0  0.70867058237E+00  0.26774161038E+00  0.27716539459E+01  0.28733195367E+01  0.00000000000E+00 0.  1.
</event>
<event>
 5    1  0.1461556E+002  0.1522632E+01  0.7818608E-02  0.3441868E+00
         11   -1    0    0    0    0  0.00000000000E+00  0.00000000000E+00  0.39999999674E+01  0.40000000000E+01  0.51100000000E-03 0.  1.
    9000002   -1    0    0    0    0 -0.00000000000E+00 -0.00000000000E+00  0.00000000000E+00  0.93800000000E+00  0.93800000000E+00 0.  1.
         11    1    1    2    0    0 -0.50122013377E-01  0.19372050590E+00  0.33652296688E+01  0.33711735102E+01  0.51100000000E-03 0.  1.
    9000002    1    1    2    0    0  0.23573776583E+00 -0.17631753944E-01  0.98103802103E-01  0.97229189494E+00  0.93800000000E+00 0.  1.
         22    1    1    2    0    0 -0.18561575245E+00 -0.17608875196E+00  0.53666649643E+00  0.59453459488E+00  0.00000000000E+00 0. -1.
</event>
<event>
 5    1  0.1461556E+002  0.1598921E+01  0.7818608E-02  0.3354536E+00
         11   -1    0    0    0    0  0.00000000000E+00  0.00000000000E+00  0.39999999674E+01  0.40000000000E+01  0.51100000000E-03 0.  1.
    9000002   -1    0    0    0    0 -0.00000000000E+00 -0.00000000000E+00  0.00000000000E+00  0.93800000000E+00  0.93800000000E+00 0.  1.
         11    1    1    2    0    0  0.16020328617E-01  0.12257786055E+00  0.12230940932E+01  0.12293255894E+01  0.51100000000E-03 0.  1.
    9000002    1    1    2    0    0 -0.10208743411E+00 -0.30910275622E+00  0.71467839950E-01  0.99544864772E+00  0.93800000000E+00 0.  1.
         22    1    1    2    0    0  0.86067105489E-01  0.18652489567E+00  0.27054380342E+01  0.27132257628E+01  0.00000000000E+00 0.  1.
</event>
<event>
 5    1  0.1461556E+002  0.1599676E+01  0.7818608E-02  0.3353715E+00
         11   -1    0    0    0    0  0.00000000000E+00  0.00000000000E+00  0.39999999674E+01  0.40000000000E+01  0.51100000000E-03 0.  1.
    9000002   -1    0    0    0    0 -0.00000000000E+00 -0.00000000000E+00  0.00000000000E+00  0.93800000000E+00  0.93800000000E+00 0. -1.
         11    1    1    2    0    0  0.32854259544E-01 -0.25210650980E-01  0.44305213779E+00  0.44498363702E+00  0.51100000000E-03 0.  1.
    9000002    1    1    2    0    0 -0.28415558446E+00  0.22216691156E+00  0.87340705264E-01  0.10087491916E+01  0.93800000000E+00 0. -1.
         22    1    1    2    0    0  0.25130132492E+00 -0.19695626058E+00  0.34696071243E+01  0.34842671714E+01  0.00000000000E+00 0.  1.
</event>
<event>
 5    1  0.1461556E+002  0.1597773E+01  0.7818608E-02  0.3355784E+00
         11   -1    0    0    0    0  0.00000000000E+00  0.00000000000E+00  0.39999999674E+01  0.40000000000E+01  0.51100000000E-03 0.  1.
    9000002   -1    0    0    0    0 -0.00000000000E+00 -0.00000000000E+00  0.00000000000E+00  0.93800000000E+00  0.93800000000E+00 0. -1.
         11    1    1    2    0    0  0.35422228282E-01 -0.76250671861E-01  0.73234804408E+00  0.73715861116E+00  0.51100000000E-03 0.  1.
    9000002    1    1    2    0    0  0.20697932072E-01  0.34578415533E+00  0.81957711035E-01  0.10032727211E+01  0.93800000000E+00 0. -1.
         22    1    1    2    0    0 -0.56120160354E-01 -0.26953348347E+00  0.31856942122E+01  0.31975686678E+01  0.00000000000E+00 0.  1.
</event>
<event>
 5    1  0.1461556E+002  0.1599649E+01  0.7818608E-02  0.3353744E+00
         11   -1    0    0    0    0  0.00000000000E+00  0.00000000000E+00  0.39999999674E+01  0.40000000000E+01  0.51100000000E-03 0. -1.
    9000002   -1    0    0    0    0 -0.00000000000E+00 -0.00000000000E+00  0.00000000000E+00  0.93800000000E+00  0.93800000000E+00 0. -1.
         11    1    1    2    0    0 -0.75533702067E-03 -0.20547895384E-03  0.97948079288E-02  0.98393159812E-02  0.51100000000E-03 0.  1.
    9000002    1    1    2    0    0  0.25228016131E+00 -0.56747577041E-01  0.44469054427E-01  0.97400567970E+00  0.93800000000E+00 0. -1.
         22    1    1    2    0    0 -0.25152482429E+00  0.56953055994E-01  0.39457361050E+01  0.39541550043E+01  0.00000000000E+00 0. -1.
</event>
<event>
 5    1  0.1461556E+002  0.1596976E+01  0.7818608E-02  0.3356652E+00
         11   -1    0    0    0    0  0.00000000000E+00  0.00000000000E+00  0.39999999674E+01  0.40000000000E+01  0.51100000000E-03 0. -1.
    9000002   -1    0    0    0    0 -0.00000000000E+00 -0.00000000000E+00  0.00000000000E+00  0.93800000000E+00  0.93800000000E+00 0.  1.
         11    1    1    2    0    0 -0.14044484640E-01 -0.42798016478E-01  0.61150196407E+00  0.61315889535E+00  0.51100000000E-03 0. -1.
    9000002    1    1    2    0    0 -0.18960682496E+00  0.19396986519E+00  0.51045276706E-01  0.97776514407E+00  0.93800000000E+00 0.  1.
         22    1    1    2    0    0  0.20365130960E+00 -0.15117184871E+00  0.33374527266E+01  0.33470759606E+01  0.00000000000E+00 0. -1.
</event>
<event>
 5    1  0.1461556E+002  0.1599666E+01  0.7818608E-02  0.3353726E+00
         11   -1    0    0    0    0  0.00000000000E+00  0.00000000000E+00  0.39999999674E+01  0.40000000000E+01  0.51100000000E-03 0. -1.
    9000002   -1    0    0    0    0 -0.00000000000E+00 -0.00000000000E+00  0.00000000000E+00  0.93800000000E+00  0.93800000000E+00 0.  1.
         11    1    1    2    0    0 -0.99365425250E-01 -0.10341814328E+00  0.15285430436E+01  0.15352566226E+01  0.51100000000E-03 0. -1.
    9000002    1    1    2    0    0  0.25679355511E+00  0.25481185574E+00  0.87876380636E-01  0.10091770261E+01  0.93800000000E+00 0.  1.
         22    1    1    2    0    0 -0.15742812986E+00 -0.15139371247E+00  0.23835805432E+01  0.23935663513E+01  0.00000000000E+00 0. -1.
</event>
<event>
 5    1  0.1538561E+002  0.1466296E+01  0.7818608E-02  0.3512625E+00
         11   -1    0    0    0    0  0.00000000000E+00  0.00000000000E+00  0.39999999674E+01  0.40000000000E+01  0.51100000000E-03 0.  1.
    9000002   -1    0    0    0    0 -0.00000000000E+00 -0.00000000000E+00  0.00000000000E+00  0.93800000000E+00  0.93800000000E+00 0.  1.
         11    1    1    2    0    0 -0.77422814847E-02 -0.85956348012E-01 -0.37506210453E-01  0.94103207329E-01  0.51100000000E-03 0.  1.
    9000002    1    1    2    0    0  0.22404942277E+00  0.19675572295E+00  0.20712212656E+00  0.10058103865E+01  0.93800000000E+00 0.  1.
         22    1    1    2    0    0 -0.21630714129E+00 -0.11079937494E+00  0.38303840513E+01  0.38380864061E+01  0.00000000000E+00 0.  1.
</event>
<event>
 5    1  0.1461556E+002  0.1599669E+01  0.7818608E-02  0.3353723E+00
         11   -1    0    0    0    0  0.00000000000E+00  0.00000000000E+00  0.39999999674E+01  0.40000000000E+01  0.51100000000E-03 0. -1.
    9000002   -1    0    0    0    0 -0.00000000000E+00 -0.00000000000E+00  0.00000000000E+00  0.93800000000E+00  0.93800000000E+00 0. -1.
         11    1    1    2    0    0  0.18663143875E-01  0.24428898247E-02  0.28456764439E+00  0.28518991218E+00  0.51100000000E-03 0. -1.
    9000002    1    1    2    0    0 -0.26636942591E+00 -0.10573410162E-01  0.47276049783E-01  0.97629068056E+00  0.93800000000E+00 0. -1.
         22    1    1    2    0    0  0.24770628203E+00  0.81305203376E-02  0.36681562732E+01  0.36765194073E+01  0.00000000000E+00 0. -1.
</event>
<event>
 5    1  0.1461556E+002  0.1589575E+01  0.7818608E-02  0.3364757E+00
         11   -1    0    0    0    0  0.00000000000E+00  0.00000000000E+00  0.39999999674E+01  0.40000000000E+01  0.51100000000E-03 0. -1.
    9000002   -1    0    0    0    0 -0.00000000000E+00 -0.00000000000E+00  0.00000000000E+00  0.93800000000E+00  0.93800000000E+00 0.  1.
         11    1    1    2    0    0  0.36955525573E-01  0.84136625208E-01  0.17429798757E+01  0.17454007537E+01  0.51100000000E-03 0. -1.
    9000002    1    1    2    0    0  0.18293132954E+00 -0.13440588059E+00  0.41859047796E-01  0.96598395015E+00  0.93800000000E+00 0.  1.
         22    1    1    2    0    0 -0.21988685511E+00  0.50269255382E-01  0.22151610438E+01  0.22266152962E+01  0.00000000000E+00 0. -1.
</event>
<event>
 5    1  0.1461556E+002  0.1599549E+01  0.7818608E-02  0.3353853E+00
         11   -1    0    0    0    0  0.00000000000E+00  0.00000000000E+00  0.39999999674E+01  0.40000000000E+01  0.51100000000E-03 0. -1.
    9000002   -1    0    0    0    0 -0.00000000000E+00 -0.00000000000E+00  0.00000000000E+00  0.93800000000E+00  0.93800000000E+00 0. -1.
         11    1    1    2    0    0 -0.12017904645E-01 -0.66935896068E-03  0.12619928882E+00  0.12677302431E+00  0.51100000000E-03 0. -1.
    9000002    1    1    2    0    0  0.39155443663E+00 -0.12556650431E+00  0.11432286140E+00  0.10305316785E+01  0.93800000000E+00 0. -1.
         22    1    1    2    0    0 -0.37953653198E+00  0.12623586327E+00  0.37594778171E+01  0.37806952971E+01  0.00000000000E+00 0. -1.
</event>
<event>
 5    1  0.1461556E+002  0.1599524E+01  0.7818608E-02  0.3353880E+00
         11   -1    0    0    0    0  0.00000000000E+00  0.00000000000E+00  0.39999999674E+01  0.40000000000E+01  0.51100000000E-03 0.  1.
    9000002   -1    0    0    0    0 -0.00000000000E+00 -0.00000000000E+00  0.00000000000E+00  0.93800000000E+00  0.93800000000E+00 0. -1.
         11    1    1    2    0    0  0.38022308609E-02 -0.13779410879E-02  0.16266410555E+00  0.16271517457E+00  0.51100000000E-03 0.  1.
    9000002    1    1    2    0    0 -0.23393747588E+00  0.95248422316E-02  0.36487757296E-01  0.96746721995E+00  0.93800000000E+00 0. -1.
         22    1    1    2    0    0  0.23013524502E+00 -0.81469011437E-02  0.38008481045E+01  0.38078176055E+01  0.00000000000E+00 0.  1.
</event>
<event>
 5    1  0.1461556E+002  0.1542935E+01  0.7818608E-02  0.3417728E+00
         11   -1    0    0    0    0  0.00000000000E+00  0.00000000000E+00  0.39999999674E+01  0.40000000000E+01  0.51100000000E-03 0.  1.
    9000002   -1    0    0    0    0 -0.00000000000E+00 -0.00000000000E+00  0.00000000000E+00  0.93800000000E+00  0.93800000000E+00 0.  1.
         11    1    1    2    0    0 -0.87445150922E-01 -0.28996184349E+00  0.20501943225E+01  0.20724433759E+01  0.51100000000E-03 0.  1.
    9000002    1    1    2    0    0  0.20880292106E+00  0.84850244804E-02  0.72869095196E-01  0.96375544643E+00  0.93800000000E+00 0.  1.
         22    1    1    2    0    0 -0.12135777013E+00  0.28147681901E+00  0.18769365497E+01  0.19018011777E+01  0.00000000000E+00 0.  1.
</event>
<event>
 5    1  0.1461556E+002  0.1592469E+01  0.7818608E-02  0.3361578E+00
         11   -1    0    0    0    0  0.00000000000E+00  0.00000000000E+00  0.39999999674E+01  0.40000000000E+01  0.51100000000E-03 0. -1.
    9000002   -1    0    0    0    0 -0.00000000000E+00 -0.00000000000E+00  0.00000000000E+00  0.93800000000E+00  0.93800000000E+00 0.  1.
         11    1    1    2    0    0  0.39271068955E-01 -0.89346518282E-01  0.90234180082E+00  0.90760454153E+00  0.51100000000E-03 0. -1.
    9000002    1    1    2    0    0  0.19615317815E+00  0.44286702675E+00  0.16662122139E+00  0.10687440779E+01  0.93800000000E+00 0.  1.
         22    1    1    2    0    0 -0.23542424711E+00 -0.35352050846E+00  0.29310369452E+01  0.29616513805E+01  0.00000000000E+00 0. -1.
</event>
<event>
 5    1  0.1461556E+002  0.1593345E+01  0.7818608E-02  0.3360619E+00
         11   -1    0    0    0    0  0.00000000000E+00  0.00000000000E+00  0.39999999674E+01  0.40000000000E+01  0.51100000000E-03 0.  1.
    9000002   -1    0    0    0    0 -0.00000000000E+00 -0.00000000000E+00  0.00000000000E+00  0.93800000000E+00  0.93800000000E+00 0. -1.
         11    1    1    2    0    0  0.37511405368E+00 -0.32540305942E-01  0.12996554327E+01  0.13530979010E+01  0.51100000000E-03 0.  1.
    9000002    1    1    2    0    0 -0.96388931760E+00 -0.15115348260E+00  0.76720247775E+00  0.15557550044E+01  0.93800000000E+00 0. -1.
         22    1    1    2    0    0  0.58877526392E+00  0.18369378854E+00  0.19331420569E+01  0.20291470946E+01  0.00000000000E+00 0.  1.
</event>
<event>
 5    1  0.1461556E+002  0.1594796E+01  0.7818608E-02  0.3359031E+00
         11   -1    0    0    0    0  0.00000000000E+00  0.00000000000E+00  0.39999999674E+01  0.40000000000E+01  0.51100000000E-03 0. -1.
    9000002   -1    0    0    0    0 -0.00000000000E+00 -0.00000000000E+00  0.00000000000E+00  0.93800000000E+00  0.93800000000E+00 0.  1.
         11    1    1    2    0    0  0.98847411429E-02  0.32726679257E-01  0.63915698182E+00  0.64007081809E+00  0.51100000000E-03 0. -1.
    9000002    1    1    2    0    0 -0.10627262329E+00  0.17786783361E+00  0.32109492151E-01  0.96114819678E+00  0.93800000000E+00 0.  1.
         22    1    1    2    0    0  0.96387882152E-01 -0.21059451287E+00  0.33287334934E+01  0.33367809851E+01  0.00000000000E+00 0. -1.
</event>
<event>
 5    1  0.1461556E+002  0.1599656E+01  0.7818608E-02  0.3353737E+00
         11   -1    0    0    0    0  0.00000000000E+00  0.00000000000E+00  0.39999999674E+01  0.40000000000E+01  0.51100000000E-03 0. -1.
    9000002   -1    0    0    0    0 -0.00000000000E+00 -0.00000000000E+00  0.00000000000E+00  0.93800000000E+00  0.93800000000E+00 0.  1.
         11    1    1    2    0    0  0.11283996561E-02 -0.41571735100E-03  0.20485374293E-01  0.20527001428E-01  0.51100000000E-03 0.  1.
    9000002    1    1    2    0    0 -0.30729381721E+00  0.15700208275E+00  0.79818047058E-01  0.10026435382E+01  0.93800000000E+00 0.  1.
         22    1    1    2    0    0  0.30616541756E+00 -0.15658636540E+00  0.38996965460E+01  0.39148294604E+01  0.00000000000E+00 0. -1.
</event>
<event>
 5    1  0.1461556E+002  0.1599676E+01  0.7818608E-02  0.3353715E+00
         11   -1    0    0    0    0  0.00000000000E+00  0.00000000000E+00  0.39999999674E+01  0.40000000000E+01  0.51100000000E-03 0.  1.
    9000002   -1    0    0    0    0 -0.00000000000E+00 -0.00000000000E+00  0.00000000000E+00  0.93800000000E+00  0.93800000000E+00 0. -1.
         11    1    1    2    0    0 -0.67699975934E-01 -0.67564091669E-02  0.82128732300E+00  0.82410076074E+00  0.51100000000E-03 0.  1.
    9000002    1    1    2    0    0  0.32726575624E+00  0.31469947272E-01  0.72314407134E-01  0.99657744620E+00  0.93800000000E+00 0. -1.
         22    1    1    2    0    0 -0.25956578031E+00 -0.24713538105E-01  0.31063982372E+01  0.31173217931E+01  0.00000000000E+00 0.  1.
</event>
<event>
 5    1  0.1461556E+002  0.1578101E+01  0.7818608E-02  0.3377480E+00
         11   -1    0    0    0    0  0.00000000000E+00  0.00000000000E+00  0.39999999674E+01  0.40000000000E+01  0.51100000000E-03 0. -1.
    9000002   -1    0    0    0    0 -0.00000000000E+00 -0.00000000000E+00  0.00000000000E+00  0.93800000000E+00  0.93800000000E+00 0.  1.
         11    1    1    2    0    0 -0.37904004512E-01  0.37278997990E-01  0.76162859899E-01  0.92884226853E-01  0.51100000000E-03 0. -1.
    9000002    1    1    2    0    0 -0.10458037356E+00 -0.25792945392E+00  0.68472580234E-01  0.98081453495E+00  0.93800000000E+00 0.  1.
         22    1    1    2    0    0  0.14248437807E+00  0.22065045593E+00  0.38553645272E+01  0.38643012382E+01  0.00000000000E+00 0. -1.
</event>
<event>
 5    1  0.1461556E+002  0.1598414E+01  0.7818608E-02  0.3355087E+00
         11   -1    0    0    0    0  0.00000000000E+00  0.00000000000E+00  0.39999999674E+01  0.40000000000E+01  0.51100000000E-03 0.  1.
    9000002   -1    0    0    0    0 -0.00000000000E+00 -0.00000000000E+00  0.00000000000E+00  0.93800000000E+00  0.93800000000E+00 0.  1.
         11    1    1    2    0    0 -0.26350028845E-01  0.16603990766E-01  0.22617337585E+00  0.22830828630E+00  0.51100000000E-03 0.  1.
    9000002    1    1    2    0    0  0.22564212015E+00 -0.34237266739E-01  0.35502946392E-01  0.96601812406E+00  0.93800000000E+00 0.  1.
         22    1    1    2    0    0 -0.19929209130E+00  0.17633275973E-01  0.37383236451E+01  0.37436735896E+01  0.00000000000E+00 0.  1.
</event>
<event>
 5    1  0.1461556E+002  0.1599050E+01  0.7818608E-02  0.3354395E+00
         11   -1    0    0    0    0  0.00000000000E+00  0.00000000000E+00  0.39999999674E+01  0.40000000000E+01  0.51100000000E-03 0.  1.
    9000002   -1    0    0    0    0 -0.00000000000E+00 -0.00000000000E+00  0.00000000000E+00  0.93800000000E+00  0.93800000000E+00 0. -1.
         11    1    1    2    0    0 -0.37869537610E-01  0.26285517630E+00  0.19125008742E+01  0.19308513149E+01  0.51100000000E-03 0.  1.
    9000002    1    1    2    0    0  0.31660015327E-01 -0.48593764869E+00  0.16254357080E+00  0.10692998492E+01  0.93800000000E+00 0. -1.
         22    1    1    2    0    0  0.62095222826E-02  0.22308247240E+00  0.19249555224E+01  0.19378488359E+01  0.00000000000E+00 0.  1.
</event>
<event>
 5    1  0.1461556E+002  0.1555312E+01  0.7818608E-02  0.3403341E+00
         11   -1    0    0    0    0  0.00000000000E+00  0.00000000000E+00  0.39999999674E+01  0.40000000000E+01  0.51100000000E-03 0. -1.
    9000002   -1    0    0    0    0 -0.00000000000E+00 -0.00000000000E+00  0.00000000000E+00  0.93800000000E+00  0.93800000000E+00 0. -1.
         11    1    1    2    0    0  0.92393413258E-01  0.10412380125E-01  0.14447654076E+00  0.17181004750E+00  0.51100000000E-03 0. -1.
    9000002    1    1    2    0    0  0.11594666743E+00  0.32036744513E+00  0.11417013143E+00  0.10044688888E+01  0.93800000000E+00 0. -1.
         22    1    1    2    0    0 -0.20834008069E+00 -0.33077982526E+00  0.37413532952E+01  0.37617210637E+01  0.00000000000E+00 0. -1.
</event>
<event>
 5    1  0.1461556E+002  0.1599590E+01  0.7818608E-02  0.3353809E+00
         11   -1    0    0    0    0  0.00000000000E+00  0.00000000000E+00  0.39999999674E+01  0.40000000000E+01  0.51100000000E-03 0.  1.
    9000002   -1    0    0    0    0 -0.00000000000E+00 -0.00000000000E+00  0.00000000000E+00  0.93800000000E+00  0.93800000000E+00 0. -1.
         11    1    1    2    0    0 -0.17286963569E+00  0.55495614519E-01  0.16423671158E+01  0.16523721367E+01  0.51100000000E-03 0.  1.
    9000002    1    1    2    0    0  0.40051254376E+00 -0.15608113704E+00  0.12520566317E+00  0.10393710007E+01  0.93800000000E+00 0. -1.
         22    1    1    2    0    0 -0.22764290807E+00  0.10058552252E+00  0.22324271884E+01  0.22462568626E+01  0.00000000000E+00 0. -1.
</event>
<event>
 5    1  0.1461556E+002  0.1599670E+01  0.7818608E-02  0.3353722E+00
         11   -1    0    0    0    0  0.00000000000E+00  0.00000000000E+00  0.39999999674E+01  0.40000000000E+01  0.51100000000E-03 0. -1.
    9000002   -1    0    0    0    0 -0.00000000000E+00 -0.00000000000E+00  0.00000000000E+00  0.93800000000E+00  0.93800000000E+00 0. -1.
         11    1    1    2    0    0  0.21783481478E-01 -0.37244790455E-01  0.69014260000E+00  0.69149024862E+00  0.51100000000E-03 0. -1.
    9000002    1    1    2    0    0 -0.11336566831E+00  0.22133518841E+00  0.41081737640E-01  0.97127377683E+00  0.93800000000E+00 0. -1.
         22    1    1    2    0    0  0.91582186833E-01 -0.18409039796E+00  0.32687756297E+01  0.32752359746E+01  0.00000000000E+00 0. -1.
</event>
<event>
 5    1  0.1461556E+002  0.1587768E+01  0.7818608E-02  0.3366747E+00
         11   -1    0    0    0    0  0.00000000000E+00  0.00000000000E+00  0.39999999674E+01  0.40000000000E+01  0.51100000000E-03 0. -1.
    9000002   -1    0    0    0    0 -0.00000000000E+00 -0.00000000000E+00  0.00000000000E+00  0.93800000000E+00  0.93800000000E+00 0.  1.
         11    1    1    2    0    0 -0.10202033812E-01  0.87663251572E-01  0.63320824471E+00  0.63932923401E+00  0.51100000000E-03 0. -1.
    9000002    1    1    2    0    0 -0.42492162401E+00 -0.19653460013E+00  0.15978869225E+00  0.10604530455E+01  0.93800000000E+00 0.  1.
         22    1    1    2    0    0  0.43512365782E+00  0.10887134856E+00  0.32070030304E+01  0.32382177205E+01  0.00000000000E+00 0. -1.
</event>
<event>
 5    1  0.1461556E+002  0.1599677E+01  0.7818608E-02  0.3353714E+00
         11   -1    0    0    0    0  0.00000000000E+00  0.00000000000E+00  0.39999999674E+01  0.40000000000E+01  0.51100000000E-03 0.  1.
    9000002   -1    0    0    0    0 -0.00000000000E+00 -0.00000000000E+00  0.00000000000E+00  0.93800000000E+00  0.93800000000E+00 0. -1.
         11    1    1    2    0    0  0.17010997473E+00 -0.65835510147E-01  0.18472896753E+01  0.18562734506E+01  0.51100000000E-03 0.  1.
    9000002    1    1    2    0    0 -0.35820593425E+00  0.13947246308E+00  0.99475043258E-01  0.10185790806E+01  0.93800000000E+00 0. -1.
         22    1    1    2    0    0  0.18809595952E+00 -0.73636952933E-01  0.20532352488E+01  0.20631474687E+01  0.00000000000E+00 0. -1.
</event>
<event>
 5    1  0.1461556E+002  0.1570084E+01  0.7818608E-02  0.3386487E+00
         11   -1    0    0    0    0  0.00000000000E+00  0.00000000000E+00  0.39999999674E+01  0.40000000000E+01  0.51100000000E-03 0. -1.
    9000002   -1    0    0    0    0 -0.00000000000E+00 -0.00000000000E+00  0.00000000000E+00  0.93800000000E+00  0.93800000000E+00 0. -1.
         11    1    1    2    0    0  0.19380732061E+00 -0.95493623577E-01  0.10791788383E+01  0.11005941740E+01  0.51100000000E-03 0. -1.
    9000002    1    1    2    0    0 -0.27623080638E+00 -0.17392295573E+00  0.95148987975E-01  0.99772239768E+00  0.93800000000E+00 0. -1.
         22    1    1    2    0    0  0.82423485774E-01  0.26941657931E+00  0.28256721411E+01  0.28396834283E+01  0.00000000000E+00 0. -1.
</event>
<event>
 5    1  0.1461556E+002  0.1599575E+01  0.7818608E-02  0.3353825E+00
         11   -1    0    0    0    0  0.00000000000E+00  0.00000000000E+00  0.39999999674E+01  0.40000000000E+01  0.51100000000E-03 0.  1.
    9000002   -1    0    0    0    0 -0.00000000000E+00 -0.00000000000E+00  0.00000000000E+00  0.93800000000E+00  0.93800000000E+00 0. -1.
         11    1    1    2    0    0  0.93007684446E-03  0.47808012309E-01  0.80027401782E+00  0.80170146302E+00  0.51100000000E-03 0.  1.
    9000002    1    1    2    0    0 -0.39339077721E-01 -0.26952238076E+00  0.49450978776E-01  0.97799758490E+00  0.93800000000E+00 0. -1.
         22    1    1    2    0    0  0.38409000877E-01  0.22171436845E+00  0.31502749708E+01  0.31583009521E+01  0.00000000000E+00 0.  1.
</event>
<event>
 5    1  0.1461556E+002  0.1546113E+01  0.7818608E-02  0.3414010E+00
         11   -1    0    0    0    0  0.00000000000E+00  0.00000000000E+00  0.39999999674E+01  0.40000000000E+01  0.51100000000E-03 0. -1.
    9000002   -1    0    0    0    0 -0.00000000000E+00 -0.00000000000E+00  0.00000000000E+00  0.93800000000E+00  0.93800000000E+00 0.  1.
         11    1    1    2    0    0  0.18522011996E+00 -0.21374158604E+00  0.25825354468E+01  0.25979764344E+01  0.51100000000E-03 0. -1.
    9000002    1    1    2    0    0 -0.27306681447E+00 -0.76074803130E-01  0.96324901857E-01  0.98461939223E+00  0.93800000000E+00 0.  1.
         22    1    1    2    0    0  0.87846694507E-01  0.28981638917E+00  0.13211396187E+01  0.13554041734E+01  0.00000000000E+00 0. -1.
</event>
<event>
 5    1  0.1461556E+002  0.1599122E+01  0.7818608E-02  0.3354317E+00
         11   -1    0    0    0    0  0.00000000000E+00  0.00000000000E+00  0.39999999674E+01  0.40000000000E+01  0.51100000000E-03 0.  1.
    9000002   -1    0    0    0    0 -0.00000000000E+00 -0.00000000000E+00  0.00000000000E+00  0.93800000000E+00  0.93800000000E+00 0.  1.
         11    1    1    2    0    0 -0.60891191453E+00 -0.44026797289E+00  0.23757255106E+01  0.24917226111E+01  0.51100000000E-03 0.  1.
    9000002    1    1    2    0    0  0.79512833474E+00  0.58150613540E+00  0.77518788761E+00  0.15656112913E+01  0.93800000000E+00 0.  1.
         22    1    1    2    0    0 -0.18621642021E+00 -0.14123816251E+00  0.84908656911E+00  0.88066609765E+00  0.00000000000E+00 0.  1.
</event>
<event>
 5    1  0.1461556E+002  0.1598458E+01  0.7818608E-02  0.3355039E+00
         11   -1    0    0    0    0  0.00000000000E+00  0.00000000000E+00  0.39999999674E+01  0.40000000000E+01  0.51100000000E-03 0.  1.
    9000002   -1    0    0    0    0 -0.00000000000E+00 -0.00000000000E+00  0.00000000000E+00  0.93800000000E+00  0.93800000000E+00 0. -1.
         11    1    1    2    0    0 -0.98483687263E-01 -0.20714213139E+00  0.13725226806E+01  0.13915551262E+01  0.51100000000E-03 0.  1.
    9000002    1    1    2    0    0  0.24775301873E+00  0.46463888527E+00  0.19181023795E+00  0.10926600658E+01  0.93800000000E+00 0. -1.
         22    1    1    2    0    0 -0.14926933147E+00 -0.25749675388E+00  0.24356670488E+01  0.24537848080E+01  0.00000000000E+00 0.  1.
</event>
<event>
 5    1  0.1461556E+002  0.1592728E+01  0.7818608E-02  0.3361295E+00
         11   -1    0    0    0    0  0.00000000000E+00  0.00000000000E+00  0.39999999674E+01  0.40000000000E+01  0.51100000000E-03 0. -1.
    9000002   -1    0    0    0    0 -0.00000000000E+00 -0.00000000000E+00  0.00000000000E+00  0.93800000000E+00  0.93800000000E+00 0. -1.
         11    1    1    2    0    0 -0.17442189896E+00 -0.22559570706E+00  0.12128383465E+01  0.12459107263E+01  0.51100000000E-03 0. -1.
    9000002    1    1    2    0    0  0.30436673653E+00  0.51791930156E+00  0.25877084769E+00  0.11435409327E+01  0.93800000000E+00 0. -1.
         22    1    1    2    0    0 -0.12994483757E+00 -0.29232359450E+00  0.25283907732E+01  0.25485483410E+01  0.00000000000E+00 0. -1.
</event>
<event>
 5    1  0.1461556E+002  0.1599641E+01  0.7818608E-02  0.3353753E+00
         11   -1    0    0    0    0  0.00000000000E+00  0.00000000000E+00  0.39999999674E+01  0.40000000000E+01  0.51100000000E-03 0.  1.
    9000002   -1    0    0    0    0 -0.00000000000E+00 -0.00000000000E+00  0.00000000000E+00  0.93800000000E+00  0.93800000000E+00 0. -1.
         11    1    1    2    0    0 -0.73139617752E-01  0.13876673665E+00  0.14255732285E+01  0.14341774303E+01  0.51100000000E-03 0.  1.
    9000002    1    1    2    0    0  0.19214398761E+00 -0.36065858274E+00  0.11279784501E+00  0.10293499304E+01  0.93800000000E+00 0. -1.
         22    1    1    2    0    0 -0.11900436986E+00  0.22189184609E+00  0.24616288939E+01  0.24744726393E+01  0.00000000000E+00 0.  1.
</event>
<event>
 5    1  0.1461556E+002  0.1599669E+01  0.7818608E-02  0.3353722E+00
         11   -1    0    0    0    0  0.00000000000E+00  0.00000000000E+00  0.39999999674E+01  0.40000000000E+01  0.51100000000E-03 0.  1.
    9000002   -1    0    0    0    0 -0.00000000000E+00 -0.00000000000E+00  0.00000000000E+00  0.93800000000E+00  0.93800000000E+00 0. -1.
         11    1    1    2    0    0 -0.45339221362E-02 -0.23956435532E-02  0.73640679000E-01  0.73820771349E-01  0.51100000000E-03 0.  1.
    9000002    1    1    2    0    0  0.28323929847E+00  0.12637972644E+00  0.64241671419E-01  0.99003400335E+00  0.93800000000E+00 0. -1.
         22    1    1    2    0    0 -0.27870537633E+00 -0.12398408289E+00  0.38621176169E+01  0.38741452253E+01  0.00000000000E+00 0.  1.
</event>
<event>
 5    1  0.1461556E+002  0.1571559E+01  0.7818608E-02  0.3384823E+00
         11   -1    0    0    0    0  0.00000000000E+00  0.00000000000E+00  0.39999999674E+01  0.40000000000E+01  0.51100000000E-03 0.  1.
    9000002   -1    0    0    0    0 -0.00000000000E+00 -0.00000000000E+00  0.00000000000E+00  0.93800000000E+00  0.93800000000E+00 0.  1.
         11    1    1    2    0    0  0.16253822637E+00  0.36649289365E-01  0.22437441292E+01  0.22499221818E+01  0.51100000000E-03 0.  1.
    9000002    1    1    2    0    0  0.63472894623E-01 -0.11095523992E+00  0.31712410745E-01  0.94720090298E+00  0.93800000000E+00 0.  1.
         22    1    1    2    0    0 -0.22601112099E+00  0.74305950560E-01  0.17245434274E+01  0.17408769153E+01  0.00000000000E+00 0.  1.
</event>
<event>
 5    1  0.1461556E+002  0.1599669E+01  0.7818608E-02  0.3353723E+00
         11   -1    0    0    0    0  0.00000000000E+00  0.00000000000E+00  0.39999999674E+01  0.40000000000E+01  0.51100000000E-03 0.  1.
    9000002   -1    0    0    0    0 -0.00000000000E+00 -0.00000000000E+00  0.00000000000E+00  0.93800000000E+00  0.93800000000E+00 0. -1.
         11    1    1    2    0    0 -0.35557924485E-01  0.95847644440E-01  0.78570471708E+00  0.79232777340E+00  0.51100000000E-03 0.  1.
    9000002    1    1    2    0    0  0.17458077441E+00 -0.45475932434E+00  0.16209645167E+00  0.10693005889E+01  0.93800000000E+00 0. -1.
         22    1    1    2    0    0 -0.13902284992E+00  0.35891167990E+00  0.30521987986E+01  0.30763716377E+01  0.00000000000E+00 0.  1.
</event>
<event>
 5    1  0.1461556E+002  0.1599677E+01  0.7818608E-02  0.3353714E+00
         11   -1    0    0    0    0  0.00000000000E+00  0.00000000000E+00  0.39999999674E+01  0.40000000000E+01  0.51100000000E-03 0.  1.
    9000002   -1    0    0    0    0 -0.00000000000E+00 -0.00000000000E+00  0.00000000000E+00  0.93800000000E+00  0.93800000000E+00 0.  1.
         11    1    1    2    0    0 -0.12290772165E+00  0.97033472790E-01  0.12915466643E+01  0.13010053228E+01  0.51100000000E-03 0.  1.
    9000002    1    1    2    0    0  0.36760296837E+00 -0.29032587653E+00  0.14944308055E+00  0.10590553769E+01  0.93800000000E+00 0.  1.
         22    1    1    2    0    0 -0.24469524672E+00  0.19329240374E+00  0.25590102225E+01  0.25779393003E+01  0.00000000000E+00 0.  1.
</event>
<event>
 5    1  0.1461556E+002  0.1527031E+01  0.7818608E-02  0.3436580E+00
         11   -1    0    0    0    0  0.00000000000E+00  0.00000000000E+00  0.39999999674E+01  0.40000000000E+01  0.51100000000E-03 0. -1.
    9000002   -1    0    0    0    0 -0.00000000000E+00 -0.00000000000E+00  0.00000000000E+00  0.93800000000E+00  0.93800000000E+00 0. -1.
         11    1    1    2    0    0 -0.16276111538E+00  0.31139581549E+00  0.21476152419E+01  0.21761686569E+01  0.51100000000E-03 0. -1.
    9000002    1    1    2    0    0 -0.54515240888E-01 -0.95461597984E-01  0.63112277758E-01  0.94652627422E+00  0.93800000000E+00 0. -1.
         22    1    1    2    0    0  0.21727635627E+00 -0.21593421750E+00  0.17892724477E+01  0.18153050689E+01  0.00000000000E+00 0. -1.
</event>
<event>
 5    1  0.1461556E+002  0.1599670E+01  0.7818608E-02  0.3353721E+00
         11   -1    0    0    0    0  0.00000000000E+00  0.00000000000E+00  0.39999999674E+01  0.40000000000E+01  0.51100000000E-03 0. -1.
    9000002   -1    0    0    0    0 -0.00000000000E+00 -0.00000000000E+00  0.00000000000E+00  0.93800000000E+00  0.93800000000E+00 0. -1.
         11    1    1    2    0    0  0.60231584207E-02 -0.17168317330E-01  0.24051988953E+00  0.24120760340E+00  0.51100000000E-03 0. -1.
    9000002    1    1    2    0    0 -0.12021082552E+00  0.27300962607E+00  0.59358700444E-01  0.98607928374E+00  0.93800000000E+00 0. -1.
         22    1    1    2    0    0  0.11418766710E+00 -0.25584130874E+00  0.37001213774E+01  0.37107131129E+01  0.00000000000E+00 0. -1.
</event>
<event>
 5    1  0.1461556E+002  0.1599675E+01  0.7818608E-02  0.3353716E+00
         11   -1    0    0    0    0  0.00000000000E+00  0.00000000000E+00  0.39999999674E+01  0.40000000000E+01  0.51100000000E-03 0.  1.
    9000002   -1    0    0    0    0 -0.00000000000E+00 -0.00000000000E+00  0.00000000000E+00  0.93800000000E+00  0.93800000000E+00 0. -1.
         11    1    1    2    0    0 -0.14630715158E+00  0.37923386788E-02  0.98195162368E+00  0.99279877961E+00  0.51100000000E-03 0.  1.
    9000002    1    1    2    0    0  0.56530254910E+00 -0.19210627284E-01  0.22165082972E+00  0.11175460217E+01  0.93800000000E+00 0. -1.
         22    1    1    2    0    0 -0.41899539752E+00  0.15418288605E-01  0.27963975140E+01  0.28276551987E+01  0.00000000000E+00 0.  1.
</event>
<event>
 5    1  0.1461556E+002  0.1595186E+01  0.7818608E-02  0.3358605E+00
         11   -1    0    0    0    0  0.00000000000E+00  0.00000000000E+00  0.39999999674E+01  0.40000000000E+01  0.51100000000E-03 0. -1.
    9000002   -1    0    0    0    0 -0.00000000000E+00 -0.00000000000E+00  0.00000000000E+00  0.93800000000E+00  0.93800000000E+00 0. -1.
         11    1    1    2    0    0 -0.77281268645E-01 -0.25216317718E-01  0.91098254833E+00  0.91460249379E+00  0.51100000000E-03 0. -1.
    9000002    1    1    2    0    0  0.76483733440E-01  0.25034692055E+00  0.49019246655E-01  0.97507447339E+00  0.93800000000E+00 0. -1.
         22    1    1    2    0    0  0.79753520518E-03 -0.22513060283E+00  0.30399981724E+01  0.30483230328E+01  0.00000000000E+00 0. -1.
</event>
<event>
 5    1  0.1461556E+002  0.1599609E+01  0.7818608E-02  0.3353788E+00
         11   -1    0    0    0    0  0.00000000000E+00  0.00000000000E+00  0.39999999674E+01  0.40000000000E+01  0.51100000000E-03 0.  1.
    9000002   -1    0    0    0    0 -0.00000000000E+00 -0.00000000000E+00  0.00000000000E+00  0.93800000000E+00  0.93800000000E+00 0. -1.
         11    1    1    2    0    0 -0.83626817206E-01 -0.79286845291E-01  0.13733318264E+01  0.13781583418E+01  0.51100000000E-03 0.  1.
    9000002    1    1    2    0    0  0.26041484825E+00  0.20990544464E+00  0.74943637905E-01  0.99866748107E+00  0.93800000000E+00 0. -1.
         22    1    1    2    0    0 -0.17678803104E+00 -0.13061859935E+00  0.25517245030E+01  0.25611741772E+01  0.00000000000E+00 0.  1.
</event>
<event>
 5    1  0.1461556E+002  0.1599677E+01  0.7818608E-02  0.3353714E+00
         11   -1    0    0    0    0  0.00000000000E+00  0.00000000000E+00  0.39999999674E+01  0.40000000000E+01  0.51100000000E-03 0. -1.
    9000002   -1    0    0    0    0 -0.00000000000E+00 -0.00000000000E+00  0.00000000000E+00  0.93800000000E+00  0.93800000000E+00 0.  1.
         11    1    1    2    0    0  0.28024001082E-01  0.14303160974E-01  0.43830797044E+00  0.43943607399E+00  0.51100000000E-03 0.  1.
    9000002    1    1    2    0    0 -0.25329146679E+00 -0.12925492942E+00  0.53868941510E-01  0.98163601543E+00  0.93800000000E+00 0.  1.
         22    1    1    2    0    0  0.22526746571E+00  0.11495176844E+00  0.35078230554E+01  0.35169279106E+01  0.00000000000E+00 0. -1.
</event>
<event>
 5    1  0.1461556E+002  0.1597500E+01  0.7818608E-02  0.3356081E+00
         11   -1    0    0    0    0  0.00000000000E+00  0.00000000000E+00  0.39999999674E+01  0.40000000000E+01  0.51100000000E-03 0.  1.
    9000002   -1    0    0    0    0 -0.00000000000E+00 -0.00000000000E+00  0.00000000000E+00  0.93800000000E+00  0.93800000000E+00 0.  1.
         11    1    1    2    0    0 -0.13754842071E+00 -0.13552442652E+00  0.11242700390E+01  0.11407321420E+01  0.51100000000E-03 0.  1.
    9000002    1    1    2    0    0  0.42770888919E+00  0.28950664532E+00  0.18511358259E+00  0.10866738379E+01  0.93800000000E+00 0.  1.
         22    1    1    2    0    0 -0.29016046848E+00 -0.15398221879E+00  0.26906163458E+01  0.27105940200E+01  0.00000000000E+00 0.  1.
</event>
<event>
 5    1  0.1461556E+002  0.1597366E+01  0.7818608E-02  0.3356227E+00
         11   -1    0    0    0    0  0.00000000000E+00  0.00000000000E+00  0.39999999674E+01  0.40000000000E+01  0.51100000000E-03 0.  1.
    9000002   -1    0    0    0    0 -0.00000000000E+00 -0.00000000000E+00  0.00000000000E+00  0.93800000000E+00  0.93800000000E+00 0. -1.
         11    1    1    2    0    0  0.11620032245E+00 -0.41528877472E-01  0.14134982785E+01  0.14188744861E+01  0.51100000000E-03 0.  1.
    9000002    1    1    2    0    0 -0.21883098481E+00  0.22929084447E+00  0.68955471863E-01  0.99250196391E+00  0.93800000000E+00 0. -1.
         22    1    1    2    0    0  0.10263066236E+00 -0.18776196699E+00  0.25175462169E+01  0.25266235500E+01  0.00000000000E+00 0.  1.
</event>
<event>
 5    1  0.1461556E+002  0.1537333E+01  0.7818608E-02  0.3424320E+00
         11   -1    0    0    0    0  0.00000000000E+00  0.00000000000E+00  0.39999999674E+01  0.40000000000E+01  0.51100000000E-03 0.  1.
    9000002   -1    0    0    0    0 -0.00000000000E+00 -0.00000000000E+00  0.00000000000E+00  0.93800000000E+00  0.93800000000E+00 0. -1.
         11    1    1    2    0    0  0.18146386230E+00 -0.24055154504E+00  0.28920038143E+01  0.29076589384E+01  0.51100000000E-03 0.  1.
    9000002    1    1    2    0    0  0.10161112346E+00  0.37759872025E+00  0.15651066329E+00  0.10282242954E+01  0.93800000000E+00 0. -1.
         22    1    1    2    0    0 -0.28307498576E+00 -0.13704717521E+00  0.95148548974E+00  0.10021167661E+01  0.00000000000E+00 0.  1.
</event>
<event>
 5    1  0.1461556E+002  0.1585789E+01  0.7818608E-02  0.3368933E+00
         11   -1    0    0    0    0  0.00000000000E+00  0.00000000000E+00  0.39999999674E+01  0.40000000000E+01  0.51100000000E-03 0.  1.
    9000002   -1    0    0    0    0 -0.00000000000E+00 -0.00000000000E+00  0.00000000000E+00  0.93800000000E+00  0.93800000000E+00 0.  1.
         11    1    1    2    0    0  0.18022762106E+00 -0.17049680325E+00  0.94350667845E+00  0.97557996531E+00  0.51100000000E-03 0.  1.
    9000002    1    1    2    0    0 -0.21428359241E+00  0.72398020492E+00  0.43088857349E+00  0.12788955226E+01  0.93800000000E+00 0.  1.
         22    1    1    2    0    0  0.34055971346E-01 -0.55348340167E+00  0.26256047154E+01  0.26835245120E+01  0.00000000000E+00 0.  1.
</event>
<event>
 5    1  0.1461556E+002  0.1599675E+01  0.7818608E-02  0.3353716E+00
         11   -1    0    0    0    0  0.00000000000E+00  0.00000000000E+00  0.39999999674E+01  0.40000000000E+01  0.51100000000E-03 0. -1.
    9000002   -1    0    0    0    0 -0.00000000000E+00 -0.00000000000E+00  0.00000000000E+00  0.93800000000E+00  0.93800000000E+00 0. -1.
         11    1    1    2    0    0 -0.54626588265E-02  0.62269518266E-01  0.33913818328E+00  0.34485113024E+00  0.51100000000E-03 0. -1.
    9000002    1    1    2    0    0  0.53488256441E-01 -0.68210545586E+00  0.33316856768E+00  0.12078800193E+01  0.93800000000E+00 0. -1.
         22    1    1    2    0    0 -0.48025597615E-01  0.61983593760E+00  0.33276932164E+01  0.33852688505E+01  0.00000000000E+00 0. -1.
</event>
<event>
 5    1  0.1461556E+002  0.1599676E+01  0.7818608E-02  0.3353715E+00
         11   -1    0    0    0    0  0.00000000000E+00  0.00000000000E+00  0.39999999674E+01  0.40000000000E+01  0.51100000000E-03 0.  1.
    9000002   -1    0    0    0    0 -0.00000000000E+00 -0.00000000000E+00  0.00000000000E+00  0.93800000000E+00  0.93800000000E+00 0.  1.
         11    1    1    2    0    0  0.25495243926E-01 -0.13030818565E+00  0.86612490194E+00  0.87624359489E+00  0.51100000000E-03 0.  1.
    9000002    1    1    2    0    0 -0.11361264517E+00  0.56439643667E+00  0.23009022362E+00  0.11243828004E+01  0.93800000000E+00 0.  1.
         22    1    1    2    0    0  0.88117401248E-01 -0.43408825101E+00  0.29037848418E+01  0.29373736047E+01  0.00000000000E+00 0.  1.
</event>
<event>
 5    1  0.1461556E+002  0.1599676E+01  0.7818608E-02  0.3353715E+00
         11   -1    0    0    0    0  0.00000000000E+00  0.00000000000E+00  0.39999999674E+01  0.40000000000E+01  0.51100000000E-03 0.  1.
    9000002   -1    0    0    0    0 -0.00000000000E+00 -0.00000000000E+00  0.00000000000E+00  0.93800000000E+00  0.93800000000E+00 0. -1.
         11    1    1    2    0    0 -0.61839871306E-01  0.21372982273E-01  0.93953216462E+00  0.94180779543E+00  0.51100000000E-03 0.  1.
    9000002    1    1    2    0    0  0.26015455283E+00 -0.86870424434E-01  0.50070676666E-01  0.97855911148E+00  0.93800000000E+00 0. -1.
         22    1    1    2    0    0 -0.19831468153E+00  0.65497442160E-01  0.30103971261E+01  0.30176330931E+01  0.00000000000E+00 0.  1.
</event>
<event>
 5    1  0.1461556E+002  0.1564022E+01  0.7818608E-02  0.3393363E+00
         11   -1    0    0    0    0  0.00000000000E+00  0.00000000000E+00  0.39999999674E+01  0.40000000000E+01  0.51100000000E-03 0.  1.
    9000002   -1    0    0    0    0 -0.00000000000E+00 -0.00000000000E+00  0.00000000000E+00  0.93800000000E+00  0.93800000000E+00 0.  1.
         11    1    1    2    0    0  0.99586214685E-01 -0.79822058067E-01  0.49930728156E+00  0.51536103621E+00  0.51100000000E-03 0.  1.
    9000002    1    1    2    0    0  0.19298993319E+00 -0.57678188747E-01  0.54087951068E-01  0.96090654812E+00  0.93800000000E+00 0.  1.
         22    1    1    2    0    0 -0.29257614788E+00  0.13750024681E+00  0.34466047347E+01  0.34617324157E+01  0.00000000000E+00 0.  1.
</event>
<event>
 5    1  0.1461556E+002  0.1579030E+01  0.7818608E-02  0.3376443E+00
         11   -1    0    0    0    0  0.00000000000E+00  0.00000000000E+00  0.39999999674E+01  0.40000000000E+01  0.51100000000E-03 0.  1.
    9000002   -1    0    0    0    0 -0.00000000000E+00 -0.00000000000E+00  0.00000000000E+00  0.93800000000E+00  0.93800000000E+00 0. -1.
         11    1    1    2    0    0  0.99404692523E-02  0.11573909801E+00  0.58799417994E+00  0.59935946518E+00  0.51100000000E-03 0.  1.
    9000002    1    1    2    0    0 -0.20551880608E+00  0.39138525332E-01  0.44680408664E-01  0.96208634890E+00  0.93800000000E+00 0. -1.
         22    1    1    2    0    0  0.19557833683E+00 -0.15487762334E+00  0.33673253788E+01  0.33765541859E+01  0.00000000000E+00 0.  1.
</event>
<event>
 5    1  0.1461556E+002  0.1599450E+01  0.7818608E-02  0.3353960E+00
         11   -1    0    0    0    0  0.00000000000E+00  0.00000000000E+00  0.39999999674E+01  0.40000000000E+01  0.51100000000E-03 0.  1.
    9000002   -1    0    0    0    0 -0.00000000000E+00 -0.00000000000E+00  0.00000000000E+00  0.93800000000E+00  0.93800000000E+00 0.  1.
         11    1    1    2    0    0 -0.12792186247E-01 -0.19252834435E-01  0.34068183465E+00  0.34146549642E+00  0.51100000000E-03 0.  1.
    9000002    1    1    2    0    0  0.25981789515E+00  0.25336236991E+00  0.88617165621E-01  0.10096508462E+01  0.93800000000E+00 0.  1.
         22    1    1    2    0    0 -0.24702570890E+00 -0.23410953547E+00  0.35707009671E+01  0.35868836574E+01  0.00000000000E+00 0.  1.
</event>
<event>
 5    1  0.1461556E+002  0.1556563E+01  0.7818608E-02  0.3401901E+00
         11   -1    0    0    0    0  0.00000000000E+00  0.00000000000E+00  0.39999999674E+01  0.40000000000E+01  0.51100000000E-03 0. -1.
    9000002   -1    0    0    0    0 -0.00000000000E+00 -0.00000000000E+00  0.00000000000E+00  0.93800000000E+00  0.93800000000E+00 0.  1.
         11    1    1    2    0    0  0.38656885526E-01  0.23462168614E+00  0.16197845482E+01  0.16371450560E+01  0.51100000000E-03 0. -1.
    9000002    1    1    2    0    0  0.57158363547E-01  0.75291996182E-02  0.34160488088E-01  0.94039072003E+00  0.93800000000E+00 0.  1.
         22    1    1    2    0    0 -0.95815249073E-01 -0.24215088576E+00  0.23460549310E+01  0.23604642240E+01  0.00000000000E+00 0.  1.
</event>
<event>
 5    1  0.1461556E+002  0.1599677E+01  0.7818608E-02  0.3353714E+00
         11   -1    0    0    0    0  0.00000000000E+00  0.00000000000E+00  0.39999999674E+01  0.40000000000E+01  0.51100000000E-03 0. -1.
    9000002   -1    0    0    0    0 -0.00000000000E+00 -0.00000000000E+00  0.00000000000E+00  0.93800000000E+00  0.93800000000E+00 0.  1.
         11    1    1    2    0    0  0.11633573380E+00 -0.31264222780E-01  0.12789167526E+01  0.12845776643E+01  0.51100000000E-03 0. -1.
    9000002    1    1    2    0    0 -0.35703038041E+00  0.95138858275E-01  0.91742802328E-01  0.10123155816E+01  0.93800000000E+00 0.  1.
         22    1    1    2    0    0  0.24069464661E+00 -0.63874635495E-01  0.26293404125E+01  0.26411067541E+01  0.00000000000E+00 0. -1.
</event>
<event>
 5    1  0.1786357E+002  0.1539149E+01  0.7818608E-02  0.3422178E+00
         11   -1    0    0    0    0  0.00000000000E+00  0.00000000000E+00  0.39999999674E+01  0.40000000000E+01  0.51100000000E-03 0. -1.
    9000002   -1    0    0    0    0 -0.00000000000E+00 -0.00000000000E+00  0.00000000000E+00  0.93800000000E+00  0.93800000000E+00 0.  1.
         11    1    1    2    0    0 -0.12631615123E+00  0.10448425316E+00  0.35169151767E+00  0.38802050711E+00  0.51100000000E-03 0. -1.
    9000002    1    1    2    0    0 -0.62683410350E-01  0.60927816892E-01  0.50502158807E-01  0.94341712771E+00  0.93800000000E+00 0.  1.
         22    1    1    2    0    0  0.18899956158E+00 -0.16541207006E+00  0.35978062909E+01  0.36065623652E+01  0.00000000000E+00 0. -1.
</event>
<event>
 5    1  0.1461556E+002  0.1599677E+01  0.7818608E-02  0.3353714E+00
         11   -1    0    0    0    0  0.00000000000E+00  0.00000000000E+00  0.39999999674E+01  0.40000000000E+01  0.51100000000E-03 0.  1.
    9000002   -1    0    0    0    0 -0.00000000000E+00 -0.00000000000E+00  0.00000000000E+00  0.93800000000E+00  0.93800000000E+00 0.  1.
         11    1    1    2    0    0  0.20952251906E+00 -0.31367082347E+00  0.20264045578E+01  0.20612143907E+01  0.51100000000E-03 0.  1.
    9000002    1    1    2    0    0 -0.38011930213E+00  0.56812502990E+00  0.33249063767E+00  0.12073320826E+01  0.93800000000E+00 0.  1.
         22    1    1    2    0    0  0.17059678306E+00 -0.25445420643E+00  0.16411047719E+01  0.16694535267E+01  0.00000000000E+00 0.  1.
</event>
<event>
 5    1  0.1461556E+002  0.1598626E+01  0.7818608E-02  0.3354856E+00
         11   -1    0    0    0    0  0.00000000000E+00  0.00000000000E+00  0.39999999674E+01  0.40000000000E+01  0.51100000000E-03 0. -1.
    9000002   -1    0    0    0    0 -0.00000000000E+00 -0.00000000000E+00  0.00000000000E+00  0.93800000000E+00  0.93800000000E+00 0. -1.
         11    1    1    2    0    0 -0.94803240249E-01  0.23485433822E+00  0.17458621944E+01  0.17641369781E+01  0.51100000000E-03 0. -1.
    9000002    1    1    2    0    0  0.12994331239E+00 -0.54626441972E+00  0.21925760104E+00  0.11149923660E+01  0.93800000000E+00 0. -1.
         22    1    1    2    0    0 -0.35140072137E-01  0.31141008150E+00  0.20348801719E+01  0.20588706558E+01  0.00000000000E+00 0. -1.
</event>
<event>
 5    1  0.1778842E+002  0.1578191E+01  0.7818608E-02  0.3377379E+00
         11   -1    0    0    0    0  0.00000000000E+00  0.00000000000E+00  0.39999999674E+01  0.40000000000E+01  0.51100000000E-03 0.  1.
    9000002   -1    0    0    0    0 -0.00000000000E+00 -0.00000000000E+00  0.00000000000E+00  0.93800000000E+00  0.93800000000E+00 0. -1.
         11    1    1    2    0    0  0.83674503438E-01  0.35083088276E-01  0.35822554798E+00  0.36953761643E+00  0.51100000000E-03 0.  1.
    9000002    1    1    2    0    0  0.10615025178E+00  0.55098993586E-01  0.25346749811E-01  0.94593352450E+00  0.93800000000E+00 0. -1.
         22    1    1    2    0    0 -0.18982475522E+00 -0.90182081862E-01  0.36164276696E+01  0.36225288591E+01  0.00000000000E+00 0.  1.
</event>
<event>
 5    1  0.1461556E+002  0.1599594E+01  0.7818608E-02  0.3353804E+00
         11   -1    0    0    0    0  0.00000000000E+00  0.00000000000E+00  0.39999999674E+01  0.40000000000E+01  0.51100000000E-03 0.  1.
    9000002   -1    0    0    0    0 -0.00000000000E+00 -0.00000000000E+00  0.00000000000E+00  0.93800000000E+00  0.93800000000E+00 0. -1.
         11    1    1    2    0    0 -0.19993710075E-01  0.13215153264E-01  0.43479927262E+00  0.43545959320E+00  0.51100000000E-03 0.  1.
    9000002    1    1    2    0    0  0.24293968197E+00 -0.13138454756E+00  0.50844824021E-01  0.97913777608E+00  0.93800000000E+00 0. -1.
         22    1    1    2    0    0 -0.22294597189E+00  0.11816939429E+00  0.35143558707E+01  0.35234026307E+01  0.00000000000E+00 0.  1.
</event>
<event>
 5    1  0.1461556E+002  0.1511111E+01  0.7818608E-02  0.3455877E+00
         11   -1    0    0    0    0  0.00000000000E+00  0.00000000000E+00  0.39999999674E+01  0.40000000000E+01  0.51100000000E-03 0. -1.
    9000002   -1    0    0    0    0 -0.00000000000E+00 -0.00000000000E+00  0.00000000000E+00  0.93800000000E+00  0.93800000000E+00 0. -1.
         11    1    1    2    0    0 -0.20398581753E+00 -0.11944646531E+00  0.41862251709E+00  0.48075226964E+00  0.51100000000E-03 0. -1.
    9000002    1    1    2    0    0 -0.79375010089E-01  0.31336765130E+00  0.14373377531E+00  0.10024984166E+01  0.93800000000E+00 0. -1.
         22    1    1    2    0    0  0.28336082762E+00 -0.19392118598E+00  0.34376436750E+01  0.34547493138E+01  0.00000000000E+00 0. -1.
</event>
<event>
 5    1  0.1461556E+002  0.1599593E+01  0.7818608E-02  0.3353805E+00
         11   -1    0    0    0    0  0.00000000000E+00  0.00000000000E+00  0.39999999674E+01  0.40000000000E+01  0.51100000000E-03 0. -1.
    9000002   -1    0    0    0    0 -0.00000000000E+00 -0.00000000000E+00  0.00000000000E+00  0.93800000000E+00  0.93800000000E+00 0.  1.
         11    1    1    2    0    0  0.13624055840E-01  0.25869799650E-02  0.19842209862E+00  0.19890675631E+00  0.51100000000E-03 0. -1.
    9000002    1    1    2    0    0 -0.20092822981E+00 -0.11571509297E+00  0.35729866233E-01  0.96689335483E+00  0.93800000000E+00 0.  1.
         22    1    1    2    0    0  0.18730417397E+00  0.11312811300E+00  0.37658480025E+01  0.37721998889E+01  0.00000000000E+00 0. -1.
</event>
<event>
 5    1  0.1461556E+002  0.1599507E+01  0.7818608E-02  0.3353898E+00
         11   -1    0    0    0    0  0.00000000000E+00  0.00000000000E+00  0.39999999674E+01  0.40000000000E+01  0.51100000000E-03 0. -1.
    9000002   -1    0    0    0    0 -0.00000000000E+00 -0.00000000000E+00  0.00000000000E+00  0.93800000000E+00  0.93800000000E+00 0. -1.
         11    1    1    2    0    0 -0.19885907523E+00  0.13352805835E+00  0.16315738569E+01  0.16490628204E+01  0.51100000000E-03 0. -1.
    9000002    1    1    2    0    0  0.49001747118E+00 -0.32493818588E+00  0.24075128319E+00  0.11329197355E+01  0.93800000000E+00 0. -1.
         22    1    1    2    0    0 -0.29115839595E+00  0.19141012753E+00  0.21276748273E+01  0.21560174441E+01  0.00000000000E+00 0. -1.
</event>
<event>
 5    1  0.1461556E+002  0.1599671E+01  0.7818608E-02  0.3353720E+00
         11   -1    0    0    0    0  0.00000000000E+00  0.00000000000E+00  0.39999999674E+01  0.40000000000E+01  0.51100000000E-03 0. -1.
    9000002   -1    0    0    0    0 -0.00000000000E+00 -0.00000000000E+00  0.00000000000E+00  0.93800000000E+00  0.93800000000E+00 0. -1.
         11    1    1    2    0    0  0.27357806441E-01  0.10155180461E-01  0.44282702010E+00  0.44378779627E+00  0.51100000000E-03 0. -1.
    9000002    1    1    2    0    0 -0.24279691687E+00 -0.10648326923E+00  0.46752588933E-01  0.97586824625E+00  0.93800000000E+00 0. -1.
         22    1    1    2    0    0  0.21543911043E+00  0.96328088770E-01  0.35104203583E+01  0.35183439575E+01  0.00000000000E+00 0. -1.
</event>
<event>
 5    1  0.1461556E+002  0.1593697E+01  0.7818608E-02  0.3360233E+00
         11   -1    0    0    0    0  0.00000000000E+00  0.00000000000E+00  0.39999999674E+01  0.40000000000E+01  0.51100000000E-03 0.  1.
    9000002   -1    0    0    0    0 -0.00000000000E+00 -0.00000000000E+00  0.00000000000E+00  0.93800000000E+00  0.93800000000E+00 0. -1.
         11    1    1    2    0    0  0.35670313232E-01  0.40789784633E-01  0.10944030647E+01  0.10957438145E+01  0.51100000000E-03 0.  1.
    9000002    1    1    2    0    0 -0.23952337091E+00  0.13221205781E+00  0.54450816411E-01  0.97860122872E+00  0.93800000000E+00 0. -1.
         22    1    1    2    0    0  0.20385305767E+00 -0.17300184245E+00  0.28511460862E+01  0.28636549568E+01  0.00000000000E+00 0.  1.
</event>
<event>
 5    1  0.1461556E+002  0.1599677E+01  0.7818608E-02  0.3353714E+00
         11   -1    0    0    0    0  0.00000000000E+00  0.00000000000E+00  0.39999999674E+01  0.40000000000E+01  0.51100000000E-03 0. -1.
    9000002   -1    0    0    0    0 -0.00000000000E+00 -0.00000000000E+00  0.00000000000E+00  0.93800000000E+00  0.93800000000E+00 0.  1.
         11    1    1    2    0    0 -0.10418121368E-01  0.87090497371E-01  0.10757552452E+01  0.10793252061E+01  0.51100000000E-03 0. -1.
    9000002    1    1    2    0    0  0.37378495571E-01 -0.31757794270E+00  0.68344395910E-01  0.99336189683E+00  0.93800000000E+00 0.  1.
         22    1    1    2    0    0 -0.26960374203E-01  0.23048744532E+00  0.28559003263E+01  0.28653128970E+01  0.00000000000E+00 0. -1.
</event>
<event>
 5    1  0.1461556E+002  0.1598392E+01  0.7818608E-02  0.3355111E+00
         11   -1    0    0    0    0  0.00000000000E+00  0.00000000000E+00  0.39999999674E+01  0.40000000000E+01  0.51100000000E-03 0. -1.
    9000002   -1    0    0    0    0 -0.00000000000E+00 -0.00000000000E+00  0.00000000000E+00  0.93800000000E+00  0.93800000000E+00 0. -1.
         11    1    1    2    0    0 -0.25324100312E+00 -0.40764710158E-02  0.18435453198E+01  0.18608619590E+01  0.51100000000E-03 0. -1.
    9000002    1    1    2    0    0  0.56225100252E+00  0.85473414115E-01  0.22544488715E+00  0.11198666401E+01  0.93800000000E+00 0. -1.
         22    1    1    2    0    0 -0.30900999940E+00 -0.81396943099E-01  0.19310097604E+01  0.19572714009E+01  0.00000000000E+00 0. -1.
</event>
<event>
 5    1  0.1461556E+002  0.1596947E+01  0.7818608E-02  0.3356683E+00
         11   -1    0    0    0    0  0.00000000000E+00  0.00000000000E+00  0.39999999674E+01  0.40000000000E+01  0.51100000000E-03 0. -1.
    9000002   -1    0    0    0    0 -0.00000000000E+00 -0.00000000000E+00  0.00000000000E+00  0.93800000000E+00  0.93800000000E+00 0.  1.
         11    1    1    2    0    0 -0.84982373428E-01  0.74728567139E-01  0.87625280894E+00  0.88353019690E+00  0.51100000000E-03 0. -1.
    9000002    1    1    2    0    0  0.30800826340E+00 -0.53936033962E+00  0.27318755503E+00  0.11576934424E+01  0.93800000000E+00 0.  1.
         22    1    1    2    0    0 -0.22302588997E+00  0.46463177248E+00  0.28505596034E+01  0.28967763607E+01  0.00000000000E+00 0. -1.
</event>
<event>
 5    1  0.1461556E+002  0.1599665E+01  0.7818608E-02  0.3353727E+00
         11   -1    0    0    0    0  0.00000000000E+00  0.00000000000E+00  0.39999999674E+01  0.40000000000E+01  0.51100000000E-03 0.  1.
    9000002   -1    0    0    0    0 -0.00000000000E+00 -0.00000000000E+00  0.00000000000E+00  0.93800000000E+00  0.93800000000E+00 0. -1.
         11    1    1    2    0    0  0.18286980043E+00 -0.20663462489E-01  0.16204825766E+01  0.16308992565E+01  0.51100000000E-03 0.  1.
    9000002    1    1    2    0    0 -0.43328936517E+00  0.40220196662E-01  0.12834298356E+00  0.10419564576E+01  0.93800000000E+00 0. -1.
         22    1    1    2    0    0  0.25041956474E+00 -0.19556734173E-01  0.22511744072E+01  0.22651442859E+01  0.00000000000E+00 0.  1.
</event>
<event>
 5    1  0.1461556E+002  0.1525641E+01  0.7818608E-02  0.3438247E+00
         11   -1    0    0    0    0  0.00000000000E+00  0.00000000000E+00  0.39999999674E+01  0.40000000000E+01  0.51100000000E-03 0. -1.
    9000002   -1    0    0    0    0 -0.00000000000E+00 -0.00000000000E+00  0.00000000000E+00  0.93800000000E+00  0.93800000000E+00 0.  1.
         11    1    1    2    0    0 -0.94264720401E-01 -0.33317629748E-01  0.83898452716E-01  0.13051863259E+00  0.51100000000E-03 0. -1.
    9000002    1    1    2    0    0 -0.17382327710E+00 -0.25718805169E+00  0.12509213905E+00  0.99591780225E+00  0.93800000000E+00 0.  1.
         22    1    1    2    0    0  0.26808799750E+00  0.29050568144E+00  0.37910093756E+01  0.38115635652E+01  0.00000000000E+00 0. -1.
</event>
<event>
 5    1  0.1464555E+002  0.1580797E+01  0.7818608E-02  0.3374473E+00
         11   -1    0    0    0    0  0.00000000000E+00  0.00000000000E+00  0.39999999674E+01  0.40000000000E+01  0.51100000000E-03 0.  1.
    9000002   -1    0    0    0    0 -0.00000000000E+00 -0.00000000000E+00  0.00000000000E+00  0.93800000000E+00  0.93800000000E+00 0.  1.
         11    1    1    2    0    0  0.10494351940E+00 -0.34823155413E-01  0.55808600924E+00  0.56893413437E+00  0.51100000000E-03 0.  1.
    9000002    1    1    2    0    0  0.66030259357E-01  0.13914562472E+00  0.29747270927E-01  0.95102597239E+00  0.93800000000E+00 0.  1.
         22    1    1    2    0    0 -0.17097377876E+00 -0.10432246930E+00  0.34121666872E+01  0.34180398932E+01  0.00000000000E+00 0.  1.
</event>
<event>
 5    1  0.1461556E+002  0.1599655E+01  0.7818608E-02  0.3353738E+00
         11   -1    0    0    0    0  0.00000000000E+00  0.00000000000E+00  0.39999999674E+01  0.40000000000E+01  0.51100000000E-03 0.  1.
    9000002   -1    0    0    0    0 -0.00000000000E+00 -0.00000000000E+00  0.00000000000E+00  0.93800000000E+00  0.93800000000E+00 0.  1.
         11    1    1    2    0    0  0.37162698923E-01 -0.89185264427E-01  0.11635008527E+01  0.11675057057E+01  0.51100000000E-03 0.  1.
    9000002    1    1    2    0    0 -0.11767951700E+00  0.28600266011E+00  0.63880245029E-01  0.98973262855E+00  0.93800000000E+00 0.  1.
         22    1    1    2    0    0  0.80516818080E-01 -0.19681739569E+00  0.27726188697E+01  0.27807616658E+01  0.00000000000E+00 0.  1.
</event>
<event>
 5    1  0.1461556E+002  0.1598449E+01  0.7818608E-02  0.3355049E+00
         11   -1    0    0    0    0  0.00000000000E+00  0.00000000000E+00  0.39999999674E+01  0.40000000000E+01  0.51100000000E-03 0.  1.
    9000002   -1    0    0    0    0 -0.00000000000E+00 -0.00000000000E+00  0.00000000000E+00  0.93800000000E+00  0.93800000000E+00 0.  1.
         11    1    1    2    0    0 -0.42738752269E-01 -0.10894320375E+00  0.10834447347E+01  0.10897467490E+01  0.51100000000E-03 0.  1.
    9000002    1    1    2    0    0  0.34953546999E-01  0.32883719044E+00  0.74151135650E-01  0.99734549640E+00  0.93800000000E+00 0.  1.
         22    1    1    2    0    0  0.77852052698E-02 -0.21989398669E+00  0.28424040970E+01  0.28509077546E+01  0.00000000000E+00 0.  1.
</event>
<event>
 5    1  0.1461556E+002  0.1565456E+01  0.7818608E-02  0.3391731E+00
         11   -1    0    0    0    0  0.00000000000E+00  0.00000000000E+00  0.39999999674E+01  0.40000000000E+01  0.51100000000E-03 0. -1.
    9000002   -1    0    0    0    0 -0.00000000000E+00 -0.00000000000E+00  0.00000000000E+00  0.93800000000E+00  0.93800000000E+00 0.  1.
         11    1    1    2    0    0  0.61161447829E-01  0.83380960455E-01  0.26375883814E+01  0.26396147140E+01  0.51100000000E-03 0. -1.
    9000002    1    1    2    0    0  0.18829262739E+00  0.19994824931E-01  0.49723338059E-01  0.95821204172E+00  0.93800000000E+00 0.  1.
         22    1    1    2    0    0 -0.24945407521E+00 -0.10337578539E+00  0.13126882479E+01  0.13401732443E+01  0.00000000000E+00 0. -1.
</event>
<event>
 5    1  0.1461556E+002  0.1599649E+01  0.7818608E-02  0.3353744E+00
         11   -1    0    0    0    0  0.00000000000E+00  0.00000000000E+00  0.39999999674E+01  0.40000000000E+01  0.51100000000E-03 0. -1.
    9000002   -1    0    0    0    0 -0.00000000000E+00 -0.00000000000E+00  0.00000000000E+00  0.93800000000E+00  0.93800000000E+00 0.  1.
         11    1    1    2    0    0  0.36499423186E-01  0.68891544754E-01  0.95831849248E+00  0.96148470970E+00  0.51100000000E-03 0. -1.
    9000002    1    1    2    0    0 -0.15058888912E+00 -0.30437097448E+00  0.77257432210E-01  0.10005655473E+01  0.93800000000E+00 0.  1.
         22    1    1    2    0    0  0.11408946593E+00  0.23547942973E+00  0.29644240427E+01  0.29759497430E+01  0.00000000000E+00 0. -1.
</event>
<event>
 5    1  0.1461556E+002  0.1599663E+01  0.7818608E-02  0.3353730E+00
         11   -1    0    0    0    0  0.00000000000E+00  0.00000000000E+00  0.39999999674E+01  0.40000000000E+01  0.51100000000E-03 0. -1.
    9000002   -1    0    0    0    0 -0.00000000000E+00 -0.00000000000E+00  0.00000000000E+00  0.93800000000E+00  0.93800000000E+00 0.  1.
         11    1    1    2    0    0 -0.88747727568E-01 -0.81668929977E-01  0.80673583609E+00  0.81570150400E+00  0.51100000000E-03 0. -1.
    9000002    1    1    2    0    0  0.40926108446E+00  0.36783556983E+00  0.20916700696E+00  0.11074260601E+01  0.93800000000E+00 0.  1.
         22    1    1    2    0    0 -0.32051335689E+00 -0.28616663986E+00  0.29840971243E+01  0.30148724359E+01  0.00000000000E+00 0. -1.
</event>
<event>
 5    1  0.1461556E+002  0.1563441E+01  0.7818608E-02  0.3394025E+00
         11   -1    0    0    0    0  0.00000000000E+00  0.00000000000E+00  0.39999999674E+01  0.40000000000E+01  0.51100000000E-03 0. -1.
    9000002   -1    0    0    0    0 -0.00000000000E+00 -0.00000000000E+00  0.00000000000E+00  0.93800000000E+00  0.93800000000E+00 0. -1.
         11    1    1    2    0    0 -0.41564353838E-01  0.51386243896E-01  0.85351555993E-01  0.10795040900E+00  0.51100000000E-03 0. -1.
    9000002    1    1    2    0    0 -0.17462203658E+00  0.99012771066E-01  0.54349638085E-01  0.96077794919E+00  0.93800000000E+00 0. -1.
         22    1    1    2    0    0  0.21618639042E+00 -0.15039901496E+00  0.38602987733E+01  0.38692716418E+01  0.00000000000E+00 0. -1.
</event>
<event>
 5    1  0.1461556E+002  0.1599641E+01  0.7818608E-02  0.3353753E+00
         11   -1    0    0    0    0  0.00000000000E+00  0.00000000000E+00  0.39999999674E+01  0.40000000000E+01  0.51100000000E-03 0. -1.
    9000002   -1    0    0    0    0 -0.00000000000E+00 -0.00000000000E+00  0.00000000000E+00  0.93800000000E+00  0.93800000000E+00 0. -1.
         11    1    1    2    0    0 -0.29063873777E-01 -0.18899306282E-01  0.64495496820E+00  0.64588626295E+00  0.51100000000E-03 0. -1.
    9000002    1    1    2    0    0  0.20443276591E+00  0.13613263330E+00  0.40087535759E-01  0.97045136929E+00  0.93800000000E+00 0. -1.
         22    1    1    2    0    0 -0.17536889213E+00 -0.11723332701E+00  0.33149574634E+01  0.33216623678E+01  0.00000000000E+00 0. -1.
</event>
<event>
 5    1  0.1461556E+002  0.1599631E+01  0.7818608E-02  0.3353764E+00
         11   -1    0    0    0    0  0.00000000000E+00  0.00000000000E+00  0.39999999674E+01  0.40000000000E+01  0.51100000000E-03 0.  1.
    9000002   -1    0    0    0    0 -0.00000000000E+00 -0.00000000000E+00  0.00000000000E+00  0.93800000000E+00  0.93800000000E+00 0. -1.
         11    1    1    2    0    0  0.24763470877E-02  0.71209034627E-03  0.45568607281E-01  0.45644259859E-01  0.51100000000E-03 0.  1.
    9000002    1    1    2    0    0 -0.28782235492E+00 -0.18499201757E+00  0.78462220754E-01  0.10015308655E+01  0.93800000000E+00 0. -1.
         22    1    1    2    0    0  0.28534600783E+00  0.18427992723E+00  0.38759691393E+01  0.38908248746E+01  0.00000000000E+00 0.  1.
</event>
<event>
 5    1  0.1461556E+002  0.1599660E+01  0.7818608E-02  0.3353732E+00
         11   -1    0    0    0    0  0.00000000000E+00  0.00000000000E+00  0.39999999674E+01  0.40000000000E+01  0.51100000000E-03 0. -1.
    9000002   -1    0    0    0    0 -0.00000000000E+00 -0.00000000000E+00  0.00000000000E+00  0.93800000000E+00  0.93800000000E+00 0.  1.
         11    1    1    2    0    0  0.81203824465E-01 -0.15484728030E+00  0.15986154858E+01  0.16081490832E+01  0.51100000000E-03 0. -1.
    9000002    1    1    2    0    0 -0.19829449677E+00  0.36435260913E+00  0.11630697497E+00  0.10322038770E+01  0.93800000000E+00 0.  1.
         22    1    1    2    0    0  0.11709067231E+00 -0.20950532883E+00  0.22850775066E+01  0.22976470398E+01  0.00000000000E+00 0. -1.
</event>
<event>
 5    1  0.1461556E+002  0.1578050E+01  0.7818608E-02  0.3377538E+00
         11   -1    0    0    0    0  0.00000000000E+00  0.00000000000E+00  0.39999999674E+01  0.40000000000E+01  0.51100000000E-03 0.  1.
    9000002   -1    0    0    0    0 -0.00000000000E+00 -0.00000000000E+00  0.00000000000E+00  0.93800000000E+00  0.93800000000E+00 0. -1.
         11    1    1    2    0    0 -0.83687679585E-01 -0.45702885048E-01  0.23394847890E+00  0.25263517830E+00  0.51100000000E-03 0.  1.
    9000002    1    1    2    0    0  0.33915783321E-01  0.33239014807E+00  0.92178683878E-01  0.99998720025E+00  0.93800000000E+00 0. -1.
         22    1    1    2    0    0  0.49771896264E-01 -0.28668726302E+00  0.36738728046E+01  0.36853776215E+01  0.00000000000E+00 0.  1.
</event>
<event>
 5    1  0.1461556E+002  0.1599668E+01  0.7818608E-02  0.3353724E+00
         11   -1    0    0    0    0  0.00000000000E+00  0.00000000000E+00  0.39999999674E+01  0.40000000000E+01  0.51100000000E-03 0.  1.
    9000002   -1    0    0    0    0 -0.00000000000E+00 -0.00000000000E+00  0.00000000000E+00  0.93800000000E+00  0.93800000000E+00 0.  1.
         11    1    1    2    0    0  0.33077808550E-02  0.10681341289E+00  0.12135303563E+01  0.12182266757E+01  0.51100000000E-03 0.  1.
    9000002    1    1    2    0    0 -0.21147910522E-01 -0.34273553512E+00  0.79013276018E-01  0.10019989915E+01  0.93800000000E+00 0.  1.
         22    1    1    2    0    0  0.17840129667E-01  0.23592212223E+00  0.27074563351E+01  0.27177743328E+01  0.00000000000E+00 0.  1.
</event>
<event>
 5    1  0.1461556E+002  0.1599671E+01  0.7818608E-02  0.3353720E+00
         11   -1    0    0    0    0  0.00000000000E+00  0.00000000000E+00  0.39999999674E+01  0.40000000000E+01  0.51100000000E-03 0.  1.
    9000002   -1    0    0    0    0 -0.00000000000E+00 -0.00000000000E+00  0.00000000000E+00  0.93800000000E+00  0.93800000000E+00 0.  1.
         11    1    1    2    0    0  0.14471586339E-01  0.89992340272E-02  0.31654450156E+00  0.31700330537E+00  0.51100000000E-03 0.  1.
    9000002    1    1    2    0    0 -0.19063107762E+00 -0.12946713071E+00  0.35228981031E-01  0.96653351043E+00  0.93800000000E+00 0.  1.
         22    1    1    2    0    0  0.17615949128E+00  0.12046789668E+00  0.36482264848E+01  0.36544631842E+01  0.00000000000E+00 0.  1.
</event>
<event>
 5    1  0.1461556E+002  0.1597397E+01  0.7818608E-02  0.3356193E+00
         11   -1    0    0    0    0  0.00000000000E+00  0.00000000000E+00  0.39999999674E+01  0.40000000000E+01  0.51100000000E-03 0. -1.
    9000002   -1    0    0    0    0 -0.00000000000E+00 -0.00000000000E+00  0.00000000000E+00  0.93800000000E+00  0.93800000000E+00 0. -1.
         11    1    1    2    0    0  0.38182475056E+00 -0.65146376499E-01  0.25400693387E+01  0.25694331471E+01  0.51100000000E-03 0. -1.
    9000002    1    1    2    0    0 -0.60358631405E+00  0.16144896090E+00  0.27619290429E+00  0.11603916261E+01  0.93800000000E+00 0. -1.
         22    1    1    2    0    0  0.22176156349E+00 -0.96302584397E-01  0.11837377243E+01  0.12081752269E+01  0.00000000000E+00 0. -1.
</event>
<event>
 5    1  0.1461556E+002  0.1578081E+01  0.7818608E-02  0.3377503E+00
         11   -1    0    0    0    0  0.00000000000E+00  0.00000000000E+00  0.39999999674E+01  0.40000000000E+01  0.51100000000E-03 0.  1.
    9000002   -1    0    0    0    0 -0.00000000000E+00 -0.00000000000E+00  0.00000000000E+00  0.93800000000E+00  0.93800000000E+00 0. -1.
         11    1    1    2    0    0 -0.76950592024E-01 -0.11861022117E+00  0.23621152833E+01  0.23663428854E+01  0.51100000000E-03 0.  1.
    9000002    1    1    2    0    0  0.15125054769E+00 -0.91569983191E-01  0.36905427071E-01  0.95523180461E+00  0.93800000000E+00 0. -1.
         22    1    1    2    0    0 -0.74299955670E-01  0.21018020436E+00  0.16009792570E+01  0.16164253100E+01  0.00000000000E+00 0.  1.
</event>
<event>
 5    1  0.1461556E+002  0.1574140E+01  0.7818608E-02  0.3381919E+00
         11   -1    0    0    0    0  0.00000000000E+00  0.00000000000E+00  0.39999999674E+01  0.40000000000E+01  0.51100000000E-03 0. -1.
    9000002   -1    0    0    0    0 -0.00000000000E+00 -0.00000000000E+00  0.00000000000E+00  0.93800000000E+00  0.93800000000E+00 0. -1.
         11    1    1    2    0    0 -0.94149170409E-01  0.31754294097E+00  0.17350834995E+01  0.17664123519E+01  0.51100000000E-03 0. -1.
    9000002    1    1    2    0    0 -0.10764850658E+00 -0.42048425709E+00  0.14977845080E+00  0.10443528119E+01  0.93800000000E+00 0. -1.
         22    1    1    2    0    0  0.20179767699E+00  0.10294131612E+00  0.21151380171E+01  0.21272348362E+01  0.00000000000E+00 0. -1.
</event>
<event>
 5    1  0.1461556E+002  0.1598731E+01  0.7818608E-02  0.3354742E+00
         11   -1    0    0    0    0  0.00000000000E+00  0.00000000000E+00  0.39999999674E+01  0.40000000000E+01  0.51100000000E-03 0. -1.
    9000002   -1    0    0    0    0 -0.00000000000E+00 -0.00000000000E+00  0.00000000000E+00  0.93800000000E+00  0.93800000000E+00 0. -1.
         11    1    1    2    0    0 -0.19868797764E+00  0.39027282281E+00  0.23828234688E+01  0.24227335250E+01  0.51100000000E-03 0. -1.
    9000002    1    1    2    0    0  0.31711877765E+00 -0.64645801959E+00  0.37367924425E+00  0.12401421160E+01  0.93800000000E+00 0. -1.
         22    1    1    2    0    0 -0.11843080002E+00  0.25618519679E+00  0.12434972543E+01  0.12751243590E+01  0.00000000000E+00 0. -1.
</event>
<event>
 5    1  0.1461556E+002  0.1599532E+01  0.7818608E-02  0.3353871E+00
         11   -1    0    0    0    0  0.00000000000E+00  0.00000000000E+00  0.39999999674E+01  0.40000000000E+01  0.51100000000E-03 0. -1.
    9000002   -1    0    0    0    0 -0.00000000000E+00 -0.00000000000E+00  0.00000000000E+00  0.93800000000E+00  0.93800000000E+00 0. -1.
         11    1    1    2    0    0 -0.17397848986E+00 -0.39785744760E-01  0.17305945732E+01  0.17397727606E+01  0.51100000000E-03 0. -1.
    9000002    1    1    2    0    0  0.42032338273E+00  0.98853678284E-01  0.12642162097E+00  0.10403221722E+01  0.93800000000E+00 0. -1.
         22    1    1    2    0    0 -0.24634489287E+00 -0.59067933524E-01  0.21429837731E+01  0.21579050672E+01  0.00000000000E+00 0. -1.
</event>
<event>
 5    1  0.1461556E+002  0.1597904E+01  0.7818608E-02  0.3355641E+00
         11   -1    0    0    0    0  0.00000000000E+00  0.00000000000E+00  0.39999999674E+01  0.40000000000E+01  0.51100000000E-03 0. -1.
    9000002   -1    0    0    0    0 -0.00000000000E+00 -0.00000000000E+00  0.00000000000E+00  0.93800000000E+00  0.93800000000E+00 0. -1.
         11    1    1    2    0    0 -0.10576243940E+00  0.84214127224E-01  0.14780028435E+01  0.14841732982E+01  0.51100000000E-03 0. -1.
    9000002    1    1    2    0    0  0.20914103864E+00 -0.33134779320E+00  0.10492088811E+00  0.10219509415E+01  0.93800000000E+00 0. -1.
         22    1    1    2    0    0 -0.10337859924E+00  0.24713366598E+00  0.24170762358E+01  0.24318757603E+01  0.00000000000E+00 0. -1.
</event>
<event>
 5    1  0.1461556E+002  0.1524418E+01  0.7818608E-02  0.3439718E+00
         11   -1    0    0    0    0  0.00000000000E+00  0.00000000000E+00  0.39999999674E+01  0.40000000000E+01  0.51100000000E-03 0.  1.
    9000002   -1    0    0    0    0 -0.00000000000E+00 -0.00000000000E+00  0.00000000000E+00  0.93800000000E+00  0.93800000000E+00 0.  1.
         11    1    1    2    0    0 -0.55434100518E-01 -0.43316888502E+00  0.27867303141E+01  0.28207400318E+01  0.51100000000E-03 0.  1.
    9000002    1    1    2    0    0 -0.35277820144E-01  0.20387527180E+00  0.87189350740E-01  0.96449760701E+00  0.93800000000E+00 0.  1.
         22    1    1    2    0    0  0.90711920663E-01  0.22929361323E+00  0.11260803025E+01  0.11527623612E+01  0.00000000000E+00 0.  1.
</event>
<event>
 5    1  0.1461556E+002  0.1599402E+01  0.7818608E-02  0.3354012E+00
         11   -1    0    0    0    0  0.00000000000E+00  0.00000000000E+00  0.39999999674E+01  0.40000000000E+01  0.51100000000E-03 0.  1.
    9000002   -1    0    0    0    0 -0.00000000000E+00 -0.00000000000E+00  0.00000000000E+00  0.93800000000E+00  0.93800000000E+00 0.  1.
         11    1    1    2    0    0  0.69373638199E+00 -0.24102439506E+00  0.23265634092E+01  0.24397254938E+01  0.51100000000E-03 0.  1.
    9000002    1    1    2    0    0 -0.94625930200E+00  0.35304593503E+00  0.82592206410E+00  0.16068725385E+01  0.93800000000E+00 0.  1.
         22    1    1    2    0    0  0.25252292002E+00 -0.11202153998E+00  0.84751449401E+00  0.89140196775E+00  0.00000000000E+00 0.  1.
</event>
<event>
 5    1  0.1461556E+002  0.1544381E+01  0.7818608E-02  0.3416034E+00
         11   -1    0    0    0    0  0.00000000000E+00  0.00000000000E+00  0.39999999674E+01  0.40000000000E+01  0.51100000000E-03 0. -1.
    9000002   -1    0    0    0    0 -0.00000000000E+00 -0.00000000000E+00  0.00000000000E+00  0.93800000000E+00  0.93800000000E+00 0. -1.
         11    1    1    2    0    0 -0.19742143680E+00  0.13021021556E+00  0.25960027914E+01  0.26067528993E+01  0.51100000000E-03 0. -1.
    9000002    1    1    2    0    0 -0.66101804193E-01 -0.14888232563E-01  0.44333484492E-01  0.94148848417E+00  0.93800000000E+00 0. -1.
         22    1    1    2    0    0  0.26352324099E+00 -0.11532198300E+00  0.13596636915E+01  0.13897586165E+01  0.00000000000E+00 0. -1.
</event>
<event>
 5    1  0.1461556E+002  0.1599610E+01  0.7818608E-02  0.3353787E+00
         11   -1    0    0    0    0  0.00000000000E+00  0.00000000000E+00  0.39999999674E+01  0.40000000000E+01  0.51100000000E-03 0.  1.
    9000002   -1    0    0    0    0 -0.00000000000E+00 -0.00000000000E+00  0.00000000000E+00  0.93800000000E+00  0.93800000000E+00 0. -1.
         11    1    1    2    0    0 -0.40673283005E-01  0.32300582186E-01  0.76568829000E+00  0.76744801917E+00  0.51100000000E-03 0.  1.
    9000002    1    1    2    0    0  0.17920857328E+00 -0.19247143227E+00  0.46041293833E-01  0.97525625644E+00  0.93800000000E+00 0. -1.
         22    1    1    2    0    0 -0.13853529028E+00  0.16017085009E+00  0.31882703835E+01  0.31952957244E+01  0.00000000000E+00 0.  1.
</event>
<event>
 5    1  0.1461556E+002  0.1599601E+01  0.7818608E-02  0.3353797E+00
         11   -1    0    0    0    0  0.00000000000E+00  0.00000000000E+00  0.39999999674E+01  0.40000000000E+01  0.51100000000E-03 0. -1.
    9000002   -1    0    0    0    0 -0.00000000000E+00 -0.00000000000E+00  0.00000000000E+00  0.93800000000E+00  0.93800000000E+00 0. -1.
         11    1    1    2    0    0 -0.18813273842E-01 -0.21407606342E-01  0.48129376421E+00  0.48213708991E+00  0.51100000000E-03 0. -1.
    9000002    1    1    2    0    0  0.20863116720E+00  0.19063291751E+00  0.53256536065E-01  0.98109537345E+00  0.93800000000E+00 0. -1.
         22    1    1    2    0    0 -0.18981789336E+00 -0.16922531117E+00  0.34654496671E+01  0.34747675366E+01  0.00000000000E+00 0. -1.
</event>
<event>
 5    1  0.1461556E+002  0.1599669E+01  0.7818608E-02  0.3353723E+00
         11   -1    0    0    0    0  0.00000000000E+00  0.00000000000E+00  0.39999999674E+01  0.40000000000E+01  0.51100000000E-03 0.  1.
    9000002   -1    0    0    0    0 -0.00000000000E+00 -0.00000000000E+00  0.00000000000E+00  0.93800000000E+00  0.93800000000E+00 0.  1.
         11    1    1    2    0    0 -0.39487473455E-01  0.51975172792E-01  0.59255166997E+00  0.59613624437E+00  0.51100000000E-03 0.  1.
    9000002    1    1    2    0    0  0.24281535300E+00 -0.34210677565E+00  0.11902609765E+00  0.10344116944E+01  0.93800000000E+00 0.  1.
         22    1    1    2    0    0 -0.20332787955E+00  0.29013160286E+00  0.32884221997E+01  0.33074520612E+01  0.00000000000E+00 0.  1.
</event>
<event>
 5    1  0.1461556E+002  0.1599303E+01  0.7818608E-02  0.3354120E+00
         11   -1    0    0    0    0  0.00000000000E+00  0.00000000000E+00  0.39999999674E+01  0.40000000000E+01  0.51100000000E-03 0.  1.
    9000002   -1    0    0    0    0 -0.00000000000E+00 -0.00000000000E+00  0.00000000000E+00  0.93800000000E+00  0.93800000000E+00 0.  1.
         11    1    1    2    0    0 -0.28730263739E-01 -0.32746281529E-01  0.50504235363E+00  0.50691792935E+00  0.51100000000E-03 0.  1.
    9000002    1    1    2    0    0  0.21016808435E+00  0.13578048798E+00  0.41875565763E-01  0.97170187177E+00  0.93800000000E+00 0.  1.
         22    1    1    2    0    0 -0.18143782061E+00 -0.10303420645E+00  0.34530820480E+01  0.34593801989E+01  0.00000000000E+00 0. -1.
</event>
<event>
 5    1  0.1461556E+002  0.1599595E+01  0.7818608E-02  0.3353803E+00
         11   -1    0    0    0    0  0.00000000000E+00  0.00000000000E+00  0.39999999674E+01  0.40000000000E+01  0.51100000000E-03 0.  1.
    9000002   -1    0    0    0    0 -0.00000000000E+00 -0.00000000000E+00  0.00000000000E+00  0.93800000000E+00  0.93800000000E+00 0. -1.
         11    1    1    2    0    0  0.84145887983E-02  0.11095146991E-01  0.11211922807E+00  0.11298181276E+00  0.51100000000E-03 0.  1.
    9000002    1    1    2    0    0 -0.17891934432E+00 -0.33270851054E+00  0.96060287907E-01  0.10157650632E+01  0.93800000000E+00 0. -1.
         22    1    1    2    0    0  0.17050475552E+00  0.32161336355E+00  0.37918204514E+01  0.38092531240E+01  0.00000000000E+00 0.  1.
</event>
<event>
 5    1  0.1461556E+002  0.1587804E+01  0.7818608E-02  0.3366708E+00
         11   -1    0    0    0    0  0.00000000000E+00  0.00000000000E+00  0.39999999674E+01  0.40000000000E+01  0.51100000000E-03 0.  1.
    9000002   -1    0    0    0    0 -0.00000000000E+00 -0.00000000000E+00  0.00000000000E+00  0.93800000000E+00  0.93800000000E+00 0. -1.
         11    1    1    2    0    0  0.16496703194E+00  0.88464679207E-01  0.65265160903E+00  0.67896576127E+00  0.51100000000E-03 0.  1.
    9000002    1    1    2    0    0 -0.48139292076E+00 -0.17990061222E+00  0.19213423805E+00  0.10866751768E+01  0.93800000000E+00 0. -1.
         22    1    1    2    0    0  0.31642588882E+00  0.91435933012E-01  0.31552141203E+01  0.31723590619E+01  0.00000000000E+00 0. -1.
</event>
<event>
 5    1  0.1461556E+002  0.1582050E+01  0.7818608E-02  0.3373079E+00
         11   -1    0    0    0    0  0.00000000000E+00  0.00000000000E+00  0.39999999674E+01  0.40000000000E+01  0.51100000000E-03 0.  1.
    9000002   -1    0    0    0    0 -0.00000000000E+00 -0.00000000000E+00  0.00000000000E+00  0.93800000000E+00  0.93800000000E+00 0.  1.
         11    1    1    2    0    0 -0.14642317336E+00  0.58481897465E-02  0.65302402888E+00  0.66926421572E+00  0.51100000000E-03 0.  1.
    9000002    1    1    2    0    0  0.21216081766E+00  0.23177064609E+00  0.79987177675E-01  0.99245745175E+00  0.93800000000E+00 0.  1.
         22    1    1    2    0    0 -0.65737644305E-01 -0.23761883584E+00  0.32669887608E+01  0.32762783325E+01  0.00000000000E+00 0. -1.
</event>
<event>
 5    1  0.1762465E+002  0.1587954E+01  0.7818608E-02  0.3366542E+00
         11   -1    0    0    0    0  0.00000000000E+00  0.00000000000E+00  0.39999999674E+01  0.40000000000E+01  0.51100000000E-03 0.  1.
    9000002   -1    0    0    0    0 -0.00000000000E+00 -0.00000000000E+00  0.00000000000E+00  0.93800000000E+00  0.93800000000E+00 0.  1.
         11    1    1    2    0    0  0.88742408665E-01  0.15198621890E-01  0.10732699004E+01  0.10770398106E+01  0.51100000000E-03 0.  1.
    9000002    1    1    2    0    0  0.94543525751E-01 -0.12285303015E+00  0.24585336759E-01  0.95104142079E+00  0.93800000000E+00 0.  1.
         22    1    1    2    0    0 -0.18328593442E+00  0.10765440826E+00  0.29021447302E+01  0.29099187687E+01  0.00000000000E+00 0.  1.
</event>
<event>
 5    1  0.1461556E+002  0.1599658E+01  0.7818608E-02  0.3353734E+00
         11   -1    0    0    0    0  0.00000000000E+00  0.00000000000E+00  0.39999999674E+01  0.40000000000E+01  0.51100000000E-03 0.  1.
    9000002   -1    0    0    0    0 -0.00000000000E+00 -0.00000000000E+00  0.00000000000E+00  0.93800000000E+00  0.93800000000E+00 0.  1.
         11    1    1    2    0    0 -0.88111059425E-01 -0.11228506051E-01  0.10606438362E+01  0.10643567290E+01  0.51100000000E-03 0.  1.
    9000002    1    1    2    0    0  0.31394237400E+00  0.30363076327E-01  0.66478024469E-01  0.99183923009E+00  0.93800000000E+00 0.  1.
         22    1    1    2    0    0 -0.22583131458E+00 -0.19134570276E-01  0.28728781067E+01  0.28818040409E+01  0.00000000000E+00 0.  1.
</event>
<event>
 5    1  0.1461556E+002  0.1599677E+01  0.7818608E-02  0.3353714E+00
         11   -1    0    0    0    0  0.00000000000E+00  0.00000000000E+00  0.39999999674E+01  0.40000000000E+01  0.51100000000E-03 0.  1.
    9000002   -1    0    0    0    0 -0.00000000000E+00 -0.00000000000E+00  0.00000000000E+00  0.93800000000E+00  0.93800000000E+00 0.  1.
         11    1    1    2    0    0 -0.67688621384E-01 -0.70454646823E-01  0.10160935118E+01  0.10207800412E+01  0.51100000000E-03 0.  1.
    9000002    1    1    2    0    0  0.25834584799E+00  0.27027445699E+00  0.93988212950E-01  0.10141344307E+01  0.93800000000E+00 0.  1.
         22    1    1    2    0    0 -0.19065722660E+00 -0.19981981016E+00  0.28899182426E+01  0.29030855282E+01  0.00000000000E+00 0.  1.
</event>
<event>
 5    1  0.1461556E+002  0.1564417E+01  0.7818608E-02  0.3392914E+00
         11   -1    0    0    0    0  0.00000000000E+00  0.00000000000E+00  0.39999999674E+01  0.40000000000E+01  0.51100000000E-03 0. -1.
    9000002   -1    0    0    0    0 -0.00000000000E+00 -0.00000000000E+00  0.00000000000E+00  0.93800000000E+00  0.93800000000E+00 0. -1.
         11    1    1    2    0    0  0.33550666869E-01 -0.32857433783E+00  0.13286146436E+01  0.13690521813E+01  0.51100000000E-03 0. -1.
    9000002    1    1    2    0    0 -0.43325639505E+00  0.41560061030E+00  0.28745905136E+00  0.11501789762E+01  0.93800000000E+00 0. -1.
         22    1    1    2    0    0  0.39970572818E+00 -0.87026272473E-01  0.23839262724E+01  0.24187688425E+01  0.00000000000E+00 0. -1.
</event>
<event>
 5    1  0.1461556E+002  0.1597833E+01  0.7818608E-02  0.3355719E+00
         11   -1    0    0    0    0  0.00000000000E+00  0.00000000000E+00  0.39999999674E+01  0.40000000000E+01  0.51100000000E-03 0. -1.
    9000002   -1    0    0    0    0 -0.00000000000E+00 -0.00000000000E+00  0.00000000000E+00  0.93800000000E+00  0.93800000000E+00 0. -1.
         11    1    1    2    0    0 -0.32712461491E-01  0.34690352275E-01  0.62611910758E+00  0.62793226042E+00  0.51100000000E-03 0. -1.
    9000002    1    1    2    0    0  0.42757205818E+00 -0.14763831754E+00  0.14061697799E+00  0.10508244726E+01  0.93800000000E+00 0. -1.
         22    1    1    2    0    0 -0.39485959669E+00  0.11294796527E+00  0.32332638818E+01  0.32592432670E+01  0.00000000000E+00 0. -1.
</event>
<event>
 5    1  0.1461556E+002  0.1595525E+01  0.7818608E-02  0.3358235E+00
         11   -1    0    0    0    0  0.00000000000E+00  0.00000000000E+00  0.39999999674E+01  0.40000000000E+01  0.51100000000E-03 0.  1.
    9000002   -1    0    0    0    0 -0.00000000000E+00 -0.00000000000E+00  0.00000000000E+00  0.93800000000E+00  0.93800000000E+00 0.  1.
         11    1    1    2    0    0 -0.31825927890E-01 -0.13581615498E+00  0.15357045233E+01  0.15420270950E+01  0.51100000000E-03 0.  1.
    9000002    1    1    2    0    0  0.23380555146E+00  0.22809483306E+00  0.74665929124E-01  0.99604783506E+00  0.93800000000E+00 0.  1.
         22    1    1    2    0    0 -0.20197962357E+00 -0.92278678083E-01  0.23896295149E+01  0.23999250700E+01  0.00000000000E+00 0.  1.
</event>
<event>
 5    1  0.1461556E+002  0.1599676E+01  0.7818608E-02  0.3353715E+00
         11   -1    0    0    0    0  0.00000000000E+00  0.00000000000E+00  0.39999999674E+01  0.40000000000E+01  0.51100000000E-03 0.  1.
    9000002   -1    0    0    0    0 -0.00000000000E+00 -0.00000000000E+00  0.00000000000E+00  0.93800000000E+00  0.93800000000E+00 0.  1.
         11    1    1    2    0    0  0.37780934346E+00 -0.28337754856E+00  0.23419798508E+01  0.23891238179E+01  0.51100000000E-03 0.  1.
    9000002    1    1    2    0    0 -0.58306493539E+00  0.43943318178E+00  0.38417869138E+00  0.12492011476E+01  0.93800000000E+00 0.  1.
         22    1    1    2    0    0  0.20525559193E+00 -0.15605563322E+00  0.12738414252E+01  0.12996750345E+01  0.00000000000E+00 0.  1.
</event>
<event>
 5    1  0.1461556E+002  0.1599677E+01  0.7818608E-02  0.3353714E+00
         11   -1    0    0    0    0  0.00000000000E+00  0.00000000000E+00  0.39999999674E+01  0.40000000000E+01  0.51100000000E-03 0. -1.
    9000002   -1    0    0    0    0 -0.00000000000E+00 -0.00000000000E+00  0.00000000000E+00  0.93800000000E+00  0.93800000000E+00 0. -1.
         11    1    1    2    0    0  0.35963393358E-01 -0.32404874847E-01  0.70985849341E+00  0.71150740219E+00  0.51100000000E-03 0.  1.
    9000002    1    1    2    0    0 -0.20002073788E+00  0.18019770232E+00  0.48221339720E-01  0.97706131082E+00  0.93800000000E+00 0. -1.
         22    1    1    2    0    0  0.16405734453E+00 -0.14779282748E+00  0.32419201342E+01  0.32494312870E+01  0.00000000000E+00 0. -1.
</event>
<event>
 5    1  0.1461556E+002  0.1592712E+01  0.7818608E-02  0.3361311E+00
         11   -1    0    0    0    0  0.00000000000E+00  0.00000000000E+00  0.39999999674E+01  0.40000000000E+01  0.51100000000E-03 0. -1.
    9000002   -1    0    0    0    0 -0.00000000000E+00 -0.00000000000E+00  0.00000000000E+00  0.93800000000E+00  0.93800000000E+00 0. -1.
         11    1    1    2    0    0 -0.18891373625E+00  0.59733279826E-01  0.97159389998E+00  0.99159035497E+00  0.51100000000E-03 0. -1.
    9000002    1    1    2    0    0  0.42677890343E+00 -0.10601489787E+00  0.13713589562E+00  0.10450022224E+01  0.93800000000E+00 0. -1.
         22    1    1    2    0    0 -0.23786516717E+00  0.46281618042E-01  0.28912701718E+01  0.29014074226E+01  0.00000000000E+00 0. -1.
</event>
<event>
 5    1  0.1461556E+002  0.1598870E+01  0.7818608E-02  0.3354591E+00
         11   -1    0    0    0    0  0.00000000000E+00  0.00000000000E+00  0.39999999674E+01  0.40000000000E+01  0.51100000000E-03 0. -1.
    9000002   -1    0    0    0    0 -0.00000000000E+00 -0.00000000000E+00  0.00000000000E+00  0.93800000000E+00  0.93800000000E+00 0. -1.
         11    1    1    2    0    0  0.13611860784E+00 -0.57079557668E-02  0.12622206050E+01  0.12695518788E+01  0.51100000000E-03 0. -1.
    9000002    1    1    2    0    0 -0.35006184836E+00 -0.50523939597E-01  0.84564237027E-01  0.10060273735E+01  0.93800000000E+00 0. -1.
         22    1    1    2    0    0  0.21394324052E+00  0.56231895364E-01  0.26532151253E+01  0.26624207476E+01  0.00000000000E+00 0. -1.
</event>
<event>
 5    1  0.1461556E+002  0.1599671E+01  0.7818608E-02  0.3353721E+00
         11   -1    0    0    0    0  0.00000000000E+00  0.00000000000E+00  0.39999999674E+01  0.40000000000E+01  0.51100000000E-03 0. -1.
    9000002   -1    0    0    0    0 -0.00000000000E+00 -0.00000000000E+00  0.00000000000E+00  0.93800000000E+00  0.93800000000E+00 0. -1.
         11    1    1    2    0    0 -0.74176792145E-01 -0.50156161622E-01  0.96506443020E+00  0.96920970518E+00  0.51100000000E-03 0. -1.
    9000002    1    1    2    0    0  0.30935079413E+00  0.20842682766E+00  0.93545654723E-01  0.10137723836E+01  0.93800000000E+00 0. -1.
         22    1    1    2    0    0 -0.23517400198E+00 -0.15827066604E+00  0.29413898824E+01  0.29550179112E+01  0.00000000000E+00 0. -1.
</event>
<event>
 5    1  0.1461556E+002  0.1599675E+01  0.7818608E-02  0.3353716E+00
         11   -1    0    0    0    0  0.00000000000E+00  0.00000000000E+00  0.39999999674E+01  0.40000000000E+01  0.51100000000E-03 0.  1.
    9000002   -1    0    0    0    0 -0.00000000000E+00 -0.00000000000E+00  0.00000000000E+00  0.93800000000E+00  0.93800000000E+00 0. -1.
         11    1    1    2    0    0 -0.15667347402E-01 -0.15700440656E-01  0.34864810994E+00  0.34935331013E+00  0.51100000000E-03 0.  1.
    9000002    1    1    2    0    0  0.18479396150E+00  0.18299267361E+00  0.44965979302E-01  0.97442345317E+00  0.93800000000E+00 0. -1.
         22    1    1    2    0    0 -0.16912661410E+00 -0.16729223295E+00  0.36063858781E+01  0.36142232367E+01  0.00000000000E+00 0.  1.
</event>
<event>
 5    1  0.1461556E+002  0.1598218E+01  0.7818608E-02  0.3355300E+00
         11   -1    0    0    0    0  0.00000000000E+00  0.00000000000E+00  0.39999999674E+01  0.40000000000E+01  0.51100000000E-03 0.  1.
    9000002   -1    0    0    0    0 -0.00000000000E+00 -0.00000000000E+00  0.00000000000E+00  0.93800000000E+00  0.93800000000E+00 0.  1.
         11    1    1    2    0    0 -0.41670733807E-02  0.15467167020E-01  0.76881035352E+00  0.76897738494E+00  0.51100000000E-03 0.  1.
    9000002    1    1    2    0    0 -0.71301066104E-01 -0.24240174805E+00  0.43536024432E-01  0.97241032230E+00  0.93800000000E+00 0.  1.
         22    1    1    2    0    0  0.75468139485E-01  0.22693458103E+00  0.31876535894E+01  0.31966122928E+01  0.00000000000E+00 0.  1.
</event>
<event>
 5    1  0.1461556E+002  0.1593153E+01  0.7818608E-02  0.3360829E+00
         11   -1    0    0    0    0  0.00000000000E+00  0.00000000000E+00  0.39999999674E+01  0.40000000000E+01  0.51100000000E-03 0.  1.
    9000002   -1    0    0    0    0 -0.00000000000E+00 -0.00000000000E+00  0.00000000000E+00  0.93800000000E+00  0.93800000000E+00 0. -1.
         11    1    1    2    0    0 -0.19645962533E-02 -0.82992323287E-01  0.13604258680E+01  0.13629564882E+01  0.51100000000E-03 0.  1.
    9000002    1    1    2    0    0  0.23224391798E+00  0.97248817441E-01  0.47124340365E-01  0.97234730081E+00  0.93800000000E+00 0. -1.
         22    1    1    2    0    0 -0.23027932173E+00 -0.14256494154E-01  0.25924497590E+01  0.26026962110E+01  0.00000000000E+00 0.  1.
</event>
<event>
 5    1  0.1461556E+002  0.1523240E+01  0.7818608E-02  0.3441136E+00
         11   -1    0    0    0    0  0.00000000000E+00  0.00000000000E+00  0.39999999674E+01  0.40000000000E+01  0.51100000000E-03 0. -1.
    9000002   -1    0    0    0    0 -0.00000000000E+00 -0.00000000000E+00  0.00000000000E+00  0.93800000000E+00  0.93800000000E+00 0.  1.
         11    1    1    2    0    0 -0.35869576937E-01 -0.11170607741E+00  0.11145575600E+00  0.16182558805E+00  0.51100000000E-03 0. -1.
    9000002    1    1    2    0    0 -0.49106060043E-01 -0.10882817683E+00  0.67657663068E-01  0.94798551496E+00  0.93800000000E+00 0.  1.
         22    1    1    2    0    0  0.84975636981E-01  0.22053425423E+00  0.38208865483E+01  0.38281888970E+01  0.00000000000E+00 0. -1.
</event>
<event>
 5    1  0.1461556E+002  0.1599676E+01  0.7818608E-02  0.3353715E+00
         11   -1    0    0    0    0  0.00000000000E+00  0.00000000000E+00  0.39999999674E+01  0.40000000000E+01  0.51100000000E-03 0. -1.
    9000002   -1    0    0    0    0 -0.00000000000E+00 -0.00000000000E+00  0.00000000000E+00  0.93800000000E+00  0.93800000000E+00 0.  1.
         11    1    1    2    0    0  0.33218813445E+00  0.38340771982E+00  0.25844879904E+01  0.26338050174E+01  0.51100000000E-03 0. -1.
    9000002    1    1    2    0    0 -0.46843782730E+00 -0.53904915131E+00  0.36590328266E+00  0.12343975040E+01  0.93800000000E+00 0.  1.
         22    1    1    2    0    0  0.13624969285E+00  0.15564143149E+00  0.10496086943E+01  0.10697974786E+01  0.00000000000E+00 0. -1.
</event>
<event>
 5    1  0.1461556E+002  0.1589462E+01  0.7818608E-02  0.3364881E+00
         11   -1    0    0    0    0  0.00000000000E+00  0.00000000000E+00  0.39999999674E+01  0.40000000000E+01  0.51100000000E-03 0.  1.
    9000002   -1    0    0    0    0 -0.00000000000E+00 -0.00000000000E+00  0.00000000000E+00  0.93800000000E+00  0.93800000000E+00 0.  1.
         11    1    1    2    0    0 -0.71019786119E-01 -0.43730900113E-01  0.13221939920E+01  0.13248220315E+01  0.51100000000E-03 0.  1.
    9000002    1    1    2    0    0  0.11786741818E+00 -0.19920697483E+00  0.43328056542E-01  0.96710778488E+00  0.93800000000E+00 0.  1.
         22    1    1    2    0    0 -0.46847632064E-01  0.24293787494E+00  0.26344779188E+01  0.26460701836E+01  0.00000000000E+00 0.  1.
</event>
<event>
 5    1  0.1461556E+002  0.1599668E+01  0.7818608E-02  0.3353724E+00
         11   -1    0    0    0    0  0.00000000000E+00  0.00000000000E+00  0.39999999674E+01  0.40000000000E+01  0.51100000000E-03 0. -1.
    9000002   -1    0    0    0    0 -0.00000000000E+00 -0.00000000000E+00  0.00000000000E+00  0.93800000000E+00  0.93800000000E+00 0. -1.
         11    1    1    2    0    0  0.13847798339E-01  0.38222698789E-01  0.47452128223E+00  0.47625984991E+00  0.51100000000E-03 0. -1.
    9000002    1    1    2    0    0 -0.10072033412E+00 -0.30335716078E+00  0.68295302581E-01  0.99331686840E+00  0.93800000000E+00 0. -1.
         22    1    1    2    0    0  0.86872535782E-01  0.26513446199E+00  0.34571833825E+01  0.34684232817E+01  0.00000000000E+00 0. -1.
</event>
<event>
 5    1  0.1461556E+002  0.1597840E+01  0.7818608E-02  0.3355711E+00
         11   -1    0    0    0    0  0.00000000000E+00  0.00000000000E+00  0.39999999674E+01  0.40000000000E+01  0.51100000000E-03 0. -1.
    9000002   -1    0    0    0    0 -0.00000000000E+00 -0.00000000000E+00  0.00000000000E+00  0.93800000000E+00  0.93800000000E+00 0. -1.
         11    1    1    2    0    0 -0.18635878215E-01  0.70518258693E-01  0.43369678062E+00  0.43978776632E+00  0.51100000000E-03 0. -1.
    9000002    1    1    2    0    0  0.49997307688E-01 -0.36582478090E+00  0.93107638967E-01  0.10123440786E+01  0.93800000000E+00 0. -1.
         22    1    1    2    0    0 -0.31361429473E-01  0.29530652221E+00  0.34731955478E+01  0.34858681551E+01  0.00000000000E+00 0. -1.
</event>
<event>
 5    1  0.1461556E+002  0.1599675E+01  0.7818608E-02  0.3353716E+00
         11   -1    0    0    0    0  0.00000000000E+00  0.00000000000E+00  0.39999999674E+01  0.40000000000E+01  0.51100000000E-03 0.  1.
    9000002   -1    0    0    0    0 -0.00000000000E+00 -0.00000000000E+00  0.00000000000E+00  0.93800000000E+00  0.93800000000E+00 0.  1.
         11    1    1    2    0    0 -0.10592472739E+00 -0.24108330387E-01  0.10632601710E+01  0.10687954490E+01  0.51100000000E-03 0.  1.
    9000002    1    1    2    0    0  0.39315757610E+00  0.89397956034E-01  0.10970021260E+00  0.10268607553E+01  0.93800000000E+00 0.  1.
         22    1    1    2    0    0 -0.28723284871E+00 -0.65289625647E-01  0.28270395838E+01  0.28423437957E+01  0.00000000000E+00 0.  1.
</event>
<event>
 5    1  0.1461556E+002  0.1599670E+01  0.7818608E-02  0.3353722E+00
         11   -1    0    0    0    0  0.00000000000E+00  0.00000000000E+00  0.39999999674E+01  0.40000000000E+01  0.51100000000E-03 0. -1.
    9000002   -1    0    0    0    0 -0.00000000000E+00 -0.00000000000E+00  0.00000000000E+00  0.93800000000E+00  0.93800000000E+00 0.  1.
         11    1    1    2    0    0  0.81352838631E-01 -0.23128054431E-01  0.10899431969E+01  0.10932198428E+01  0.51100000000E-03 0. -1.
    9000002    1    1    2    0    0 -0.29950635896E+00  0.92185177170E-01  0.65601163717E-01  0.99113555008E+00  0.93800000000E+00 0.  1.
         22    1    1    2    0    0  0.21815352033E+00 -0.69057122739E-01  0.28444556068E+01  0.28536446071E+01  0.00000000000E+00 0. -1.
</event>
<event>
 5    1  0.1461556E+002  0.1599618E+01  0.7818608E-02  0.3353778E+00
         11   -1    0    0    0    0  0.00000000000E+00  0.00000000000E+00  0.39999999674E+01  0.40000000000E+01  0.51100000000E-03 0.  1.
    9000002   -1    0    0    0    0 -0.00000000000E+00 -0.00000000000E+00  0.00000000000E+00  0.93800000000E+00  0.93800000000E+00 0. -1.
         11    1    1    2    0    0  0.22461157287E-02 -0.72434602032E-01  0.86770398395E+00  0.87072514693E+00  0.51100000000E-03 0.  1.
    9000002    1    1    2    0    0  0.22830909071E-01  0.31730716646E+00  0.67679698742E-01  0.99278881436E+00  0.93800000000E+00 0. -1.
         22    1    1    2    0    0 -0.25077024800E-01 -0.24487256443E+00  0.30646162847E+01  0.30744860387E+01  0.00000000000E+00 0.  1.
</event>
<event>
 5    1  0.1461556E+002  0.1599653E+01  0.7818608E-02  0.3353741E+00
         11   -1    0    0    0    0  0.00000000000E+00  0.00000000000E+00  0.39999999674E+01  0.40000000000E+01  0.51100000000E-03 0. -1.
    9000002   -1    0    0    0    0 -0.00000000000E+00 -0.00000000000E+00  0.00000000000E+00  0.93800000000E+00  0.93800000000E+00 0.  1.
         11    1    1    2    0    0  0.26465095357E-01 -0.37599982605E-01  0.57686776593E+00  0.57869753797E+00  0.51100000000E-03 0. -1.
    9000002    1    1    2    0    0 -0.16516250008E+00  0.23324809643E+00  0.54440759718E-01  0.98208508910E+00  0.93800000000E+00 0.  1.
         22    1    1    2    0    0  0.13869740472E+00 -0.19564811383E+00  0.33686914417E+01  0.33772173729E+01  0.00000000000E+00 0. -1.
</event>
<event>
 5    1  0.1461556E+002  0.1599642E+01  0.7818608E-02  0.3353753E+00
         11   -1    0    0    0    0  0.00000000000E+00  0.00000000000E+00  0.39999999674E+01  0.40000000000E+01  0.51100000000E-03 0.  1.
    9000002   -1    0    0    0    0 -0.00000000000E+00 -0.00000000000E+00  0.00000000000E+00  0.93800000000E+00  0.93800000000E+00 0.  1.
         11    1    1    2    0    0 -0.26272659222E-01  0.16569278852E-01  0.36231504967E+00  0.36364440042E+00  0.51100000000E-03 0.  1.
    9000002    1    1    2    0    0  0.24121164988E+00 -0.18692189135E+00  0.62181329541E-01  0.98834881052E+00  0.93800000000E+00 0.  1.
         22    1    1    2    0    0 -0.21493899066E+00  0.17035261249E+00  0.35755035882E+01  0.35860067891E+01  0.00000000000E+00 0.  1.
</event>
<event>
 5    1  0.1461556E+002  0.1563122E+01  0.7818608E-02  0.3394388E+00
         11   -1    0    0    0    0  0.00000000000E+00  0.00000000000E+00  0.39999999674E+01  0.40000000000E+01  0.51100000000E-03 0. -1.
    9000002   -1    0    0    0    0 -0.00000000000E+00 -0.00000000000E+00  0.00000000000E+00  0.93800000000E+00  0.93800000000E+00 0.  1.
         11    1    1    2    0    0  0.22619216475E-01 -0.55687608161E-01  0.59806188112E-01  0.84792569923E-01  0.51100000000E-03 0. -1.
    9000002    1    1    2    0    0  0.22180089014E+00  0.71039334288E-02  0.60790365110E-01  0.96580824661E+00  0.93800000000E+00 0.  1.
         22    1    1    2    0    0 -0.24442010661E+00  0.48583674732E-01  0.38794034141E+01  0.38873991835E+01  0.00000000000E+00 0. -1.
</event>
<event>
 5    1  0.1461556E+002  0.1527269E+01  0.7818608E-02  0.3436295E+00
         11   -1    0    0    0    0  0.00000000000E+00  0.00000000000E+00  0.39999999674E+01  0.40000000000E+01  0.51100000000E-03 0. -1.
    9000002   -1    0    0    0    0 -0.00000000000E+00 -0.00000000000E+00  0.00000000000E+00  0.93800000000E+00  0.93800000000E+00 0.  1.
         11    1    1    2    0    0  0.18193577850E+00  0.28883137167E+00  0.25106160964E+01  0.25337161706E+01  0.51100000000E-03 0. -1.
    9000002    1    1    2    0    0 -0.82355470385E-01 -0.85408365894E-02  0.59212602416E-01  0.94350702259E+00  0.93800000000E+00 0.  1.
         22    1    1    2    0    0 -0.99580308119E-01 -0.28029053508E+00  0.14301712686E+01  0.14607768068E+01  0.00000000000E+00 0.  1.
</event>
<event>
 5    1  0.1461556E+002  0.1599527E+01  0.7818608E-02  0.3353877E+00
         11   -1    0    0    0    0  0.00000000000E+00  0.00000000000E+00  0.39999999674E+01  0.40000000000E+01  0.51100000000E-03 0.  1.
    9000002   -1    0    0    0    0 -0.00000000000E+00 -0.00000000000E+00  0.00000000000E+00  0.93800000000E+00  0.93800000000E+00 0. -1.
         11    1    1    2    0    0 -0.18282116670E+00 -0.16803995446E+00  0.17311360091E+01  0.17488548106E+01  0.51100000000E-03 0.  1.
    9000002    1    1    2    0    0  0.39535729189E+00  0.33855778008E+00  0.18625967778E+00  0.10887908092E+01  0.93800000000E+00 0. -1.
         22    1    1    2    0    0 -0.21253612519E+00 -0.17051782563E+00  0.20826042804E+01  0.21003543802E+01  0.00000000000E+00 0.  1.
</event>
<event>
 5    1  0.1461556E+002  0.1588696E+01  0.7818608E-02  0.3365725E+00
         11   -1    0    0    0    0  0.00000000000E+00  0.00000000000E+00  0.39999999674E+01  0.40000000000E+01  0.51100000000E-03 0. -1.
    9000002   -1    0    0    0    0 -0.00000000000E+00 -0.00000000000E+00  0.00000000000E+00  0.93800000000E+00  0.93800000000E+00 0. -1.
         11    1    1    2    0    0 -0.55020531384E-01  0.68686402054E-01  0.24760592598E+01  0.24776228123E+01  0.51100000000E-03 0. -1.
    9000002    1    1    2    0    0 -0.22408182913E-01 -0.26994138990E+00  0.57340763719E-01  0.97800942931E+00  0.93800000000E+00 0. -1.
         22    1    1    2    0    0  0.77428714298E-01  0.20125498784E+00  0.14665999438E+01  0.14823677584E+01  0.00000000000E+00 0. -1.
</event>
<event>
 5    1  0.1461556E+002  0.1559550E+01  0.7818608E-02  0.3398471E+00
         11   -1    0    0    0    0  0.00000000000E+00  0.00000000000E+00  0.39999999674E+01  0.40000000000E+01  0.51100000000E-03 0.  1.
    9000002   -1    0    0    0    0 -0.00000000000E+00 -0.00000000000E+00  0.00000000000E+00  0.93800000000E+00  0.93800000000E+00 0.  1.
         11    1    1    2    0    0  0.19143880359E+00  0.12599132660E+00  0.14371257822E+01  0.14552846474E+01  0.51100000000E-03 0.  1.
    9000002    1    1    2    0    0  0.10798551925E-01 -0.34249352205E-02  0.29711788744E-01  0.93853882674E+00  0.93800000000E+00 0.  1.
         22    1    1    2    0    0 -0.20223735551E+00 -0.12256639138E+00  0.25331623964E+01  0.25441765259E+01  0.00000000000E+00 0.  1.
</event>
<event>
 5    1  0.1461556E+002  0.1599618E+01  0.7818608E-02  0.3353778E+00
         11   -1    0    0    0    0  0.00000000000E+00  0.00000000000E+00  0.39999999674E+01  0.40000000000E+01  0.51100000000E-03 0. -1.
    9000002   -1    0    0    0    0 -0.00000000000E+00 -0.00000000000E+00  0.00000000000E+00  0.93800000000E+00  0.93800000000E+00 0. -1.
         11    1    1    2    0    0 -0.14658491489E-01 -0.25672044956E-01  0.37830982672E+00  0.37946345197E+00  0.51100000000E-03 0. -1.
    9000002    1    1    2    0    0  0.96298458571E-01  0.27040730819E+00  0.54946887267E-01  0.98247476602E+00  0.93800000000E+00 0. -1.
         22    1    1    2    0    0 -0.81639967082E-01 -0.24473526323E+00  0.35667432534E+01  0.35760617820E+01  0.00000000000E+00 0. -1.
</event>
<event>
 5    1  0.1461556E+002  0.1599660E+01  0.7818608E-02  0.3353733E+00
         11   -1    0    0    0    0  0.00000000000E+00  0.00000000000E+00  0.39999999674E+01  0.40000000000E+01  0.51100000000E-03 0. -1.
    9000002   -1    0    0    0    0 -0.00000000000E+00 -0.00000000000E+00  0.00000000000E+00  0.93800000000E+00  0.93800000000E+00 0. -1.
         11    1    1    2    0    0 -0.21234825947E+00 -0.30042670669E-01  0.11392461664E+01  0.11592568456E+01  0.51100000000E-03 0. -1.
    9000002    1    1    2    0    0  0.67053520033E+00  0.10249886689E+00  0.32699222650E+00  0.12028679848E+01  0.93800000000E+00 0. -1.
         22    1    1    2    0    0 -0.45818694085E+00 -0.72456196222E-01  0.25337615745E+01  0.25758751696E+01  0.00000000000E+00 0. -1.
</event>
<event>
 5    1  0.1461556E+002  0.1570489E+01  0.7818608E-02  0.3386030E+00
         11   -1    0    0    0    0  0.00000000000E+00  0.00000000000E+00  0.39999999674E+01  0.40000000000E+01  0.51100000000E-03 0. -1.
    9000002   -1    0    0    0    0 -0.00000000000E+00 -0.00000000000E+00  0.00000000000E+00  0.93800000000E+00  0.93800000000E+00 0.  1.
         11    1    1    2    0    0 -0.71437741755E-02  0.24811644373E+00  0.23935010682E+01  0.24063375548E+01  0.51100000000E-03 0. -1.
    9000002    1    1    2    0    0  0.13539467107E+00 -0.65632725344E+00  0.35068806101E+00  0.12049577987E+01  0.93800000000E+00 0.  1.
         22    1    1    2    0    0 -0.12825089689E+00  0.40821080972E+00  0.12558108382E+01  0.13267046465E+01  0.00000000000E+00 0. -1.
</event>
<event>
 5    1  0.1461556E+002  0.1598992E+01  0.7818608E-02  0.3354458E+00
         11   -1    0    0    0    0  0.00000000000E+00  0.00000000000E+00  0.39999999674E+01  0.40000000000E+01  0.51100000000E-03 0.  1.
    9000002   -1    0    0    0    0 -0.00000000000E+00 -0.00000000000E+00  0.00000000000E+00  0.93800000000E+00  0.93800000000E+00 0. -1.
         11    1    1    2    0    0 -0.88609685724E-01  0.64631169736E-02  0.88734907049E+00  0.89178589488E+00  0.51100000000E-03 0.  1.
    9000002    1    1    2    0    0  0.32534538263E+00  0.67136442278E-01  0.74400389612E-01  0.99786589172E+00  0.93800000000E+00 0. -1.
         22    1    1    2    0    0 -0.23673569690E+00 -0.73599559252E-01  0.30382505073E+01  0.30483482134E+01  0.00000000000E+00 0.  1.
</event>
<event>
 5    1  0.1461556E+002  0.1597565E+01  0.7818608E-02  0.3356010E+00
         11   -1    0    0    0    0  0.00000000000E+00  0.00000000000E+00  0.39999999674E+01  0.40000000000E+01  0.51100000000E-03 0.  1.
    9000002   -1    0    0    0    0 -0.00000000000E+00 -0.00000000000E+00  0.00000000000E+00  0.93800000000E+00  0.93800000000E+00 0. -1.
         11    1    1    2    0    0  0.43228308523E-01  0.92275485964E-01  0.20174578449E+01  0.20200296703E+01  0.51100000000E-03 0.  1.
    9000002    1    1    2    0    0 -0.10055115429E+00 -0.28701097458E+00  0.63380510517E-01  0.98810268863E+00  0.93800000000E+00 0. -1.
         22    1    1    2    0    0  0.57322845764E-01  0.19473548861E+00  0.19191616119E+01  0.19298676410E+01  0.00000000000E+00 0.  1.
</event>
<event>
 5    1  0.1461556E+002  0.1506206E+01  0.7818608E-02  0.3461910E+00
         11   -1    0    0    0    0  0.00000000000E+00  0.00000000000E+00  0.39999999674E+01  0.40000000000E+01  0.51100000000E-03 0. -1.
    9000002   -1    0    0    0    0 -0.00000000000E+00 -0.00000000000E+00  0.00000000000E+00  0.93800000000E+00  0.93800000000E+00 0.  1.
         11    1    1    2    0    0 -0.48102873755E+00 -0.39783611897E-01  0.26196339113E+01  0.26637292416E+01  0.51100000000E-03 0. -1.
    9000002    1    1    2    0    0  0.20462967390E+00  0.47655745691E-02  0.10151734187E+00  0.96542518345E+00  0.93800000000E+00 0.  1.
         22    1    1    2    0    0  0.27639906365E+00  0.35018037328E-01  0.12788487142E+01  0.13088455750E+01  0.00000000000E+00 0. -1.
</event>
<event>
 5    1  0.1461556E+002  0.1599308E+01  0.7818608E-02  0.3354115E+00
         11   -1    0    0    0    0  0.00000000000E+00  0.00000000000E+00  0.39999999674E+01  0.40000000000E+01  0.51100000000E-03 0. -1.
    9000002   -1    0    0    0    0 -0.00000000000E+00 -0.00000000000E+00  0.00000000000E+00  0.93800000000E+00  0.93800000000E+00 0. -1.
         11    1    1    2    0    0 -0.32945568398E-01  0.27971361371E+00  0.14945722182E+01  0.15208785266E+01  0.51100000000E-03 0. -1.
    9000002    1    1    2    0    0  0.60282319246E-01 -0.64099143463E+00  0.29244978922E+00  0.11746807466E+01  0.93800000000E+00 0. -1.
         22    1    1    2    0    0 -0.27336750848E-01  0.36127782093E+00  0.22129779600E+01  0.22424407268E+01  0.00000000000E+00 0. -1.
</event>
<event>
 5    1  0.1461556E+002  0.1599676E+01  0.7818608E-02  0.3353715E+00
         11   -1    0    0    0    0  0.00000000000E+00  0.00000000000E+00  0.39999999674E+01  0.40000000000E+01  0.51100000000E-03 0. -1.
    9000002   -1    0    0    0    0 -0.00000000000E+00 -0.00000000000E+00  0.00000000000E+00  0.93800000000E+00  0.93800000000E+00 0. -1.
         11    1    1    2    0    0  0.20427094074E-01  0.11120973976E+00  0.13176885170E+01  0.13225309680E+01  0.51100000000E-03 0. -1.
    9000002    1    1    2    0    0 -0.58492945973E-01 -0.33035047478E+00  0.75350401260E-01  0.99903680807E+00  0.93800000000E+00 0. -1.
         22    1    1    2    0    0  0.38065851899E-01  0.21914073502E+00  0.26069610491E+01  0.26164322239E+01  0.00000000000E+00 0. -1.
</event>
<event>
 5    1  0.1461556E+002  0.1598676E+01  0.7818608E-02  0.3354802E+00
         11   -1    0    0    0    0  0.00000000000E+00  0.00000000000E+00  0.39999999674E+01  0.40000000000E+01  0.51100000000E-03 0. -1.
    9000002   -1    0    0    0    0 -0.00000000000E+00 -0.00000000000E+00  0.00000000000E+00  0.93800000000E+00  0.93800000000E+00 0.  1.
         11    1    1    2    0    0 -0.12284543081E+00  0.31569186679E+00  0.23189854721E+01  0.23435968586E+01  0.51100000000E-03 0. -1.
    9000002    1    1    2    0    0  0.15611257614E+00 -0.55486246401E+00  0.23164274418E+00  0.11250537104E+01  0.93800000000E+00 0.  1.
         22    1    1    2    0    0 -0.33267145329E-01  0.23917059722E+00  0.14493717511E+01  0.14693494310E+01  0.00000000000E+00 0. -1.
</event>
<event>
 5    1  0.1461556E+002  0.1599669E+01  0.7818608E-02  0.3353723E+00
         11   -1    0    0    0    0  0.00000000000E+00  0.00000000000E+00  0.39999999674E+01  0.40000000000E+01  0.51100000000E-03 0. -1.
    9000002   -1    0    0    0    0 -0.00000000000E+00 -0.00000000000E+00  0.00000000000E+00  0.93800000000E+00  0.93800000000E+00 0. -1.
         11    1    1    2    0    0 -0.14343858980E-01  0.39402811805E-02  0.17248592756E+00  0.17312691424E+00  0.51100000000E-03 0. -1.
    9000002    1    1    2    0    0  0.29762527821E+00 -0.89824119386E-01  0.64548633924E-01  0.99028263884E+00  0.93800000000E+00 0. -1.
         22    1    1    2    0    0 -0.28328141923E+00  0.85883838205E-01  0.37629654059E+01  0.37745904469E+01  0.00000000000E+00 0. -1.
</event>
<event>
 5    1  0.1461556E+002  0.1599677E+01  0.7818608E-02  0.3353714E+00
         11   -1    0    0    0    0  0.00000000000E+00  0.00000000000E+00  0.39999999674E+01  0.40000000000E+01  0.51100000000E-03 0.  1.
    9000002   -1    0    0    0    0 -0.00000000000E+00 -0.00000000000E+00  0.00000000000E+00  0.93800000000E+00  0.93800000000E+00 0.  1.
         11    1    1    2    0    0 -0.15580656166E+00 -0.84687526501E-01  0.10745293034E+01  0.10890643447E+01  0.51100000000E-03 0.  1.
    9000002    1    1    2    0    0  0.54319667681E+00  0.29471792498E+00  0.26751512586E+00  0.11546989337E+01  0.93800000000E+00 0.  1.
         22    1    1    2    0    0 -0.38739011515E+00 -0.21003039848E+00  0.26579555381E+01  0.26942367216E+01  0.00000000000E+00 0. -1.
</event>
<event>
 5    1  0.1461556E+002  0.1587992E+01  0.7818608E-02  0.3366500E+00
         11   -1    0    0    0    0  0.00000000000E+00  0.00000000000E+00  0.39999999674E+01  0.40000000000E+01  0.51100000000E-03 0.  1.
    9000002   -1    0    0    0    0 -0.00000000000E+00 -0.00000000000E+00  0.00000000000E+00  0.93800000000E+00  0.93800000000E+00 0.  1.
         11    1    1    2    0    0  0.67926779065E-01  0.16817150297E+00  0.20859049302E+01  0.20937753797E+01  0.51100000000E-03 0.  1.
    9000002    1    1    2    0    0  0.11449288812E+00 -0.28460484790E+00  0.72056719427E-01  0.98951741354E+00  0.93800000000E+00 0.  1.
         22    1    1    2    0    0 -0.18241966718E+00  0.11643334493E+00  0.18420383178E+01  0.18547072068E+01  0.00000000000E+00 0.  1.
</event>
<event>
 5    1  0.1461556E+002  0.1599648E+01  0.7818608E-02  0.3353745E+00
         11   -1    0    0    0    0  0.00000000000E+00  0.00000000000E+00  0.39999999674E+01  0.40000000000E+01  0.51100000000E-03 0.  1.
    9000002   -1    0    0    0    0 -0.00000000000E+00 -0.00000000000E+00  0.00000000000E+00  0.93800000000E+00  0.93800000000E+00 0.  1.
         11    1    1    2    0    0  0.38827537237E-02 -0.14223538928E-01  0.26845803416E+00  0.26886309167E+00  0.51100000000E-03 0.  1.
    9000002    1    1    2    0    0 -0.26772632216E-01  0.24609216596E+00  0.40720787178E-01  0.97096874846E+00  0.93800000000E+00 0.  1.
         22    1    1    2    0    0  0.22889878493E-01 -0.23186862703E+00  0.36908211460E+01  0.36981681599E+01  0.00000000000E+00 0.  1.
</event>
<event>
 5    1  0.1461556E+002  0.1598231E+01  0.7818608E-02  0.3355286E+00
         11   -1    0    0    0    0  0.00000000000E+00  0.00000000000E+00  0.39999999674E+01  0.40000000000E+01  0.51100000000E-03 0.  1.
    9000002   -1    0    0    0    0 -0.00000000000E+00 -0.00000000000E+00  0.00000000000E+00  0.93800000000E+00  0.93800000000E+00 0. -1.
         11    1    1    2    0    0  0.13798662411E-01  0.79374331495E-02  0.74768843692E-01  0.76446367064E-01  0.51100000000E-03 0.  1.
    9000002    1    1    2    0    0 -0.89187460253E-01 -0.24661387904E+00  0.46841225935E-01  0.97509533321E+00  0.93800000000E+00 0. -1.
         22    1    1    2    0    0  0.75388797842E-01  0.23867644589E+00  0.38783898977E+01  0.38864582997E+01  0.00000000000E+00 0.  1.
</event>
<event>
 5    1  0.3556656E+002  0.1567986E+01  0.7818608E-02  0.3388860E+00
         11   -1    0    0    0    0  0.00000000000E+00  0.00000000000E+00  0.39999999674E+01  0.40000000000E+01  0.51100000000E-03 0. -1.
    9000002   -1    0    0    0    0 -0.00000000000E+00 -0.00000000000E+00  0.00000000000E+00  0.93800000000E+00  0.93800000000E+00 0. -1.
         11    1    1    2    0    0  0.17127471156E-02 -0.17349732616E+00  0.92236247027E+00  0.93853984644E+00  0.51100000000E-03 0. -1.
    9000002    1    1    2    0    0  0.30454553469E-01 -0.32083421415E-01  0.24625527286E-01  0.93936534019E+00  0.93800000000E+00 0. -1.
         22    1    1    2    0    0 -0.32167300584E-01  0.20558074757E+00  0.30530119698E+01  0.30600948134E+01  0.00000000000E+00 0. -1.
</event>
<event>
 5    1  0.1461556E+002  0.1599676E+01  0.7818608E-02  0.3353715E+00
         11   -1    0    0    0    0  0.00000000000E+00  0.00000000000E+00  0.39999999674E+01  0.40000000000E+01  0.51100000000E-03 0. -1.
    9000002   -1    0    0    0    0 -0.00000000000E+00 -0.00000000000E+00  0.00000000000E+00  0.93800000000E+00  0.93800000000E+00 0. -1.
         11    1    1    2    0    0  0.11038000950E-01 -0.17152287670E-01  0.32315340899E+00  0.32379688896E+00  0.51100000000E-03 0.  1.
    9000002    1    1    2    0    0 -0.14164444336E+00  0.21001349412E+00  0.42638431723E-01  0.97253835498E+00  0.93800000000E+00 0. -1.
         22    1    1    2    0    0  0.13060644241E+00 -0.19286120645E+00  0.36342081266E+01  0.36416647561E+01  0.00000000000E+00 0. -1.
</event>
<event>
 5    1  0.1461556E+002  0.1599673E+01  0.7818608E-02  0.3353719E+00
         11   -1    0    0    0    0  0.00000000000E+00  0.00000000000E+00  0.39999999674E+01  0.40000000000E+01  0.51100000000E-03 0.  1.
    9000002   -1    0    0    0    0 -0.00000000000E+00 -0.00000000000E+00  0.00000000000E+00  0.93800000000E+00  0.93800000000E+00 0. -1.
         11    1    1    2    0    0  0.10590640977E-01  0.28617571200E-01  0.42242231405E+00  0.42352331646E+00  0.51100000000E-03 0. -1.
    9000002    1    1    2    0    0 -0.95257672077E-01 -0.28029496568E+00  0.58447105867E-01  0.98534225326E+00  0.93800000000E+00 0. -1.
         22    1    1    2    0    0  0.84667031101E-01  0.25167739448E+00  0.35191305474E+01  0.35291344303E+01  0.00000000000E+00 0.  1.
</event>
<event>
 5    1  0.1461556E+002  0.1599674E+01  0.7818608E-02  0.3353718E+00
         11   -1    0    0    0    0  0.00000000000E+00  0.00000000000E+00  0.39999999674E+01  0.40000000000E+01  0.51100000000E-03 0. -1.
    9000002   -1    0    0    0    0 -0.00000000000E+00 -0.00000000000E+00  0.00000000000E+00  0.93800000000E+00  0.93800000000E+00 0.  1.
         11    1    1    2    0    0  0.99401956415E-01  0.12799125538E-01  0.67580900744E+00  0.68320029436E+00  0.51100000000E-03 0. -1.
    9000002    1    1    2    0    0 -0.55837032366E+00 -0.80633520476E-01  0.22044105324E+00  0.11165650187E+01  0.93800000000E+00 0.  1.
         22    1    1    2    0    0  0.45896836725E+00  0.67834394938E-01  0.31037499067E+01  0.31382346870E+01  0.00000000000E+00 0. -1.
</event>
<event>
 5    1  0.1461556E+002  0.1599651E+01  0.7818608E-02  0.3353742E+00
         11   -1    0    0    0    0  0.00000000000E+00  0.00000000000E+00  0.39999999674E+01  0.40000000000E+01  0.51100000000E-03 0.  1.
    9000002   -1    0    0    0    0 -0.00000000000E+00 -0.00000000000E+00  0.00000000000E+00  0.93800000000E+00  0.93800000000E+00 0.  1.
         11    1    1    2    0    0 -0.40881545121E-01 -0.47707566130E-01  0.79191703975E+00  0.79440554603E+00  0.51100000000E-03 0.  1.
    9000002    1    1    2    0    0  0.18828706043E+00  0.21867946698E+00  0.55514407974E-01  0.98295400497E+00  0.93800000000E+00 0.  1.
         22    1    1    2    0    0 -0.14740551531E+00 -0.17097190085E+00  0.31525685196E+01  0.31606404490E+01  0.00000000000E+00 0. -1.
</event>
<event>
 5    1  0.1461556E+002  0.1549105E+01  0.7818608E-02  0.3410526E+00
         11   -1    0    0    0    0  0.00000000000E+00  0.00000000000E+00  0.39999999674E+01  0.40000000000E+01  0.51100000000E-03 0.  1.
    9000002   -1    0    0    0    0 -0.00000000000E+00 -0.00000000000E+00  0.00000000000E+00  0.93800000000E+00  0.93800000000E+00 0.  1.
         11    1    1    2    0    0 -0.45917257335E+00 -0.36323415483E+00  0.30019690924E+01  0.30585285999E+01  0.51100000000E-03 0.  1.
    9000002    1    1    2    0    0  0.63426938881E+00  0.20260611380E+00  0.37055509436E+00  0.12085122974E+01  0.93800000000E+00 0.  1.
         22    1    1    2    0    0 -0.17509681546E+00  0.16062804102E+00  0.62747578061E+00  0.67095910277E+00  0.00000000000E+00 0.  1.
</event>
<event>
 5    1  0.1461556E+002  0.1511394E+01  0.7818608E-02  0.3455529E+00
         11   -1    0    0    0    0  0.00000000000E+00  0.00000000000E+00  0.39999999674E+01  0.40000000000E+01  0.51100000000E-03 0.  1.
    9000002   -1    0    0    0    0 -0.00000000000E+00 -0.00000000000E+00  0.00000000000E+00  0.93800000000E+00  0.93800000000E+00 0.  1.
         11    1    1    2    0    0 -0.55050222405E-02 -0.30658961709E+00  0.11665985306E+01  0.12062254728E+01  0.51100000000E-03 0.  1.
    9000002    1    1    2    0    0 -0.25148916954E+00 -0.38145482990E-01  0.11394495288E+00  0.97853427766E+00  0.93800000000E+00 0.  1.
         22    1    1    2    0    0  0.25699419178E+00  0.34473510008E+00  0.27194564839E+01  0.27532402496E+01  0.00000000000E+00 0.  1.
</event>
<event>
 5    1  0.1461556E+002  0.1590649E+01  0.7818608E-02  0.3363576E+00
         11   -1    0    0    0    0  0.00000000000E+00  0.00000000000E+00  0.39999999674E+01  0.40000000000E+01  0.51100000000E-03 0. -1.
    9000002   -1    0    0    0    0 -0.00000000000E+00 -0.00000000000E+00  0.00000000000E+00  0.93800000000E+00  0.93800000000E+00 0. -1.
         11    1    1    2    0    0 -0.45949575960E-01 -0.50519023604E-01  0.27347014416E+00  0.28186826026E+00  0.51100000000E-03 0. -1.
    9000002    1    1    2    0    0 -0.43552290387E-01  0.26613714873E+00  0.55380334481E-01  0.97756675751E+00  0.93800000000E+00 0. -1.
         22    1    1    2    0    0  0.89501866347E-01 -0.21561812513E+00  0.36711494887E+01  0.36785649822E+01  0.00000000000E+00 0. -1.
</event>
<event>
 5    1  0.1461556E+002  0.1599676E+01  0.7818608E-02  0.3353715E+00
         11   -1    0    0    0    0  0.00000000000E+00  0.00000000000E+00  0.39999999674E+01  0.40000000000E+01  0.51100000000E-03 0.  1.
    9000002   -1    0    0    0    0 -0.00000000000E+00 -0.00000000000E+00  0.00000000000E+00  0.93800000000E+00  0.93800000000E+00 0.  1.
         11    1    1    2    0    0 -0.10009288268E+00  0.69289665582E-01  0.10878298665E+01  0.10946203554E+01  0.51100000000E-03 0.  1.
    9000002    1    1    2    0    0  0.35898364358E+00 -0.24471762794E+00  0.12791332992E+00  0.10416149931E+01  0.93800000000E+00 0.  1.
         22    1    1    2    0    0 -0.25889076091E+00  0.17542796235E+00  0.27842567710E+01  0.28017646516E+01  0.00000000000E+00 0.  1.
</event>
<event>
 5    1  0.1461556E+002  0.1595873E+01  0.7818608E-02  0.3357855E+00
         11   -1    0    0    0    0  0.00000000000E+00  0.00000000000E+00  0.39999999674E+01  0.40000000000E+01  0.51100000000E-03 0.  1.
    9000002   -1    0    0    0    0 -0.00000000000E+00 -0.00000000000E+00  0.00000000000E+00  0.93800000000E+00  0.93800000000E+00 0.  1.
         11    1    1    2    0    0  0.22167477634E-01 -0.17156257729E-01  0.58259352803E+00  0.58326770377E+00  0.51100000000E-03 0.  1.
    9000002    1    1    2    0    0 -0.13285521011E-01 -0.21336163318E+00  0.33150314541E-01  0.96262278954E+00  0.93800000000E+00 0.  1.
         22    1    1    2    0    0 -0.88819566234E-02  0.23051789091E+00  0.33842561248E+01  0.33921095067E+01  0.00000000000E+00 0.  1.
</event>
<event>
 5    1  0.1461556E+002  0.1598905E+01  0.7818608E-02  0.3354552E+00
         11   -1    0    0    0    0  0.00000000000E+00  0.00000000000E+00  0.39999999674E+01  0.40000000000E+01  0.51100000000E-03 0. -1.
    9000002   -1    0    0    0    0 -0.00000000000E+00 -0.00000000000E+00  0.00000000000E+00  0.93800000000E+00  0.93800000000E+00 0. -1.
         11    1    1    2    0    0 -0.86956140640E-03 -0.24358994019E-01  0.84097352951E+00  0.84132684207E+00  0.51100000000E-03 0. -1.
    9000002    1    1    2    0    0 -0.84476885554E-01  0.20859680584E+00  0.34168650638E-01  0.96522560486E+00  0.93800000000E+00 0. -1.
         22    1    1    2    0    0  0.85346446961E-01 -0.18423781182E+00  0.31248577872E+01  0.31314475531E+01  0.00000000000E+00 0. -1.
</event>
<event>
 5    1  0.1461556E+002  0.1599671E+01  0.7818608E-02  0.3353720E+00
         11   -1    0    0    0    0  0.00000000000E+00  0.00000000000E+00  0.39999999674E+01  0.40000000000E+01  0.51100000000E-03 0. -1.
    9000002   -1    0    0    0    0 -0.00000000000E+00 -0.00000000000E+00  0.00000000000E+00  0.93800000000E+00  0.93800000000E+00 0.  1.
         11    1    1    2    0    0  0.16015524511E-01  0.43052267754E-01  0.66956208736E+00  0.67113608511E+00  0.51100000000E-03 0. -1.
    9000002    1    1    2    0    0 -0.10181009373E+00 -0.26420033468E+00  0.53403686593E-01  0.98125586152E+00  0.93800000000E+00 0.  1.
         22    1    1    2    0    0  0.85794569214E-01  0.22114806693E+00  0.32770341934E+01  0.32856080534E+01  0.00000000000E+00 0. -1.
</event>
<event>
 5    1  0.1461556E+002  0.1599579E+01  0.7818608E-02  0.3353821E+00
         11   -1    0    0    0    0  0.00000000000E+00  0.00000000000E+00  0.39999999674E+01  0.40000000000E+01  0.51100000000E-03 0.  1.
    9000002   -1    0    0    0    0 -0.00000000000E+00 -0.00000000000E+00  0.00000000000E+00  0.93800000000E+00  0.93800000000E+00 0.  1.
         11    1    1    2    0    0  0.69533470937E-01  0.22303018866E+00  0.17640268752E+01  0.17794292473E+01  0.51100000000E-03 0.  1.
    9000002    1    1    2    0    0 -0.16963402638E+00 -0.46646680567E+00  0.16863742161E+00  0.10745462129E+01  0.93800000000E+00 0.  1.
         22    1    1    2    0    0  0.10010055544E+00  0.24343661701E+00  0.20673356706E+01  0.20840245398E+01  0.00000000000E+00 0.  1.
</event>
<event>
 5    1  0.1461556E+002  0.1599677E+01  0.7818608E-02  0.3353714E+00
         11   -1    0    0    0    0  0.00000000000E+00  0.00000000000E+00  0.39999999674E+01  0.40000000000E+01  0.51100000000E-03 0.  1.
    9000002   -1    0    0    0    0 -0.00000000000E+00 -0.00000000000E+00  0.00000000000E+00  0.93800000000E+00  0.93800000000E+00 0. -1.
         11    1    1    2    0    0 -0.44742225157E-01 -0.95790498914E-01  0.10497500172E+01  0.10550606836E+01  0.51100000000E-03 0.  1.
    9000002    1    1    2    0    0  0.16461177925E+00  0.35666006216E+00  0.10398601943E+00  0.10222331094E+01  0.93800000000E+00 0. -1.
         22    1    1    2    0    0 -0.11986955409E+00 -0.26086956324E+00  0.28462639308E+01  0.28607062070E+01  0.00000000000E+00 0.  1.
</event>
<event>
 5    1  0.1461556E+002  0.1599662E+01  0.7818608E-02  0.3353730E+00
         11   -1    0    0    0    0  0.00000000000E+00  0.00000000000E+00  0.39999999674E+01  0.40000000000E+01  0.51100000000E-03 0.  1.
    9000002   -1    0    0    0    0 -0.00000000000E+00 -0.00000000000E+00  0.00000000000E+00  0.93800000000E+00  0.93800000000E+00 0. -1.
         11    1    1    2    0    0  0.82728090121E-02 -0.47358530343E-02  0.71104571640E-01  0.71742518091E-01  0.51100000000E-03 0. -1.
    9000002    1    1    2    0    0 -0.49835335072E+00  0.27141992772E+00  0.22319185684E+00  0.11187865946E+01  0.93800000000E+00 0. -1.
         22    1    1    2    0    0  0.49008054171E+00 -0.26668407469E+00  0.37057035389E+01  0.37474708873E+01  0.00000000000E+00 0.  1.
</event>
<event>
 5    1  0.1461556E+002  0.1587634E+01  0.7818608E-02  0.3366896E+00
         11   -1    0    0    0    0  0.00000000000E+00  0.00000000000E+00  0.39999999674E+01  0.40000000000E+01  0.51100000000E-03 0.  1.
    9000002   -1    0    0    0    0 -0.00000000000E+00 -0.00000000000E+00  0.00000000000E+00  0.93800000000E+00  0.93800000000E+00 0.  1.
         11    1    1    2    0    0 -0.24566340364E-01  0.80035077351E-02  0.15860543854E+01  0.15862649009E+01  0.51100000000E-03 0.  1.
    9000002    1    1    2    0    0 -0.12603463524E+00  0.24254073243E+00  0.59083091201E-01  0.97879801176E+00  0.93800000000E+00 0.  1.
         22    1    1    2    0    0  0.15060097560E+00 -0.25054424017E+00  0.23548624908E+01  0.23729370873E+01  0.00000000000E+00 0.  1.
</event>
<event>
 5    1  0.1461556E+002  0.1599674E+01  0.7818608E-02  0.3353718E+00
         11   -1    0    0    0    0  0.00000000000E+00  0.00000000000E+00  0.39999999674E+01  0.40000000000E+01  0.51100000000E-03 0. -1.
    9000002   -1    0    0    0    0 -0.00000000000E+00 -0.00000000000E+00  0.00000000000E+00  0.93800000000E+00  0.93800000000E+00 0.  1.
         11    1    1    2    0    0 -0.13455908089E-01 -0.49924635381E-01  0.56878106531E+00  0.57112668652E+00  0.51100000000E-03 0. -1.
    9000002    1    1    2    0    0  0.86417805227E-01  0.33577331845E+00  0.80576864342E-01  0.10032688521E+01  0.93800000000E+00 0.  1.
         22    1    1    2    0    0 -0.72961897138E-01 -0.28584868306E+00  0.33506420377E+01  0.33636044614E+01  0.00000000000E+00 0. -1.
</event>
<event>
 5    1  0.1461556E+002  0.1599571E+01  0.7818608E-02  0.3353829E+00
         11   -1    0    0    0    0  0.00000000000E+00  0.00000000000E+00  0.39999999674E+01  0.40000000000E+01  0.51100000000E-03 0.  1.
    9000002   -1    0    0    0    0 -0.00000000000E+00 -0.00000000000E+00  0.00000000000E+00  0.93800000000E+00  0.93800000000E+00 0.  1.
         11    1    1    2    0    0  0.15871428968E-02 -0.52774463370E-02  0.62531917599E-01  0.62776367385E-01  0.51100000000E-03 0.  1.
    9000002    1    1    2    0    0 -0.24665717516E+00  0.20820755712E+00  0.69743824567E-01  0.99443368304E+00  0.93800000000E+00 0.  1.
         22    1    1    2    0    0  0.24507003226E+00 -0.20293011078E+00  0.38677242252E+01  0.38807899496E+01  0.00000000000E+00 0.  1.
</event>
<event>
 5    1  0.1461556E+002  0.1599532E+01  0.7818608E-02  0.3353871E+00
         11   -1    0    0    0    0  0.00000000000E+00  0.00000000000E+00  0.39999999674E+01  0.40000000000E+01  0.51100000000E-03 0.  1.
    9000002   -1    0    0    0    0 -0.00000000000E+00 -0.00000000000E+00  0.00000000000E+00  0.93800000000E+00  0.93800000000E+00 0.  1.
         11    1    1    2    0    0 -0.13352811395E+00 -0.46505185443E-01  0.10640979374E+01  0.10734510566E+01  0.51100000000E-03 0.  1.
    9000002    1    1    2    0    0  0.46070211725E+00  0.12632939097E+00  0.15578008633E+00  0.10641038442E+01  0.93800000000E+00 0.  1.
         22    1    1    2    0    0 -0.32717400330E+00 -0.79824205524E-01  0.27801219436E+01  0.28004450992E+01  0.00000000000E+00 0.  1.
</event>
<event>
 5    1  0.1461556E+002  0.1599677E+01  0.7818608E-02  0.3353714E+00
         11   -1    0    0    0    0  0.00000000000E+00  0.00000000000E+00  0.39999999674E+01  0.40000000000E+01  0.51100000000E-03 0.  1.
    9000002   -1    0    0    0    0 -0.00000000000E+00 -0.00000000000E+00  0.00000000000E+00  0.93800000000E+00  0.93800000000E+00 0. -1.
         11    1    1    2    0    0 -0.11606477221E+00  0.10077190036E+00  0.14088908158E+01  0.14172507185E+01  0.51100000000E-03 0.  1.
    9000002    1    1    2    0    0  0.32089040356E+00 -0.27622459527E+00  0.12129817618E+00  0.10362566891E+01  0.93800000000E+00 0. -1.
         22    1    1    2    0    0 -0.20482563135E+00  0.17545269491E+00  0.24698109754E+01  0.24844925924E+01  0.00000000000E+00 0.  1.
</event>
<event>
 5    1  0.1461556E+002  0.1599677E+01  0.7818608E-02  0.3353715E+00
         11   -1    0    0    0    0  0.00000000000E+00  0.00000000000E+00  0.39999999674E+01  0.40000000000E+01  0.51100000000E-03 0.  1.
    9000002   -1    0    0    0    0 -0.00000000000E+00 -0.00000000000E+00  0.00000000000E+00  0.93800000000E+00  0.93800000000E+00 0.  1.
         11    1    1    2    0    0  0.19137118199E-01 -0.10898485809E-01  0.36564721398E+00  0.36631018618E+00  0.51100000000E-03 0. -1.
    9000002    1    1    2    0    0 -0.20946655696E+00  0.11739180149E+00  0.38273003314E-01  0.96900252648E+00  0.93800000000E+00 0.  1.
         22    1    1    2    0    0  0.19032943876E+00 -0.10649331568E+00  0.35960797501E+01  0.36026872873E+01  0.00000000000E+00 0.  1.
</event>
<event>
 5    1  0.1461556E+002  0.1599675E+01  0.7818608E-02  0.3353716E+00
         11   -1    0    0    0    0  0.00000000000E+00  0.00000000000E+00  0.39999999674E+01  0.40000000000E+01  0.51100000000E-03 0.  1.
    9000002   -1    0    0    0    0 -0.00000000000E+00 -0.00000000000E+00  0.00000000000E+00  0.93800000000E+00  0.93800000000E+00 0. -1.
         11    1    1    2    0    0  0.42982516617E-01  0.12584272027E+00  0.14752663025E+01  0.14812477211E+01  0.51100000000E-03 0.  1.
    9000002    1    1    2    0    0 -0.11156490927E+00 -0.33731223791E+00  0.84687232249E-01  0.10065993255E+01  0.93800000000E+00 0. -1.
         22    1    1    2    0    0  0.68582392657E-01  0.21146951764E+00  0.24400464326E+01  0.24501529534E+01  0.00000000000E+00 0.  1.
</event>
<event>
 5    1  0.1461556E+002  0.1599548E+01  0.7818608E-02  0.3353854E+00
         11   -1    0    0    0    0  0.00000000000E+00  0.00000000000E+00  0.39999999674E+01  0.40000000000E+01  0.51100000000E-03 0. -1.
    9000002   -1    0    0    0    0 -0.00000000000E+00 -0.00000000000E+00  0.00000000000E+00  0.93800000000E+00  0.93800000000E+00 0.  1.
         11    1    1    2    0    0  0.10683070598E+00 -0.56411694582E-01  0.12145188655E+01  0.12205127672E+01  0.51100000000E-03 0. -1.
    9000002    1    1    2    0    0 -0.32168553616E+00  0.21572010757E+00  0.10113415929E+00  0.10198474725E+01  0.93800000000E+00 0.  1.
         22    1    1    2    0    0  0.21485483018E+00 -0.15930841298E+00  0.26843469425E+01  0.26976397603E+01  0.00000000000E+00 0. -1.
</event>
<event>
 5    1  0.1461556E+002  0.1593740E+01  0.7818608E-02  0.3360186E+00
         11   -1    0    0    0    0  0.00000000000E+00  0.00000000000E+00  0.39999999674E+01  0.40000000000E+01  0.51100000000E-03 0.  1.
    9000002   -1    0    0    0    0 -0.00000000000E+00 -0.00000000000E+00  0.00000000000E+00  0.93800000000E+00  0.93800000000E+00 0. -1.
         11    1    1    2    0    0 -0.10936324458E-01  0.26158128042E-02  0.11644188347E+01  0.11644732412E+01  0.51100000000E-03 0.  1.
    9000002    1    1    2    0    0 -0.18605415500E+00  0.17186853945E+00  0.47185578640E-01  0.97274118977E+00  0.93800000000E+00 0. -1.
         22    1    1    2    0    0  0.19699047946E+00 -0.17448435225E+00  0.27883955540E+01  0.28007855690E+01  0.00000000000E+00 0.  1.
</event>
<event>
 5    1  0.1461556E+002  0.1599677E+01  0.7818608E-02  0.3353715E+00
         11   -1    0    0    0    0  0.00000000000E+00  0.00000000000E+00  0.39999999674E+01  0.40000000000E+01  0.51100000000E-03 0. -1.
    9000002   -1    0    0    0    0 -0.00000000000E+00 -0.00000000000E+00  0.00000000000E+00  0.93800000000E+00  0.93800000000E+00 0. -1.
         11    1    1    2    0    0 -0.89021945357E-01 -0.74984557266E-01  0.13818027145E+01  0.13866962874E+01  0.51100000000E-03 0. -1.
    9000002    1    1    2    0    0  0.25086414570E+00  0.21361917902E+00  0.72635868157E-01  0.99683797208E+00  0.93800000000E+00 0. -1.
         22    1    1    2    0    0 -0.16184220034E+00 -0.13863462175E+00  0.25455613847E+01  0.25544657405E+01  0.00000000000E+00 0. -1.
</event>
<event>
 5    1  0.1461556E+002  0.1535024E+01  0.7818608E-02  0.3427054E+00
         11   -1    0    0    0    0  0.00000000000E+00  0.00000000000E+00  0.39999999674E+01  0.40000000000E+01  0.51100000000E-03 0.  1.
    9000002   -1    0    0    0    0 -0.00000000000E+00 -0.00000000000E+00  0.00000000000E+00  0.93800000000E+00  0.93800000000E+00 0.  1.
         11    1    1    2    0    0 -0.20066047727E+00 -0.13796738026E+00  0.74310271148E+00  0.78198563036E+00  0.51100000000E-03 0.  1.
    9000002    1    1    2    0    0 -0.55610726320E-01  0.11355555576E+00  0.59587236359E-01  0.94835755697E+00  0.93800000000E+00 0.  1.
         22    1    1    2    0    0  0.25627120359E+00  0.24411824494E-01  0.31973100195E+01  0.32076568127E+01  0.00000000000E+00 0.  1.
</event>
<event>
 5    1  0.1461556E+002  0.1590104E+01  0.7818608E-02  0.3364175E+00
         11   -1    0    0    0    0  0.00000000000E+00  0.00000000000E+00  0.39999999674E+01  0.40000000000E+01  0.51100000000E-03 0.  1.
    9000002   -1    0    0    0    0 -0.00000000000E+00 -0.00000000000E+00  0.00000000000E+00  0.93800000000E+00  0.93800000000E+00 0. -1.
         11    1    1    2    0    0  0.63061203688E-01  0.21275086446E+00  0.10078245717E+01  0.10319642795E+01  0.51100000000E-03 0.  1.
    9000002    1    1    2    0    0 -0.29319123183E+00 -0.41296032059E+00  0.18450283914E+00  0.10818422355E+01  0.93800000000E+00 0. -1.
         22    1    1    2    0    0  0.23013002815E+00  0.20020945614E+00  0.28076725565E+01  0.28241934850E+01  0.00000000000E+00 0.  1.
</event>
<event>
 5    1  0.1461556E+002  0.1599674E+01  0.7818608E-02  0.3353717E+00
         11   -1    0    0    0    0  0.00000000000E+00  0.00000000000E+00  0.39999999674E+01  0.40000000000E+01  0.51100000000E-03 0. -1.
    9000002   -1    0    0    0    0 -0.00000000000E+00 -0.00000000000E+00  0.00000000000E+00  0.93800000000E+00  0.93800000000E+00 0. -1.
         11    1    1    2    0    0  0.99055722713E-02  0.21951790507E-02  0.18258579583E+00  0.18286818513E+00  0.51100000000E-03 0. -1.
    9000002    1    1    2    0    0 -0.22823676547E+00 -0.40723930853E-01  0.35660228983E-01  0.96688474576E+00  0.93800000000E+00 0. -1.
         22    1    1    2    0    0  0.21833119320E+00  0.38528751802E-01  0.37817539425E+01  0.37882470691E+01  0.00000000000E+00 0. -1.
</event>
<event>
 5    1  0.1461556E+002  0.1599677E+01  0.7818608E-02  0.3353714E+00
         11   -1    0    0    0    0  0.00000000000E+00  0.00000000000E+00  0.39999999674E+01  0.40000000000E+01  0.51100000000E-03 0.  1.
    9000002   -1    0    0    0    0 -0.00000000000E+00 -0.00000000000E+00  0.00000000000E+00  0.93800000000E+00  0.93800000000E+00 0.  1.
         11    1    1    2    0    0 -0.50286254740E-01  0.36306215268E+00  0.19484419766E+01  0.19826167636E+01  0.51100000000E-03 0.  1.
    9000002    1    1    2    0    0  0.93660467726E-01 -0.68164386689E+00  0.33726355160E+00  0.12111983107E+01  0.93800000000E+00 0.  1.
         22    1    1    2    0    0 -0.43374212986E-01  0.31858171421E+00  0.17142944391E+01  0.17441849257E+01  0.00000000000E+00 0.  1.
</event>
<event>
 5    1  0.1461556E+002  0.1599675E+01  0.7818608E-02  0.3353717E+00
         11   -1    0    0    0    0  0.00000000000E+00  0.00000000000E+00  0.39999999674E+01  0.40000000000E+01  0.51100000000E-03 0. -1.
    9000002   -1    0    0    0    0 -0.00000000000E+00 -0.00000000000E+00  0.00000000000E+00  0.93800000000E+00  0.93800000000E+00 0. -1.
         11    1    1    2    0    0 -0.17964131093E+00 -0.51500700819E-01  0.18751333234E+01  0.18844226077E+01  0.51100000000E-03 0. -1.
    9000002    1    1    2    0    0  0.37507528302E+00  0.10360367408E+00  0.10199419780E+00  0.10206184427E+01  0.93800000000E+00 0. -1.
         22    1    1    2    0    0 -0.19543397209E+00 -0.52102973264E-01  0.20228724462E+01  0.20329589496E+01  0.00000000000E+00 0. -1.
</event>
<event>
 5    1  0.1461556E+002  0.1599576E+01  0.7818608E-02  0.3353824E+00
         11   -1    0    0    0    0  0.00000000000E+00  0.00000000000E+00  0.39999999674E+01  0.40000000000E+01  0.51100000000E-03 0.  1.
    9000002   -1    0    0    0    0 -0.00000000000E+00 -0.00000000000E+00  0.00000000000E+00  0.93800000000E+00  0.93800000000E+00 0.  1.
         11    1    1    2    0    0 -0.10891904301E+00 -0.40875014632E-01  0.83638277443E+00  0.84443503672E+00  0.51100000000E-03 0.  1.
    9000002    1    1    2    0    0  0.50149126930E+00  0.23016131894E+00  0.21046351855E+00  0.11084252878E+01  0.93800000000E+00 0.  1.
         22    1    1    2    0    0 -0.39257222629E+00 -0.18928630431E+00  0.29531536744E+01  0.29851396755E+01  0.00000000000E+00 0.  1.
</event>
<event>
 5    1  0.1461556E+002  0.1592977E+01  0.7818608E-02  0.3361021E+00
         11   -1    0    0    0    0  0.00000000000E+00  0.00000000000E+00  0.39999999674E+01  0.40000000000E+01  0.51100000000E-03 0.  1.
    9000002   -1    0    0    0    0 -0.00000000000E+00 -0.00000000000E+00  0.00000000000E+00  0.93800000000E+00  0.93800000000E+00 0.  1.
         11    1    1    2    0    0  0.18276119709E-01  0.73224588173E-02  0.29386433017E-01  0.35375959651E-01  0.51100000000E-03 0.  1.
    9000002    1    1    2    0    0 -0.22567471446E+00 -0.82643876135E-01  0.43457188369E-01  0.96927375608E+00  0.93800000000E+00 0.  1.
         22    1    1    2    0    0  0.20739859476E+00  0.75321417317E-01  0.39271563460E+01  0.39333502843E+01  0.00000000000E+00 0.  1.
</event>
<event>
 5    1  0.1461556E+002  0.1595436E+01  0.7818608E-02  0.3358332E+00
         11   -1    0    0    0    0  0.00000000000E+00  0.00000000000E+00  0.39999999674E+01  0.40000000000E+01  0.51100000000E-03 0.  1.
    9000002   -1    0    0    0    0 -0.00000000000E+00 -0.00000000000E+00  0.00000000000E+00  0.93800000000E+00  0.93800000000E+00 0.  1.
         11    1    1    2    0    0  0.76408049609E-01  0.70369068858E-01  0.13244509866E+01  0.13285182246E+01  0.51100000000E-03 0.  1.
    9000002    1    1    2    0    0 -0.33319299001E-01 -0.31334250258E+00  0.69689845362E-01  0.99196490571E+00  0.93800000000E+00 0.  1.
         22    1    1    2    0    0 -0.43088750608E-01  0.24297343372E+00  0.26058591354E+01  0.26175168697E+01  0.00000000000E+00 0.  1.
</event>
<event>
 5    1  0.1461556E+002  0.1549656E+01  0.7818608E-02  0.3409886E+00
         11   -1    0    0    0    0  0.00000000000E+00  0.00000000000E+00  0.39999999674E+01  0.40000000000E+01  0.51100000000E-03 0.  1.
    9000002   -1    0    0    0    0 -0.00000000000E+00 -0.00000000000E+00  0.00000000000E+00  0.93800000000E+00  0.93800000000E+00 0.  1.
         11    1    1    2    0    0  0.13951248226E+00 -0.16588797899E+00  0.29598555729E+01  0.29677816341E+01  0.51100000000E-03 0.  1.
    9000002    1    1    2    0    0 -0.11522297604E-01 -0.38780737422E-01  0.38246770773E-01  0.93965074598E+00  0.93800000000E+00 0.  1.
         22    1    1    2    0    0 -0.12799018465E+00  0.20466871641E+00  0.10018976237E+01  0.10305676199E+01  0.00000000000E+00 0.  1.
</event>
<event>
 5    1  0.1461556E+002  0.1599676E+01  0.7818608E-02  0.3353715E+00
         11   -1    0    0    0    0  0.00000000000E+00  0.00000000000E+00  0.39999999674E+01  0.40000000000E+01  0.51100000000E-03 0. -1.
    9000002   -1    0    0    0    0 -0.00000000000E+00 -0.00000000000E+00  0.00000000000E+00  0.93800000000E+00  0.93800000000E+00 0. -1.
         11    1    1    2    0    0  0.17567202943E+00 -0.15188683112E+00  0.10497243048E+01  0.10751054128E+01  0.51100000000E-03 0. -1.
    9000002    1    1    2    0    0 -0.59702516970E+00  0.51252399404E+00  0.45405942591E+00  0.13058077423E+01  0.93800000000E+00 0. -1.
         22    1    1    2    0    0  0.42135314027E+00 -0.36063716292E+00  0.24962162366E+01  0.25570868449E+01  0.00000000000E+00 0. -1.
</event>
<event>
 5    1  0.1461556E+002  0.1570008E+01  0.7818608E-02  0.3386573E+00
         11   -1    0    0    0    0  0.00000000000E+00  0.00000000000E+00  0.39999999674E+01  0.40000000000E+01  0.51100000000E-03 0.  1.
    9000002   -1    0    0    0    0 -0.00000000000E+00 -0.00000000000E+00  0.00000000000E+00  0.93800000000E+00  0.93800000000E+00 0.  1.
         11    1    1    2    0    0  0.69185763298E-02 -0.26279118863E+00  0.11433098492E+01  0.11731431063E+01  0.51100000000E-03 0.  1.
    9000002    1    1    2    0    0 -0.27027982052E+00  0.29571602344E+00  0.13339401874E+00  0.10286579179E+01  0.93800000000E+00 0.  1.
         22    1    1    2    0    0  0.26336124419E+00 -0.32924834806E-01  0.27232960994E+01  0.27361989758E+01  0.00000000000E+00 0.  1.
</event>
<event>
 5    1  0.1461556E+002  0.1570902E+01  0.7818608E-02  0.3385563E+00
         11   -1    0    0    0    0  0.00000000000E+00  0.00000000000E+00  0.39999999674E+01  0.40000000000E+01  0.51100000000E-03 0. -1.
    9000002   -1    0    0    0    0 -0.00000000000E+00 -0.00000000000E+00  0.00000000000E+00  0.93800000000E+00  0.93800000000E+00 0. -1.
         11    1    1    2    0    0  0.11004254745E-01  0.12035092693E+00  0.59870506443E+00  0.61078102012E+00  0.51100000000E-03 0. -1.
    9000002    1    1    2    0    0  0.40608911333E+00  0.49394070330E-01  0.13751747396E+00  0.10325227348E+01  0.93800000000E+00 0. -1.
         22    1    1    2    0    0 -0.41709336807E+00 -0.16974499726E+00  0.32637774290E+01  0.32946962451E+01  0.00000000000E+00 0. -1.
</event>
<event>
 5    1  0.1461556E+002  0.1580541E+01  0.7818608E-02  0.3374758E+00
         11   -1    0    0    0    0  0.00000000000E+00  0.00000000000E+00  0.39999999674E+01  0.40000000000E+01  0.51100000000E-03 0. -1.
    9000002   -1    0    0    0    0 -0.00000000000E+00 -0.00000000000E+00  0.00000000000E+00  0.93800000000E+00  0.93800000000E+00 0. -1.
         11    1    1    2    0    0 -0.81752263461E-01  0.10084925667E-01  0.17822021987E+00  0.19633605425E+00  0.51100000000E-03 0. -1.
    9000002    1    1    2    0    0  0.23206947837E+00 -0.15559430246E+00  0.66955818456E-01  0.98101626458E+00  0.93800000000E+00 0. -1.
         22    1    1    2    0    0 -0.15031721491E+00  0.14550937679E+00  0.37548239290E+01  0.37606476812E+01  0.00000000000E+00 0. -1.
</event>
<event>
 5    1  0.1461556E+002  0.1598962E+01  0.7818608E-02  0.3354490E+00
         11   -1    0    0    0    0  0.00000000000E+00  0.00000000000E+00  0.39999999674E+01  0.40000000000E+01  0.51100000000E-03 0.  1.
    9000002   -1    0    0    0    0 -0.00000000000E+00 -0.00000000000E+00  0.00000000000E+00  0.93800000000E+00  0.93800000000E+00 0.  1.
         11    1    1    2    0    0  0.27333050541E-01 -0.83810241218E-01  0.11833122448E+01  0.11865914975E+01  0.51100000000E-03 0.  1.
    9000002    1    1    2    0    0 -0.17799717476E+00  0.23347893086E+00  0.58025851289E-01  0.98458438176E+00  0.93800000000E+00 0.  1.
         22    1    1    2    0    0  0.15066412422E+00 -0.14966868964E+00  0.27586618713E+01  0.27668241207E+01  0.00000000000E+00 0.  1.
</event>
<event>
 5    1  0.1461556E+002  0.1599538E+01  0.7818608E-02  0.3353865E+00
         11   -1    0    0    0    0  0.00000000000E+00  0.00000000000E+00  0.39999999674E+01  0.40000000000E+01  0.51100000000E-03 0. -1.
    9000002   -1    0    0    0    0 -0.00000000000E+00 -0.00000000000E+00  0.00000000000E+00  0.93800000000E+00  0.93800000000E+00 0. -1.
         11    1    1    2    0    0  0.46704987899E-01  0.20705934880E+00  0.12732424586E+01  0.12908142970E+01  0.51100000000E-03 0. -1.
    9000002    1    1    2    0    0 -0.12040710207E+00 -0.57532916269E+00  0.24057284858E+00  0.11327933665E+01  0.93800000000E+00 0. -1.
         22    1    1    2    0    0  0.73702114173E-01  0.36826981389E+00  0.24861846602E+01  0.25143923365E+01  0.00000000000E+00 0. -1.
</event>
<event>
 5    1  0.1461556E+002  0.1599072E+01  0.7818608E-02  0.3354371E+00
         11   -1    0    0    0    0  0.00000000000E+00  0.00000000000E+00  0.39999999674E+01  0.40000000000E+01  0.51100000000E-03 0.  1.
    9000002   -1    0    0    0    0 -0.00000000000E+00 -0.00000000000E+00  0.00000000000E+00  0.93800000000E+00  0.93800000000E+00 0.  1.
         11    1    1    2    0    0 -0.19985602801E-01 -0.18367092476E+00  0.10732925221E+01  0.10890782948E+01  0.51100000000E-03 0.  1.
    9000002    1    1    2    0    0  0.33244809788E-01  0.55972380152E+00  0.21817847450E+00  0.11143795575E+01  0.93800000000E+00 0.  1.
         22    1    1    2    0    0 -0.13259206987E-01 -0.37605287676E+00  0.27085289707E+01  0.27345421478E+01  0.00000000000E+00 0.  1.
</event>
<event>
 5    1  0.1461556E+002  0.1591330E+01  0.7818608E-02  0.3362828E+00
         11   -1    0    0    0    0  0.00000000000E+00  0.00000000000E+00  0.39999999674E+01  0.40000000000E+01  0.51100000000E-03 0.  1.
    9000002   -1    0    0    0    0 -0.00000000000E+00 -0.00000000000E+00  0.00000000000E+00  0.93800000000E+00  0.93800000000E+00 0.  1.
         11    1    1    2    0    0  0.43484211318E+00  0.13649587810E+00  0.19193904340E+01  0.19727591559E+01  0.51100000000E-03 0.  1.
    9000002    1    1    2    0    0 -0.90712373367E+00 -0.32091097820E+00  0.74462120161E+00  0.15362818941E+01  0.93800000000E+00 0.  1.
         22    1    1    2    0    0  0.47228162049E+00  0.18441510010E+00  0.13359883318E+01  0.14289589500E+01  0.00000000000E+00 0.  1.
</event>
<event>
 5    1  0.1461556E+002  0.1587100E+01  0.7818608E-02  0.3367484E+00
         11   -1    0    0    0    0  0.00000000000E+00  0.00000000000E+00  0.39999999674E+01  0.40000000000E+01  0.51100000000E-03 0. -1.
    9000002   -1    0    0    0    0 -0.00000000000E+00 -0.00000000000E+00  0.00000000000E+00  0.93800000000E+00  0.93800000000E+00 0.  1.
         11    1    1    2    0    0 -0.18543982855E-01  0.18162327812E-01  0.26030348560E+01  0.26031643191E+01  0.51100000000E-03 0. -1.
    9000002    1    1    2    0    0  0.16637967627E+00 -0.16523980577E+00  0.46095085499E-01  0.96796443478E+00  0.93800000000E+00 0.  1.
         22    1    1    2    0    0 -0.14783569341E+00  0.14707747795E+00  0.13508700259E+01  0.13668712462E+01  0.00000000000E+00 0. -1.
</event>
<event>
 5    1  0.1461556E+002  0.1599677E+01  0.7818608E-02  0.3353714E+00
         11   -1    0    0    0    0  0.00000000000E+00  0.00000000000E+00  0.39999999674E+01  0.40000000000E+01  0.51100000000E-03 0. -1.
    9000002   -1    0    0    0    0 -0.00000000000E+00 -0.00000000000E+00  0.00000000000E+00  0.93800000000E+00  0.93800000000E+00 0. -1.
         11    1    1    2    0    0  0.58449154729E-01  0.78280861605E-01  0.10883254758E+01  0.10927016058E+01  0.51100000000E-03 0. -1.
    9000002    1    1    2    0    0 -0.20945939600E+00 -0.28125590195E+00  0.82464408337E-01  0.10047997311E+01  0.93800000000E+00 0. -1.
         22    1    1    2    0    0  0.15101024127E+00  0.20297504034E+00  0.28292100832E+01  0.28404986631E+01  0.00000000000E+00 0. -1.
</event>
<event>
 5    1  0.1461556E+002  0.1599674E+01  0.7818608E-02  0.3353717E+00
         11   -1    0    0    0    0  0.00000000000E+00  0.00000000000E+00  0.39999999674E+01  0.40000000000E+01  0.51100000000E-03 0.  1.
    9000002   -1    0    0    0    0 -0.00000000000E+00 -0.00000000000E+00  0.00000000000E+00  0.93800000000E+00  0.93800000000E+00 0. -1.
         11    1    1    2    0    0 -0.36179361053E-01  0.51823904364E-02  0.57532574247E+00  0.57648571050E+00  0.51100000000E-03 0.  1.
    9000002    1    1    2    0    0  0.25785215222E+00 -0.39049254040E-01  0.45220585316E-01  0.97462889244E+00  0.93800000000E+00 0. -1.
         22    1    1    2    0    0 -0.22167279117E+00  0.33866863603E-01  0.33794536396E+01  0.33868853971E+01  0.00000000000E+00 0.  1.
</event>
<event>
 5    1  0.1461556E+002  0.1599676E+01  0.7818608E-02  0.3353715E+00
         11   -1    0    0    0    0  0.00000000000E+00  0.00000000000E+00  0.39999999674E+01  0.40000000000E+01  0.51100000000E-03 0.  1.
    9000002   -1    0    0    0    0 -0.00000000000E+00 -0.00000000000E+00  0.00000000000E+00  0.93800000000E+00  0.93800000000E+00 0. -1.
         11    1    1    2    0    0  0.13488394983E+00 -0.88520432094E-01  0.17349856303E+01  0.17424709310E+01  0.51100000000E-03 0.  1.
    9000002    1    1    2    0    0 -0.30195606024E+00  0.19990043585E+00  0.88049662557E-01  0.10093237289E+01  0.93800000000E+00 0. -1.
         22    1    1    2    0    0  0.16707211042E+00 -0.11138000376E+00  0.21769646745E+01  0.21862053402E+01  0.00000000000E+00 0.  1.
</event>
<event>
 5    1  0.1461556E+002  0.1599674E+01  0.7818608E-02  0.3353717E+00
         11   -1    0    0    0    0  0.00000000000E+00  0.00000000000E+00  0.39999999674E+01  0.40000000000E+01  0.51100000000E-03 0.  1.
    9000002   -1    0    0    0    0 -0.00000000000E+00 -0.00000000000E+00  0.00000000000E+00  0.93800000000E+00  0.93800000000E+00 0. -1.
         11    1    1    2    0    0  0.38144230239E-01 -0.11859808591E+00  0.10203866788E+01  0.10279638728E+01  0.51100000000E-03 0.  1.
    9000002    1    1    2    0    0 -0.14451849681E+00  0.45377860634E+00  0.15466042266E+00  0.10632800505E+01  0.93800000000E+00 0. -1.
         22    1    1    2    0    0  0.10637426658E+00 -0.33518052042E+00  0.28249528659E+01  0.28467560767E+01  0.00000000000E+00 0.  1.
</event>
<event>
 5    1  0.1461556E+002  0.1599624E+01  0.7818608E-02  0.3353772E+00
         11   -1    0    0    0    0  0.00000000000E+00  0.00000000000E+00  0.39999999674E+01  0.40000000000E+01  0.51100000000E-03 0.  1.
    9000002   -1    0    0    0    0 -0.00000000000E+00 -0.00000000000E+00  0.00000000000E+00  0.93800000000E+00  0.93800000000E+00 0.  1.
         11    1    1    2    0    0  0.24075210708E-01 -0.21148385798E-01  0.39110309639E+00  0.39241402003E+00  0.51100000000E-03 0.  1.
    9000002    1    1    2    0    0 -0.19595364738E+00  0.18949163990E+00  0.49490838727E-01  0.97805841167E+00  0.93800000000E+00 0.  1.
         22    1    1    2    0    0  0.17187843668E+00 -0.16834325411E+00  0.35594060322E+01  0.35675275683E+01  0.00000000000E+00 0.  1.
</event>
<event>
 5    1  0.1461556E+002  0.1599579E+01  0.7818608E-02  0.3353821E+00
         11   -1    0    0    0    0  0.00000000000E+00  0.00000000000E+00  0.39999999674E+01  0.40000000000E+01  0.51100000000E-03 0.  1.
    9000002   -1    0    0    0    0 -0.00000000000E+00 -0.00000000000E+00  0.00000000000E+00  0.93800000000E+00  0.93800000000E+00 0.  1.
         11    1    1    2    0    0  0.41095804554E-02  0.21214337607E-01  0.42326216751E+00  0.42381370947E+00  0.51100000000E-03 0.  1.
    9000002    1    1    2    0    0  0.26790097614E-01 -0.22078496863E+00  0.32867098681E-01  0.96456620192E+00  0.93800000000E+00 0.  1.
         22    1    1    2    0    0 -0.30899678069E-01  0.19957063102E+00  0.35438707012E+01  0.35496200886E+01  0.00000000000E+00 0.  1.
</event>
<event>
 5    1  0.1461556E+002  0.1597988E+01  0.7818608E-02  0.3355550E+00
         11   -1    0    0    0    0  0.00000000000E+00  0.00000000000E+00  0.39999999674E+01  0.40000000000E+01  0.51100000000E-03 0. -1.
    9000002   -1    0    0    0    0 -0.00000000000E+00 -0.00000000000E+00  0.00000000000E+00  0.93800000000E+00  0.93800000000E+00 0.  1.
         11    1    1    2    0    0 -0.72073794660E-01  0.40209584555E-01  0.41612943521E+00  0.42423508876E+00  0.51100000000E-03 0. -1.
    9000002    1    1    2    0    0  0.55779102970E+00 -0.99121026886E-01  0.22401796417E+00  0.11184738974E+01  0.93800000000E+00 0.  1.
         22    1    1    2    0    0 -0.48571723504E+00  0.58911442331E-01  0.33598525680E+01  0.33952910139E+01  0.00000000000E+00 0. -1.
</event>
<event>
 5    1  0.1461556E+002  0.1596948E+01  0.7818608E-02  0.3356682E+00
         11   -1    0    0    0    0  0.00000000000E+00  0.00000000000E+00  0.39999999674E+01  0.40000000000E+01  0.51100000000E-03 0. -1.
    9000002   -1    0    0    0    0 -0.00000000000E+00 -0.00000000000E+00  0.00000000000E+00  0.93800000000E+00  0.93800000000E+00 0. -1.
         11    1    1    2    0    0 -0.75553328132E-02 -0.17083710009E-01  0.25428114026E+00  0.25496685199E+00  0.51100000000E-03 0. -1.
    9000002    1    1    2    0    0  0.29421324252E-02 -0.19980712885E+00  0.28482817263E-01  0.95947215476E+00  0.93800000000E+00 0. -1.
         22    1    1    2    0    0  0.46132003880E-02  0.21689083886E+00  0.37172360098E+01  0.37235609932E+01  0.00000000000E+00 0. -1.
</event>
<event>
 5    1  0.1461556E+002  0.1599677E+01  0.7818608E-02  0.3353714E+00
         11   -1    0    0    0    0  0.00000000000E+00  0.00000000000E+00  0.39999999674E+01  0.40000000000E+01  0.51100000000E-03 0. -1.
    9000002   -1    0    0    0    0 -0.00000000000E+00 -0.00000000000E+00  0.00000000000E+00  0.93800000000E+00  0.93800000000E+00 0. -1.
         11    1    1    2    0    0 -0.64528294491E-01  0.18616153406E+00  0.19194618228E+01  0.19295476071E+01  0.51100000000E-03 0. -1.
    9000002    1    1    2    0    0  0.13056572888E+00 -0.37693689387E+00  0.10732061870E+00  0.10249344109E+01  0.93800000000E+00 0. -1.
         22    1    1    2    0    0 -0.66037434386E-01  0.19077535981E+00  0.19732175258E+01  0.19835179820E+01  0.00000000000E+00 0. -1.
</event>
<event>
 5    1  0.1492503E+002  0.1553974E+01  0.7818608E-02  0.3404885E+00
         11   -1    0    0    0    0  0.00000000000E+00  0.00000000000E+00  0.39999999674E+01  0.40000000000E+01  0.51100000000E-03 0. -1.
    9000002   -1    0    0    0    0 -0.00000000000E+00 -0.00000000000E+00  0.00000000000E+00  0.93800000000E+00  0.93800000000E+00 0.  1.
         11    1    1    2    0    0  0.16405164460E+00 -0.17221241403E+00  0.10681583320E+01  0.10943182996E+01  0.51100000000E-03 0. -1.
    9000002    1    1    2    0    0 -0.22233145817E-01  0.24818649477E-01  0.34600361007E-01  0.93922918562E+00  0.93800000000E+00 0.  1.
         22    1    1    2    0    0 -0.14181849878E+00  0.14739376455E+00  0.28972412744E+01  0.29044525147E+01  0.00000000000E+00 0. -1.
</event>
<event>
 5    1  0.1461556E+002  0.1508036E+01  0.7818608E-02  0.3459654E+00
         11   -1    0    0    0    0  0.00000000000E+00  0.00000000000E+00  0.39999999674E+01  0.40000000000E+01  0.51100000000E-03 0. -1.
    9000002   -1    0    0    0    0 -0.00000000000E+00 -0.00000000000E+00  0.00000000000E+00  0.93800000000E+00  0.93800000000E+00 0. -1.
         11    1    1    2    0    0  0.35997178858E-01 -0.28214335098E+00  0.77758906609E+00  0.82797686212E+00  0.51100000000E-03 0. -1.
    9000002    1    1    2    0    0  0.97802679998E-01 -0.26785398448E-01  0.76951077601E-01  0.94659827283E+00  0.93800000000E+00 0. -1.
         22    1    1    2    0    0 -0.13379985886E+00  0.30892874943E+00  0.31454598237E+01  0.31634248650E+01  0.00000000000E+00 0. -1.
</event>
<event>
 5    1  0.1461556E+002  0.1590864E+01  0.7818608E-02  0.3363339E+00
         11   -1    0    0    0    0  0.00000000000E+00  0.00000000000E+00  0.39999999674E+01  0.40000000000E+01  0.51100000000E-03 0. -1.
    9000002   -1    0    0    0    0 -0.00000000000E+00 -0.00000000000E+00  0.00000000000E+00  0.93800000000E+00  0.93800000000E+00 0.  1.
         11    1    1    2    0    0 -0.46474157498E-01 -0.37317580278E-01  0.40239153185E+00  0.40678207327E+00  0.51100000000E-03 0. -1.
    9000002    1    1    2    0    0 -0.15356473045E+00  0.87577527272E-01  0.27245376107E-01  0.95490222549E+00  0.93800000000E+00 0.  1.
         22    1    1    2    0    0  0.20003888795E+00 -0.50259946994E-01  0.35703630594E+01  0.35763157012E+01  0.00000000000E+00 0. -1.
</event>
<event>
 5    1  0.1461556E+002  0.1592619E+01  0.7818608E-02  0.3361414E+00
         11   -1    0    0    0    0  0.00000000000E+00  0.00000000000E+00  0.39999999674E+01  0.40000000000E+01  0.51100000000E-03 0. -1.
    9000002   -1    0    0    0    0 -0.00000000000E+00 -0.00000000000E+00  0.00000000000E+00  0.93800000000E+00  0.93800000000E+00 0.  1.
         11    1    1    2    0    0  0.19417801210E-01 -0.92911685541E-01  0.47939505894E+00  0.48870186819E+00  0.51100000000E-03 0. -1.
    9000002    1    1    2    0    0  0.22509439904E+00  0.36848977367E+00  0.13233915802E+00  0.10410618879E+01  0.93800000000E+00 0.  1.
         22    1    1    2    0    0 -0.24451220025E+00 -0.27557808813E+00  0.33882657504E+01  0.34082362439E+01  0.00000000000E+00 0. -1.
</event>
<event>
 5    1  0.1461556E+002  0.1599601E+01  0.7818608E-02  0.3353797E+00
         11   -1    0    0    0    0  0.00000000000E+00  0.00000000000E+00  0.39999999674E+01  0.40000000000E+01  0.51100000000E-03 0. -1.
    9000002   -1    0    0    0    0 -0.00000000000E+00 -0.00000000000E+00  0.00000000000E+00  0.93800000000E+00  0.93800000000E+00 0.  1.
         11    1    1    2    0    0 -0.42273418119E-01 -0.30339797483E+00  0.19553793630E+01  0.19792286597E+01  0.51100000000E-03 0. -1.
    9000002    1    1    2    0    0  0.90233530468E-01  0.59895652188E+00  0.25637066462E+00  0.11456268689E+01  0.93800000000E+00 0.  1.
         22    1    1    2    0    0 -0.47960112350E-01 -0.29555854705E+00  0.17882499397E+01  0.18131444714E+01  0.00000000000E+00 0. -1.
</event>
<event>
 5    1  0.1461556E+002  0.1598688E+01  0.7818608E-02  0.3354788E+00
         11   -1    0    0    0    0  0.00000000000E+00  0.00000000000E+00  0.39999999674E+01  0.40000000000E+01  0.51100000000E-03 0. -1.
    9000002   -1    0    0    0    0 -0.00000000000E+00 -0.00000000000E+00  0.00000000000E+00  0.93800000000E+00  0.93800000000E+00 0.  1.
         11    1    1    2    0    0  0.16537919965E+00  0.40334296126E-01  0.15073830054E+01  0.15169643771E+01  0.51100000000E-03 0. -1.
    9000002    1    1    2    0    0 -0.39172388139E+00 -0.15818251803E-01  0.10438618005E+00  0.10219776372E+01  0.93800000000E+00 0.  1.
         22    1    1    2    0    0  0.22634468175E+00 -0.24516044323E-01  0.23882307819E+01  0.23990579857E+01  0.00000000000E+00 0. -1.
</event>
<event>
 5    1  0.1461556E+002  0.1566298E+01  0.7818608E-02  0.3390775E+00
         11   -1    0    0    0    0  0.00000000000E+00  0.00000000000E+00  0.39999999674E+01  0.40000000000E+01  0.51100000000E-03 0. -1.
    9000002   -1    0    0    0    0 -0.00000000000E+00 -0.00000000000E+00  0.00000000000E+00  0.93800000000E+00  0.93800000000E+00 0. -1.
         11    1    1    2    0    0  0.98663266808E-01 -0.50760969491E-01  0.26282682501E+00  0.28528813033E+00  0.51100000000E-03 0. -1.
    9000002    1    1    2    0    0  0.11227974379E+00  0.23965137288E+00  0.72713095704E-01  0.97732835612E+00  0.93800000000E+00 0. -1.
         22    1    1    2    0    0 -0.21094301060E+00 -0.18889040339E+00  0.36644600466E+01  0.36753835135E+01  0.00000000000E+00 0. -1.
</event>
<event>
 5    1  0.1461556E+002  0.1579925E+01  0.7818608E-02  0.3375444E+00
         11   -1    0    0    0    0  0.00000000000E+00  0.00000000000E+00  0.39999999674E+01  0.40000000000E+01  0.51100000000E-03 0. -1.
    9000002   -1    0    0    0    0 -0.00000000000E+00 -0.00000000000E+00  0.00000000000E+00  0.93800000000E+00  0.93800000000E+00 0.  1.
         11    1    1    2    0    0 -0.88667622174E-01 -0.10556801612E+00  0.21972804239E+01  0.22016012527E+01  0.51100000000E-03 0. -1.
    9000002    1    1    2    0    0  0.23411888429E+00 -0.10283136445E+00  0.58742902879E-01  0.97400239740E+00  0.93800000000E+00 0.  1.
         22    1    1    2    0    0 -0.14545126212E+00  0.20839938057E+00  0.17439766406E+01  0.17623963499E+01  0.00000000000E+00 0. -1.
</event>
<event>
 5    1  0.1461556E+002  0.1599660E+01  0.7818608E-02  0.3353733E+00
         11   -1    0    0    0    0  0.00000000000E+00  0.00000000000E+00  0.39999999674E+01  0.40000000000E+01  0.51100000000E-03 0.  1.
    9000002   -1    0    0    0    0 -0.00000000000E+00 -0.00000000000E+00  0.00000000000E+00  0.93800000000E+00  0.93800000000E+00 0. -1.
         11    1    1    2    0    0  0.13073780107E-01 -0.56483055837E-01  0.66834222062E+00  0.67085232675E+00  0.51100000000E-03 0.  1.
    9000002    1    1    2    0    0 -0.96946309300E-01  0.32263412695E+00  0.76003375246E-01  0.99955584127E+00  0.93800000000E+00 0. -1.
         22    1    1    2    0    0  0.83872529193E-01 -0.26615107112E+00  0.32556543715E+01  0.32675918320E+01  0.00000000000E+00 0.  1.
</event>
<event>
 5    1  0.1461556E+002  0.1599670E+01  0.7818608E-02  0.3353722E+00
         11   -1    0    0    0    0  0.00000000000E+00  0.00000000000E+00  0.39999999674E+01  0.40000000000E+01  0.51100000000E-03 0.  1.
    9000002   -1    0    0    0    0 -0.00000000000E+00 -0.00000000000E+00  0.00000000000E+00  0.93800000000E+00  0.93800000000E+00 0.  1.
         11    1    1    2    0    0 -0.35547560203E-01 -0.22870884705E-01  0.61938686689E+00  0.62082772039E+00  0.51100000000E-03 0.  1.
    9000002    1    1    2    0    0  0.21360739166E+00  0.14059841224E+00  0.43466521417E-01  0.97320571812E+00  0.93800000000E+00 0.  1.
         22    1    1    2    0    0 -0.17805983145E+00 -0.11772752753E+00  0.33371465791E+01  0.33439665615E+01  0.00000000000E+00 0.  1.
</event>
<event>
 5    1  0.1461556E+002  0.1599677E+01  0.7818608E-02  0.3353714E+00
         11   -1    0    0    0    0  0.00000000000E+00  0.00000000000E+00  0.39999999674E+01  0.40000000000E+01  0.51100000000E-03 0. -1.
    9000002   -1    0    0    0    0 -0.00000000000E+00 -0.00000000000E+00  0.00000000000E+00  0.93800000000E+00  0.93800000000E+00 0. -1.
         11    1    1    2    0    0  0.33080865924E-01  0.86740217737E-01  0.10156215186E+01  0.10198556462E+01  0.51100000000E-03 0. -1.
    9000002    1    1    2    0    0 -0.12843604004E+00 -0.33433102002E+00  0.86086867728E-01  0.10077340900E+01  0.93800000000E+00 0. -1.
         22    1    1    2    0    0  0.95355174117E-01  0.24759080229E+00  0.28982915811E+01  0.29104102638E+01  0.00000000000E+00 0. -1.
</event>
<event>
 5    1  0.1461556E+002  0.1593901E+01  0.7818608E-02  0.3360010E+00
         11   -1    0    0    0    0  0.00000000000E+00  0.00000000000E+00  0.39999999674E+01  0.40000000000E+01  0.51100000000E-03 0.  1.
    9000002   -1    0    0    0    0 -0.00000000000E+00 -0.00000000000E+00  0.00000000000E+00  0.93800000000E+00  0.93800000000E+00 0. -1.
         11    1    1    2    0    0 -0.96474019629E-03 -0.54303402082E-01  0.41518938250E+00  0.41872696911E+00  0.51100000000E-03 0.  1.
    9000002    1    1    2    0    0  0.31727034429E+00  0.79665484991E-01  0.76177872109E-01  0.99632029441E+00  0.93800000000E+00 0. -1.
         22    1    1    2    0    0 -0.31630560409E+00 -0.25362082909E-01  0.35086327128E+01  0.35229527365E+01  0.00000000000E+00 0.  1.
</event>
<event>
 5    1  0.1461556E+002  0.1599663E+01  0.7818608E-02  0.3353729E+00
         11   -1    0    0    0    0  0.00000000000E+00  0.00000000000E+00  0.39999999674E+01  0.40000000000E+01  0.51100000000E-03 0.  1.
    9000002   -1    0    0    0    0 -0.00000000000E+00 -0.00000000000E+00  0.00000000000E+00  0.93800000000E+00  0.93800000000E+00 0. -1.
         11    1    1    2    0    0  0.43434176874E-01  0.35978047818E-01  0.30534121833E+00  0.31050679281E+00  0.51100000000E-03 0.  1.
    9000002    1    1    2    0    0 -0.49730416314E+00 -0.42626069833E+00  0.30310963929E+00  0.11835240036E+01  0.93800000000E+00 0. -1.
         22    1    1    2    0    0  0.45386998626E+00  0.39028265051E+00  0.33915491097E+01  0.34439692036E+01  0.00000000000E+00 0.  1.
</event>
<event>
 5    1  0.1461556E+002  0.1583311E+01  0.7818608E-02  0.3371678E+00
         11   -1    0    0    0    0  0.00000000000E+00  0.00000000000E+00  0.39999999674E+01  0.40000000000E+01  0.51100000000E-03 0.  1.
    9000002   -1    0    0    0    0 -0.00000000000E+00 -0.00000000000E+00  0.00000000000E+00  0.93800000000E+00  0.93800000000E+00 0. -1.
         11    1    1    2    0    0  0.10622046767E+00 -0.51806149927E-01  0.27944830704E+00  0.30341107816E+00  0.51100000000E-03 0.  1.
    9000002    1    1    2    0    0 -0.43012251987E+00  0.22364059574E+00  0.17517646801E+00  0.10703042993E+01  0.93800000000E+00 0. -1.
         22    1    1    2    0    0  0.32390205220E+00 -0.17183444582E+00  0.35453751923E+01  0.35642846225E+01  0.00000000000E+00 0.  1.
</event>
<event>
 5    1  0.1745619E+002  0.1568838E+01  0.7818608E-02  0.3387896E+00
         11   -1    0    0    0    0  0.00000000000E+00  0.00000000000E+00  0.39999999674E+01  0.40000000000E+01  0.51100000000E-03 0. -1.
    9000002   -1    0    0    0    0 -0.00000000000E+00 -0.00000000000E+00  0.00000000000E+00  0.93800000000E+00  0.93800000000E+00 0.  1.
         11    1    1    2    0    0  0.11760777305E+00  0.83621770249E-01  0.59063649984E+00  0.60800980651E+00  0.51100000000E-03 0. -1.
    9000002    1    1    2    0    0  0.81169812608E-01 -0.42084447596E-01  0.28337710784E-01  0.94287149976E+00  0.93800000000E+00 0.  1.
         22    1    1    2    0    0 -0.19877758566E+00 -0.41537322653E-01  0.33810257567E+01  0.33871186937E+01  0.00000000000E+00 0. -1.
</event>
<event>
 5    1  0.1461556E+002  0.1590130E+01  0.7818608E-02  0.3364147E+00
         11   -1    0    0    0    0  0.00000000000E+00  0.00000000000E+00  0.39999999674E+01  0.40000000000E+01  0.51100000000E-03 0.  1.
    9000002   -1    0    0    0    0 -0.00000000000E+00 -0.00000000000E+00  0.00000000000E+00  0.93800000000E+00  0.93800000000E+00 0.  1.
         11    1    1    2    0    0 -0.63743022584E-01  0.59724380818E-01  0.11964321045E+01  0.11996166956E+01  0.51100000000E-03 0.  1.
    9000002    1    1    2    0    0  0.20215873353E+00  0.15945525541E+00  0.51420514908E-01  0.97405451663E+00  0.93800000000E+00 0.  1.
         22    1    1    2    0    0 -0.13841571095E+00 -0.21917963622E+00  0.27521473479E+01  0.27643287877E+01  0.00000000000E+00 0.  1.
</event>
<event>
 5    1  0.1461556E+002  0.1599676E+01  0.7818608E-02  0.3353715E+00
         11   -1    0    0    0    0  0.00000000000E+00  0.00000000000E+00  0.39999999674E+01  0.40000000000E+01  0.51100000000E-03 0.  1.
    9000002   -1    0    0    0    0 -0.00000000000E+00 -0.00000000000E+00  0.00000000000E+00  0.93800000000E+00  0.93800000000E+00 0. -1.
         11    1    1    2    0    0 -0.27149005550E+00 -0.20047105725E+00  0.21774168817E+01  0.22034155379E+01  0.51100000000E-03 0.  1.
    9000002    1    1    2    0    0  0.46790843991E+00  0.34599138963E+00  0.23538355465E+00  0.11286707968E+01  0.93800000000E+00 0. -1.
         22    1    1    2    0    0 -0.19641838441E+00 -0.14552033239E+00  0.15871995310E+01  0.16059136652E+01  0.00000000000E+00 0.  1.
</event>
<event>
 5    1  0.1461556E+002  0.1599669E+01  0.7818608E-02  0.3353723E+00
         11   -1    0    0    0    0  0.00000000000E+00  0.00000000000E+00  0.39999999674E+01  0.40000000000E+01  0.51100000000E-03 0. -1.
    9000002   -1    0    0    0    0 -0.00000000000E+00 -0.00000000000E+00  0.00000000000E+00  0.93800000000E+00  0.93800000000E+00 0.  1.
         11    1    1    2    0    0 -0.16554475047E+00 -0.32142279365E+00  0.20276246368E+01  0.20596066628E+01  0.51100000000E-03 0. -1.
    9000002    1    1    2    0    0  0.30029745533E+00  0.58024890955E+00  0.30147005729E+00  0.11821994562E+01  0.93800000000E+00 0.  1.
         22    1    1    2    0    0 -0.13475270486E+00 -0.25882611590E+00  0.16709052733E+01  0.16961938810E+01  0.00000000000E+00 0. -1.
</event>
<event>
 5    1  0.1461556E+002  0.1171417E+01  0.7818608E-02  0.4061924E+00
         11   -1    0    0    0    0  0.00000000000E+00  0.00000000000E+00  0.39999999674E+01  0.40000000000E+01  0.51100000000E-03 0. -1.
    9000002   -1    0    0    0    0 -0.00000000000E+00 -0.00000000000E+00  0.00000000000E+00  0.93800000000E+00  0.93800000000E+00 0. -1.
         11    1    1    2    0    0  0.39915864495E+00 -0.54778405136E+00  0.58847109105E+00  0.89760429861E+00  0.51100000000E-03 0. -1.
    9000002    1    1    2    0    0 -0.39151597371E+00 -0.38949767610E-01  0.62740423715E+00  0.11951074926E+01  0.93800000000E+00 0. -1.
         22    1    1    2    0    0 -0.76426712364E-02  0.58673381897E+00  0.27841246392E+01  0.28452882088E+01  0.00000000000E+00 0. -1.
</event>
<event>
 5    1  0.1461556E+002  0.1599676E+01  0.7818608E-02  0.3353715E+00
         11   -1    0    0    0    0  0.00000000000E+00  0.00000000000E+00  0.39999999674E+01  0.40000000000E+01  0.51100000000E-03 0.  1.
    9000002   -1    0    0    0    0 -0.00000000000E+00 -0.00000000000E+00  0.00000000000E+00  0.93800000000E+00  0.93800000000E+00 0.  1.
         11    1    1    2    0    0 -0.15984245447E-01 -0.14343837579E-01  0.36680626918E+00  0.36743481328E+00  0.51100000000E-03 0.  1.
    9000002    1    1    2    0    0  0.17071474454E+00  0.15957874310E+00  0.36233028358E-01  0.96734984964E+00  0.93800000000E+00 0.  1.
         22    1    1    2    0    0 -0.15473049910E+00 -0.14523490552E+00  0.35969606698E+01  0.36032153371E+01  0.00000000000E+00 0.  1.
</event>
<event>
 5    1  0.1983997E+002  0.1572734E+01  0.7818608E-02  0.3383499E+00
         11   -1    0    0    0    0  0.00000000000E+00  0.00000000000E+00  0.39999999674E+01  0.40000000000E+01  0.51100000000E-03 0.  1.
    9000002   -1    0    0    0    0 -0.00000000000E+00 -0.00000000000E+00  0.00000000000E+00  0.93800000000E+00  0.93800000000E+00 0. -1.
         11    1    1    2    0    0 -0.17781248420E+00 -0.52982547467E-01  0.13520496869E+01  0.13647208677E+01  0.51100000000E-03 0.  1.
    9000002    1    1    2    0    0 -0.21488196920E-01  0.73794939044E-01  0.23754146521E-01  0.94144341047E+00  0.93800000000E+00 0. -1.
         22    1    1    2    0    0  0.19930068112E+00 -0.20812391577E-01  0.26241961339E+01  0.26318357218E+01  0.00000000000E+00 0.  1.
</event>
<event>
 5    1  0.1461556E+002  0.1597647E+01  0.7818608E-02  0.3355922E+00
         11   -1    0    0    0    0  0.00000000000E+00  0.00000000000E+00  0.39999999674E+01  0.40000000000E+01  0.51100000000E-03 0.  1.
    9000002   -1    0    0    0    0 -0.00000000000E+00 -0.00000000000E+00  0.00000000000E+00  0.93800000000E+00  0.93800000000E+00 0.  1.
         11    1    1    2    0    0 -0.21579092730E+00 -0.16428386658E+00  0.15450242316E+01  0.15686475227E+01  0.51100000000E-03 0.  1.
    9000002    1    1    2    0    0  0.49733029517E+00  0.51274765569E+00  0.36841390660E+00  0.12352410240E+01  0.93800000000E+00 0.  1.
         22    1    1    2    0    0 -0.28153936787E+00 -0.34846378911E+00  0.20865618291E+01  0.21341114532E+01  0.00000000000E+00 0.  1.
</event>
<event>
 5    1  0.1461556E+002  0.1532476E+01  0.7818608E-02  0.3430079E+00
         11   -1    0    0    0    0  0.00000000000E+00  0.00000000000E+00  0.39999999674E+01  0.40000000000E+01  0.51100000000E-03 0.  1.
    9000002   -1    0    0    0    0 -0.00000000000E+00 -0.00000000000E+00  0.00000000000E+00  0.93800000000E+00  0.93800000000E+00 0. -1.
         11    1    1    2    0    0 -0.40309024831E+00  0.27355678260E+00  0.26724908063E+01  0.27165276425E+01  0.51100000000E-03 0.  1.
    9000002    1    1    2    0    0  0.32832737036E+00 -0.65744746342E-01  0.13076696109E+00  0.10045223899E+01  0.93800000000E+00 0. -1.
         22    1    1    2    0    0  0.74762877948E-01 -0.20781203626E+00  0.11967422000E+01  0.12169499676E+01  0.00000000000E+00 0. -1.
</event>
<event>
 5    1  0.1461556E+002  0.1543932E+01  0.7818608E-02  0.3416560E+00
         11   -1    0    0    0    0  0.00000000000E+00  0.00000000000E+00  0.39999999674E+01  0.40000000000E+01  0.51100000000E-03 0.  1.
    9000002   -1    0    0    0    0 -0.00000000000E+00 -0.00000000000E+00  0.00000000000E+00  0.93800000000E+00  0.93800000000E+00 0.  1.
         11    1    1    2    0    0  0.15963611092E+00 -0.17285423686E+00  0.10283043979E+01  0.10548803112E+01  0.51100000000E-03 0.  1.
    9000002    1    1    2    0    0  0.18940784695E+00  0.13560405041E+00  0.79562286146E-01  0.96976179980E+00  0.93800000000E+00 0.  1.
         22    1    1    2    0    0 -0.34904395787E+00  0.37250186449E-01  0.28921332833E+01  0.29133578890E+01  0.00000000000E+00 0.  1.
</event>
<event>
 5    1  0.1461556E+002  0.1599638E+01  0.7818608E-02  0.3353757E+00
         11   -1    0    0    0    0  0.00000000000E+00  0.00000000000E+00  0.39999999674E+01  0.40000000000E+01  0.51100000000E-03 0. -1.
    9000002   -1    0    0    0    0 -0.00000000000E+00 -0.00000000000E+00  0.00000000000E+00  0.93800000000E+00  0.93800000000E+00 0. -1.
         11    1    1    2    0    0  0.15448842803E+00  0.26777439582E-01  0.16063263404E+01  0.16139604329E+01  0.51100000000E-03 0. -1.
    9000002    1    1    2    0    0 -0.36953460418E+00 -0.82125251775E-01  0.96433594456E-01  0.10160924263E+01  0.93800000000E+00 0. -1.
         22    1    1    2    0    0  0.21504617615E+00  0.55347812193E-01  0.22972400325E+01  0.23079471408E+01  0.00000000000E+00 0. -1.
</event>
<event>
 5    1  0.1461556E+002  0.1599626E+01  0.7818608E-02  0.3353770E+00
         11   -1    0    0    0    0  0.00000000000E+00  0.00000000000E+00  0.39999999674E+01  0.40000000000E+01  0.51100000000E-03 0. -1.
    9000002   -1    0    0    0    0 -0.00000000000E+00 -0.00000000000E+00  0.00000000000E+00  0.93800000000E+00  0.93800000000E+00 0. -1.
         11    1    1    2    0    0  0.15587642191E-01  0.29223250398E-01  0.24248295865E+00  0.24473499813E+00  0.51100000000E-03 0. -1.
    9000002    1    1    2    0    0 -0.26573989912E+00 -0.39945175383E+00  0.15709543263E+00  0.10652240950E+01  0.93800000000E+00 0. -1.
         22    1    1    2    0    0  0.25015225693E+00  0.37022850344E+00  0.36004215761E+01  0.36280409069E+01  0.00000000000E+00 0. -1.
</event>
<event>
 5    1  0.1461556E+002  0.1555351E+01  0.7818608E-02  0.3403297E+00
         11   -1    0    0    0    0  0.00000000000E+00  0.00000000000E+00  0.39999999674E+01  0.40000000000E+01  0.51100000000E-03 0.  1.
    9000002   -1    0    0    0    0 -0.00000000000E+00 -0.00000000000E+00  0.00000000000E+00  0.93800000000E+00  0.93800000000E+00 0. -1.
         11    1    1    2    0    0 -0.12846305433E+00 -0.23705704096E+00  0.18289636295E+01  0.18487311909E+01  0.51100000000E-03 0.  1.
    9000002    1    1    2    0    0  0.38297856240E-01  0.21794464486E-01  0.34128728208E-01  0.93965445487E+00  0.93800000000E+00 0. -1.
         22    1    1    2    0    0  0.90165198086E-01  0.21526257647E+00  0.21369076097E+01  0.21496143543E+01  0.00000000000E+00 0.  1.
</event>
<event>
 5    1  0.1461556E+002  0.1597738E+01  0.7818608E-02  0.3355822E+00
         11   -1    0    0    0    0  0.00000000000E+00  0.00000000000E+00  0.39999999674E+01  0.40000000000E+01  0.51100000000E-03 0.  1.
    9000002   -1    0    0    0    0 -0.00000000000E+00 -0.00000000000E+00  0.00000000000E+00  0.93800000000E+00  0.93800000000E+00 0.  1.
         11    1    1    2    0    0 -0.17988183368E+00  0.46939163945E-01  0.16142666183E+01  0.16249362249E+01  0.51100000000E-03 0.  1.
    9000002    1    1    2    0    0  0.33032452078E+00 -0.18436863112E+00  0.97858599598E-01  0.10161330556E+01  0.93800000000E+00 0.  1.
         22    1    1    2    0    0 -0.15044268710E+00  0.13742946718E+00  0.22878747495E+01  0.22969307195E+01  0.00000000000E+00 0.  1.
</event>
<event>
 5    1  0.1461556E+002  0.1599674E+01  0.7818608E-02  0.3353718E+00
         11   -1    0    0    0    0  0.00000000000E+00  0.00000000000E+00  0.39999999674E+01  0.40000000000E+01  0.51100000000E-03 0.  1.
    9000002   -1    0    0    0    0 -0.00000000000E+00 -0.00000000000E+00  0.00000000000E+00  0.93800000000E+00  0.93800000000E+00 0.  1.
         11    1    1    2    0    0 -0.45622245624E+00 -0.31405074765E+00  0.25594675838E+01  0.26187098685E+01  0.51100000000E-03 0.  1.
    9000002    1    1    2    0    0  0.63701613133E+00  0.43507511675E+00  0.43426368702E+00  0.12897708551E+01  0.93800000000E+00 0.  1.
         22    1    1    2    0    0 -0.18079367509E+00 -0.12102436910E+00  0.10062686965E+01  0.10295192764E+01  0.00000000000E+00 0.  1.
</event>
<event>
 5    1  0.1461556E+002  0.1561805E+01  0.7818608E-02  0.3395892E+00
         11   -1    0    0    0    0  0.00000000000E+00  0.00000000000E+00  0.39999999674E+01  0.40000000000E+01  0.51100000000E-03 0.  1.
    9000002   -1    0    0    0    0 -0.00000000000E+00 -0.00000000000E+00  0.00000000000E+00  0.93800000000E+00  0.93800000000E+00 0. -1.
         11    1    1    2    0    0  0.19378053399E+00  0.12674991278E+00  0.13469554471E+01  0.13667134569E+01  0.51100000000E-03 0.  1.
    9000002    1    1    2    0    0 -0.72108967387E-01  0.49656642431E-01  0.33168699160E-01  0.94266094006E+00  0.93800000000E+00 0. -1.
         22    1    1    2    0    0 -0.12167156660E+00 -0.17640655521E+00  0.26198758211E+01  0.26286256030E+01  0.00000000000E+00 0. -1.
</event>
<event>
 5    1  0.1461556E+002  0.1599573E+01  0.7818608E-02  0.3353827E+00
         11   -1    0    0    0    0  0.00000000000E+00  0.00000000000E+00  0.39999999674E+01  0.40000000000E+01  0.51100000000E-03 0.  1.
    9000002   -1    0    0    0    0 -0.00000000000E+00 -0.00000000000E+00  0.00000000000E+00  0.93800000000E+00  0.93800000000E+00 0. -1.
         11    1    1    2    0    0  0.30310278316E-01 -0.79015176977E-01  0.12061535193E+01  0.12091189703E+01  0.51100000000E-03 0.  1.
    9000002    1    1    2    0    0 -0.79876778850E-01  0.28983422447E+00  0.60381742329E-01  0.98685061295E+00  0.93800000000E+00 0. -1.
         22    1    1    2    0    0  0.49566500534E-01 -0.21081904749E+00  0.27334647057E+01  0.27420304167E+01  0.00000000000E+00 0.  1.
</event>
<event>
 5    1  0.1461556E+002  0.1599673E+01  0.7818608E-02  0.3353718E+00
         11   -1    0    0    0    0  0.00000000000E+00  0.00000000000E+00  0.39999999674E+01  0.40000000000E+01  0.51100000000E-03 0. -1.
    9000002   -1    0    0    0    0 -0.00000000000E+00 -0.00000000000E+00  0.00000000000E+00  0.93800000000E+00  0.93800000000E+00 0. -1.
         11    1    1    2    0    0 -0.17380899333E-01 -0.30303303927E-01  0.46666909106E+00  0.46797509288E+00  0.51100000000E-03 0. -1.
    9000002    1    1    2    0    0  0.15517577553E+00  0.26483049595E+00  0.62895971401E-01  0.98894621498E+00  0.93800000000E+00 0. -1.
         22    1    1    2    0    0 -0.13779487619E+00 -0.23452719203E+00  0.34704349049E+01  0.34810786921E+01  0.00000000000E+00 0. -1.
</event>
<event>
 5    1  0.1461556E+002  0.1599632E+01  0.7818608E-02  0.3353763E+00
         11   -1    0    0    0    0  0.00000000000E+00  0.00000000000E+00  0.39999999674E+01  0.40000000000E+01  0.51100000000E-03 0.  1.
    9000002   -1    0    0    0    0 -0.00000000000E+00 -0.00000000000E+00  0.00000000000E+00  0.93800000000E+00  0.93800000000E+00 0. -1.
         11    1    1    2    0    0  0.11006805129E+00  0.91305711163E-01  0.11873394789E+01  0.11959209874E+01  0.51100000000E-03 0.  1.
    9000002    1    1    2    0    0 -0.37066770561E+00 -0.27613851237E+00  0.14541124694E+00  0.10557629737E+01  0.93800000000E+00 0. -1.
         22    1    1    2    0    0  0.26059965432E+00  0.18483280121E+00  0.26672492415E+01  0.26863160388E+01  0.00000000000E+00 0.  1.
</event>
<event>
 5    1  0.1461556E+002  0.1599536E+01  0.7818608E-02  0.3353867E+00
         11   -1    0    0    0    0  0.00000000000E+00  0.00000000000E+00  0.39999999674E+01  0.40000000000E+01  0.51100000000E-03 0. -1.
    9000002   -1    0    0    0    0 -0.00000000000E+00 -0.00000000000E+00  0.00000000000E+00  0.93800000000E+00  0.93800000000E+00 0.  1.
         11    1    1    2    0    0 -0.13114951808E+00 -0.28465541123E-02  0.13571990755E+01  0.13635240705E+01  0.51100000000E-03 0. -1.
    9000002    1    1    2    0    0  0.34385784771E+00 -0.97191171639E-02  0.79404021380E-01  0.10022383346E+01  0.93800000000E+00 0.  1.
         22    1    1    2    0    0 -0.21270832962E+00  0.12565671276E-01  0.25633968704E+01  0.25722375950E+01  0.00000000000E+00 0. -1.
</event>
<event>
 5    1  0.1461556E+002  0.1599650E+01  0.7818608E-02  0.3353744E+00
         11   -1    0    0    0    0  0.00000000000E+00  0.00000000000E+00  0.39999999674E+01  0.40000000000E+01  0.51100000000E-03 0.  1.
    9000002   -1    0    0    0    0 -0.00000000000E+00 -0.00000000000E+00  0.00000000000E+00  0.93800000000E+00  0.93800000000E+00 0. -1.
         11    1    1    2    0    0 -0.20085047288E-01 -0.66266957444E-02  0.16222717746E+00  0.16360085711E+00  0.51100000000E-03 0.  1.
    9000002    1    1    2    0    0  0.49314277336E+00  0.10094527970E+00  0.17357579496E+00  0.10785881054E+01  0.93800000000E+00 0. -1.
         22    1    1    2    0    0 -0.47305772607E+00 -0.94318583952E-01  0.36641969949E+01  0.36958110375E+01  0.00000000000E+00 0.  1.
</event>
<event>
 5    1  0.1461556E+002  0.1599595E+01  0.7818608E-02  0.3353803E+00
         11   -1    0    0    0    0  0.00000000000E+00  0.00000000000E+00  0.39999999674E+01  0.40000000000E+01  0.51100000000E-03 0.  1.
    9000002   -1    0    0    0    0 -0.00000000000E+00 -0.00000000000E+00  0.00000000000E+00  0.93800000000E+00  0.93800000000E+00 0.  1.
         11    1    1    2    0    0 -0.10064830798E-01 -0.21319410949E+00  0.12451121508E+01  0.12632725590E+01  0.51100000000E-03 0.  1.
    9000002    1    1    2    0    0  0.55768337100E-01  0.62108026258E+00  0.27279316855E+00  0.11589266210E+01  0.93800000000E+00 0.  1.
         22    1    1    2    0    0 -0.45703506302E-01 -0.40788615309E+00  0.24820946480E+01  0.25158008200E+01  0.00000000000E+00 0.  1.
</event>
<event>
 5    1  0.1461556E+002  0.1597905E+01  0.7818608E-02  0.3355640E+00
         11   -1    0    0    0    0  0.00000000000E+00  0.00000000000E+00  0.39999999674E+01  0.40000000000E+01  0.51100000000E-03 0.  1.
    9000002   -1    0    0    0    0 -0.00000000000E+00 -0.00000000000E+00  0.00000000000E+00  0.93800000000E+00  0.93800000000E+00 0. -1.
         11    1    1    2    0    0 -0.39444582755E-02 -0.60213098018E-02  0.68945369587E-01  0.69322002505E-01  0.51100000000E-03 0.  1.
    9000002    1    1    2    0    0 -0.14683836816E+00 -0.31693692476E+00  0.83230352707E-01  0.10043813082E+01  0.93800000000E+00 0. -1.
         22    1    1    2    0    0  0.15078282643E+00  0.32295823456E+00  0.38478242451E+01  0.38642966893E+01  0.00000000000E+00 0.  1.
</event>
<event>
 5    1  0.1461556E+002  0.1566396E+01  0.7818608E-02  0.3390664E+00
         11   -1    0    0    0    0  0.00000000000E+00  0.00000000000E+00  0.39999999674E+01  0.40000000000E+01  0.51100000000E-03 0.  1.
    9000002   -1    0    0    0    0 -0.00000000000E+00 -0.00000000000E+00  0.00000000000E+00  0.93800000000E+00  0.93800000000E+00 0. -1.
         11    1    1    2    0    0  0.19056767756E+00  0.25529620131E+00  0.22754540399E+01  0.22976473922E+01  0.51100000000E-03 0.  1.
    9000002    1    1    2    0    0 -0.59322054912E+00 -0.21258514044E+00  0.31399354459E+00  0.11728337512E+01  0.93800000000E+00 0. -1.
         22    1    1    2    0    0  0.40265287157E+00 -0.42711060871E-01  0.14105523829E+01  0.14675188566E+01  0.00000000000E+00 0.  1.
</event>
<event>
 5    1  0.1461556E+002  0.1537399E+01  0.7818608E-02  0.3424243E+00
         11   -1    0    0    0    0  0.00000000000E+00  0.00000000000E+00  0.39999999674E+01  0.40000000000E+01  0.51100000000E-03 0. -1.
    9000002   -1    0    0    0    0 -0.00000000000E+00 -0.00000000000E+00  0.00000000000E+00  0.93800000000E+00  0.93800000000E+00 0. -1.
         11    1    1    2    0    0  0.22208215837E-01  0.81620277112E-01  0.34434014685E+01  0.34444403041E+01  0.51100000000E-03 0. -1.
    9000002    1    1    2    0    0  0.17297134150E+00  0.25814185754E-01  0.68025647687E-01  0.95658608913E+00  0.93800000000E+00 0. -1.
         22    1    1    2    0    0 -0.19517955734E+00 -0.10743446287E+00  0.48857285121E+00  0.53697360676E+00  0.00000000000E+00 0.  1.
</event>
<event>
 5    1  0.1461556E+002  0.1592571E+01  0.7818608E-02  0.3361466E+00
         11   -1    0    0    0    0  0.00000000000E+00  0.00000000000E+00  0.39999999674E+01  0.40000000000E+01  0.51100000000E-03 0.  1.
    9000002   -1    0    0    0    0 -0.00000000000E+00 -0.00000000000E+00  0.00000000000E+00  0.93800000000E+00  0.93800000000E+00 0.  1.
         11    1    1    2    0    0  0.64150282136E-01  0.37627244642E-01  0.17707589034E+01  0.17723200680E+01  0.51100000000E-03 0.  1.
    9000002    1    1    2    0    0 -0.21816396175E+00 -0.29287440225E+00  0.95379061973E-01  0.10110945036E+01  0.93800000000E+00 0.  1.
         22    1    1    2    0    0  0.15401367962E+00  0.25524715761E+00  0.21338620020E+01  0.21545854284E+01  0.00000000000E+00 0.  1.
</event>
<event>
 5    1  0.1461556E+002  0.1599592E+01  0.7818608E-02  0.3353806E+00
         11   -1    0    0    0    0  0.00000000000E+00  0.00000000000E+00  0.39999999674E+01  0.40000000000E+01  0.51100000000E-03 0. -1.
    9000002   -1    0    0    0    0 -0.00000000000E+00 -0.00000000000E+00  0.00000000000E+00  0.93800000000E+00  0.93800000000E+00 0. -1.
         11    1    1    2    0    0 -0.10568603776E+00 -0.23055331929E+00  0.21211989601E+01  0.21363074828E+01  0.51100000000E-03 0. -1.
    9000002    1    1    2    0    0  0.20533422850E+00  0.40421923192E+00  0.13975354619E+00  0.10511566898E+01  0.93800000000E+00 0. -1.
         22    1    1    2    0    0 -0.99648190738E-01 -0.17366591263E+00  0.17390474611E+01  0.17505358274E+01  0.00000000000E+00 0. -1.
</event>
<event>
 5    1  0.1461556E+002  0.1599676E+01  0.7818608E-02  0.3353715E+00
         11   -1    0    0    0    0  0.00000000000E+00  0.00000000000E+00  0.39999999674E+01  0.40000000000E+01  0.51100000000E-03 0. -1.
    9000002   -1    0    0    0    0 -0.00000000000E+00 -0.00000000000E+00  0.00000000000E+00  0.93800000000E+00  0.93800000000E+00 0. -1.
         11    1    1    2    0    0  0.67210224894E-02 -0.53043042080E-01  0.56228585914E+00  0.56482243667E+00  0.51100000000E-03 0. -1.
    9000002    1    1    2    0    0 -0.48098786322E-01  0.36480663655E+00  0.90971151252E-01  0.10116902321E+01  0.93800000000E+00 0. -1.
         22    1    1    2    0    0  0.41377763833E-01 -0.31176359447E+00  0.33467429570E+01  0.33614873313E+01  0.00000000000E+00 0. -1.
</event>
<event>
 5    1  0.1461556E+002  0.1599674E+01  0.7818608E-02  0.3353717E+00
         11   -1    0    0    0    0  0.00000000000E+00  0.00000000000E+00  0.39999999674E+01  0.40000000000E+01  0.51100000000E-03 0. -1.
    9000002   -1    0    0    0    0 -0.00000000000E+00 -0.00000000000E+00  0.00000000000E+00  0.93800000000E+00  0.93800000000E+00 0. -1.
         11    1    1    2    0    0 -0.28737468262E-01 -0.17979700611E-01  0.43163470099E+00  0.43296407233E+00  0.51100000000E-03 0. -1.
    9000002    1    1    2    0    0  0.25928651731E+00  0.15318521935E+00  0.60512742690E-01  0.98701621137E+00  0.93800000000E+00 0. -1.
         22    1    1    2    0    0 -0.23054904905E+00 -0.13520551873E+00  0.35078525237E+01  0.35180197163E+01  0.00000000000E+00 0. -1.
</event>
<event>
 5    1  0.1461556E+002  0.1599677E+01  0.7818608E-02  0.3353714E+00
         11   -1    0    0    0    0  0.00000000000E+00  0.00000000000E+00  0.39999999674E+01  0.40000000000E+01  0.51100000000E-03 0.  1.
    9000002   -1    0    0    0    0 -0.00000000000E+00 -0.00000000000E+00  0.00000000000E+00  0.93800000000E+00  0.93800000000E+00 0. -1.
         11    1    1    2    0    0  0.19942853260E+00  0.92234136381E-01  0.18506801832E+01  0.18636781581E+01  0.51100000000E-03 0.  1.
    9000002    1    1    2    0    0 -0.41540881416E+00 -0.19283937321E+00  0.14262963897E+00  0.10535362930E+01  0.93800000000E+00 0. -1.
         22    1    1    2    0    0  0.21598028155E+00  0.10060523682E+00  0.20066901452E+01  0.20207855489E+01  0.00000000000E+00 0.  1.
</event>
<event>
 5    1  0.1461556E+002  0.1599677E+01  0.7818608E-02  0.3353714E+00
         11   -1    0    0    0    0  0.00000000000E+00  0.00000000000E+00  0.39999999674E+01  0.40000000000E+01  0.51100000000E-03 0. -1.
    9000002   -1    0    0    0    0 -0.00000000000E+00 -0.00000000000E+00  0.00000000000E+00  0.93800000000E+00  0.93800000000E+00 0. -1.
         11    1    1    2    0    0 -0.68688516627E-03  0.13965062354E+00  0.11864884893E+01  0.11946790217E+01  0.51100000000E-03 0. -1.
    9000002    1    1    2    0    0  0.38718413187E-02 -0.45392500777E+00  0.14003668999E+00  0.10514357700E+01  0.93800000000E+00 0. -1.
         22    1    1    2    0    0 -0.31849561524E-02  0.31427438423E+00  0.26734747880E+01  0.26918852083E+01  0.00000000000E+00 0. -1.
</event>
<event>
 5    1  0.1461556E+002  0.1599664E+01  0.7818608E-02  0.3353728E+00
         11   -1    0    0    0    0  0.00000000000E+00  0.00000000000E+00  0.39999999674E+01  0.40000000000E+01  0.51100000000E-03 0.  1.
    9000002   -1    0    0    0    0 -0.00000000000E+00 -0.00000000000E+00  0.00000000000E+00  0.93800000000E+00  0.93800000000E+00 0.  1.
         11    1    1    2    0    0 -0.10360300567E-01 -0.75872798398E-02  0.24921802987E+00  0.24954917387E+00  0.51100000000E-03 0.  1.
    9000002    1    1    2    0    0  0.18131931335E+00  0.14925895238E+00  0.36607783921E-01  0.96764614302E+00  0.93800000000E+00 0.  1.
         22    1    1    2    0    0 -0.17095901278E+00 -0.14167167254E+00  0.37141741536E+01  0.37208046831E+01  0.00000000000E+00 0.  1.
</event>
<event>
 5    1  0.1461556E+002  0.1599672E+01  0.7818608E-02  0.3353720E+00
         11   -1    0    0    0    0  0.00000000000E+00  0.00000000000E+00  0.39999999674E+01  0.40000000000E+01  0.51100000000E-03 0.  1.
    9000002   -1    0    0    0    0 -0.00000000000E+00 -0.00000000000E+00  0.00000000000E+00  0.93800000000E+00  0.93800000000E+00 0.  1.
         11    1    1    2    0    0 -0.32703685502E+00  0.16350811917E+00  0.21930590112E+01  0.22233299569E+01  0.51100000000E-03 0.  1.
    9000002    1    1    2    0    0  0.56020028139E+00 -0.27791376496E+00  0.27437440142E+00  0.11602524416E+01  0.93800000000E+00 0.  1.
         22    1    1    2    0    0 -0.23316342637E+00  0.11440564579E+00  0.15325665548E+01  0.15544176015E+01  0.00000000000E+00 0.  1.
</event>
<event>
 5    1  0.1461556E+002  0.1599548E+01  0.7818608E-02  0.3353854E+00
         11   -1    0    0    0    0  0.00000000000E+00  0.00000000000E+00  0.39999999674E+01  0.40000000000E+01  0.51100000000E-03 0. -1.
    9000002   -1    0    0    0    0 -0.00000000000E+00 -0.00000000000E+00  0.00000000000E+00  0.93800000000E+00  0.93800000000E+00 0.  1.
         11    1    1    2    0    0 -0.50540471711E-01 -0.84705428840E-02  0.39961211560E+00  0.40288483892E+00  0.51100000000E-03 0. -1.
    9000002    1    1    2    0    0  0.55444059667E+00  0.10421023090E+00  0.22055024285E+00  0.11165798481E+01  0.93800000000E+00 0.  1.
         22    1    1    2    0    0 -0.50390012496E+00 -0.95739688020E-01  0.33798376089E+01  0.34185353130E+01  0.00000000000E+00 0. -1.
</event>
<event>
 5    1  0.1461556E+002  0.1599676E+01  0.7818608E-02  0.3353715E+00
         11   -1    0    0    0    0  0.00000000000E+00  0.00000000000E+00  0.39999999674E+01  0.40000000000E+01  0.51100000000E-03 0. -1.
    9000002   -1    0    0    0    0 -0.00000000000E+00 -0.00000000000E+00  0.00000000000E+00  0.93800000000E+00  0.93800000000E+00 0. -1.
         11    1    1    2    0    0  0.56650499946E-01  0.53772020449E-01  0.74269066737E+00  0.74678671510E+00  0.51100000000E-03 0. -1.
    9000002    1    1    2    0    0 -0.29508978603E+00 -0.27711109714E+00  0.11060216279E+00  0.10275920301E+01  0.93800000000E+00 0. -1.
         22    1    1    2    0    0  0.23843928608E+00  0.22333907669E+00  0.31467071372E+01  0.31636212548E+01  0.00000000000E+00 0. -1.
</event>
<event>
 5    1  0.1461556E+002  0.1599671E+01  0.7818608E-02  0.3353721E+00
         11   -1    0    0    0    0  0.00000000000E+00  0.00000000000E+00  0.39999999674E+01  0.40000000000E+01  0.51100000000E-03 0. -1.
    9000002   -1    0    0    0    0 -0.00000000000E+00 -0.00000000000E+00  0.00000000000E+00  0.93800000000E+00  0.93800000000E+00 0.  1.
         11    1    1    2    0    0 -0.71950521171E-02 -0.19945923969E-01  0.38319669634E+00  0.38378324333E+00  0.51100000000E-03 0. -1.
    9000002    1    1    2    0    0  0.71832238740E-01  0.22434935380E+00  0.36828566758E-01  0.96782893447E+00  0.93800000000E+00 0.  1.
         22    1    1    2    0    0 -0.64637186623E-01 -0.20440342983E+00  0.35799747043E+01  0.35863878222E+01  0.00000000000E+00 0. -1.
</event>
<event>
 5    1  0.1461556E+002  0.1598066E+01  0.7818608E-02  0.3355465E+00
         11   -1    0    0    0    0  0.00000000000E+00  0.00000000000E+00  0.39999999674E+01  0.40000000000E+01  0.51100000000E-03 0. -1.
    9000002   -1    0    0    0    0 -0.00000000000E+00 -0.00000000000E+00  0.00000000000E+00  0.93800000000E+00  0.93800000000E+00 0. -1.
         11    1    1    2    0    0 -0.41897538497E-01 -0.28960704795E-01  0.35213409834E+00  0.35579883430E+00  0.51100000000E-03 0. -1.
    9000002    1    1    2    0    0  0.22373639456E+00  0.13658851040E+00  0.46928609390E-01  0.97506958203E+00  0.93800000000E+00 0. -1.
         22    1    1    2    0    0 -0.18183885606E+00 -0.10762780560E+00  0.36009372596E+01  0.36071315837E+01  0.00000000000E+00 0. -1.
</event>
<event>
 5    1  0.1461556E+002  0.1599677E+01  0.7818608E-02  0.3353714E+00
         11   -1    0    0    0    0  0.00000000000E+00  0.00000000000E+00  0.39999999674E+01  0.40000000000E+01  0.51100000000E-03 0.  1.
    9000002   -1    0    0    0    0 -0.00000000000E+00 -0.00000000000E+00  0.00000000000E+00  0.93800000000E+00  0.93800000000E+00 0.  1.
         11    1    1    2    0    0 -0.30778987821E+00  0.10650499097E+00  0.17600682310E+01  0.17899492622E+01  0.51100000000E-03 0.  1.
    9000002    1    1    2    0    0  0.64317391593E+00 -0.22100343347E+00  0.32882172852E+00  0.12043599681E+01  0.93800000000E+00 0.  1.
         22    1    1    2    0    0 -0.33538403771E+00  0.11449844249E+00  0.19111100078E+01  0.19436907697E+01  0.00000000000E+00 0. -1.
</event>
<event>
 5    1  0.1461556E+002  0.1599028E+01  0.7818608E-02  0.3354419E+00
         11   -1    0    0    0    0  0.00000000000E+00  0.00000000000E+00  0.39999999674E+01  0.40000000000E+01  0.51100000000E-03 0.  1.
    9000002   -1    0    0    0    0 -0.00000000000E+00 -0.00000000000E+00  0.00000000000E+00  0.93800000000E+00  0.93800000000E+00 0. -1.
         11    1    1    2    0    0 -0.40717375062E-01 -0.11831951388E+00  0.90117083481E+00  0.90981676541E+00  0.51100000000E-03 0.  1.
    9000002    1    1    2    0    0  0.16391498855E+00  0.39715440360E+00  0.12556355553E+00  0.10393314920E+01  0.93800000000E+00 0. -1.
         22    1    1    2    0    0 -0.12319761349E+00 -0.27883488972E+00  0.29732655770E+01  0.29888517426E+01  0.00000000000E+00 0. -1.
</event>
<event>
 5    1  0.1461556E+002  0.1599676E+01  0.7818608E-02  0.3353715E+00
         11   -1    0    0    0    0  0.00000000000E+00  0.00000000000E+00  0.39999999674E+01  0.40000000000E+01  0.51100000000E-03 0.  1.
    9000002   -1    0    0    0    0 -0.00000000000E+00 -0.00000000000E+00  0.00000000000E+00  0.93800000000E+00  0.93800000000E+00 0.  1.
         11    1    1    2    0    0  0.69112887182E-01  0.60374102864E-01  0.10119667542E+01  0.10161193809E+01  0.51100000000E-03 0.  1.
    9000002    1    1    2    0    0 -0.26469128985E+00 -0.23698293819E+00  0.84684074101E-01  0.10065971311E+01  0.93800000000E+00 0.  1.
         22    1    1    2    0    0  0.19557840267E+00  0.17660883532E+00  0.29033491391E+01  0.29152834880E+01  0.00000000000E+00 0.  1.
</event>
<event>
 5    1  0.1461556E+002  0.1599024E+01  0.7818608E-02  0.3354423E+00
         11   -1    0    0    0    0  0.00000000000E+00  0.00000000000E+00  0.39999999674E+01  0.40000000000E+01  0.51100000000E-03 0. -1.
    9000002   -1    0    0    0    0 -0.00000000000E+00 -0.00000000000E+00  0.00000000000E+00  0.93800000000E+00  0.93800000000E+00 0.  1.
         11    1    1    2    0    0  0.46401153901E-02 -0.13419490315E-02  0.44464108440E-01  0.44728621244E-01  0.51100000000E-03 0. -1.
    9000002    1    1    2    0    0 -0.25615189902E+00 -0.43168490737E+00  0.17313090524E+00  0.10778608282E+01  0.93800000000E+00 0.  1.
         22    1    1    2    0    0  0.25151178363E+00  0.43302685640E+00  0.37824049537E+01  0.38154105506E+01  0.00000000000E+00 0. -1.
</event>
<event>
 5    1  0.1461556E+002  0.1588523E+01  0.7818608E-02  0.3365915E+00
         11   -1    0    0    0    0  0.00000000000E+00  0.00000000000E+00  0.39999999674E+01  0.40000000000E+01  0.51100000000E-03 0.  1.
    9000002   -1    0    0    0    0 -0.00000000000E+00 -0.00000000000E+00  0.00000000000E+00  0.93800000000E+00  0.93800000000E+00 0.  1.
         11    1    1    2    0    0 -0.79132637877E-01  0.55120069897E-02  0.10648407231E+01  0.10677913576E+01  0.51100000000E-03 0.  1.
    9000002    1    1    2    0    0 -0.12056630578E+00 -0.79699467301E-01  0.22055124180E-01  0.94932537503E+00  0.93800000000E+00 0.  1.
         22    1    1    2    0    0  0.19969894365E+00  0.74187460311E-01  0.29131041201E+01  0.29208832674E+01  0.00000000000E+00 0.  1.
</event>
<event>
 5    1  0.1461556E+002  0.1597106E+01  0.7818608E-02  0.3356511E+00
         11   -1    0    0    0    0  0.00000000000E+00  0.00000000000E+00  0.39999999674E+01  0.40000000000E+01  0.51100000000E-03 0.  1.
    9000002   -1    0    0    0    0 -0.00000000000E+00 -0.00000000000E+00  0.00000000000E+00  0.93800000000E+00  0.93800000000E+00 0.  1.
         11    1    1    2    0    0  0.95754251579E-01  0.38522924196E+00  0.21590731811E+01  0.21952602826E+01  0.51100000000E-03 0.  1.
    9000002    1    1    2    0    0 -0.20590023630E+00 -0.57021196959E+00  0.25935258448E+00  0.11465794175E+01  0.93800000000E+00 0.  1.
         22    1    1    2    0    0  0.11014598472E+00  0.18498272764E+00  0.15815742017E+01  0.15961602999E+01  0.00000000000E+00 0. -1.
</event>
<event>
 5    1  0.1461556E+002  0.1599648E+01  0.7818608E-02  0.3353745E+00
         11   -1    0    0    0    0  0.00000000000E+00  0.00000000000E+00  0.39999999674E+01  0.40000000000E+01  0.51100000000E-03 0. -1.
    9000002   -1    0    0    0    0 -0.00000000000E+00 -0.00000000000E+00  0.00000000000E+00  0.93800000000E+00  0.93800000000E+00 0. -1.
         11    1    1    2    0    0  0.85344220397E-01  0.18663274771E-01  0.44362700850E+00  0.45214725209E+00  0.51100000000E-03 0. -1.
    9000002    1    1    2    0    0 -0.68993894509E+00 -0.12106793562E+00  0.35074919821E+00  0.12221056391E+01  0.93800000000E+00 0. -1.
         22    1    1    2    0    0  0.60459472469E+00  0.10240466085E+00  0.32056237606E+01  0.32637471088E+01  0.00000000000E+00 0. -1.
</event>
<event>
 5    1  0.1461556E+002  0.1599671E+01  0.7818608E-02  0.3353721E+00
         11   -1    0    0    0    0  0.00000000000E+00  0.00000000000E+00  0.39999999674E+01  0.40000000000E+01  0.51100000000E-03 0. -1.
    9000002   -1    0    0    0    0 -0.00000000000E+00 -0.00000000000E+00  0.00000000000E+00  0.93800000000E+00  0.93800000000E+00 0.  1.
         11    1    1    2    0    0 -0.69783838328E-03 -0.37705407686E-01  0.56630100075E+00  0.56755552091E+00  0.51100000000E-03 0. -1.
    9000002    1    1    2    0    0  0.90713164686E-02  0.27693292305E+00  0.51117201083E-01  0.97940344134E+00  0.93800000000E+00 0.  1.
         22    1    1    2    0    0 -0.83734780853E-02 -0.23922751537E+00  0.33825817655E+01  0.33910410378E+01  0.00000000000E+00 0. -1.
</event>
<event>
 5    1  0.1461556E+002  0.1550636E+01  0.7818608E-02  0.3408748E+00
         11   -1    0    0    0    0  0.00000000000E+00  0.00000000000E+00  0.39999999674E+01  0.40000000000E+01  0.51100000000E-03 0. -1.
    9000002   -1    0    0    0    0 -0.00000000000E+00 -0.00000000000E+00  0.00000000000E+00  0.93800000000E+00  0.93800000000E+00 0. -1.
         11    1    1    2    0    0 -0.18752962958E+00  0.18120654648E+00  0.15086624322E+01  0.15310342158E+01  0.51100000000E-03 0. -1.
    9000002    1    1    2    0    0 -0.67216842217E-01 -0.89457304276E-01  0.45034142914E-01  0.94572342003E+00  0.93800000000E+00 0. -1.
         22    1    1    2    0    0  0.25474647179E+00 -0.91749242209E-01  0.24463033922E+01  0.24612423642E+01  0.00000000000E+00 0. -1.
</event>
<event>
 5    1  0.1461556E+002  0.1593254E+01  0.7818608E-02  0.3360718E+00
         11   -1    0    0    0    0  0.00000000000E+00  0.00000000000E+00  0.39999999674E+01  0.40000000000E+01  0.51100000000E-03 0. -1.
    9000002   -1    0    0    0    0 -0.00000000000E+00 -0.00000000000E+00  0.00000000000E+00  0.93800000000E+00  0.93800000000E+00 0. -1.
         11    1    1    2    0    0  0.11682167666E-02 -0.26091262251E-01  0.31824040495E+00  0.31931071883E+00  0.51100000000E-03 0. -1.
    9000002    1    1    2    0    0  0.32372818097E+00 -0.23179962394E+00  0.11226392455E+00  0.10251722731E+01  0.93800000000E+00 0. -1.
         22    1    1    2    0    0 -0.32489639774E+00  0.25789088620E+00  0.35694956379E+01  0.35935170080E+01  0.00000000000E+00 0. -1.
</event>
<event>
 5    1  0.1461556E+002  0.1599667E+01  0.7818608E-02  0.3353725E+00
         11   -1    0    0    0    0  0.00000000000E+00  0.00000000000E+00  0.39999999674E+01  0.40000000000E+01  0.51100000000E-03 0. -1.
    9000002   -1    0    0    0    0 -0.00000000000E+00 -0.00000000000E+00  0.00000000000E+00  0.93800000000E+00  0.93800000000E+00 0.  1.
         11    1    1    2    0    0  0.12256752599E+00  0.28474239205E+00  0.21746884093E+01  0.21966727036E+01  0.51100000000E-03 0. -1.
    9000002    1    1    2    0    0 -0.20868236925E+00 -0.50113987934E+00  0.20327823248E+00  0.11026584012E+01  0.93800000000E+00 0.  1.
         22    1    1    2    0    0  0.86114843257E-01  0.21639748729E+00  0.16220333256E+01  0.16386688952E+01  0.00000000000E+00 0. -1.
</event>
<event>
 5    1  0.1461556E+002  0.1586887E+01  0.7818608E-02  0.3367720E+00
         11   -1    0    0    0    0  0.00000000000E+00  0.00000000000E+00  0.39999999674E+01  0.40000000000E+01  0.51100000000E-03 0. -1.
    9000002   -1    0    0    0    0 -0.00000000000E+00 -0.00000000000E+00  0.00000000000E+00  0.93800000000E+00  0.93800000000E+00 0. -1.
         11    1    1    2    0    0 -0.51620394678E-03  0.87937415438E-01  0.13854295209E+01  0.13882177329E+01  0.51100000000E-03 0. -1.
    9000002    1    1    2    0    0  0.54558533470E-01  0.11601995094E+00  0.20293093348E-01  0.94693879012E+00  0.93800000000E+00 0. -1.
         22    1    1    2    0    0 -0.54042329523E-01 -0.20395736638E+00  0.25942773531E+01  0.26028434770E+01  0.00000000000E+00 0. -1.
</event>
<event>
 5    1  0.1461556E+002  0.1599491E+01  0.7818608E-02  0.3353916E+00
         11   -1    0    0    0    0  0.00000000000E+00  0.00000000000E+00  0.39999999674E+01  0.40000000000E+01  0.51100000000E-03 0.  1.
    9000002   -1    0    0    0    0 -0.00000000000E+00 -0.00000000000E+00  0.00000000000E+00  0.93800000000E+00  0.93800000000E+00 0.  1.
         11    1    1    2    0    0  0.27501163077E+00 -0.48719481403E-02  0.18335744726E+01  0.18540902731E+01  0.51100000000E-03 0.  1.
    9000002    1    1    2    0    0 -0.56971195109E+00  0.43607689340E-01  0.22661600406E+00  0.11214598303E+01  0.93800000000E+00 0.  1.
         22    1    1    2    0    0  0.29470032033E+00 -0.38735741200E-01  0.19398094907E+01  0.19624498966E+01  0.00000000000E+00 0.  1.
</event>
<event>
 5    1  0.1461556E+002  0.1599664E+01  0.7818608E-02  0.3353728E+00
         11   -1    0    0    0    0  0.00000000000E+00  0.00000000000E+00  0.39999999674E+01  0.40000000000E+01  0.51100000000E-03 0.  1.
    9000002   -1    0    0    0    0 -0.00000000000E+00 -0.00000000000E+00  0.00000000000E+00  0.93800000000E+00  0.93800000000E+00 0.  1.
         11    1    1    2    0    0  0.27554299557E-01 -0.14073628746E+00  0.14746486392E+01  0.14816054847E+01  0.51100000000E-03 0.  1.
    9000002    1    1    2    0    0 -0.74941859021E-01  0.36196207092E+00  0.91829235356E-01  0.10123781070E+01  0.93800000000E+00 0.  1.
         22    1    1    2    0    0  0.47387559464E-01 -0.22122578347E+00  0.24335220928E+01  0.24440164084E+01  0.00000000000E+00 0.  1.
</event>
<event>
 5    1  0.1461556E+002  0.1599621E+01  0.7818608E-02  0.3353774E+00
         11   -1    0    0    0    0  0.00000000000E+00  0.00000000000E+00  0.39999999674E+01  0.40000000000E+01  0.51100000000E-03 0.  1.
    9000002   -1    0    0    0    0 -0.00000000000E+00 -0.00000000000E+00  0.00000000000E+00  0.93800000000E+00  0.93800000000E+00 0.  1.
         11    1    1    2    0    0 -0.59437886357E-01  0.30940772369E-01  0.96277992100E+00  0.96510912913E+00  0.51100000000E-03 0.  1.
    9000002    1    1    2    0    0  0.24958186640E+00 -0.15765181952E+00  0.58153323308E-01  0.98507411561E+00  0.93800000000E+00 0.  1.
         22    1    1    2    0    0 -0.19014398004E+00  0.12671104715E+00  0.29790667230E+01  0.29878167553E+01  0.00000000000E+00 0.  1.
</event>
<event>
 5    1  0.1461556E+002  0.1591509E+01  0.7818608E-02  0.3362631E+00
         11   -1    0    0    0    0  0.00000000000E+00  0.00000000000E+00  0.39999999674E+01  0.40000000000E+01  0.51100000000E-03 0. -1.
    9000002   -1    0    0    0    0 -0.00000000000E+00 -0.00000000000E+00  0.00000000000E+00  0.93800000000E+00  0.93800000000E+00 0. -1.
         11    1    1    2    0    0  0.83881438042E-01  0.22269840933E-01  0.33336394341E+00  0.34447615498E+00  0.51100000000E-03 0. -1.
    9000002    1    1    2    0    0 -0.39810689258E+00  0.16668049667E+00  0.13316547523E+00  0.10410804626E+01  0.93800000000E+00 0. -1.
         22    1    1    2    0    0  0.31422545454E+00 -0.18895033760E+00  0.35334705487E+01  0.35524433824E+01  0.00000000000E+00 0. -1.
</event>
<event>
 5    1  0.1461556E+002  0.1599658E+01  0.7818608E-02  0.3353735E+00
         11   -1    0    0    0    0  0.00000000000E+00  0.00000000000E+00  0.39999999674E+01  0.40000000000E+01  0.51100000000E-03 0.  1.
    9000002   -1    0    0    0    0 -0.00000000000E+00 -0.00000000000E+00  0.00000000000E+00  0.93800000000E+00  0.93800000000E+00 0.  1.
         11    1    1    2    0    0 -0.68206856325E-03  0.10578523334E-01  0.16647448345E+00  0.16681242500E+00  0.51100000000E-03 0.  1.
    9000002    1    1    2    0    0 -0.27287946064E-01 -0.22889086352E+00  0.35261646473E-01  0.96655214195E+00  0.93800000000E+00 0.  1.
         22    1    1    2    0    0  0.27970014627E-01  0.21831234019E+00  0.37982638374E+01  0.38046354330E+01  0.00000000000E+00 0.  1.
</event>
<event>
 5    1  0.1461556E+002  0.1590027E+01  0.7818608E-02  0.3364259E+00
         11   -1    0    0    0    0  0.00000000000E+00  0.00000000000E+00  0.39999999674E+01  0.40000000000E+01  0.51100000000E-03 0.  1.
    9000002   -1    0    0    0    0 -0.00000000000E+00 -0.00000000000E+00  0.00000000000E+00  0.93800000000E+00  0.93800000000E+00 0.  1.
         11    1    1    2    0    0 -0.14879409581E-01  0.74388577839E-01  0.54039274689E+00  0.54569189050E+00  0.51100000000E-03 0.  1.
    9000002    1    1    2    0    0  0.18083273405E+00  0.45358058543E-01  0.30225399461E-01  0.95682569256E+00  0.93800000000E+00 0.  1.
         22    1    1    2    0    0 -0.16595332447E+00 -0.11974663638E+00  0.34293818210E+01  0.34354824169E+01  0.00000000000E+00 0.  1.
</event>
<event>
 5    1  0.1461556E+002  0.1599676E+01  0.7818608E-02  0.3353715E+00
         11   -1    0    0    0    0  0.00000000000E+00  0.00000000000E+00  0.39999999674E+01  0.40000000000E+01  0.51100000000E-03 0.  1.
    9000002   -1    0    0    0    0 -0.00000000000E+00 -0.00000000000E+00  0.00000000000E+00  0.93800000000E+00  0.93800000000E+00 0. -1.
         11    1    1    2    0    0 -0.47902117533E-01 -0.74294113459E-01  0.11520089752E+01  0.11553956761E+01  0.51100000000E-03 0.  1.
    9000002    1    1    2    0    0  0.16677018585E+00  0.25225826816E+00  0.61019472812E-01  0.98742792385E+00  0.93800000000E+00 0. -1.
         22    1    1    2    0    0 -0.11886806832E+00 -0.17796415470E+00  0.27869715193E+01  0.27951764001E+01  0.00000000000E+00 0.  1.
</event>
<event>
 5    1  0.1461556E+002  0.1588337E+01  0.7818608E-02  0.3366120E+00
         11   -1    0    0    0    0  0.00000000000E+00  0.00000000000E+00  0.39999999674E+01  0.40000000000E+01  0.51100000000E-03 0.  1.
    9000002   -1    0    0    0    0 -0.00000000000E+00 -0.00000000000E+00  0.00000000000E+00  0.93800000000E+00  0.93800000000E+00 0. -1.
         11    1    1    2    0    0 -0.38066728804E-01  0.10674417618E+00  0.95633385355E+00  0.96302549060E+00  0.51100000000E-03 0.  1.
    9000002    1    1    2    0    0  0.24672151642E+00  0.37155014131E-02  0.49139894685E-01  0.97115603322E+00  0.93800000000E+00 0. -1.
         22    1    1    2    0    0 -0.20865478762E+00 -0.11045967759E+00  0.29945262191E+01  0.30038184762E+01  0.00000000000E+00 0.  1.
</event>
<event>
 5    1  0.1461556E+002  0.1599673E+01  0.7818608E-02  0.3353719E+00
         11   -1    0    0    0    0  0.00000000000E+00  0.00000000000E+00  0.39999999674E+01  0.40000000000E+01  0.51100000000E-03 0.  1.
    9000002   -1    0    0    0    0 -0.00000000000E+00 -0.00000000000E+00  0.00000000000E+00  0.93800000000E+00  0.93800000000E+00 0.  1.
         11    1    1    2    0    0  0.12907659798E+00  0.12254391779E+00  0.17524585933E+01  0.17614735769E+01  0.51100000000E-03 0.  1.
    9000002    1    1    2    0    0 -0.29087765583E+00 -0.26846597924E+00  0.10563381692E+00  0.10235654820E+01  0.93800000000E+00 0.  1.
         22    1    1    2    0    0  0.16180105785E+00  0.14592206145E+00  0.21419075572E+01  0.21529609411E+01  0.00000000000E+00 0.  1.
</event>
<event>
 5    1  0.1461556E+002  0.1599676E+01  0.7818608E-02  0.3353715E+00
         11   -1    0    0    0    0  0.00000000000E+00  0.00000000000E+00  0.39999999674E+01  0.40000000000E+01  0.51100000000E-03 0.  1.
    9000002   -1    0    0    0    0 -0.00000000000E+00 -0.00000000000E+00  0.00000000000E+00  0.93800000000E+00  0.93800000000E+00 0.  1.
         11    1    1    2    0    0 -0.38854861981E-01  0.10376149429E+00  0.11928322639E+01  0.11979671193E+01  0.51100000000E-03 0.  1.
    9000002    1    1    2    0    0  0.12531300405E+00 -0.34280013617E+00  0.89474251416E-01  0.10104775722E+01  0.93800000000E+00 0.  1.
         22    1    1    2    0    0 -0.86458142068E-01  0.23903864188E+00  0.27176934520E+01  0.27295553084E+01  0.00000000000E+00 0.  1.
</event>
<event>
 5    1  0.1461556E+002  0.1599667E+01  0.7818608E-02  0.3353725E+00
         11   -1    0    0    0    0  0.00000000000E+00  0.00000000000E+00  0.39999999674E+01  0.40000000000E+01  0.51100000000E-03 0.  1.
    9000002   -1    0    0    0    0 -0.00000000000E+00 -0.00000000000E+00  0.00000000000E+00  0.93800000000E+00  0.93800000000E+00 0. -1.
         11    1    1    2    0    0 -0.40544790061E+00  0.22933478704E-01  0.23309138817E+01  0.23660248794E+01  0.51100000000E-03 0.  1.
    9000002    1    1    2    0    0  0.64106673970E+00 -0.32228437133E-01  0.29018092883E+00  0.11730533698E+01  0.93800000000E+00 0. -1.
         22    1    1    2    0    0 -0.23561883909E+00  0.92949584286E-02  0.13789051568E+01  0.13989217508E+01  0.00000000000E+00 0.  1.
</event>
<event>
 5    1  0.1461556E+002  0.1548702E+01  0.7818608E-02  0.3410994E+00
         11   -1    0    0    0    0  0.00000000000E+00  0.00000000000E+00  0.39999999674E+01  0.40000000000E+01  0.51100000000E-03 0.  1.
    9000002   -1    0    0    0    0 -0.00000000000E+00 -0.00000000000E+00  0.00000000000E+00  0.93800000000E+00  0.93800000000E+00 0.  1.
         11    1    1    2    0    0  0.35639540128E+00  0.16041832438E+00  0.10098795311E+01  0.10828705598E+01  0.51100000000E-03 0.  1.
    9000002    1    1    2    0    0 -0.61407141479E+00  0.28858165648E-04  0.31735022321E+00  0.11651776120E+01  0.93800000000E+00 0.  1.
         22    1    1    2    0    0  0.25767601351E+00 -0.16044718254E+00  0.26727702130E+01  0.26899518282E+01  0.00000000000E+00 0.  1.
</event>
<event>
 5    1  0.1461556E+002  0.1597623E+01  0.7818608E-02  0.3355948E+00
         11   -1    0    0    0    0  0.00000000000E+00  0.00000000000E+00  0.39999999674E+01  0.40000000000E+01  0.51100000000E-03 0.  1.
    9000002   -1    0    0    0    0 -0.00000000000E+00 -0.00000000000E+00  0.00000000000E+00  0.93800000000E+00  0.93800000000E+00 0.  1.
         11    1    1    2    0    0  0.96851646145E-01 -0.36527392948E-01  0.12473249552E+01  0.12516126784E+01  0.51100000000E-03 0.  1.
    9000002    1    1    2    0    0 -0.18887466352E+00  0.22482022034E+00  0.59087404823E-01  0.98465887057E+00  0.93800000000E+00 0.  1.
         22    1    1    2    0    0  0.92023017378E-01 -0.18829282739E+00  0.26935876073E+01  0.27017284510E+01  0.00000000000E+00 0.  1.
</event>
<event>
 5    1  0.1461556E+002  0.1599675E+01  0.7818608E-02  0.3353716E+00
         11   -1    0    0    0    0  0.00000000000E+00  0.00000000000E+00  0.39999999674E+01  0.40000000000E+01  0.51100000000E-03 0. -1.
    9000002   -1    0    0    0    0 -0.00000000000E+00 -0.00000000000E+00  0.00000000000E+00  0.93800000000E+00  0.93800000000E+00 0. -1.
         11    1    1    2    0    0 -0.25847369295E+00  0.22118852491E+00  0.20603795064E+01  0.20882760797E+01  0.51100000000E-03 0. -1.
    9000002    1    1    2    0    0  0.47062760563E+00 -0.39931762377E+00  0.26678549069E+00  0.11541071899E+01  0.93800000000E+00 0. -1.
         22    1    1    2    0    0 -0.21215391268E+00  0.17812909886E+00  0.16728349702E+01  0.16956167303E+01  0.00000000000E+00 0. -1.
</event>
<event>
 5    1  0.1461556E+002  0.1599539E+01  0.7818608E-02  0.3353864E+00
         11   -1    0    0    0    0  0.00000000000E+00  0.00000000000E+00  0.39999999674E+01  0.40000000000E+01  0.51100000000E-03 0.  1.
    9000002   -1    0    0    0    0 -0.00000000000E+00 -0.00000000000E+00  0.00000000000E+00  0.93800000000E+00  0.93800000000E+00 0. -1.
         11    1    1    2    0    0 -0.13662110369E-01 -0.60656088645E-02  0.41021699164E+00  0.41048956896E+00  0.51100000000E-03 0.  1.
    9000002    1    1    2    0    0  0.20026491840E+00  0.10656681506E+00  0.34233213597E-01  0.96564923058E+00  0.93800000000E+00 0. -1.
         22    1    1    2    0    0 -0.18660280803E+00 -0.10050120619E+00  0.35555497621E+01  0.35618612005E+01  0.00000000000E+00 0.  1.
</event>
<event>
 5    1  0.1461556E+002  0.1597069E+01  0.7818608E-02  0.3356551E+00
         11   -1    0    0    0    0  0.00000000000E+00  0.00000000000E+00  0.39999999674E+01  0.40000000000E+01  0.51100000000E-03 0. -1.
    9000002   -1    0    0    0    0 -0.00000000000E+00 -0.00000000000E+00  0.00000000000E+00  0.93800000000E+00  0.93800000000E+00 0. -1.
         11    1    1    2    0    0  0.19799023374E+00  0.42484665517E+00  0.13586832274E+01  0.14372596100E+01  0.51100000000E-03 0. -1.
    9000002    1    1    2    0    0 -0.31830226993E+00 -0.10082634135E+01  0.93821917089E+00  0.16964700583E+01  0.93800000000E+00 0. -1.
         22    1    1    2    0    0  0.12031203618E+00  0.58341675836E+00  0.17030975691E+01  0.18042703317E+01  0.00000000000E+00 0. -1.
</event>
<event>
 5    1  0.1461556E+002  0.1575823E+01  0.7818608E-02  0.3380030E+00
         11   -1    0    0    0    0  0.00000000000E+00  0.00000000000E+00  0.39999999674E+01  0.40000000000E+01  0.51100000000E-03 0. -1.
    9000002   -1    0    0    0    0 -0.00000000000E+00 -0.00000000000E+00  0.00000000000E+00  0.93800000000E+00  0.93800000000E+00 0. -1.
         11    1    1    2    0    0  0.10633177690E+00  0.13596756880E+00  0.86455397628E+00  0.88161639365E+00  0.51100000000E-03 0. -1.
    9000002    1    1    2    0    0  0.19515070026E+00 -0.42656247412E+00  0.17111129209E+00  0.10626205411E+01  0.93800000000E+00 0. -1.
         22    1    1    2    0    0 -0.30148247716E+00  0.29059490532E+00  0.29643346990E+01  0.29937630652E+01  0.00000000000E+00 0. -1.
</event>
<event>
 5    1  0.1461556E+002  0.1544307E+01  0.7818608E-02  0.3416122E+00
         11   -1    0    0    0    0  0.00000000000E+00  0.00000000000E+00  0.39999999674E+01  0.40000000000E+01  0.51100000000E-03 0.  1.
    9000002   -1    0    0    0    0 -0.00000000000E+00 -0.00000000000E+00  0.00000000000E+00  0.93800000000E+00  0.93800000000E+00 0.  1.
         11    1    1    2    0    0 -0.20740339416E+00 -0.50166076569E-01  0.67962719239E+00  0.71233853252E+00  0.51100000000E-03 0.  1.
    9000002    1    1    2    0    0  0.96574517009E-02 -0.74290964690E-01  0.45102053075E-01  0.94206719983E+00  0.93800000000E+00 0.  1.
         22    1    1    2    0    0  0.19774594246E+00  0.12445704126E+00  0.32752707219E+01  0.32835942677E+01  0.00000000000E+00 0.  1.
</event>
<event>
 5    1  0.1461556E+002  0.1598816E+01  0.7818608E-02  0.3354649E+00
         11   -1    0    0    0    0  0.00000000000E+00  0.00000000000E+00  0.39999999674E+01  0.40000000000E+01  0.51100000000E-03 0.  1.
    9000002   -1    0    0    0    0 -0.00000000000E+00 -0.00000000000E+00  0.00000000000E+00  0.93800000000E+00  0.93800000000E+00 0. -1.
         11    1    1    2    0    0  0.13523301940E-01 -0.23614245261E-01  0.47677206483E+00  0.47754829619E+00  0.51100000000E-03 0.  1.
    9000002    1    1    2    0    0  0.76033235182E-01  0.22680874054E+00  0.38637350638E-01  0.96879311646E+00  0.93800000000E+00 0. -1.
         22    1    1    2    0    0 -0.89556537122E-01 -0.20319449527E+00  0.34845905519E+01  0.34916585873E+01  0.00000000000E+00 0.  1.
</event>
<event>
 5    1  0.1461556E+002  0.1598345E+01  0.7818608E-02  0.3355162E+00
         11   -1    0    0    0    0  0.00000000000E+00  0.00000000000E+00  0.39999999674E+01  0.40000000000E+01  0.51100000000E-03 0.  1.
    9000002   -1    0    0    0    0 -0.00000000000E+00 -0.00000000000E+00  0.00000000000E+00  0.93800000000E+00  0.93800000000E+00 0. -1.
         11    1    1    2    0    0  0.18840066933E+00  0.38393756399E+00  0.25894771464E+01  0.26245561564E+01  0.51100000000E-03 0.  1.
    9000002    1    1    2    0    0 -0.25524007428E+00 -0.60421860235E+00  0.30543678240E+00  0.11846363336E+01  0.93800000000E+00 0. -1.
         22    1    1    2    0    0  0.66839404945E-01  0.22028103836E+00  0.11050860386E+01  0.11288075100E+01  0.00000000000E+00 0. -1.
</event>
<event>
 5    1  0.1461556E+002  0.1547311E+01  0.7818608E-02  0.3412614E+00
         11   -1    0    0    0    0  0.00000000000E+00  0.00000000000E+00  0.39999999674E+01  0.40000000000E+01  0.51100000000E-03 0.  1.
    9000002   -1    0    0    0    0 -0.00000000000E+00 -0.00000000000E+00  0.00000000000E+00  0.93800000000E+00  0.93800000000E+00 0. -1.
         11    1    1    2    0    0 -0.30403424359E+00 -0.22151569017E+00  0.27468542599E+01  0.27724924902E+01  0.51100000000E-03 0.  1.
    9000002    1    1    2    0    0  0.10172599899E+00  0.17682094486E+00  0.67938179425E-01  0.96232708662E+00  0.93800000000E+00 0. -1.
         22    1    1    2    0    0  0.20230824460E+00  0.44694745311E-01  0.11852075281E+01  0.12031804232E+01  0.00000000000E+00 0.  1.
</event>
<event>
 5    1  0.1461556E+002  0.1599674E+01  0.7818608E-02  0.3353717E+00
         11   -1    0    0    0    0  0.00000000000E+00  0.00000000000E+00  0.39999999674E+01  0.40000000000E+01  0.51100000000E-03 0.  1.
    9000002   -1    0    0    0    0 -0.00000000000E+00 -0.00000000000E+00  0.00000000000E+00  0.93800000000E+00  0.93800000000E+00 0.  1.
         11    1    1    2    0    0  0.21999616441E-01 -0.15626121550E-01  0.39451223203E+00  0.39543434492E+00  0.51100000000E-03 0.  1.
    9000002    1    1    2    0    0 -0.22614906595E+00  0.14598080704E+00  0.48206330059E-01  0.97704741252E+00  0.93800000000E+00 0.  1.
         22    1    1    2    0    0  0.20414944951E+00 -0.13035468549E+00  0.35572814053E+01  0.35655182426E+01  0.00000000000E+00 0.  1.
</event>
<event>
 5    1  0.1461556E+002  0.1599578E+01  0.7818608E-02  0.3353821E+00
         11   -1    0    0    0    0  0.00000000000E+00  0.00000000000E+00  0.39999999674E+01  0.40000000000E+01  0.51100000000E-03 0.  1.
    9000002   -1    0    0    0    0 -0.00000000000E+00 -0.00000000000E+00  0.00000000000E+00  0.93800000000E+00  0.93800000000E+00 0. -1.
         11    1    1    2    0    0 -0.38274286394E-01  0.45044533887E-01  0.41682278176E+00  0.42099337708E+00  0.51100000000E-03 0.  1.
    9000002    1    1    2    0    0  0.40453767708E+00 -0.37179006267E+00  0.20857859312E+00  0.11069000011E+01  0.93800000000E+00 0. -1.
         22    1    1    2    0    0 -0.36626339069E+00  0.32674552878E+00  0.33745985925E+01  0.34101066218E+01  0.00000000000E+00 0.  1.
</event>
<event>
 5    1  0.1461556E+002  0.1544064E+01  0.7818608E-02  0.3416406E+00
         11   -1    0    0    0    0  0.00000000000E+00  0.00000000000E+00  0.39999999674E+01  0.40000000000E+01  0.51100000000E-03 0.  1.
    9000002   -1    0    0    0    0 -0.00000000000E+00 -0.00000000000E+00  0.00000000000E+00  0.93800000000E+00  0.93800000000E+00 0. -1.
         11    1    1    2    0    0  0.47071001080E-01  0.59283205581E-01  0.31639782214E+01  0.31648836668E+01  0.51100000000E-03 0.  1.
    9000002    1    1    2    0    0 -0.72245373534E-01  0.20811748544E+00  0.75401189031E-01  0.96646863428E+00  0.93800000000E+00 0. -1.
         22    1    1    2    0    0  0.25174372454E-01 -0.26740069102E+00  0.76062055695E+00  0.80664769896E+00  0.00000000000E+00 0. -1.
</event>
<event>
 5    1  0.1461556E+002  0.1599636E+01  0.7818608E-02  0.3353758E+00
         11   -1    0    0    0    0  0.00000000000E+00  0.00000000000E+00  0.39999999674E+01  0.40000000000E+01  0.51100000000E-03 0. -1.
    9000002   -1    0    0    0    0 -0.00000000000E+00 -0.00000000000E+00  0.00000000000E+00  0.93800000000E+00  0.93800000000E+00 0. -1.
         11    1    1    2    0    0 -0.65858250320E-01 -0.66890825580E-01  0.92001108328E+00  0.92478773033E+00  0.51100000000E-03 0. -1.
    9000002    1    1    2    0    0  0.30543283884E+00  0.28440327317E+00  0.11778684390E+00  0.10333886885E+01  0.93800000000E+00 0. -1.
         22    1    1    2    0    0 -0.23957458852E+00 -0.21751244759E+00  0.29622020402E+01  0.29798235812E+01  0.00000000000E+00 0.  1.
</event>
<event>
 5    1  0.1461556E+002  0.1590824E+01  0.7818608E-02  0.3363384E+00
         11   -1    0    0    0    0  0.00000000000E+00  0.00000000000E+00  0.39999999674E+01  0.40000000000E+01  0.51100000000E-03 0. -1.
    9000002   -1    0    0    0    0 -0.00000000000E+00 -0.00000000000E+00  0.00000000000E+00  0.93800000000E+00  0.93800000000E+00 0. -1.
         11    1    1    2    0    0  0.27125173311E+00 -0.11542174815E+00  0.15371207130E+01  0.15651325919E+01  0.51100000000E-03 0. -1.
    9000002    1    1    2    0    0 -0.51979370666E+00  0.54595383520E-01  0.19591652774E+00  0.10915097064E+01  0.93800000000E+00 0. -1.
         22    1    1    2    0    0  0.24854197355E+00  0.60826364632E-01  0.22669627266E+01  0.22813577017E+01  0.00000000000E+00 0. -1.
</event>
<event>
 5    1  0.1461556E+002  0.1599663E+01  0.7818608E-02  0.3353729E+00
         11   -1    0    0    0    0  0.00000000000E+00  0.00000000000E+00  0.39999999674E+01  0.40000000000E+01  0.51100000000E-03 0.  1.
    9000002   -1    0    0    0    0 -0.00000000000E+00 -0.00000000000E+00  0.00000000000E+00  0.93800000000E+00  0.93800000000E+00 0. -1.
         11    1    1    2    0    0 -0.36827424248E-01 -0.75508156030E-01  0.10066065266E+01  0.10101062822E+01  0.51100000000E-03 0.  1.
    9000002    1    1    2    0    0  0.15842989418E+00  0.29753979229E+00  0.76094909493E-01  0.99963212964E+00  0.93800000000E+00 0. -1.
         22    1    1    2    0    0 -0.12160246994E+00 -0.22203163626E+00  0.29172985313E+01  0.29282615882E+01  0.00000000000E+00 0.  1.
</event>
<event>
 5    1  0.1461556E+002  0.1599578E+01  0.7818608E-02  0.3353821E+00
         11   -1    0    0    0    0  0.00000000000E+00  0.00000000000E+00  0.39999999674E+01  0.40000000000E+01  0.51100000000E-03 0. -1.
    9000002   -1    0    0    0    0 -0.00000000000E+00 -0.00000000000E+00  0.00000000000E+00  0.93800000000E+00  0.93800000000E+00 0. -1.
         11    1    1    2    0    0 -0.20159765466E+00  0.17695821057E+00  0.17634549661E+01  0.17837403121E+01  0.51100000000E-03 0. -1.
    9000002    1    1    2    0    0  0.41379543024E+00 -0.36330746869E+00  0.20955296477E+00  0.11076892253E+01  0.93800000000E+00 0. -1.
         22    1    1    2    0    0 -0.21219777557E+00  0.18634925812E+00  0.20269920365E+01  0.20465704625E+01  0.00000000000E+00 0. -1.
</event>
<event>
 5    1  0.1461556E+002  0.1599677E+01  0.7818608E-02  0.3353714E+00
         11   -1    0    0    0    0  0.00000000000E+00  0.00000000000E+00  0.39999999674E+01  0.40000000000E+01  0.51100000000E-03 0. -1.
    9000002   -1    0    0    0    0 -0.00000000000E+00 -0.00000000000E+00  0.00000000000E+00  0.93800000000E+00  0.93800000000E+00 0.  1.
         11    1    1    2    0    0  0.18136260361E-01  0.88923507967E-01  0.10737941940E+01  0.10776226363E+01  0.51100000000E-03 0. -1.
    9000002    1    1    2    0    0 -0.64834084557E-01 -0.32696671263E+00  0.74367987637E-01  0.99824109677E+00  0.93800000000E+00 0.  1.
         22    1    1    2    0    0  0.46697824197E-01  0.23804320466E+00  0.28518377858E+01  0.28621362669E+01  0.00000000000E+00 0.  1.
</event>
<event>
 5    1  0.1461556E+002  0.1599672E+01  0.7818608E-02  0.3353720E+00
         11   -1    0    0    0    0  0.00000000000E+00  0.00000000000E+00  0.39999999674E+01  0.40000000000E+01  0.51100000000E-03 0.  1.
    9000002   -1    0    0    0    0 -0.00000000000E+00 -0.00000000000E+00  0.00000000000E+00  0.93800000000E+00  0.93800000000E+00 0. -1.
         11    1    1    2    0    0  0.75079393405E-01  0.27883558650E+00  0.20883631291E+01  0.21082331511E+01  0.51100000000E-03 0.  1.
    9000002    1    1    2    0    0 -0.13191111344E+00 -0.50808141764E+00  0.18944878264E+00  0.10914587074E+01  0.93800000000E+00 0. -1.
         22    1    1    2    0    0  0.56831720040E-01  0.22924583113E+00  0.17221880557E+01  0.17383081414E+01  0.00000000000E+00 0.  1.
</event>
<event>
 5    1  0.1483320E+002  0.1577067E+01  0.7818608E-02  0.3378636E+00
         11   -1    0    0    0    0  0.00000000000E+00  0.00000000000E+00  0.39999999674E+01  0.40000000000E+01  0.51100000000E-03 0. -1.
    9000002   -1    0    0    0    0 -0.00000000000E+00 -0.00000000000E+00  0.00000000000E+00  0.93800000000E+00  0.93800000000E+00 0. -1.
         11    1    1    2    0    0 -0.38294549073E-01 -0.13158131064E+00  0.19078164322E+01  0.19127320549E+01  0.51100000000E-03 0. -1.
    9000002    1    1    2    0    0 -0.55865047679E-01 -0.77352058459E-01  0.22678995857E-01  0.94311323888E+00  0.93800000000E+00 0. -1.
         22    1    1    2    0    0  0.94159596752E-01  0.20893336910E+00  0.20695045393E+01  0.20821547062E+01  0.00000000000E+00 0. -1.
</event>
<event>
 5    1  0.1461556E+002  0.1522346E+01  0.7818608E-02  0.3442214E+00
         11   -1    0    0    0    0  0.00000000000E+00  0.00000000000E+00  0.39999999674E+01  0.40000000000E+01  0.51100000000E-03 0. -1.
    9000002   -1    0    0    0    0 -0.00000000000E+00 -0.00000000000E+00  0.00000000000E+00  0.93800000000E+00  0.93800000000E+00 0. -1.
         11    1    1    2    0    0 -0.23286091869E+00 -0.29216252851E+00  0.32348751940E+01  0.32563784995E+01  0.51100000000E-03 0. -1.
    9000002    1    1    2    0    0  0.43133068238E-01  0.15641540586E+00  0.77013757469E-01  0.95503997801E+00  0.93800000000E+00 0. -1.
         22    1    1    2    0    0  0.18972785045E+00  0.13574712264E+00  0.68811101591E+00  0.72658152244E+00  0.00000000000E+00 0. -1.
</event>
<event>
 5    1  0.1461556E+002  0.1597237E+01  0.7818608E-02  0.3356367E+00
         11   -1    0    0    0    0  0.00000000000E+00  0.00000000000E+00  0.39999999674E+01  0.40000000000E+01  0.51100000000E-03 0.  1.
    9000002   -1    0    0    0    0 -0.00000000000E+00 -0.00000000000E+00  0.00000000000E+00  0.93800000000E+00  0.93800000000E+00 0.  1.
         11    1    1    2    0    0  0.56043676303E-03 -0.95404427956E-02  0.75108833157E+00  0.75114930412E+00  0.51100000000E-03 0.  1.
    9000002    1    1    2    0    0 -0.44240312612E-01 -0.19229756478E+00  0.27600780468E-01  0.95892719315E+00  0.93800000000E+00 0.  1.
         22    1    1    2    0    0  0.43679875849E-01  0.20183800758E+00  0.32213108553E+01  0.32279235027E+01  0.00000000000E+00 0.  1.
</event>
<event>
 5    1  0.1461556E+002  0.1599285E+01  0.7818608E-02  0.3354140E+00
         11   -1    0    0    0    0  0.00000000000E+00  0.00000000000E+00  0.39999999674E+01  0.40000000000E+01  0.51100000000E-03 0.  1.
    9000002   -1    0    0    0    0 -0.00000000000E+00 -0.00000000000E+00  0.00000000000E+00  0.93800000000E+00  0.93800000000E+00 0. -1.
         11    1    1    2    0    0  0.94324448328E-01 -0.32850045577E-01  0.12736992680E+01  0.12776096092E+01  0.51100000000E-03 0.  1.
    9000002    1    1    2    0    0 -0.32357392739E+00  0.40755115869E-01  0.71447010502E-01  0.99564538932E+00  0.93800000000E+00 0. -1.
         22    1    1    2    0    0  0.22924947906E+00 -0.79050702928E-02  0.26548536888E+01  0.26647450015E+01  0.00000000000E+00 0.  1.
</event>
<event>
 5    1  0.1461556E+002  0.1599661E+01  0.7818608E-02  0.3353731E+00
         11   -1    0    0    0    0  0.00000000000E+00  0.00000000000E+00  0.39999999674E+01  0.40000000000E+01  0.51100000000E-03 0.  1.
    9000002   -1    0    0    0    0 -0.00000000000E+00 -0.00000000000E+00  0.00000000000E+00  0.93800000000E+00  0.93800000000E+00 0.  1.
         11    1    1    2    0    0  0.57908090467E-01  0.45986051738E-01  0.40429778660E+00  0.41100489689E+00  0.51100000000E-03 0.  1.
    9000002    1    1    2    0    0 -0.52331963592E+00 -0.44378303147E+00  0.33525961474E+00  0.12095659675E+01  0.93800000000E+00 0.  1.
         22    1    1    2    0    0  0.46541154545E+00  0.39779697974E+00  0.32604425660E+01  0.33174291357E+01  0.00000000000E+00 0.  1.
</event>
<event>
 5    1  0.1667970E+002  0.1560754E+01  0.7818608E-02  0.3397093E+00
         11   -1    0    0    0    0  0.00000000000E+00  0.00000000000E+00  0.39999999674E+01  0.40000000000E+01  0.51100000000E-03 0. -1.
    9000002   -1    0    0    0    0 -0.00000000000E+00 -0.00000000000E+00  0.00000000000E+00  0.93800000000E+00  0.93800000000E+00 0.  1.
         11    1    1    2    0    0 -0.12843207146E+00 -0.97819441527E-01  0.55322019695E+00  0.57629531280E+00  0.51100000000E-03 0. -1.
    9000002    1    1    2    0    0  0.31994686456E-01 -0.85683824348E-01  0.34443900029E-01  0.94307781225E+00  0.93800000000E+00 0.  1.
         22    1    1    2    0    0  0.96437385008E-01  0.18350326587E+00  0.34123358704E+01  0.34186268749E+01  0.00000000000E+00 0. -1.
</event>
<event>
 5    1  0.1461556E+002  0.1599610E+01  0.7818608E-02  0.3353787E+00
         11   -1    0    0    0    0  0.00000000000E+00  0.00000000000E+00  0.39999999674E+01  0.40000000000E+01  0.51100000000E-03 0. -1.
    9000002   -1    0    0    0    0 -0.00000000000E+00 -0.00000000000E+00  0.00000000000E+00  0.93800000000E+00  0.93800000000E+00 0. -1.
         11    1    1    2    0    0 -0.51689487101E-04  0.92237467097E-02  0.18483696969E+00  0.18506768129E+00  0.51100000000E-03 0. -1.
    9000002    1    1    2    0    0 -0.77155639256E-01 -0.23859289925E+00  0.41823801982E-01  0.97183990176E+00  0.93800000000E+00 0. -1.
         22    1    1    2    0    0  0.77207328743E-01  0.22936915254E+00  0.37733391957E+01  0.37810924169E+01  0.00000000000E+00 0. -1.
</event>
<event>
 5    1  0.1461556E+002  0.1568576E+01  0.7818608E-02  0.3388192E+00
         11   -1    0    0    0    0  0.00000000000E+00  0.00000000000E+00  0.39999999674E+01  0.40000000000E+01  0.51100000000E-03 0. -1.
    9000002   -1    0    0    0    0 -0.00000000000E+00 -0.00000000000E+00  0.00000000000E+00  0.93800000000E+00  0.93800000000E+00 0. -1.
         11    1    1    2    0    0 -0.54302973366E-01 -0.15697709402E+00  0.15191857833E+01  0.15282396167E+01  0.51100000000E-03 0. -1.
    9000002    1    1    2    0    0  0.10239088308E-01 -0.11247774122E+00  0.31526013356E-01  0.94530099477E+00  0.93800000000E+00 0. -1.
         22    1    1    2    0    0  0.44063885058E-01  0.26945483525E+00  0.24492881708E+01  0.24644593885E+01  0.00000000000E+00 0.  1.
</event>
<event>
 5    1  0.1461556E+002  0.1599635E+01  0.7818608E-02  0.3353760E+00
         11   -1    0    0    0    0  0.00000000000E+00  0.00000000000E+00  0.39999999674E+01  0.40000000000E+01  0.51100000000E-03 0.  1.
    9000002   -1    0    0    0    0 -0.00000000000E+00 -0.00000000000E+00  0.00000000000E+00  0.93800000000E+00  0.93800000000E+00 0.  1.
         11    1    1    2    0    0 -0.62165272537E-01  0.38012699624E-01  0.98146207140E+00  0.98416337321E+00  0.51100000000E-03 0.  1.
    9000002    1    1    2    0    0  0.27158880079E+00 -0.13672394906E+00  0.61733900074E-01  0.98798228192E+00  0.93800000000E+00 0.  1.
         22    1    1    2    0    0 -0.20942352825E+00  0.98711249438E-01  0.29568039959E+01  0.29658543449E+01  0.00000000000E+00 0.  1.
</event>
<event>
 5    1  0.1461556E+002  0.1576538E+01  0.7818608E-02  0.3379229E+00
         11   -1    0    0    0    0  0.00000000000E+00  0.00000000000E+00  0.39999999674E+01  0.40000000000E+01  0.51100000000E-03 0. -1.
    9000002   -1    0    0    0    0 -0.00000000000E+00 -0.00000000000E+00  0.00000000000E+00  0.93800000000E+00  0.93800000000E+00 0. -1.
         11    1    1    2    0    0  0.58417544724E-01  0.10292184692E+00  0.23184485504E+01  0.23214670918E+01  0.51100000000E-03 0. -1.
    9000002    1    1    2    0    0  0.11503764499E+00  0.46151776828E-01  0.27302330900E-01  0.94654797213E+00  0.93800000000E+00 0. -1.
         22    1    1    2    0    0 -0.17345518972E+00 -0.14907362375E+00  0.16542490860E+01  0.16699849361E+01  0.00000000000E+00 0. -1.
</event>
<event>
 5    1  0.1461556E+002  0.1599671E+01  0.7818608E-02  0.3353721E+00
         11   -1    0    0    0    0  0.00000000000E+00  0.00000000000E+00  0.39999999674E+01  0.40000000000E+01  0.51100000000E-03 0. -1.
    9000002   -1    0    0    0    0 -0.00000000000E+00 -0.00000000000E+00  0.00000000000E+00  0.93800000000E+00  0.93800000000E+00 0. -1.
         11    1    1    2    0    0 -0.97154515678E-02 -0.58681384312E-01  0.88403016505E+00  0.88602905635E+00  0.51100000000E-03 0. -1.
    9000002    1    1    2    0    0  0.51813700275E-01  0.25540620232E+00  0.45158726291E-01  0.97457698428E+00  0.93800000000E+00 0. -1.
         22    1    1    2    0    0 -0.42098248707E-01 -0.19672481801E+00  0.30708110760E+01  0.30773939594E+01  0.00000000000E+00 0. -1.
</event>
<event>
 5    1  0.1461556E+002  0.1540624E+01  0.7818608E-02  0.3420441E+00
         11   -1    0    0    0    0  0.00000000000E+00  0.00000000000E+00  0.39999999674E+01  0.40000000000E+01  0.51100000000E-03 0. -1.
    9000002   -1    0    0    0    0 -0.00000000000E+00 -0.00000000000E+00  0.00000000000E+00  0.93800000000E+00  0.93800000000E+00 0.  1.
         11    1    1    2    0    0 -0.18463542293E+00 -0.22630910576E+00  0.12964545432E+01  0.13289472128E+01  0.51100000000E-03 0. -1.
    9000002    1    1    2    0    0  0.11432817050E+00 -0.19258940416E-01  0.53420825209E-01  0.94664651371E+00  0.93800000000E+00 0.  1.
         22    1    1    2    0    0  0.70307252429E-01  0.24556804618E+00  0.26501245989E+01  0.26624062735E+01  0.00000000000E+00 0. -1.
</event>
<event>
 5    1  0.1501525E+002  0.1599620E+01  0.7818608E-02  0.3353776E+00
         11   -1    0    0    0    0  0.00000000000E+00  0.00000000000E+00  0.39999999674E+01  0.40000000000E+01  0.51100000000E-03 0.  1.
    9000002   -1    0    0    0    0 -0.00000000000E+00 -0.00000000000E+00  0.00000000000E+00  0.93800000000E+00  0.93800000000E+00 0.  1.
         11    1    1    2    0    0  0.48931225312E+00  0.79746884736E-01  0.25469759541E+01  0.25947779902E+01  0.51100000000E-03 0.  1.
    9000002    1    1    2    0    0 -0.70931215505E+00 -0.11276653351E+00  0.37057300751E+00  0.12381471553E+01  0.93800000000E+00 0.  1.
         22    1    1    2    0    0  0.21999990193E+00  0.33019648778E-01  0.10824510058E+01  0.11050748545E+01  0.00000000000E+00 0. -1.
</event>
<event>
 5    1  0.1461556E+002  0.1599649E+01  0.7818608E-02  0.3353744E+00
         11   -1    0    0    0    0  0.00000000000E+00  0.00000000000E+00  0.39999999674E+01  0.40000000000E+01  0.51100000000E-03 0.  1.
    9000002   -1    0    0    0    0 -0.00000000000E+00 -0.00000000000E+00  0.00000000000E+00  0.93800000000E+00  0.93800000000E+00 0. -1.
         11    1    1    2    0    0 -0.58887634049E-01  0.15770632879E+00  0.15860903428E+01  0.15949990208E+01  0.51100000000E-03 0.  1.
    9000002    1    1    2    0    0  0.15910104753E+00 -0.38253175326E+00  0.11601777632E+00  0.10319630856E+01  0.93800000000E+00 0. -1.
         22    1    1    2    0    0 -0.10021341348E+00  0.22482542447E+00  0.22978918482E+01  0.23110378936E+01  0.00000000000E+00 0.  1.
</event>
<event>
 5    1  0.1461556E+002  0.1599636E+01  0.7818608E-02  0.3353759E+00
         11   -1    0    0    0    0  0.00000000000E+00  0.00000000000E+00  0.39999999674E+01  0.40000000000E+01  0.51100000000E-03 0.  1.
    9000002   -1    0    0    0    0 -0.00000000000E+00 -0.00000000000E+00  0.00000000000E+00  0.93800000000E+00  0.93800000000E+00 0.  1.
         11    1    1    2    0    0  0.16612398739E+00 -0.77316492563E-02  0.15574990650E+01  0.15663526283E+01  0.51100000000E-03 0.  1.
    9000002    1    1    2    0    0 -0.43204415276E+00  0.17821792305E-01  0.12670755456E+00  0.10406145159E+01  0.93800000000E+00 0.  1.
         22    1    1    2    0    0  0.26592016538E+00 -0.10090143049E-01  0.23157933478E+01  0.23310328559E+01  0.00000000000E+00 0.  1.
</event>
<event>
 5    1  0.1577435E+002  0.1598354E+01  0.7818608E-02  0.3355152E+00
         11   -1    0    0    0    0  0.00000000000E+00  0.00000000000E+00  0.39999999674E+01  0.40000000000E+01  0.51100000000E-03 0.  1.
    9000002   -1    0    0    0    0 -0.00000000000E+00 -0.00000000000E+00  0.00000000000E+00  0.93800000000E+00  0.93800000000E+00 0.  1.
         11    1    1    2    0    0 -0.42830306477E+00 -0.66256979821E-01  0.27385822507E+01  0.27726641534E+01  0.51100000000E-03 0.  1.
    9000002    1    1    2    0    0  0.63334293623E+00  0.88239298187E-01  0.28920231759E+00  0.11714911135E+01  0.93800000000E+00 0.  1.
         22    1    1    2    0    0 -0.20503987146E+00 -0.21982318366E-01  0.97221539909E+00  0.99384473306E+00  0.00000000000E+00 0.  1.
</event>
<event>
 5    1  0.1461556E+002  0.1599666E+01  0.7818608E-02  0.3353726E+00
         11   -1    0    0    0    0  0.00000000000E+00  0.00000000000E+00  0.39999999674E+01  0.40000000000E+01  0.51100000000E-03 0.  1.
    9000002   -1    0    0    0    0 -0.00000000000E+00 -0.00000000000E+00  0.00000000000E+00  0.93800000000E+00  0.93800000000E+00 0.  1.
         11    1    1    2    0    0  0.12388818506E+00  0.68897841172E-01  0.14307321397E+01  0.14377377756E+01  0.51100000000E-03 0.  1.
    9000002    1    1    2    0    0 -0.34561768027E+00 -0.18074414534E+00  0.10248805063E+00  0.10210131378E+01  0.93800000000E+00 0.  1.
         22    1    1    2    0    0  0.22172949521E+00  0.11184630417E+00  0.24667797771E+01  0.24792490866E+01  0.00000000000E+00 0.  1.
</event>
<event>
 5    1  0.1461556E+002  0.1599677E+01  0.7818608E-02  0.3353714E+00
         11   -1    0    0    0    0  0.00000000000E+00  0.00000000000E+00  0.39999999674E+01  0.40000000000E+01  0.51100000000E-03 0.  1.
    9000002   -1    0    0    0    0 -0.00000000000E+00 -0.00000000000E+00  0.00000000000E+00  0.93800000000E+00  0.93800000000E+00 0.  1.
         11    1    1    2    0    0  0.27868947076E-01  0.20296149399E-01  0.52847051140E+00  0.52959414124E+00  0.51100000000E-03 0. -1.
    9000002    1    1    2    0    0 -0.20866878307E+00 -0.15149807550E+00  0.44198749438E-01  0.97380278155E+00  0.93800000000E+00 0.  1.
         22    1    1    2    0    0  0.18079983600E+00  0.13120192610E+00  0.34273307065E+01  0.34346030772E+01  0.00000000000E+00 0.  1.
</event>
<event>
 5    1  0.1461556E+002  0.1599517E+01  0.7818608E-02  0.3353888E+00
         11   -1    0    0    0    0  0.00000000000E+00  0.00000000000E+00  0.39999999674E+01  0.40000000000E+01  0.51100000000E-03 0. -1.
    9000002   -1    0    0    0    0 -0.00000000000E+00 -0.00000000000E+00  0.00000000000E+00  0.93800000000E+00  0.93800000000E+00 0. -1.
         11    1    1    2    0    0 -0.35216154025E-02  0.42217278855E-01  0.68360296768E+00  0.68491457785E+00  0.51100000000E-03 0. -1.
    9000002    1    1    2    0    0  0.86389644916E-01 -0.25262167170E+00  0.47538346139E-01  0.97641424309E+00  0.93800000000E+00 0. -1.
         22    1    1    2    0    0 -0.82868029513E-01  0.21040439284E+00  0.32688586535E+01  0.32766711791E+01  0.00000000000E+00 0. -1.
</event>
<event>
 5    1  0.1461556E+002  0.1595217E+01  0.7818608E-02  0.3358571E+00
         11   -1    0    0    0    0  0.00000000000E+00  0.00000000000E+00  0.39999999674E+01  0.40000000000E+01  0.51100000000E-03 0.  1.
    9000002   -1    0    0    0    0 -0.00000000000E+00 -0.00000000000E+00  0.00000000000E+00  0.93800000000E+00  0.93800000000E+00 0. -1.
         11    1    1    2    0    0  0.65228627482E-02 -0.18201071764E+00  0.21051795158E+01  0.21130431856E+01  0.51100000000E-03 0.  1.
    9000002    1    1    2    0    0  0.13091729294E+00  0.37549185215E+00  0.11034647785E+00  0.10247701273E+01  0.93800000000E+00 0. -1.
         22    1    1    2    0    0 -0.13744015568E+00 -0.19348113452E+00  0.17844739737E+01  0.18001866871E+01  0.00000000000E+00 0. -1.
</event>
<event>
 5    1  0.1461556E+002  0.1592514E+01  0.7818608E-02  0.3361529E+00
         11   -1    0    0    0    0  0.00000000000E+00  0.00000000000E+00  0.39999999674E+01  0.40000000000E+01  0.51100000000E-03 0. -1.
    9000002   -1    0    0    0    0 -0.00000000000E+00 -0.00000000000E+00  0.00000000000E+00  0.93800000000E+00  0.93800000000E+00 0.  1.
         11    1    1    2    0    0 -0.11685095141E-01  0.19338276033E+00  0.90837803960E+00  0.92880803043E+00  0.51100000000E-03 0. -1.
    9000002    1    1    2    0    0  0.24624271842E+00 -0.49869369962E+00  0.22074174889E+00  0.11126103550E+01  0.93800000000E+00 0.  1.
         22    1    1    2    0    0 -0.23455762328E+00  0.30531093929E+00  0.28708801789E+01  0.28965816145E+01  0.00000000000E+00 0. -1.
</event>
<event>
 5    1  0.1461556E+002  0.1599675E+01  0.7818608E-02  0.3353716E+00
         11   -1    0    0    0    0  0.00000000000E+00  0.00000000000E+00  0.39999999674E+01  0.40000000000E+01  0.51100000000E-03 0. -1.
    9000002   -1    0    0    0    0 -0.00000000000E+00 -0.00000000000E+00  0.00000000000E+00  0.93800000000E+00  0.93800000000E+00 0.  1.
         11    1    1    2    0    0 -0.47339789804E-01  0.33056181884E-01  0.79910424400E+00  0.80118763143E+00  0.51100000000E-03 0. -1.
    9000002    1    1    2    0    0  0.23018093433E+00 -0.15883104427E+00  0.52081345118E-01  0.98018724215E+00  0.93800000000E+00 0.  1.
         22    1    1    2    0    0 -0.18284114453E+00  0.12577486239E+00  0.31488143782E+01  0.31566251264E+01  0.00000000000E+00 0. -1.
</event>
<event>
 5    1  0.1461556E+002  0.1572001E+01  0.7818608E-02  0.3384324E+00
         11   -1    0    0    0    0  0.00000000000E+00  0.00000000000E+00  0.39999999674E+01  0.40000000000E+01  0.51100000000E-03 0.  1.
    9000002   -1    0    0    0    0 -0.00000000000E+00 -0.00000000000E+00  0.00000000000E+00  0.93800000000E+00  0.93800000000E+00 0. -1.
         11    1    1    2    0    0 -0.43078197711E-01 -0.76528856686E-01  0.15501084860E+00  0.17816010027E+00  0.51100000000E-03 0.  1.
    9000002    1    1    2    0    0  0.28471506277E+00  0.51199054978E-01  0.77635479025E-01  0.98465998081E+00  0.93800000000E+00 0. -1.
         22    1    1    2    0    0 -0.24163686506E+00  0.25329801707E-01  0.37673536397E+01  0.37751799189E+01  0.00000000000E+00 0.  1.
</event>
<event>
 5    1  0.1461556E+002  0.1599594E+01  0.7818608E-02  0.3353804E+00
         11   -1    0    0    0    0  0.00000000000E+00  0.00000000000E+00  0.39999999674E+01  0.40000000000E+01  0.51100000000E-03 0. -1.
    9000002   -1    0    0    0    0 -0.00000000000E+00 -0.00000000000E+00  0.00000000000E+00  0.93800000000E+00  0.93800000000E+00 0.  1.
         11    1    1    2    0    0 -0.39066217624E-01  0.49609072106E-01  0.90070767491E+00  0.90291849364E+00  0.51100000000E-03 0. -1.
    9000002    1    1    2    0    0  0.13429374620E+00 -0.23344034687E+00  0.48318618204E-01  0.97709154877E+00  0.93800000000E+00 0.  1.
         22    1    1    2    0    0 -0.95227528573E-01  0.18383127476E+00  0.30509736742E+01  0.30579899576E+01  0.00000000000E+00 0. -1.
</event>
<event>
 5    1  0.1461556E+002  0.1599672E+01  0.7818608E-02  0.3353720E+00
         11   -1    0    0    0    0  0.00000000000E+00  0.00000000000E+00  0.39999999674E+01  0.40000000000E+01  0.51100000000E-03 0.  1.
    9000002   -1    0    0    0    0 -0.00000000000E+00 -0.00000000000E+00  0.00000000000E+00  0.93800000000E+00  0.93800000000E+00 0.  1.
         11    1    1    2    0    0 -0.37306700205E-01  0.22239954535E-01  0.68455755611E+00  0.68593419087E+00  0.51100000000E-03 0.  1.
    9000002    1    1    2    0    0  0.22575653709E+00 -0.12238089886E+00  0.43832478056E-01  0.97350315078E+00  0.93800000000E+00 0.  1.
         22    1    1    2    0    0 -0.18844983688E+00  0.10014094433E+00  0.32716099332E+01  0.32785626583E+01  0.00000000000E+00 0.  1.
</event>
<event>
 5    1  0.1461556E+002  0.1599677E+01  0.7818608E-02  0.3353714E+00
         11   -1    0    0    0    0  0.00000000000E+00  0.00000000000E+00  0.39999999674E+01  0.40000000000E+01  0.51100000000E-03 0.  1.
    9000002   -1    0    0    0    0 -0.00000000000E+00 -0.00000000000E+00  0.00000000000E+00  0.93800000000E+00  0.93800000000E+00 0. -1.
         11    1    1    2    0    0  0.58383351339E-01 -0.59282716918E-01  0.11366737604E+01  0.11397151201E+01  0.51100000000E-03 0.  1.
    9000002    1    1    2    0    0 -0.20363491697E+00  0.20437122328E+00  0.55468947255E-01  0.98293213419E+00  0.93800000000E+00 0. -1.
         22    1    1    2    0    0  0.14525156563E+00 -0.14508850636E+00  0.28078572597E+01  0.28153527457E+01  0.00000000000E+00 0.  1.
</event>
<event>
 5    1  0.1461556E+002  0.1599165E+01  0.7818608E-02  0.3354270E+00
         11   -1    0    0    0    0  0.00000000000E+00  0.00000000000E+00  0.39999999674E+01  0.40000000000E+01  0.51100000000E-03 0.  1.
    9000002   -1    0    0    0    0 -0.00000000000E+00 -0.00000000000E+00  0.00000000000E+00  0.93800000000E+00  0.93800000000E+00 0. -1.
         11    1    1    2    0    0  0.11268726681E-01 -0.62853046009E-02  0.15418681199E+00  0.15472660846E+00  0.51100000000E-03 0.  1.
    9000002    1    1    2    0    0 -0.19725720646E+00 -0.92391457300E-01  0.31831968617E-01  0.96348526772E+00  0.93800000000E+00 0. -1.
         22    1    1    2    0    0  0.18598847977E+00  0.98676761901E-01  0.38139811868E+01  0.38197881238E+01  0.00000000000E+00 0.  1.
</event>
<event>
 5    1  0.1461556E+002  0.1599677E+01  0.7818608E-02  0.3353714E+00
         11   -1    0    0    0    0  0.00000000000E+00  0.00000000000E+00  0.39999999674E+01  0.40000000000E+01  0.51100000000E-03 0.  1.
    9000002   -1    0    0    0    0 -0.00000000000E+00 -0.00000000000E+00  0.00000000000E+00  0.93800000000E+00  0.93800000000E+00 0. -1.
         11    1    1    2    0    0 -0.70390983001E-02  0.12643243446E+00  0.14941586839E+01  0.14995149694E+01  0.51100000000E-03 0.  1.
    9000002    1    1    2    0    0  0.18994462595E-01 -0.33083723190E+00  0.73485071736E-01  0.99752599935E+00  0.93800000000E+00 0. -1.
         22    1    1    2    0    0 -0.11955364295E-01  0.20440479744E+00  0.24323562117E+01  0.24409590313E+01  0.00000000000E+00 0.  1.
</event>
<event>
 5    1  0.1461556E+002  0.1590856E+01  0.7818608E-02  0.3363348E+00
         11   -1    0    0    0    0  0.00000000000E+00  0.00000000000E+00  0.39999999674E+01  0.40000000000E+01  0.51100000000E-03 0.  1.
    9000002   -1    0    0    0    0 -0.00000000000E+00 -0.00000000000E+00  0.00000000000E+00  0.93800000000E+00  0.93800000000E+00 0.  1.
         11    1    1    2    0    0  0.56294088021E-01 -0.18976099035E-01  0.19018640520E+00  0.19924920708E+00  0.51100000000E-03 0.  1.
    9000002    1    1    2    0    0 -0.17060715008E+00  0.18779482366E+00  0.49557444047E-01  0.97297154928E+00  0.93800000000E+00 0.  1.
         22    1    1    2    0    0  0.11431306206E+00 -0.16881872463E+00  0.37602561181E+01  0.37657792436E+01  0.00000000000E+00 0.  1.
</event>
<event>
 5    1  0.1461556E+002  0.1560607E+01  0.7818608E-02  0.3397261E+00
         11   -1    0    0    0    0  0.00000000000E+00  0.00000000000E+00  0.39999999674E+01  0.40000000000E+01  0.51100000000E-03 0. -1.
    9000002   -1    0    0    0    0 -0.00000000000E+00 -0.00000000000E+00  0.00000000000E+00  0.93800000000E+00  0.93800000000E+00 0. -1.
         11    1    1    2    0    0 -0.13300260127E+00  0.10298819119E+00  0.81877499227E+00  0.83587619212E+00  0.51100000000E-03 0. -1.
    9000002    1    1    2    0    0 -0.38986469919E-01  0.13871228037E+00  0.43069833680E-01  0.94997897458E+00  0.93800000000E+00 0. -1.
         22    1    1    2    0    0  0.17198907119E+00 -0.24170047156E+00  0.31381551414E+01  0.31521448333E+01  0.00000000000E+00 0. -1.
</event>
<event>
 5    1  0.1461556E+002  0.1599671E+01  0.7818608E-02  0.3353721E+00
         11   -1    0    0    0    0  0.00000000000E+00  0.00000000000E+00  0.39999999674E+01  0.40000000000E+01  0.51100000000E-03 0. -1.
    9000002   -1    0    0    0    0 -0.00000000000E+00 -0.00000000000E+00  0.00000000000E+00  0.93800000000E+00  0.93800000000E+00 0. -1.
         11    1    1    2    0    0  0.12846322876E+00 -0.76544131068E-01  0.13196468597E+01  0.13280925798E+01  0.51100000000E-03 0. -1.
    9000002    1    1    2    0    0 -0.37315647625E+00  0.21709800191E+00  0.12625739174E+00  0.10402702664E+01  0.93800000000E+00 0. -1.
         22    1    1    2    0    0  0.24469324750E+00 -0.14055387084E+00  0.25540957159E+01  0.25696371537E+01  0.00000000000E+00 0. -1.
</event>
<event>
 5    1  0.1461556E+002  0.1596063E+01  0.7818608E-02  0.3357647E+00
         11   -1    0    0    0    0  0.00000000000E+00  0.00000000000E+00  0.39999999674E+01  0.40000000000E+01  0.51100000000E-03 0.  1.
    9000002   -1    0    0    0    0 -0.00000000000E+00 -0.00000000000E+00  0.00000000000E+00  0.93800000000E+00  0.93800000000E+00 0.  1.
         11    1    1    2    0    0 -0.95603350936E-01  0.12085632157E+00  0.99207955865E+00  0.10039762761E+01  0.51100000000E-03 0.  1.
    9000002    1    1    2    0    0  0.23411066891E+00 -0.27157892849E+00  0.89215987776E-01  0.10081499949E+01  0.93800000000E+00 0.  1.
         22    1    1    2    0    0 -0.13850731797E+00  0.15072260692E+00  0.29187044209E+01  0.29258737290E+01  0.00000000000E+00 0.  1.
</event>
<event>
 5    1  0.1461556E+002  0.1576583E+01  0.7818608E-02  0.3379178E+00
         11   -1    0    0    0    0  0.00000000000E+00  0.00000000000E+00  0.39999999674E+01  0.40000000000E+01  0.51100000000E-03 0.  1.
    9000002   -1    0    0    0    0 -0.00000000000E+00 -0.00000000000E+00  0.00000000000E+00  0.93800000000E+00  0.93800000000E+00 0.  1.
         11    1    1    2    0    0  0.12099996511E+00 -0.36264958684E+00  0.15712341777E+01  0.16170753899E+01  0.51100000000E-03 0.  1.
    9000002    1    1    2    0    0 -0.31537223988E+00  0.43592161064E+00  0.22137758708E+00  0.11037840986E+01  0.93800000000E+00 0.  1.
         22    1    1    2    0    0  0.19437227477E+00 -0.73272023792E-01  0.22073882026E+01  0.22171405115E+01  0.00000000000E+00 0.  1.
</event>
<event>
 5    1  0.1461556E+002  0.1599645E+01  0.7818608E-02  0.3353749E+00
         11   -1    0    0    0    0  0.00000000000E+00  0.00000000000E+00  0.39999999674E+01  0.40000000000E+01  0.51100000000E-03 0.  1.
    9000002   -1    0    0    0    0 -0.00000000000E+00 -0.00000000000E+00  0.00000000000E+00  0.93800000000E+00  0.93800000000E+00 0.  1.
         11    1    1    2    0    0 -0.19607643178E-01  0.13628989608E-01  0.37955510414E+00  0.38030586010E+00  0.51100000000E-03 0.  1.
    9000002    1    1    2    0    0  0.23287346748E+00 -0.17174974432E+00  0.55827008063E-01  0.98320327571E+00  0.93800000000E+00 0.  1.
         22    1    1    2    0    0 -0.21326582430E+00  0.15812075471E+00  0.35646178552E+01  0.35744908642E+01  0.00000000000E+00 0.  1.
</event>
<event>
 5    1  0.1461556E+002  0.1599675E+01  0.7818608E-02  0.3353716E+00
         11   -1    0    0    0    0  0.00000000000E+00  0.00000000000E+00  0.39999999674E+01  0.40000000000E+01  0.51100000000E-03 0. -1.
    9000002   -1    0    0    0    0 -0.00000000000E+00 -0.00000000000E+00  0.00000000000E+00  0.93800000000E+00  0.93800000000E+00 0.  1.
         11    1    1    2    0    0  0.20720003456E+00  0.65143759880E-01  0.19894027906E+01  0.20012244472E+01  0.51100000000E-03 0. -1.
    9000002    1    1    2    0    0 -0.40210185572E+00 -0.12434800276E+00  0.11982241576E+00  0.10350602589E+01  0.93800000000E+00 0.  1.
         22    1    1    2    0    0  0.19490182116E+00  0.59204242883E-01  0.18907747610E+01  0.19017152939E+01  0.00000000000E+00 0. -1.
</event>
<event>
 5    1  0.1461556E+002  0.1506466E+01  0.7818608E-02  0.3461589E+00
         11   -1    0    0    0    0  0.00000000000E+00  0.00000000000E+00  0.39999999674E+01  0.40000000000E+01  0.51100000000E-03 0. -1.
    9000002   -1    0    0    0    0 -0.00000000000E+00 -0.00000000000E+00  0.00000000000E+00  0.93800000000E+00  0.93800000000E+00 0.  1.
         11    1    1    2    0    0  0.10912816599E+00  0.40491431489E+00  0.98794006593E+00  0.10732615683E+01  0.51100000000E-03 0. -1.
    9000002    1    1    2    0    0 -0.54076056098E+00 -0.28091359083E+00  0.36020867530E+00  0.11751292353E+01  0.93800000000E+00 0.  1.
         22    1    1    2    0    0  0.43163239498E+00 -0.12400072406E+00  0.26518512261E+01  0.26896091964E+01  0.00000000000E+00 0. -1.
</event>
<event>
 5    1  0.1461556E+002  0.1596094E+01  0.7818608E-02  0.3357613E+00
         11   -1    0    0    0    0  0.00000000000E+00  0.00000000000E+00  0.39999999674E+01  0.40000000000E+01  0.51100000000E-03 0. -1.
    9000002   -1    0    0    0    0 -0.00000000000E+00 -0.00000000000E+00  0.00000000000E+00  0.93800000000E+00  0.93800000000E+00 0. -1.
         11    1    1    2    0    0  0.43614514351E-01  0.50645636266E-01  0.11876109662E+01  0.11894903424E+01  0.51100000000E-03 0. -1.
    9000002    1    1    2    0    0  0.67225834325E-01 -0.22565934852E+00  0.39515542071E-01  0.96790853516E+00  0.93800000000E+00 0. -1.
         22    1    1    2    0    0 -0.11084034868E+00  0.17501371226E+00  0.27728734590E+01  0.27806011225E+01  0.00000000000E+00 0. -1.
</event>
<event>
 5    1  0.1461556E+002  0.1599473E+01  0.7818608E-02  0.3353936E+00
         11   -1    0    0    0    0  0.00000000000E+00  0.00000000000E+00  0.39999999674E+01  0.40000000000E+01  0.51100000000E-03 0. -1.
    9000002   -1    0    0    0    0 -0.00000000000E+00 -0.00000000000E+00  0.00000000000E+00  0.93800000000E+00  0.93800000000E+00 0. -1.
         11    1    1    2    0    0 -0.12454886454E-01 -0.80987330068E-01  0.77205773151E+00  0.77639389084E+00  0.51100000000E-03 0. -1.
    9000002    1    1    2    0    0  0.65436483540E-01  0.34139697178E+00  0.81163305713E-01  0.10036260797E+01  0.93800000000E+00 0. -1.
         22    1    1    2    0    0 -0.52981597086E-01 -0.26040964171E+00  0.31467789301E+01  0.31579800294E+01  0.00000000000E+00 0. -1.
</event>
<event>
 5    1  0.1461556E+002  0.1525216E+01  0.7818608E-02  0.3438758E+00
         11   -1    0    0    0    0  0.00000000000E+00  0.00000000000E+00  0.39999999674E+01  0.40000000000E+01  0.51100000000E-03 0. -1.
    9000002   -1    0    0    0    0 -0.00000000000E+00 -0.00000000000E+00  0.00000000000E+00  0.93800000000E+00  0.93800000000E+00 0. -1.
         11    1    1    2    0    0 -0.13784312882E+00 -0.13716351127E+00  0.93595975020E+00  0.95594742120E+00  0.51100000000E-03 0. -1.
    9000002    1    1    2    0    0 -0.35017538237E-01 -0.42588261322E+00  0.18979135940E+00  0.10480777587E+01  0.93800000000E+00 0. -1.
         22    1    1    2    0    0  0.17286066706E+00  0.56304612449E+00  0.28742488578E+01  0.29339748201E+01  0.00000000000E+00 0. -1.
</event>
<event>
 5    1  0.1461556E+002  0.1599546E+01  0.7818608E-02  0.3353857E+00
         11   -1    0    0    0    0  0.00000000000E+00  0.00000000000E+00  0.39999999674E+01  0.40000000000E+01  0.51100000000E-03 0. -1.
    9000002   -1    0    0    0    0 -0.00000000000E+00 -0.00000000000E+00  0.00000000000E+00  0.93800000000E+00  0.93800000000E+00 0. -1.
         11    1    1    2    0    0 -0.33186538307E-01 -0.74091464678E-01  0.12099231731E+01  0.12126439038E+01  0.51100000000E-03 0. -1.
    9000002    1    1    2    0    0  0.12337774677E+00  0.27967450357E+00  0.62471230524E-01  0.98852746598E+00  0.93800000000E+00 0. -1.
         22    1    1    2    0    0 -0.90191208468E-01 -0.20558303889E+00  0.27276055637E+01  0.27368286302E+01  0.00000000000E+00 0. -1.
</event>
<event>
 5    1  0.1461556E+002  0.1573237E+01  0.7818608E-02  0.3382933E+00
         11   -1    0    0    0    0  0.00000000000E+00  0.00000000000E+00  0.39999999674E+01  0.40000000000E+01  0.51100000000E-03 0.  1.
    9000002   -1    0    0    0    0 -0.00000000000E+00 -0.00000000000E+00  0.00000000000E+00  0.93800000000E+00  0.93800000000E+00 0.  1.
         11    1    1    2    0    0 -0.11860202058E+00 -0.33618757167E-01  0.43387793987E+00  0.45105098154E+00  0.51100000000E-03 0.  1.
    9000002    1    1    2    0    0  0.72974175209E-01 -0.18770121067E+00  0.46943848088E-01  0.96052313851E+00  0.93800000000E+00 0.  1.
         22    1    1    2    0    0  0.45627845373E-01  0.22131996784E+00  0.35191781794E+01  0.35264258800E+01  0.00000000000E+00 0.  1.
</event>
<event>
 5    1  0.1461556E+002  0.1566204E+01  0.7818608E-02  0.3390882E+00
         11   -1    0    0    0    0  0.00000000000E+00  0.00000000000E+00  0.39999999674E+01  0.40000000000E+01  0.51100000000E-03 0. -1.
    9000002   -1    0    0    0    0 -0.00000000000E+00 -0.00000000000E+00  0.00000000000E+00  0.93800000000E+00  0.93800000000E+00 0.  1.
         11    1    1    2    0    0  0.44731943702E-01 -0.11956253397E+00  0.44790836254E+00  0.46574489656E+00  0.51100000000E-03 0. -1.
    9000002    1    1    2    0    0 -0.71707351573E-01 -0.13977872763E+00  0.41474617542E-01  0.95196858187E+00  0.93800000000E+00 0.  1.
         22    1    1    2    0    0  0.26975407872E-01  0.25934126160E+00  0.35106169873E+01  0.35202865216E+01  0.00000000000E+00 0. -1.
</event>
<event>
 5    1  0.1461556E+002  0.1599652E+01  0.7818608E-02  0.3353742E+00
         11   -1    0    0    0    0  0.00000000000E+00  0.00000000000E+00  0.39999999674E+01  0.40000000000E+01  0.51100000000E-03 0. -1.
    9000002   -1    0    0    0    0 -0.00000000000E+00 -0.00000000000E+00  0.00000000000E+00  0.93800000000E+00  0.93800000000E+00 0. -1.
         11    1    1    2    0    0  0.26329648763E-01 -0.44539522200E-02  0.25045072137E+00  0.25187082612E+00  0.51100000000E-03 0. -1.
    9000002    1    1    2    0    0 -0.38933403921E+00  0.28175179544E-01  0.10267551249E+00  0.10211567439E+01  0.93800000000E+00 0. -1.
         22    1    1    2    0    0  0.36300439045E+00 -0.23721227324E-01  0.36468737335E+01  0.36649724299E+01  0.00000000000E+00 0. -1.
</event>
<event>
 5    1  0.1461556E+002  0.1589139E+01  0.7818608E-02  0.3365236E+00
         11   -1    0    0    0    0  0.00000000000E+00  0.00000000000E+00  0.39999999674E+01  0.40000000000E+01  0.51100000000E-03 0.  1.
    9000002   -1    0    0    0    0 -0.00000000000E+00 -0.00000000000E+00  0.00000000000E+00  0.93800000000E+00  0.93800000000E+00 0.  1.
         11    1    1    2    0    0 -0.32241388244E-01  0.15300196719E+00  0.65865838351E+00  0.67696398454E+00  0.51100000000E-03 0.  1.
    9000002    1    1    2    0    0  0.17457753961E+00 -0.35048117719E+00  0.11207136822E+00  0.10226037182E+01  0.93800000000E+00 0.  1.
         22    1    1    2    0    0 -0.14233615137E+00  0.19747921000E+00  0.32292702156E+01  0.32384322973E+01  0.00000000000E+00 0.  1.
</event>
<event>
 5    1  0.1461556E+002  0.1599676E+01  0.7818608E-02  0.3353715E+00
         11   -1    0    0    0    0  0.00000000000E+00  0.00000000000E+00  0.39999999674E+01  0.40000000000E+01  0.51100000000E-03 0.  1.
    9000002   -1    0    0    0    0 -0.00000000000E+00 -0.00000000000E+00  0.00000000000E+00  0.93800000000E+00  0.93800000000E+00 0.  1.
         11    1    1    2    0    0 -0.13962059526E-01 -0.78938712604E-01  0.71857699727E+00  0.72303486885E+00  0.51100000000E-03 0.  1.
    9000002    1    1    2    0    0  0.73643473614E-01  0.42861048177E+00  0.12817468860E+00  0.10418267884E+01  0.93800000000E+00 0.  1.
         22    1    1    2    0    0 -0.59681414088E-01 -0.34967176916E+00  0.31532482815E+01  0.31731383427E+01  0.00000000000E+00 0.  1.
</event>
<event>
 5    1  0.1461556E+002  0.1599676E+01  0.7818608E-02  0.3353715E+00
         11   -1    0    0    0    0  0.00000000000E+00  0.00000000000E+00  0.39999999674E+01  0.40000000000E+01  0.51100000000E-03 0.  1.
    9000002   -1    0    0    0    0 -0.00000000000E+00 -0.00000000000E+00  0.00000000000E+00  0.93800000000E+00  0.93800000000E+00 0.  1.
         11    1    1    2    0    0 -0.15752536813E+00 -0.33149311656E-01  0.17077982716E+01  0.17153682742E+01  0.51100000000E-03 0.  1.
    9000002    1    1    2    0    0  0.35792774594E+00  0.75728970938E-01  0.89907725240E-01  0.10108286439E+01  0.93800000000E+00 0.  1.
         22    1    1    2    0    0 -0.20040237781E+00 -0.42579659282E-01  0.22022939705E+01  0.22118030819E+01  0.00000000000E+00 0. -1.
</event>
<event>
 5    1  0.1461556E+002  0.1599668E+01  0.7818608E-02  0.3353724E+00
         11   -1    0    0    0    0  0.00000000000E+00  0.00000000000E+00  0.39999999674E+01  0.40000000000E+01  0.51100000000E-03 0.  1.
    9000002   -1    0    0    0    0 -0.00000000000E+00 -0.00000000000E+00  0.00000000000E+00  0.93800000000E+00  0.93800000000E+00 0.  1.
         11    1    1    2    0    0  0.25818461185E-01  0.35086457073E-02  0.41817779690E+00  0.41898906247E+00  0.51100000000E-03 0.  1.
    9000002    1    1    2    0    0 -0.25717871144E+00 -0.49209943821E-01  0.45594679692E-01  0.97492839891E+00  0.93800000000E+00 0.  1.
         22    1    1    2    0    0  0.23136025025E+00  0.45701298114E-01  0.35362274908E+01  0.35440825386E+01  0.00000000000E+00 0.  1.
</event>
<event>
 5    1  0.1461556E+002  0.1502127E+01  0.7818608E-02  0.3466960E+00
         11   -1    0    0    0    0  0.00000000000E+00  0.00000000000E+00  0.39999999674E+01  0.40000000000E+01  0.51100000000E-03 0. -1.
    9000002   -1    0    0    0    0 -0.00000000000E+00 -0.00000000000E+00  0.00000000000E+00  0.93800000000E+00  0.93800000000E+00 0. -1.
         11    1    1    2    0    0 -0.22862219441E+00 -0.12236511516E+00  0.32030545841E+01  0.32135339206E+01  0.51100000000E-03 0. -1.
    9000002    1    1    2    0    0 -0.52745755987E-01  0.91824675673E-02  0.76318581044E-01  0.94262132285E+00  0.93800000000E+00 0. -1.
         22    1    1    2    0    0  0.28136795039E+00  0.11318264759E+00  0.72062680223E+00  0.78184475653E+00  0.00000000000E+00 0. -1.
</event>
<event>
 5    1  0.1461556E+002  0.1599674E+01  0.7818608E-02  0.3353717E+00
         11   -1    0    0    0    0  0.00000000000E+00  0.00000000000E+00  0.39999999674E+01  0.40000000000E+01  0.51100000000E-03 0. -1.
    9000002   -1    0    0    0    0 -0.00000000000E+00 -0.00000000000E+00  0.00000000000E+00  0.93800000000E+00  0.93800000000E+00 0.  1.
         11    1    1    2    0    0  0.58904553700E-01  0.34369217026E+00  0.22349715725E+01  0.22620106643E+01  0.51100000000E-03 0. -1.
    9000002    1    1    2    0    0 -0.99312701313E-01 -0.57525506431E+00  0.23695741174E+00  0.11299443423E+01  0.93800000000E+00 0.  1.
         22    1    1    2    0    0  0.40408147612E-01  0.23156289405E+00  0.15280709831E+01  0.15460449934E+01  0.00000000000E+00 0. -1.
</event>
<event>
 5    1  0.1461556E+002  0.1599587E+01  0.7818608E-02  0.3353811E+00
         11   -1    0    0    0    0  0.00000000000E+00  0.00000000000E+00  0.39999999674E+01  0.40000000000E+01  0.51100000000E-03 0. -1.
    9000002   -1    0    0    0    0 -0.00000000000E+00 -0.00000000000E+00  0.00000000000E+00  0.93800000000E+00  0.93800000000E+00 0.  1.
         11    1    1    2    0    0 -0.20862254619E-01  0.48632147747E-02  0.27184248726E+00  0.27268568632E+00  0.51100000000E-03 0. -1.
    9000002    1    1    2    0    0  0.22034169714E+00 -0.70321630530E-01  0.35555706300E-01  0.96674909023E+00  0.93800000000E+00 0.  1.
         22    1    1    2    0    0 -0.19947944252E+00  0.65458415755E-01  0.36926017738E+01  0.36985652234E+01  0.00000000000E+00 0.  1.
</event>
<event>
 5    1  0.1461556E+002  0.1596551E+01  0.7818608E-02  0.3357115E+00
         11   -1    0    0    0    0  0.00000000000E+00  0.00000000000E+00  0.39999999674E+01  0.40000000000E+01  0.51100000000E-03 0.  1.
    9000002   -1    0    0    0    0 -0.00000000000E+00 -0.00000000000E+00  0.00000000000E+00  0.93800000000E+00  0.93800000000E+00 0.  1.
         11    1    1    2    0    0  0.33601105492E-01 -0.19030979456E-01  0.71784640384E+00  0.71888450609E+00  0.51100000000E-03 0.  1.
    9000002    1    1    2    0    0 -0.11943664986E+00 -0.17330802644E+00  0.31701979281E-01  0.96184707768E+00  0.93800000000E+00 0.  1.
         22    1    1    2    0    0  0.85835544366E-01  0.19233900590E+00  0.32504515842E+01  0.32572684162E+01  0.00000000000E+00 0.  1.
</event>
<event>
 5    1  0.1461556E+002  0.1599677E+01  0.7818608E-02  0.3353714E+00
         11   -1    0    0    0    0  0.00000000000E+00  0.00000000000E+00  0.39999999674E+01  0.40000000000E+01  0.51100000000E-03 0.  1.
    9000002   -1    0    0    0    0 -0.00000000000E+00 -0.00000000000E+00  0.00000000000E+00  0.93800000000E+00  0.93800000000E+00 0. -1.
         11    1    1    2    0    0 -0.21977223024E-01  0.95519165897E-02  0.39526679612E+00  0.39599285180E+00  0.51100000000E-03 0. -1.
    9000002    1    1    2    0    0  0.22139883742E+00 -0.94778225244E-01  0.38502832145E-01  0.96918874595E+00  0.93800000000E+00 0. -1.
         22    1    1    2    0    0 -0.19942161439E+00  0.85226308654E-01  0.35662303391E+01  0.35728184022E+01  0.00000000000E+00 0.  1.
</event>
<event>
 5    1  0.1461556E+002  0.1599664E+01  0.7818608E-02  0.3353729E+00
         11   -1    0    0    0    0  0.00000000000E+00  0.00000000000E+00  0.39999999674E+01  0.40000000000E+01  0.51100000000E-03 0.  1.
    9000002   -1    0    0    0    0 -0.00000000000E+00 -0.00000000000E+00  0.00000000000E+00  0.93800000000E+00  0.93800000000E+00 0.  1.
         11    1    1    2    0    0  0.91285290355E-02 -0.16582483434E+00  0.17621155031E+01  0.17699244371E+01  0.51100000000E-03 0.  1.
    9000002    1    1    2    0    0 -0.26407397682E-01  0.37500330097E+00  0.95053446734E-01  0.10149896473E+01  0.93800000000E+00 0.  1.
         22    1    1    2    0    0  0.17278868647E-01 -0.20917846662E+00  0.21428310175E+01  0.21530859156E+01  0.00000000000E+00 0.  1.
</event>
<event>
 5    1  0.1461556E+002  0.1586579E+01  0.7818608E-02  0.3368061E+00
         11   -1    0    0    0    0  0.00000000000E+00  0.00000000000E+00  0.39999999674E+01  0.40000000000E+01  0.51100000000E-03 0. -1.
    9000002   -1    0    0    0    0 -0.00000000000E+00 -0.00000000000E+00  0.00000000000E+00  0.93800000000E+00  0.93800000000E+00 0.  1.
         11    1    1    2    0    0 -0.96415775023E-01  0.26068397979E-01  0.26225451312E+00  0.28063010141E+00  0.51100000000E-03 0. -1.
    9000002    1    1    2    0    0  0.36713315293E+00 -0.32634266422E+00  0.17673533726E+00  0.10734829602E+01  0.93800000000E+00 0.  1.
         22    1    1    2    0    0 -0.27071737791E+00  0.30027426624E+00  0.35610101170E+01  0.35838869384E+01  0.00000000000E+00 0. -1.
</event>
<event>
 5    1  0.1461556E+002  0.1598594E+01  0.7818608E-02  0.3354891E+00
         11   -1    0    0    0    0  0.00000000000E+00  0.00000000000E+00  0.39999999674E+01  0.40000000000E+01  0.51100000000E-03 0. -1.
    9000002   -1    0    0    0    0 -0.00000000000E+00 -0.00000000000E+00  0.00000000000E+00  0.93800000000E+00  0.93800000000E+00 0.  1.
         11    1    1    2    0    0 -0.58714639749E-01 -0.18818374226E+00  0.99482818389E+00  0.10141715369E+01  0.51100000000E-03 0. -1.
    9000002    1    1    2    0    0  0.26009075899E+00  0.57731034156E+00  0.28292061551E+00  0.11665429731E+01  0.93800000000E+00 0.  1.
         22    1    1    2    0    0 -0.20137611924E+00 -0.38912659930E+00  0.27222511680E+01  0.27572854900E+01  0.00000000000E+00 0. -1.
</event>
<event>
 5    1  0.1461556E+002  0.1599656E+01  0.7818608E-02  0.3353736E+00
         11   -1    0    0    0    0  0.00000000000E+00  0.00000000000E+00  0.39999999674E+01  0.40000000000E+01  0.51100000000E-03 0. -1.
    9000002   -1    0    0    0    0 -0.00000000000E+00 -0.00000000000E+00  0.00000000000E+00  0.93800000000E+00  0.93800000000E+00 0. -1.
         11    1    1    2    0    0  0.14467862425E-01  0.49659850674E-01  0.73230790915E+00  0.73413251851E+00  0.51100000000E-03 0. -1.
    9000002    1    1    2    0    0 -0.65482541331E-01 -0.28646637007E+00  0.57589199312E-01  0.98463773048E+00  0.93800000000E+00 0. -1.
         22    1    1    2    0    0  0.51014678906E-01  0.23680651940E+00  0.32101028589E+01  0.32192297510E+01  0.00000000000E+00 0. -1.
</event>
<event>
 5    1  0.1461556E+002  0.1599674E+01  0.7818608E-02  0.3353717E+00
         11   -1    0    0    0    0  0.00000000000E+00  0.00000000000E+00  0.39999999674E+01  0.40000000000E+01  0.51100000000E-03 0.  1.
    9000002   -1    0    0    0    0 -0.00000000000E+00 -0.00000000000E+00  0.00000000000E+00  0.93800000000E+00  0.93800000000E+00 0. -1.
         11    1    1    2    0    0 -0.12437852455E+00 -0.61384495720E-01  0.16218139339E+01  0.16277342445E+01  0.51100000000E-03 0.  1.
    9000002    1    1    2    0    0  0.30390748906E+00  0.15188513888E+00  0.77312240007E-01  0.10006248247E+01  0.93800000000E+00 0. -1.
         22    1    1    2    0    0 -0.17952896450E+00 -0.90500643163E-01  0.23008737935E+01  0.23096409308E+01  0.00000000000E+00 0.  1.
</event>
<event>
 5    1  0.1461556E+002  0.1599676E+01  0.7818608E-02  0.3353715E+00
         11   -1    0    0    0    0  0.00000000000E+00  0.00000000000E+00  0.39999999674E+01  0.40000000000E+01  0.51100000000E-03 0.  1.
    9000002   -1    0    0    0    0 -0.00000000000E+00 -0.00000000000E+00  0.00000000000E+00  0.93800000000E+00  0.93800000000E+00 0.  1.
         11    1    1    2    0    0  0.84461366706E-02  0.30429548078E+00  0.20096354971E+01  0.20325604958E+01  0.51100000000E-03 0.  1.
    9000002    1    1    2    0    0 -0.14803382133E-01 -0.56949867573E+00  0.22502624397E+00  0.11202806310E+01  0.93800000000E+00 0.  1.
         22    1    1    2    0    0  0.63572454623E-02  0.26520319495E+00  0.17653382263E+01  0.17851588732E+01  0.00000000000E+00 0.  1.
</event>
<event>
 5    1  0.1461556E+002  0.1542645E+01  0.7818608E-02  0.3418068E+00
         11   -1    0    0    0    0  0.00000000000E+00  0.00000000000E+00  0.39999999674E+01  0.40000000000E+01  0.51100000000E-03 0. -1.
    9000002   -1    0    0    0    0 -0.00000000000E+00 -0.00000000000E+00  0.00000000000E+00  0.93800000000E+00  0.93800000000E+00 0.  1.
         11    1    1    2    0    0 -0.19547819504E+00  0.81408990566E-01  0.63540125439E+00  0.66975679443E+00  0.51100000000E-03 0. -1.
    9000002    1    1    2    0    0 -0.13618942746E-01 -0.16200537230E-01  0.42782327841E-01  0.93921363948E+00  0.93800000000E+00 0.  1.
         22    1    1    2    0    0  0.20909713778E+00 -0.65208453336E-01  0.33218163851E+01  0.33290295661E+01  0.00000000000E+00 0. -1.
</event>
<event>
 5    1  0.1461556E+002  0.1574311E+01  0.7818608E-02  0.3381726E+00
         11   -1    0    0    0    0  0.00000000000E+00  0.00000000000E+00  0.39999999674E+01  0.40000000000E+01  0.51100000000E-03 0.  1.
    9000002   -1    0    0    0    0 -0.00000000000E+00 -0.00000000000E+00  0.00000000000E+00  0.93800000000E+00  0.93800000000E+00 0.  1.
         11    1    1    2    0    0  0.18397115283E-01 -0.89626500501E-01  0.47837878784E+00  0.48705019169E+00  0.51100000000E-03 0.  1.
    9000002    1    1    2    0    0  0.69209716565E-01 -0.27032471801E+00  0.71758639937E-01  0.98125365754E+00  0.93800000000E+00 0.  1.
         22    1    1    2    0    0 -0.87606831848E-01  0.35995121851E+00  0.34498625396E+01  0.34696961508E+01  0.00000000000E+00 0.  1.
</event>
<event>
 5    1  0.1461556E+002  0.1597062E+01  0.7818608E-02  0.3356558E+00
         11   -1    0    0    0    0  0.00000000000E+00  0.00000000000E+00  0.39999999674E+01  0.40000000000E+01  0.51100000000E-03 0.  1.
    9000002   -1    0    0    0    0 -0.00000000000E+00 -0.00000000000E+00  0.00000000000E+00  0.93800000000E+00  0.93800000000E+00 0.  1.
         11    1    1    2    0    0  0.12244375675E-01 -0.20715685573E-01  0.14909512435E+00  0.15102543359E+00  0.51100000000E-03 0.  1.
    9000002    1    1    2    0    0  0.16699511660E+00  0.16767049029E+00  0.39153440424E-01  0.96818270702E+00  0.93800000000E+00 0.  1.
         22    1    1    2    0    0 -0.17923949227E+00 -0.14695480472E+00  0.38117514026E+01  0.38187918594E+01  0.00000000000E+00 0.  1.
</event>
<event>
 5    1  0.1461556E+002  0.1599675E+01  0.7818608E-02  0.3353716E+00
         11   -1    0    0    0    0  0.00000000000E+00  0.00000000000E+00  0.39999999674E+01  0.40000000000E+01  0.51100000000E-03 0. -1.
    9000002   -1    0    0    0    0 -0.00000000000E+00 -0.00000000000E+00  0.00000000000E+00  0.93800000000E+00  0.93800000000E+00 0.  1.
         11    1    1    2    0    0 -0.97058999928E-01  0.14208682934E+00  0.13490685294E+01  0.13599982627E+01  0.51100000000E-03 0. -1.
    9000002    1    1    2    0    0  0.27254672074E+00 -0.40743842918E+00  0.16422513117E+00  0.10710283293E+01  0.93800000000E+00 0.  1.
         22    1    1    2    0    0 -0.17548772081E+00  0.26535159984E+00  0.24867063068E+01  0.25069734079E+01  0.00000000000E+00 0. -1.
</event>
<event>
 5    1  0.1892301E+002  0.1586769E+01  0.7818608E-02  0.3367851E+00
         11   -1    0    0    0    0  0.00000000000E+00  0.00000000000E+00  0.39999999674E+01  0.40000000000E+01  0.51100000000E-03 0.  1.
    9000002   -1    0    0    0    0 -0.00000000000E+00 -0.00000000000E+00  0.00000000000E+00  0.93800000000E+00  0.93800000000E+00 0.  1.
         11    1    1    2    0    0  0.10109035946E+00 -0.10855192953E-01  0.11590967446E+01  0.11635474294E+01  0.51100000000E-03 0.  1.
    9000002    1    1    2    0    0  0.70230432065E-01  0.12548048852E+00  0.23222750143E-01  0.94924230980E+00  0.93800000000E+00 0.  1.
         22    1    1    2    0    0 -0.17132079153E+00 -0.11462529557E+00  0.28176804726E+01  0.28252102608E+01  0.00000000000E+00 0.  1.
</event>
<event>
 5    1  0.1461556E+002  0.1599675E+01  0.7818608E-02  0.3353717E+00
         11   -1    0    0    0    0  0.00000000000E+00  0.00000000000E+00  0.39999999674E+01  0.40000000000E+01  0.51100000000E-03 0.  1.
    9000002   -1    0    0    0    0 -0.00000000000E+00 -0.00000000000E+00  0.00000000000E+00  0.93800000000E+00  0.93800000000E+00 0. -1.
         11    1    1    2    0    0  0.20036320618E-01  0.56402378941E-01  0.91403707284E+00  0.91599493129E+00  0.51100000000E-03 0.  1.
    9000002    1    1    2    0    0 -0.85690470421E-01 -0.25049046482E+00  0.46615018920E-01  0.97575882762E+00  0.93800000000E+00 0. -1.
         22    1    1    2    0    0  0.65654149803E-01  0.19408808588E+00  0.30393478756E+01  0.30462462411E+01  0.00000000000E+00 0.  1.
</event>
<event>
 5    1  0.1461556E+002  0.1599473E+01  0.7818608E-02  0.3353936E+00
         11   -1    0    0    0    0  0.00000000000E+00  0.00000000000E+00  0.39999999674E+01  0.40000000000E+01  0.51100000000E-03 0. -1.
    9000002   -1    0    0    0    0 -0.00000000000E+00 -0.00000000000E+00  0.00000000000E+00  0.93800000000E+00  0.93800000000E+00 0. -1.
         11    1    1    2    0    0  0.11117701484E+00  0.63138245319E-01  0.13956776082E+01  0.14015216779E+01  0.51100000000E-03 0. -1.
    9000002    1    1    2    0    0 -0.30242799472E+00 -0.13243420483E+00  0.73094479997E-01  0.99708992253E+00  0.93800000000E+00 0. -1.
         22    1    1    2    0    0  0.19125097988E+00  0.69295959513E-01  0.25312278792E+01  0.25393883996E+01  0.00000000000E+00 0. -1.
</event>
<event>
 5    1  0.1461556E+002  0.1599271E+01  0.7818608E-02  0.3354156E+00
         11   -1    0    0    0    0  0.00000000000E+00  0.00000000000E+00  0.39999999674E+01  0.40000000000E+01  0.51100000000E-03 0. -1.
    9000002   -1    0    0    0    0 -0.00000000000E+00 -0.00000000000E+00  0.00000000000E+00  0.93800000000E+00  0.93800000000E+00 0.  1.
         11    1    1    2    0    0  0.26204941718E+00  0.85462159949E-01  0.16316406255E+01  0.16547583116E+01  0.51100000000E-03 0. -1.
    9000002    1    1    2    0    0 -0.64560349027E+00 -0.19487677145E+00  0.32329228808E+00  0.11996427494E+01  0.93800000000E+00 0.  1.
         22    1    1    2    0    0  0.38355407309E+00  0.10941461150E+00  0.20450670538E+01  0.20835989390E+01  0.00000000000E+00 0. -1.
</event>
<event>
 5    1  0.1461556E+002  0.1599620E+01  0.7818608E-02  0.3353776E+00
         11   -1    0    0    0    0  0.00000000000E+00  0.00000000000E+00  0.39999999674E+01  0.40000000000E+01  0.51100000000E-03 0. -1.
    9000002   -1    0    0    0    0 -0.00000000000E+00 -0.00000000000E+00  0.00000000000E+00  0.93800000000E+00  0.93800000000E+00 0.  1.
         11    1    1    2    0    0 -0.57940863152E-01  0.23050044266E-01  0.79279664561E+00  0.79524539016E+00  0.51100000000E-03 0. -1.
    9000002    1    1    2    0    0  0.27205349089E+00 -0.14705702055E+00  0.63902629718E-01  0.98973047608E+00  0.93800000000E+00 0.  1.
         22    1    1    2    0    0 -0.21411262774E+00  0.12400697628E+00  0.31433006920E+01  0.31530241338E+01  0.00000000000E+00 0. -1.
</event>
<event>
 5    1  0.1461556E+002  0.1584498E+01  0.7818608E-02  0.3370362E+00
         11   -1    0    0    0    0  0.00000000000E+00  0.00000000000E+00  0.39999999674E+01  0.40000000000E+01  0.51100000000E-03 0. -1.
    9000002   -1    0    0    0    0 -0.00000000000E+00 -0.00000000000E+00  0.00000000000E+00  0.93800000000E+00  0.93800000000E+00 0.  1.
         11    1    1    2    0    0 -0.95228761863E-01  0.21285676302E-01  0.93787001548E+00  0.94293267213E+00  0.51100000000E-03 0. -1.
    9000002    1    1    2    0    0  0.12421307204E-01  0.27267265285E+00  0.61398829526E-01  0.97883526742E+00  0.93800000000E+00 0.  1.
         22    1    1    2    0    0  0.82807454660E-01 -0.29395832916E+00  0.30007311224E+01  0.30162320604E+01  0.00000000000E+00 0. -1.
</event>
<event>
 5    1  0.1461556E+002  0.1598095E+01  0.7818608E-02  0.3355433E+00
         11   -1    0    0    0    0  0.00000000000E+00  0.00000000000E+00  0.39999999674E+01  0.40000000000E+01  0.51100000000E-03 0.  1.
    9000002   -1    0    0    0    0 -0.00000000000E+00 -0.00000000000E+00  0.00000000000E+00  0.93800000000E+00  0.93800000000E+00 0. -1.
         11    1    1    2    0    0  0.26553901111E-01 -0.20317979131E+00  0.15016984165E+01  0.15156139128E+01  0.51100000000E-03 0.  1.
    9000002    1    1    2    0    0  0.71979819303E-02  0.42996809487E+00  0.12658426421E+00  0.10396114416E+01  0.93800000000E+00 0. -1.
         22    1    1    2    0    0 -0.33751883041E-01 -0.22678830356E+00  0.23717172866E+01  0.23827746456E+01  0.00000000000E+00 0.  1.
</event>
<event>
 5    1  0.1461556E+002  0.1551318E+01  0.7818608E-02  0.3407957E+00
         11   -1    0    0    0    0  0.00000000000E+00  0.00000000000E+00  0.39999999674E+01  0.40000000000E+01  0.51100000000E-03 0.  1.
    9000002   -1    0    0    0    0 -0.00000000000E+00 -0.00000000000E+00  0.00000000000E+00  0.93800000000E+00  0.93800000000E+00 0.  1.
         11    1    1    2    0    0 -0.74725825865E-01  0.85299255311E-01  0.30867146026E+01  0.30887970491E+01  0.51100000000E-03 0.  1.
    9000002    1    1    2    0    0  0.20081273198E+00  0.14876472051E+00  0.79403080661E-01  0.97396383126E+00  0.93800000000E+00 0.  1.
         22    1    1    2    0    0 -0.12608690611E+00 -0.23406397582E+00  0.83388228414E+00  0.87523911960E+00  0.00000000000E+00 0. -1.
</event>
<event>
 5    1  0.1461556E+002  0.1596449E+01  0.7818608E-02  0.3357226E+00
         11   -1    0    0    0    0  0.00000000000E+00  0.00000000000E+00  0.39999999674E+01  0.40000000000E+01  0.51100000000E-03 0.  1.
    9000002   -1    0    0    0    0 -0.00000000000E+00 -0.00000000000E+00  0.00000000000E+00  0.93800000000E+00  0.93800000000E+00 0. -1.
         11    1    1    2    0    0 -0.68126330293E-02 -0.73407565151E-02  0.14676252170E-01  0.17775043566E-01  0.51100000000E-03 0.  1.
    9000002    1    1    2    0    0  0.20479007015E+00  0.23230676309E+00  0.66582132840E-01  0.99004170893E+00  0.93800000000E+00 0. -1.
         22    1    1    2    0    0 -0.19797743712E+00 -0.22496600657E+00  0.39187415823E+01  0.39301832475E+01  0.00000000000E+00 0.  1.
</event>
<event>
 5    1  0.1461556E+002  0.1599677E+01  0.7818608E-02  0.3353714E+00
         11   -1    0    0    0    0  0.00000000000E+00  0.00000000000E+00  0.39999999674E+01  0.40000000000E+01  0.51100000000E-03 0.  1.
    9000002   -1    0    0    0    0 -0.00000000000E+00 -0.00000000000E+00  0.00000000000E+00  0.93800000000E+00  0.93800000000E+00 0.  1.
         11    1    1    2    0    0  0.11543565791E+00 -0.76923012857E-01  0.14738782197E+01  0.14803917754E+01  0.51100000000E-03 0.  1.
    9000002    1    1    2    0    0 -0.30428477051E+00  0.20441652286E+00  0.90269599280E-01  0.10111221177E+01  0.93800000000E+00 0. -1.
         22    1    1    2    0    0  0.18884911261E+00 -0.12749351001E+00  0.24358521483E+01  0.24464861068E+01  0.00000000000E+00 0.  1.
</event>
<event>
 5    1  0.1461556E+002  0.1594702E+01  0.7818608E-02  0.3359134E+00
         11   -1    0    0    0    0  0.00000000000E+00  0.00000000000E+00  0.39999999674E+01  0.40000000000E+01  0.51100000000E-03 0. -1.
    9000002   -1    0    0    0    0 -0.00000000000E+00 -0.00000000000E+00  0.00000000000E+00  0.93800000000E+00  0.93800000000E+00 0.  1.
         11    1    1    2    0    0  0.47897536350E-01 -0.11748785646E-01  0.34452987261E+00  0.34804209831E+00  0.51100000000E-03 0. -1.
    9000002    1    1    2    0    0 -0.29324008411E-01  0.31589452992E+00  0.71196052046E-01  0.99275481834E+00  0.93800000000E+00 0.  1.
         22    1    1    2    0    0 -0.18573527939E-01 -0.30414574428E+00  0.35842740427E+01  0.35972030834E+01  0.00000000000E+00 0. -1.
</event>
<event>
 5    1  0.1481748E+002  0.1559471E+01  0.7818608E-02  0.3398562E+00
         11   -1    0    0    0    0  0.00000000000E+00  0.00000000000E+00  0.39999999674E+01  0.40000000000E+01  0.51100000000E-03 0.  1.
    9000002   -1    0    0    0    0 -0.00000000000E+00 -0.00000000000E+00  0.00000000000E+00  0.93800000000E+00  0.93800000000E+00 0.  1.
         11    1    1    2    0    0  0.17344919742E+00 -0.19781376195E+00  0.19279650205E+01  0.19458325441E+01  0.51100000000E-03 0.  1.
    9000002    1    1    2    0    0 -0.31868758228E-01  0.32015992577E-01  0.31080811670E-01  0.93960132949E+00  0.93800000000E+00 0.  1.
         22    1    1    2    0    0 -0.14158043920E+00  0.16579776938E+00  0.20409541352E+01  0.20525661264E+01  0.00000000000E+00 0. -1.
</event>
<event>
 5    1  0.1461556E+002  0.1554532E+01  0.7818608E-02  0.3404241E+00
         11   -1    0    0    0    0  0.00000000000E+00  0.00000000000E+00  0.39999999674E+01  0.40000000000E+01  0.51100000000E-03 0. -1.
    9000002   -1    0    0    0    0 -0.00000000000E+00 -0.00000000000E+00  0.00000000000E+00  0.93800000000E+00  0.93800000000E+00 0. -1.
         11    1    1    2    0    0 -0.83464627619E-01 -0.29069637602E+00  0.26360490263E+01  0.26533423181E+01  0.51100000000E-03 0. -1.
    9000002    1    1    2    0    0 -0.18712535611E+00  0.54441887239E+00  0.27520316725E+00  0.11344551956E+01  0.93800000000E+00 0. -1.
         22    1    1    2    0    0  0.27058998373E+00 -0.25372249637E+00  0.10887477739E+01  0.11502024863E+01  0.00000000000E+00 0.  1.
</event>
<event>
 5    1  0.1461556E+002  0.1596092E+01  0.7818608E-02  0.3357616E+00
         11   -1    0    0    0    0  0.00000000000E+00  0.00000000000E+00  0.39999999674E+01  0.40000000000E+01  0.51100000000E-03 0. -1.
    9000002   -1    0    0    0    0 -0.00000000000E+00 -0.00000000000E+00  0.00000000000E+00  0.93800000000E+00  0.93800000000E+00 0. -1.
         11    1    1    2    0    0 -0.31877599346E-01  0.17935123263E-02  0.83560759875E+00  0.83621750654E+00  0.51100000000E-03 0. -1.
    9000002    1    1    2    0    0 -0.56074986830E-01 -0.19512569961E+00  0.29986379146E-01  0.96018832826E+00  0.93800000000E+00 0. -1.
         22    1    1    2    0    0  0.87952586177E-01  0.19333218728E+00  0.31344059895E+01  0.31415941652E+01  0.00000000000E+00 0. -1.
</event>
<event>
 5    1  0.1461556E+002  0.1599380E+01  0.7818608E-02  0.3354037E+00
         11   -1    0    0    0    0  0.00000000000E+00  0.00000000000E+00  0.39999999674E+01  0.40000000000E+01  0.51100000000E-03 0. -1.
    9000002   -1    0    0    0    0 -0.00000000000E+00 -0.00000000000E+00  0.00000000000E+00  0.93800000000E+00  0.93800000000E+00 0.  1.
         11    1    1    2    0    0  0.29801748226E-01  0.30400835070E-02  0.31884436656E+00  0.32024893054E+00  0.51100000000E-03 0. -1.
    9000002    1    1    2    0    0 -0.23045239596E+00 -0.26562910091E-01  0.35925898957E-01  0.96692738363E+00  0.93800000000E+00 0.  1.
         22    1    1    2    0    0  0.20065064774E+00  0.23522826584E-01  0.36452297018E+01  0.36508236858E+01  0.00000000000E+00 0. -1.
</event>
<event>
 5    1  0.1461556E+002  0.1599625E+01  0.7818608E-02  0.3353771E+00
         11   -1    0    0    0    0  0.00000000000E+00  0.00000000000E+00  0.39999999674E+01  0.40000000000E+01  0.51100000000E-03 0. -1.
    9000002   -1    0    0    0    0 -0.00000000000E+00 -0.00000000000E+00  0.00000000000E+00  0.93800000000E+00  0.93800000000E+00 0. -1.
         11    1    1    2    0    0  0.15076255226E-01 -0.15774557769E-01  0.32965249196E+00  0.33037426765E+00  0.51100000000E-03 0. -1.
    9000002    1    1    2    0    0 -0.13083347958E+00  0.21749128668E+00  0.42846093682E-01  0.97267653765E+00  0.93800000000E+00 0. -1.
         22    1    1    2    0    0  0.11575722435E+00 -0.20171672891E+00  0.36275013817E+01  0.36349491947E+01  0.00000000000E+00 0. -1.
</event>
<event>
 5    1  0.1461556E+002  0.1578224E+01  0.7818608E-02  0.3377342E+00
         11   -1    0    0    0    0  0.00000000000E+00  0.00000000000E+00  0.39999999674E+01  0.40000000000E+01  0.51100000000E-03 0. -1.
    9000002   -1    0    0    0    0 -0.00000000000E+00 -0.00000000000E+00  0.00000000000E+00  0.93800000000E+00  0.93800000000E+00 0.  1.
         11    1    1    2    0    0 -0.85696034945E-01 -0.99819046635E-01  0.12451052807E+01  0.12520363708E+01  0.51100000000E-03 0. -1.
    9000002    1    1    2    0    0 -0.23370636107E+00  0.19846788873E+00  0.79797662092E-01  0.99006051983E+00  0.93800000000E+00 0.  1.
         22    1    1    2    0    0  0.31940239601E+00 -0.98648842093E-01  0.26750970245E+01  0.26959031094E+01  0.00000000000E+00 0. -1.
</event>
<event>
 5    1  0.1461556E+002  0.1599618E+01  0.7818608E-02  0.3353778E+00
         11   -1    0    0    0    0  0.00000000000E+00  0.00000000000E+00  0.39999999674E+01  0.40000000000E+01  0.51100000000E-03 0.  1.
    9000002   -1    0    0    0    0 -0.00000000000E+00 -0.00000000000E+00  0.00000000000E+00  0.93800000000E+00  0.93800000000E+00 0. -1.
         11    1    1    2    0    0 -0.25391542897E-01 -0.12224761124E-01  0.42931960030E+00  0.43024383268E+00  0.51100000000E-03 0.  1.
    9000002    1    1    2    0    0  0.22236618647E+00  0.16387739145E+00  0.50839948331E-01  0.97914821179E+00  0.93800000000E+00 0. -1.
         22    1    1    2    0    0 -0.19697464358E+00 -0.15165263032E+00  0.35198404187E+01  0.35286079555E+01  0.00000000000E+00 0.  1.
</event>
<event>
 5    1  0.1461556E+002  0.1587416E+01  0.7818608E-02  0.3367136E+00
         11   -1    0    0    0    0  0.00000000000E+00  0.00000000000E+00  0.39999999674E+01  0.40000000000E+01  0.51100000000E-03 0.  1.
    9000002   -1    0    0    0    0 -0.00000000000E+00 -0.00000000000E+00  0.00000000000E+00  0.93800000000E+00  0.93800000000E+00 0.  1.
         11    1    1    2    0    0  0.10249235765E+00 -0.95724337015E-03  0.25144398618E+01  0.25165281002E+01  0.51100000000E-03 0.  1.
    9000002    1    1    2    0    0 -0.21789272071E+00  0.19394936155E+00  0.66341586782E-01  0.98455004886E+00  0.93800000000E+00 0.  1.
         22    1    1    2    0    0  0.11540036306E+00 -0.19299211818E+00  0.14192185188E+01  0.14369218509E+01  0.00000000000E+00 0. -1.
</event>
<event>
 5    1  0.1461556E+002  0.1597849E+01  0.7818608E-02  0.3355701E+00
         11   -1    0    0    0    0  0.00000000000E+00  0.00000000000E+00  0.39999999674E+01  0.40000000000E+01  0.51100000000E-03 0. -1.
    9000002   -1    0    0    0    0 -0.00000000000E+00 -0.00000000000E+00  0.00000000000E+00  0.93800000000E+00  0.93800000000E+00 0. -1.
         11    1    1    2    0    0  0.21375816308E+00 -0.21961991234E-01  0.11744117703E+01  0.11939087690E+01  0.51100000000E-03 0. -1.
    9000002    1    1    2    0    0 -0.54158376374E+00  0.11802216041E+00  0.21412103691E+00  0.11103756220E+01  0.93800000000E+00 0. -1.
         22    1    1    2    0    0  0.32782560066E+00 -0.96060169173E-01  0.26114671602E+01  0.26337156090E+01  0.00000000000E+00 0. -1.
</event>
<event>
 5    1  0.1461556E+002  0.1595030E+01  0.7818608E-02  0.3358776E+00
         11   -1    0    0    0    0  0.00000000000E+00  0.00000000000E+00  0.39999999674E+01  0.40000000000E+01  0.51100000000E-03 0. -1.
    9000002   -1    0    0    0    0 -0.00000000000E+00 -0.00000000000E+00  0.00000000000E+00  0.93800000000E+00  0.93800000000E+00 0. -1.
         11    1    1    2    0    0  0.11134301092E+00 -0.17663735313E+00  0.17137050574E+01  0.17263786680E+01  0.51100000000E-03 0. -1.
    9000002    1    1    2    0    0 -0.36752351544E+00  0.51122981987E+00  0.28319810487E+00  0.11646779081E+01  0.93800000000E+00 0. -1.
         22    1    1    2    0    0  0.25618050452E+00 -0.33459246675E+00  0.20030968051E+01  0.20469434239E+01  0.00000000000E+00 0. -1.
</event>
<event>
 5    1  0.1461556E+002  0.1495391E+01  0.7818608E-02  0.3475364E+00
         11   -1    0    0    0    0  0.00000000000E+00  0.00000000000E+00  0.39999999674E+01  0.40000000000E+01  0.51100000000E-03 0.  1.
    9000002   -1    0    0    0    0 -0.00000000000E+00 -0.00000000000E+00  0.00000000000E+00  0.93800000000E+00  0.93800000000E+00 0. -1.
         11    1    1    2    0    0 -0.14746722772E+00 -0.98420458143E-01  0.16358739434E+00  0.24123487836E+00  0.51100000000E-03 0.  1.
    9000002    1    1    2    0    0  0.20571512331E+00 -0.10939630884E+00  0.11981060464E+00  0.97390186638E+00  0.93800000000E+00 0. -1.
         22    1    1    2    0    0 -0.58247895587E-01  0.20781676698E+00  0.37166019684E+01  0.37228632553E+01  0.00000000000E+00 0.  1.
</event>
<event>
 5    1  0.1461556E+002  0.1599677E+01  0.7818608E-02  0.3353715E+00
         11   -1    0    0    0    0  0.00000000000E+00  0.00000000000E+00  0.39999999674E+01  0.40000000000E+01  0.51100000000E-03 0. -1.
    9000002   -1    0    0    0    0 -0.00000000000E+00 -0.00000000000E+00  0.00000000000E+00  0.93800000000E+00  0.93800000000E+00 0.  1.
         11    1    1    2    0    0  0.42279467950E-01 -0.29866575491E-01  0.61058730623E+00  0.61277784342E+00  0.51100000000E-03 0. -1.
    9000002    1    1    2    0    0 -0.26920690962E+00  0.19327791600E+00  0.73495209707E-01  0.99753408907E+00  0.93800000000E+00 0.  1.
         22    1    1    2    0    0  0.22692744167E+00 -0.16341134051E+00  0.33159174514E+01  0.33276880675E+01  0.00000000000E+00 0. -1.
</event>
<event>
 5    1  0.1461556E+002  0.1517451E+01  0.7818608E-02  0.3448140E+00
         11   -1    0    0    0    0  0.00000000000E+00  0.00000000000E+00  0.39999999674E+01  0.40000000000E+01  0.51100000000E-03 0. -1.
    9000002   -1    0    0    0    0 -0.00000000000E+00 -0.00000000000E+00  0.00000000000E+00  0.93800000000E+00  0.93800000000E+00 0.  1.
         11    1    1    2    0    0  0.28223405080E-01  0.29863073471E+00  0.29065409894E+00  0.41768043126E+00  0.51100000000E-03 0. -1.
    9000002    1    1    2    0    0  0.60739267053E+00 -0.85075618570E+00  0.11164628757E+01  0.17941698071E+01  0.93800000000E+00 0.  1.
         22    1    1    2    0    0 -0.63561607561E+00  0.55212545100E+00  0.25928829927E+01  0.27261497617E+01  0.00000000000E+00 0. -1.
</event>
<event>
 5    1  0.1461556E+002  0.1599608E+01  0.7818608E-02  0.3353789E+00
         11   -1    0    0    0    0  0.00000000000E+00  0.00000000000E+00  0.39999999674E+01  0.40000000000E+01  0.51100000000E-03 0.  1.
    9000002   -1    0    0    0    0 -0.00000000000E+00 -0.00000000000E+00  0.00000000000E+00  0.93800000000E+00  0.93800000000E+00 0.  1.
         11    1    1    2    0    0  0.48321585007E-01  0.13566380589E+00  0.14294774368E+01  0.14367134882E+01  0.51100000000E-03 0.  1.
    9000002    1    1    2    0    0 -0.15734649909E+00 -0.37327371802E+00  0.11081294997E+00  0.10277230654E+01  0.93800000000E+00 0.  1.
         22    1    1    2    0    0  0.10902491408E+00  0.23760991213E+00  0.24597095806E+01  0.24735634463E+01  0.00000000000E+00 0.  1.
</event>
<event>
 5    1  0.1461556E+002  0.1594347E+01  0.7818608E-02  0.3359522E+00
         11   -1    0    0    0    0  0.00000000000E+00  0.00000000000E+00  0.39999999674E+01  0.40000000000E+01  0.51100000000E-03 0. -1.
    9000002   -1    0    0    0    0 -0.00000000000E+00 -0.00000000000E+00  0.00000000000E+00  0.93800000000E+00  0.93800000000E+00 0.  1.
         11    1    1    2    0    0 -0.20425747036E+00  0.28247511677E+00  0.13497568730E+01  0.13940434653E+01  0.51100000000E-03 0. -1.
    9000002    1    1    2    0    0  0.35282933348E+00 -0.63128849026E+00  0.38237562937E+00  0.12446159321E+01  0.93800000000E+00 0.  1.
         22    1    1    2    0    0 -0.14857186312E+00  0.34881337349E+00  0.22678674650E+01  0.22993406026E+01  0.00000000000E+00 0. -1.
</event>
<event>
 5    1  0.1461556E+002  0.1599676E+01  0.7818608E-02  0.3353715E+00
         11   -1    0    0    0    0  0.00000000000E+00  0.00000000000E+00  0.39999999674E+01  0.40000000000E+01  0.51100000000E-03 0.  1.
    9000002   -1    0    0    0    0 -0.00000000000E+00 -0.00000000000E+00  0.00000000000E+00  0.93800000000E+00  0.93800000000E+00 0.  1.
         11    1    1    2    0    0  0.39385983557E-02  0.15177943213E-01  0.27444035209E+00  0.27488843281E+00  0.51100000000E-03 0. -1.
    9000002    1    1    2    0    0 -0.57917648836E-01 -0.21756445716E+00  0.33611786470E-01  0.96522665693E+00  0.93800000000E+00 0.  1.
         22    1    1    2    0    0  0.53979050480E-01  0.20238651394E+00  0.36919478288E+01  0.36978849103E+01  0.00000000000E+00 0.  1.
</event>
<event>
 5    1  0.1461556E+002  0.1599675E+01  0.7818608E-02  0.3353716E+00
         11   -1    0    0    0    0  0.00000000000E+00  0.00000000000E+00  0.39999999674E+01  0.40000000000E+01  0.51100000000E-03 0.  1.
    9000002   -1    0    0    0    0 -0.00000000000E+00 -0.00000000000E+00  0.00000000000E+00  0.93800000000E+00  0.93800000000E+00 0.  1.
         11    1    1    2    0    0 -0.59611218560E-01 -0.16092254574E-01  0.85498931930E+00  0.85721610768E+00  0.51100000000E-03 0.  1.
    9000002    1    1    2    0    0  0.27668839542E+00  0.79905693931E-01  0.55272095029E-01  0.98277179069E+00  0.93800000000E+00 0.  1.
         22    1    1    2    0    0 -0.21707717686E+00 -0.63813439357E-01  0.30897385530E+01  0.30980121016E+01  0.00000000000E+00 0.  1.
</event>
<event>
 5    1  0.1461556E+002  0.1599676E+01  0.7818608E-02  0.3353715E+00
         11   -1    0    0    0    0  0.00000000000E+00  0.00000000000E+00  0.39999999674E+01  0.40000000000E+01  0.51100000000E-03 0. -1.
    9000002   -1    0    0    0    0 -0.00000000000E+00 -0.00000000000E+00  0.00000000000E+00  0.93800000000E+00  0.93800000000E+00 0.  1.
         11    1    1    2    0    0 -0.10895434934E+00  0.17960634372E+00  0.19195857194E+01  0.19310461114E+01  0.51100000000E-03 0. -1.
    9000002    1    1    2    0    0  0.22202366127E+00 -0.36339665968E+00  0.12274787735E+00  0.10374308072E+01  0.93800000000E+00 0.  1.
         22    1    1    2    0    0 -0.11306931194E+00  0.18379031596E+00  0.19576663706E+01  0.19695230814E+01  0.00000000000E+00 0. -1.
</event>
<event>
 5    1  0.1461556E+002  0.1591663E+01  0.7818608E-02  0.3362462E+00
         11   -1    0    0    0    0  0.00000000000E+00  0.00000000000E+00  0.39999999674E+01  0.40000000000E+01  0.51100000000E-03 0.  1.
    9000002   -1    0    0    0    0 -0.00000000000E+00 -0.00000000000E+00  0.00000000000E+00  0.93800000000E+00  0.93800000000E+00 0. -1.
         11    1    1    2    0    0  0.40748243932E-02  0.25274821798E-01  0.61394953094E-01  0.66520840323E-01  0.51100000000E-03 0.  1.
    9000002    1    1    2    0    0 -0.19120609829E+00  0.11375393250E+00  0.38896890461E-01  0.96480915070E+00  0.93800000000E+00 0. -1.
         22    1    1    2    0    0  0.18713127390E+00 -0.13902875430E+00  0.38997081238E+01  0.39066700090E+01  0.00000000000E+00 0.  1.
</event>
<event>
 5    1  0.1461556E+002  0.1597780E+01  0.7818608E-02  0.3355776E+00
         11   -1    0    0    0    0  0.00000000000E+00  0.00000000000E+00  0.39999999674E+01  0.40000000000E+01  0.51100000000E-03 0. -1.
    9000002   -1    0    0    0    0 -0.00000000000E+00 -0.00000000000E+00  0.00000000000E+00  0.93800000000E+00  0.93800000000E+00 0. -1.
         11    1    1    2    0    0  0.15271609758E-01  0.75188826373E-01  0.55760355294E+00  0.56285749977E+00  0.51100000000E-03 0. -1.
    9000002    1    1    2    0    0  0.26001446445E-02 -0.29669596063E+00  0.60195110067E-01  0.98564836787E+00  0.93800000000E+00 0. -1.
         22    1    1    2    0    0 -0.17871754402E-01  0.22150713426E+00  0.33822013044E+01  0.33894941324E+01  0.00000000000E+00 0. -1.
</event>
<event>
 5    1  0.1461556E+002  0.1599307E+01  0.7818608E-02  0.3354115E+00
         11   -1    0    0    0    0  0.00000000000E+00  0.00000000000E+00  0.39999999674E+01  0.40000000000E+01  0.51100000000E-03 0.  1.
    9000002   -1    0    0    0    0 -0.00000000000E+00 -0.00000000000E+00  0.00000000000E+00  0.93800000000E+00  0.93800000000E+00 0. -1.
         11    1    1    2    0    0 -0.42431265733E-02 -0.14446808854E-01  0.14875528575E+00  0.14951625520E+00  0.51100000000E-03 0.  1.
    9000002    1    1    2    0    0 -0.82079050194E-01  0.25446009048E+00  0.47838313674E-01  0.97653438873E+00  0.93800000000E+00 0. -1.
         22    1    1    2    0    0  0.86322176768E-01 -0.24001328162E+00  0.38034063679E+01  0.38119493561E+01  0.00000000000E+00 0.  1.
</event>
<event>
 5    1  0.1461556E+002  0.1599584E+01  0.7818608E-02  0.3353815E+00
         11   -1    0    0    0    0  0.00000000000E+00  0.00000000000E+00  0.39999999674E+01  0.40000000000E+01  0.51100000000E-03 0. -1.
    9000002   -1    0    0    0    0 -0.00000000000E+00 -0.00000000000E+00  0.00000000000E+00  0.93800000000E+00  0.93800000000E+00 0. -1.
         11    1    1    2    0    0 -0.33089655632E-01  0.21902993376E+00  0.19775830488E+01  0.19899507565E+01  0.51100000000E-03 0. -1.
    9000002    1    1    2    0    0  0.87449605046E-01 -0.42952320245E+00  0.13035565884E+00  0.10435392722E+01  0.93800000000E+00 0. -1.
         22    1    1    2    0    0 -0.54359949414E-01  0.21049326869E+00  0.18920612597E+01  0.19045099713E+01  0.00000000000E+00 0. -1.
</event>
<event>
 5    1  0.1461556E+002  0.1599668E+01  0.7818608E-02  0.3353724E+00
         11   -1    0    0    0    0  0.00000000000E+00  0.00000000000E+00  0.39999999674E+01  0.40000000000E+01  0.51100000000E-03 0. -1.
    9000002   -1    0    0    0    0 -0.00000000000E+00 -0.00000000000E+00  0.00000000000E+00  0.93800000000E+00  0.93800000000E+00 0.  1.
         11    1    1    2    0    0 -0.15307062194E-01 -0.54965057809E-01  0.56847140826E+00  0.57132781034E+00  0.51100000000E-03 0. -1.
    9000002    1    1    2    0    0  0.90174407667E-01  0.38560684031E+00  0.10573456423E+00  0.10236443998E+01  0.93800000000E+00 0.  1.
         22    1    1    2    0    0 -0.74867345474E-01 -0.33064178250E+00  0.33257939949E+01  0.33430277899E+01  0.00000000000E+00 0. -1.
</event>
<event>
 5    1  0.1461556E+002  0.1598502E+01  0.7818608E-02  0.3354991E+00
         11   -1    0    0    0    0  0.00000000000E+00  0.00000000000E+00  0.39999999674E+01  0.40000000000E+01  0.51100000000E-03 0. -1.
    9000002   -1    0    0    0    0 -0.00000000000E+00 -0.00000000000E+00  0.00000000000E+00  0.93800000000E+00  0.93800000000E+00 0. -1.
         11    1    1    2    0    0 -0.32149022037E-02  0.14179213583E-01  0.55900355717E-01  0.57762414980E-01  0.51100000000E-03 0. -1.
    9000002    1    1    2    0    0 -0.23621312593E+00 -0.46042341499E+00  0.18494177486E+00  0.10871218064E+01  0.93800000000E+00 0. -1.
         22    1    1    2    0    0  0.23942802813E+00  0.44624420141E+00  0.37591578368E+01  0.37931157786E+01  0.00000000000E+00 0. -1.
</event>
<event>
 5    1  0.1461556E+002  0.1599650E+01  0.7818608E-02  0.3353743E+00
         11   -1    0    0    0    0  0.00000000000E+00  0.00000000000E+00  0.39999999674E+01  0.40000000000E+01  0.51100000000E-03 0.  1.
    9000002   -1    0    0    0    0 -0.00000000000E+00 -0.00000000000E+00  0.00000000000E+00  0.93800000000E+00  0.93800000000E+00 0. -1.
         11    1    1    2    0    0 -0.54874087079E-02  0.14037555857E+00  0.84365238405E+00  0.85526897251E+00  0.51100000000E-03 0.  1.
    9000002    1    1    2    0    0  0.42841314930E-01 -0.63215566811E+00  0.28222323399E+00  0.11665976688E+01  0.93800000000E+00 0. -1.
         22    1    1    2    0    0 -0.37353906223E-01  0.49178010954E+00  0.28741243493E+01  0.29161333587E+01  0.00000000000E+00 0.  1.
</event>
<event>
 5    1  0.1461556E+002  0.1599649E+01  0.7818608E-02  0.3353745E+00
         11   -1    0    0    0    0  0.00000000000E+00  0.00000000000E+00  0.39999999674E+01  0.40000000000E+01  0.51100000000E-03 0.  1.
    9000002   -1    0    0    0    0 -0.00000000000E+00 -0.00000000000E+00  0.00000000000E+00  0.93800000000E+00  0.93800000000E+00 0.  1.
         11    1    1    2    0    0  0.12876119418E-02 -0.56025302060E-01  0.56345425400E+00  0.56623444781E+00  0.51100000000E-03 0.  1.
    9000002    1    1    2    0    0  0.20920112774E-01  0.39602361614E+00  0.10606055671E+00  0.10238970638E+01  0.93800000000E+00 0.  1.
         22    1    1    2    0    0 -0.22207724716E-01 -0.33999831408E+00  0.33304851567E+01  0.33478684883E+01  0.00000000000E+00 0.  1.
</event>
<event>
 5    1  0.1461556E+002  0.1599673E+01  0.7818608E-02  0.3353718E+00
         11   -1    0    0    0    0  0.00000000000E+00  0.00000000000E+00  0.39999999674E+01  0.40000000000E+01  0.51100000000E-03 0.  1.
    9000002   -1    0    0    0    0 -0.00000000000E+00 -0.00000000000E+00  0.00000000000E+00  0.93800000000E+00  0.93800000000E+00 0. -1.
         11    1    1    2    0    0  0.14042600375E+00  0.59020628436E-02  0.90677343833E+00  0.91760156193E+00  0.51100000000E-03 0.  1.
    9000002    1    1    2    0    0 -0.57933413388E+00 -0.32172504701E-01  0.23392541991E+00  0.11274875657E+01  0.93800000000E+00 0. -1.
         22    1    1    2    0    0  0.43890813013E+00  0.26270441858E-01  0.28593011091E+01  0.28929108724E+01  0.00000000000E+00 0.  1.
</event>
<event>
 5    1  0.1461556E+002  0.1599532E+01  0.7818608E-02  0.3353872E+00
         11   -1    0    0    0    0  0.00000000000E+00  0.00000000000E+00  0.39999999674E+01  0.40000000000E+01  0.51100000000E-03 0.  1.
    9000002   -1    0    0    0    0 -0.00000000000E+00 -0.00000000000E+00  0.00000000000E+00  0.93800000000E+00  0.93800000000E+00 0.  1.
         11    1    1    2    0    0 -0.35122957128E-01 -0.15742928035E+00  0.15033951638E+01  0.15120234390E+01  0.51100000000E-03 0.  1.
    9000002    1    1    2    0    0  0.58005838766E-01  0.39174967294E+00  0.10585361307E+00  0.10236608183E+01  0.93800000000E+00 0.  1.
         22    1    1    2    0    0 -0.22882881639E-01 -0.23432039259E+00  0.23907511905E+01  0.24023157426E+01  0.00000000000E+00 0.  1.
</event>
<event>
 5    1  0.1461556E+002  0.1567609E+01  0.7818608E-02  0.3389287E+00
         11   -1    0    0    0    0  0.00000000000E+00  0.00000000000E+00  0.39999999674E+01  0.40000000000E+01  0.51100000000E-03 0.  1.
    9000002   -1    0    0    0    0 -0.00000000000E+00 -0.00000000000E+00  0.00000000000E+00  0.93800000000E+00  0.93800000000E+00 0. -1.
         11    1    1    2    0    0  0.29279468224E-01 -0.18146581753E+00  0.14789242386E+01  0.14903034237E+01  0.51100000000E-03 0.  1.
    9000002    1    1    2    0    0 -0.10575973572E+00 -0.71563028510E-01  0.34677836259E-01  0.94728714816E+00  0.93800000000E+00 0. -1.
         22    1    1    2    0    0  0.76480267501E-01  0.25302884604E+00  0.24863978925E+01  0.25004094281E+01  0.00000000000E+00 0. -1.
</event>
<event>
 5    1  0.1461556E+002  0.1599474E+01  0.7818608E-02  0.3353934E+00
         11   -1    0    0    0    0  0.00000000000E+00  0.00000000000E+00  0.39999999674E+01  0.40000000000E+01  0.51100000000E-03 0.  1.
    9000002   -1    0    0    0    0 -0.00000000000E+00 -0.00000000000E+00  0.00000000000E+00  0.93800000000E+00  0.93800000000E+00 0. -1.
         11    1    1    2    0    0  0.35174367050E+00  0.46053662886E+00  0.11424415786E+01  0.12810115604E+01  0.51100000000E-03 0.  1.
    9000002    1    1    2    0    0 -0.72293040889E+00 -0.10064142035E+01  0.15647564246E+01  0.22054034990E+01  0.93800000000E+00 0. -1.
         22    1    1    2    0    0  0.37118673839E+00  0.54587757462E+00  0.12928019641E+01  0.14515849406E+01  0.00000000000E+00 0.  1.
</event>
<event>
 5    1  0.1461556E+002  0.1597623E+01  0.7818608E-02  0.3355947E+00
         11   -1    0    0    0    0  0.00000000000E+00  0.00000000000E+00  0.39999999674E+01  0.40000000000E+01  0.51100000000E-03 0. -1.
    9000002   -1    0    0    0    0 -0.00000000000E+00 -0.00000000000E+00  0.00000000000E+00  0.93800000000E+00  0.93800000000E+00 0. -1.
         11    1    1    2    0    0  0.35119821404E-01  0.61575660140E-01  0.61645855413E+00  0.62052105030E+00  0.51100000000E-03 0. -1.
    9000002    1    1    2    0    0 -0.28290401640E+00 -0.14646784497E+00  0.69449926083E-01  0.99305327367E+00  0.93800000000E+00 0. -1.
         22    1    1    2    0    0  0.24778419500E+00  0.84892184826E-01  0.33140914871E+01  0.33244256760E+01  0.00000000000E+00 0. -1.
</event>
<event>
 5    1  0.1461556E+002  0.1599676E+01  0.7818608E-02  0.3353715E+00
         11   -1    0    0    0    0  0.00000000000E+00  0.00000000000E+00  0.39999999674E+01  0.40000000000E+01  0.51100000000E-03 0. -1.
    9000002   -1    0    0    0    0 -0.00000000000E+00 -0.00000000000E+00  0.00000000000E+00  0.93800000000E+00  0.93800000000E+00 0.  1.
         11    1    1    2    0    0  0.97845772358E-01  0.79640420918E-01  0.14747684085E+01  0.14801548945E+01  0.51100000000E-03 0. -1.
    9000002    1    1    2    0    0 -0.26042501800E+00 -0.21437151176E+00  0.76184151101E-01  0.99971213853E+00  0.93800000000E+00 0.  1.
         22    1    1    2    0    0  0.16257924564E+00  0.13473109084E+00  0.24490474077E+01  0.24581329670E+01  0.00000000000E+00 0. -1.
</event>
<event>
 5    1  0.1461556E+002  0.1599676E+01  0.7818608E-02  0.3353715E+00
         11   -1    0    0    0    0  0.00000000000E+00  0.00000000000E+00  0.39999999674E+01  0.40000000000E+01  0.51100000000E-03 0. -1.
    9000002   -1    0    0    0    0 -0.00000000000E+00 -0.00000000000E+00  0.00000000000E+00  0.93800000000E+00  0.93800000000E+00 0.  1.
         11    1    1    2    0    0  0.62762975849E-01 -0.38911525736E-01  0.93665031669E+00  0.93955700990E+00  0.51100000000E-03 0. -1.
    9000002    1    1    2    0    0 -0.26467942424E+00  0.15874975501E+00  0.63599844032E-01  0.98951787376E+00  0.93800000000E+00 0.  1.
         22    1    1    2    0    0  0.20191644839E+00 -0.11983822928E+00  0.29997498066E+01  0.30089251163E+01  0.00000000000E+00 0. -1.
</event>
<event>
 5    1  0.1461556E+002  0.1597352E+01  0.7818608E-02  0.3356243E+00
         11   -1    0    0    0    0  0.00000000000E+00  0.00000000000E+00  0.39999999674E+01  0.40000000000E+01  0.51100000000E-03 0.  1.
    9000002   -1    0    0    0    0 -0.00000000000E+00 -0.00000000000E+00  0.00000000000E+00  0.93800000000E+00  0.93800000000E+00 0. -1.
         11    1    1    2    0    0 -0.21792677935E+00 -0.95769989559E-01  0.23093102505E+01  0.23215464816E+01  0.51100000000E-03 0.  1.
    9000002    1    1    2    0    0  0.45209445562E+00  0.12560977404E+00  0.15201194867E+00  0.10597730156E+01  0.93800000000E+00 0. -1.
         22    1    1    2    0    0 -0.23416767627E+00 -0.29839784479E-01  0.15386777682E+01  0.15566805028E+01  0.00000000000E+00 0. -1.
</event>
<event>
 5    1  0.1461556E+002  0.1599675E+01  0.7818608E-02  0.3353716E+00
         11   -1    0    0    0    0  0.00000000000E+00  0.00000000000E+00  0.39999999674E+01  0.40000000000E+01  0.51100000000E-03 0.  1.
    9000002   -1    0    0    0    0 -0.00000000000E+00 -0.00000000000E+00  0.00000000000E+00  0.93800000000E+00  0.93800000000E+00 0. -1.
         11    1    1    2    0    0 -0.29012791642E+00  0.24417387243E+00  0.23400521861E+01  0.23705779005E+01  0.51100000000E-03 0.  1.
    9000002    1    1    2    0    0  0.46499034640E+00 -0.39279606866E+00  0.25898823499E+00  0.11477907822E+01  0.93800000000E+00 0. -1.
         22    1    1    2    0    0 -0.17486242998E+00  0.14862219623E+00  0.14009595463E+01  0.14196313173E+01  0.00000000000E+00 0. -1.
</event>
<event>
 5    1  0.1461556E+002  0.1509827E+01  0.7818608E-02  0.3457452E+00
         11   -1    0    0    0    0  0.00000000000E+00  0.00000000000E+00  0.39999999674E+01  0.40000000000E+01  0.51100000000E-03 0.  1.
    9000002   -1    0    0    0    0 -0.00000000000E+00 -0.00000000000E+00  0.00000000000E+00  0.93800000000E+00  0.93800000000E+00 0.  1.
         11    1    1    2    0    0 -0.17764551593E-01 -0.15347591759E+00  0.17629919692E+00  0.23441865226E+00  0.51100000000E-03 0.  1.
    9000002    1    1    2    0    0 -0.61635379732E-01 -0.99677950634E-01  0.78010270038E-01  0.94850630789E+00  0.93800000000E+00 0.  1.
         22    1    1    2    0    0  0.79399931325E-01  0.25315386822E+00  0.37456905004E+01  0.37550750398E+01  0.00000000000E+00 0.  1.
</event>
<event>
 5    1  0.1461556E+002  0.1521122E+01  0.7818608E-02  0.3443692E+00
         11   -1    0    0    0    0  0.00000000000E+00  0.00000000000E+00  0.39999999674E+01  0.40000000000E+01  0.51100000000E-03 0.  1.
    9000002   -1    0    0    0    0 -0.00000000000E+00 -0.00000000000E+00  0.00000000000E+00  0.93800000000E+00  0.93800000000E+00 0. -1.
         11    1    1    2    0    0 -0.26725769456E+00 -0.15151912457E+00  0.16671272462E+00  0.34953986050E+00  0.51100000000E-03 0.  1.
    9000002    1    1    2    0    0 -0.57931544872E-01  0.55950856247E+00  0.47931192722E+00  0.11941481562E+01  0.93800000000E+00 0. -1.
         22    1    1    2    0    0  0.32518923943E+00 -0.40798943790E+00  0.33539753155E+01  0.33943119833E+01  0.00000000000E+00 0.  1.
</event>
<event>
 5    1  0.1461556E+002  0.1599233E+01  0.7818608E-02  0.3354197E+00
         11   -1    0    0    0    0  0.00000000000E+00  0.00000000000E+00  0.39999999674E+01  0.40000000000E+01  0.51100000000E-03 0.  1.
    9000002   -1    0    0    0    0 -0.00000000000E+00 -0.00000000000E+00  0.00000000000E+00  0.93800000000E+00  0.93800000000E+00 0. -1.
         11    1    1    2    0    0  0.70332214496E-01 -0.37217991944E-01  0.81278715622E+00  0.81667314255E+00  0.51100000000E-03 0.  1.
    9000002    1    1    2    0    0 -0.24539607626E+00  0.15261362878E+00  0.56000655984E-01  0.98310234839E+00  0.93800000000E+00 0. -1.
         22    1    1    2    0    0  0.17506386177E+00 -0.11539563684E+00  0.31312121552E+01  0.31382245091E+01  0.00000000000E+00 0.  1.
</event>
<event>
 5    1  0.1461556E+002  0.1599166E+01  0.7818608E-02  0.3354269E+00
         11   -1    0    0    0    0  0.00000000000E+00  0.00000000000E+00  0.39999999674E+01  0.40000000000E+01  0.51100000000E-03 0. -1.
    9000002   -1    0    0    0    0 -0.00000000000E+00 -0.00000000000E+00  0.00000000000E+00  0.93800000000E+00  0.93800000000E+00 0. -1.
         11    1    1    2    0    0  0.28112508237E-01  0.92247281478E-02  0.43889212281E+00  0.43988858284E+00  0.51100000000E-03 0. -1.
    9000002    1    1    2    0    0 -0.15688968119E+00 -0.20314227042E+00  0.44178819083E-01  0.97348699126E+00  0.93800000000E+00 0. -1.
         22    1    1    2    0    0  0.12877717295E+00  0.19391754227E+00  0.35169290255E+01  0.35246244259E+01  0.00000000000E+00 0. -1.
</event>
<event>
 5    1  0.1461556E+002  0.1599674E+01  0.7818608E-02  0.3353718E+00
         11   -1    0    0    0    0  0.00000000000E+00  0.00000000000E+00  0.39999999674E+01  0.40000000000E+01  0.51100000000E-03 0.  1.
    9000002   -1    0    0    0    0 -0.00000000000E+00 -0.00000000000E+00  0.00000000000E+00  0.93800000000E+00  0.93800000000E+00 0. -1.
         11    1    1    2    0    0 -0.60242265717E-01 -0.98872435185E-01  0.14501303092E+01  0.14547450168E+01  0.51100000000E-03 0.  1.
    9000002    1    1    2    0    0  0.16134952961E+00  0.27355592955E+00  0.67405757859E-01  0.99259964411E+00  0.93800000000E+00 0. -1.
         22    1    1    2    0    0 -0.10110726389E+00 -0.17468349437E+00  0.24824639003E+01  0.24906553391E+01  0.00000000000E+00 0.  1.
</event>
<event>
 5    1  0.1461556E+002  0.1599671E+01  0.7818608E-02  0.3353721E+00
         11   -1    0    0    0    0  0.00000000000E+00  0.00000000000E+00  0.39999999674E+01  0.40000000000E+01  0.51100000000E-03 0. -1.
    9000002   -1    0    0    0    0 -0.00000000000E+00 -0.00000000000E+00  0.00000000000E+00  0.93800000000E+00  0.93800000000E+00 0. -1.
         11    1    1    2    0    0  0.67823825028E-03 -0.13627741927E-02  0.28803630436E-01  0.28848351910E-01  0.51100000000E-03 0.  1.
    9000002    1    1    2    0    0 -0.96900676329E-01  0.18361311979E+00  0.28553298896E-01  0.96112580327E+00  0.93800000000E+00 0. -1.
         22    1    1    2    0    0  0.96222438079E-01 -0.18225034560E+00  0.39426430380E+01  0.39480258448E+01  0.00000000000E+00 0. -1.
</event>
<event>
 5    1  0.1461556E+002  0.1596565E+01  0.7818608E-02  0.3357100E+00
         11   -1    0    0    0    0  0.00000000000E+00  0.00000000000E+00  0.39999999674E+01  0.40000000000E+01  0.51100000000E-03 0.  1.
    9000002   -1    0    0    0    0 -0.00000000000E+00 -0.00000000000E+00  0.00000000000E+00  0.93800000000E+00  0.93800000000E+00 0.  1.
         11    1    1    2    0    0  0.98358635614E-02 -0.38099098610E-01  0.68739798473E+00  0.68852344627E+00  0.51100000000E-03 0.  1.
    9000002    1    1    2    0    0 -0.31314882309E+00  0.79793352200E-01  0.72293419157E-01  0.99473589606E+00  0.93800000000E+00 0.  1.
         22    1    1    2    0    0  0.30331295953E+00 -0.41694253590E-01  0.32403085635E+01  0.32547406577E+01  0.00000000000E+00 0.  1.
</event>
<event>
 5    1  0.1461556E+002  0.1599675E+01  0.7818608E-02  0.3353716E+00
         11   -1    0    0    0    0  0.00000000000E+00  0.00000000000E+00  0.39999999674E+01  0.40000000000E+01  0.51100000000E-03 0.  1.
    9000002   -1    0    0    0    0 -0.00000000000E+00 -0.00000000000E+00  0.00000000000E+00  0.93800000000E+00  0.93800000000E+00 0.  1.
         11    1    1    2    0    0 -0.62830064158E-01 -0.48012624815E-01  0.58796283490E+00  0.59325659326E+00  0.51100000000E-03 0.  1.
    9000002    1    1    2    0    0  0.40956545007E+00  0.30417748356E+00  0.17847808814E+00  0.10825738900E+01  0.93800000000E+00 0.  1.
         22    1    1    2    0    0 -0.34673538592E+00 -0.25616485874E+00  0.32335590443E+01  0.32621695167E+01  0.00000000000E+00 0.  1.
</event>
<event>
 5    1  0.1461556E+002  0.1599626E+01  0.7818608E-02  0.3353769E+00
         11   -1    0    0    0    0  0.00000000000E+00  0.00000000000E+00  0.39999999674E+01  0.40000000000E+01  0.51100000000E-03 0. -1.
    9000002   -1    0    0    0    0 -0.00000000000E+00 -0.00000000000E+00  0.00000000000E+00  0.93800000000E+00  0.93800000000E+00 0.  1.
         11    1    1    2    0    0 -0.15384216249E-02 -0.90044447287E-01  0.98229422028E+00  0.98641399298E+00  0.51100000000E-03 0. -1.
    9000002    1    1    2    0    0  0.97551185110E-03  0.38673877324E+00  0.10076030187E+00  0.10195903436E+01  0.93800000000E+00 0.  1.
         22    1    1    2    0    0  0.56290977382E-03 -0.29669432596E+00  0.29169454452E+01  0.29319956634E+01  0.00000000000E+00 0. -1.
</event>
<event>
 5    1  0.1461556E+002  0.1599674E+01  0.7818608E-02  0.3353717E+00
         11   -1    0    0    0    0  0.00000000000E+00  0.00000000000E+00  0.39999999674E+01  0.40000000000E+01  0.51100000000E-03 0.  1.
    9000002   -1    0    0    0    0 -0.00000000000E+00 -0.00000000000E+00  0.00000000000E+00  0.93800000000E+00  0.93800000000E+00 0.  1.
         11    1    1    2    0    0  0.92124032735E-01  0.12239515029E+00  0.86666331223E+00  0.88009827184E+00  0.51100000000E-03 0.  1.
    9000002    1    1    2    0    0 -0.39089387338E+00 -0.51623902498E+00  0.29570766644E+00  0.11775346174E+01  0.93800000000E+00 0.  1.
         22    1    1    2    0    0  0.29876984065E+00  0.39384387469E+00  0.28376289887E+01  0.28803671108E+01  0.00000000000E+00 0.  1.
</event>
<event>
 5    1  0.1461556E+002  0.1599478E+01  0.7818608E-02  0.3353930E+00
         11   -1    0    0    0    0  0.00000000000E+00  0.00000000000E+00  0.39999999674E+01  0.40000000000E+01  0.51100000000E-03 0.  1.
    9000002   -1    0    0    0    0 -0.00000000000E+00 -0.00000000000E+00  0.00000000000E+00  0.93800000000E+00  0.93800000000E+00 0. -1.
         11    1    1    2    0    0  0.13465258339E+00 -0.62567166210E+00  0.22046022157E+01  0.22956192057E+01  0.51100000000E-03 0.  1.
    9000002    1    1    2    0    0 -0.18204426303E+00  0.92436341546E+00  0.69294979363E+00  0.14992035399E+01  0.93800000000E+00 0. -1.
         22    1    1    2    0    0  0.47391679645E-01 -0.29869175336E+00  0.11024479580E+01  0.11431772544E+01  0.00000000000E+00 0. -1.
</event>
<event>
 5    1  0.1461556E+002  0.1599677E+01  0.7818608E-02  0.3353715E+00
         11   -1    0    0    0    0  0.00000000000E+00  0.00000000000E+00  0.39999999674E+01  0.40000000000E+01  0.51100000000E-03 0. -1.
    9000002   -1    0    0    0    0 -0.00000000000E+00 -0.00000000000E+00  0.00000000000E+00  0.93800000000E+00  0.93800000000E+00 0. -1.
         11    1    1    2    0    0  0.69066697692E-01 -0.16578219131E+00  0.14029537441E+01  0.14144021397E+01  0.51100000000E-03 0. -1.
    9000002    1    1    2    0    0 -0.19092164854E+00  0.45287083375E+00  0.16511611143E+00  0.10717510897E+01  0.93800000000E+00 0. -1.
         22    1    1    2    0    0  0.12185495085E+00 -0.28708864244E+00  0.24319301118E+01  0.24518467706E+01  0.00000000000E+00 0.  1.
</event>
<event>
 5    1  0.1461556E+002  0.1599645E+01  0.7818608E-02  0.3353749E+00
         11   -1    0    0    0    0  0.00000000000E+00  0.00000000000E+00  0.39999999674E+01  0.40000000000E+01  0.51100000000E-03 0.  1.
    9000002   -1    0    0    0    0 -0.00000000000E+00 -0.00000000000E+00  0.00000000000E+00  0.93800000000E+00  0.93800000000E+00 0. -1.
         11    1    1    2    0    0 -0.55637303099E-01  0.10307121473E+00  0.12125923066E+01  0.12182362447E+01  0.51100000000E-03 0.  1.
    9000002    1    1    2    0    0  0.16290018715E+00 -0.32062826258E+00  0.86843031997E-01  0.10083276580E+01  0.93800000000E+00 0. -1.
         22    1    1    2    0    0 -0.10726288405E+00  0.21755704784E+00  0.27005646288E+01  0.27114360973E+01  0.00000000000E+00 0.  1.
</event>
<event>
 5    1  0.1461556E+002  0.1529275E+01  0.7818608E-02  0.3433894E+00
         11   -1    0    0    0    0  0.00000000000E+00  0.00000000000E+00  0.39999999674E+01  0.40000000000E+01  0.51100000000E-03 0. -1.
    9000002   -1    0    0    0    0 -0.00000000000E+00 -0.00000000000E+00  0.00000000000E+00  0.93800000000E+00  0.93800000000E+00 0.  1.
         11    1    1    2    0    0 -0.20953861053E+00 -0.23870941361E+00  0.19177367824E+01  0.19438629687E+01  0.51100000000E-03 0. -1.
    9000002    1    1    2    0    0  0.52559194954E+00 -0.14623640644E+00  0.27489197559E+00  0.11193933992E+01  0.93800000000E+00 0.  1.
         22    1    1    2    0    0 -0.31605333902E+00  0.38494582005E+00  0.18073712093E+01  0.18747436320E+01  0.00000000000E+00 0.  1.
</event>
<event>
 5    1  0.1461556E+002  0.1599436E+01  0.7818608E-02  0.3353976E+00
         11   -1    0    0    0    0  0.00000000000E+00  0.00000000000E+00  0.39999999674E+01  0.40000000000E+01  0.51100000000E-03 0.  1.
    9000002   -1    0    0    0    0 -0.00000000000E+00 -0.00000000000E+00  0.00000000000E+00  0.93800000000E+00  0.93800000000E+00 0.  1.
         11    1    1    2    0    0  0.69447127432E-01 -0.64575338920E-02  0.89821827915E+00  0.90092227266E+00  0.51100000000E-03 0.  1.
    9000002    1    1    2    0    0 -0.36413722212E+00  0.57772845351E-01  0.91535378411E-01  0.10120060986E+01  0.93800000000E+00 0.  1.
         22    1    1    2    0    0  0.29469009468E+00 -0.51315311459E-01  0.30102463098E+01  0.30250716287E+01  0.00000000000E+00 0.  1.
</event>
<event>
 5    1  0.1461556E+002  0.1599512E+01  0.7818608E-02  0.3353894E+00
         11   -1    0    0    0    0  0.00000000000E+00  0.00000000000E+00  0.39999999674E+01  0.40000000000E+01  0.51100000000E-03 0.  1.
    9000002   -1    0    0    0    0 -0.00000000000E+00 -0.00000000000E+00  0.00000000000E+00  0.93800000000E+00  0.93800000000E+00 0.  1.
         11    1    1    2    0    0 -0.87152044301E-01 -0.31422922694E+00  0.22236477447E+01  0.22474307641E+01  0.51100000000E-03 0.  1.
    9000002    1    1    2    0    0  0.15681624147E+00  0.51223279827E+00  0.19783868561E+00  0.10981611534E+01  0.93800000000E+00 0.  1.
         22    1    1    2    0    0 -0.69664197170E-01 -0.19800357133E+00  0.15785135370E+01  0.15924080825E+01  0.00000000000E+00 0. -1.
</event>
<event>
 5    1  0.1461556E+002  0.1597453E+01  0.7818608E-02  0.3356132E+00
         11   -1    0    0    0    0  0.00000000000E+00  0.00000000000E+00  0.39999999674E+01  0.40000000000E+01  0.51100000000E-03 0. -1.
    9000002   -1    0    0    0    0 -0.00000000000E+00 -0.00000000000E+00  0.00000000000E+00  0.93800000000E+00  0.93800000000E+00 0. -1.
         11    1    1    2    0    0 -0.21447873354E-01  0.11106254804E-01  0.17221765186E+00  0.17390382658E+00  0.51100000000E-03 0. -1.
    9000002    1    1    2    0    0  0.14769375533E+00  0.14986896983E+00  0.31004018573E-01  0.96181048167E+00  0.93800000000E+00 0. -1.
         22    1    1    2    0    0 -0.12624588197E+00 -0.16097522463E+00  0.37967782969E+01  0.38022856918E+01  0.00000000000E+00 0. -1.
</event>
<event>
 5    1  0.1461556E+002  0.1594068E+01  0.7818608E-02  0.3359827E+00
         11   -1    0    0    0    0  0.00000000000E+00  0.00000000000E+00  0.39999999674E+01  0.40000000000E+01  0.51100000000E-03 0.  1.
    9000002   -1    0    0    0    0 -0.00000000000E+00 -0.00000000000E+00  0.00000000000E+00  0.93800000000E+00  0.93800000000E+00 0. -1.
         11    1    1    2    0    0  0.71713551200E-01  0.11143816516E-01  0.50156147549E+00  0.50678515457E+00  0.51100000000E-03 0.  1.
    9000002    1    1    2    0    0 -0.19559279432E+00  0.20924446495E+00  0.59034895909E-01  0.98253188561E+00  0.93800000000E+00 0. -1.
         22    1    1    2    0    0  0.12387924312E+00 -0.22038828146E+00  0.34394035960E+01  0.34486829598E+01  0.00000000000E+00 0.  1.
</event>
<event>
 5    1  0.1461556E+002  0.1596247E+01  0.7818608E-02  0.3357446E+00
         11   -1    0    0    0    0  0.00000000000E+00  0.00000000000E+00  0.39999999674E+01  0.40000000000E+01  0.51100000000E-03 0. -1.
    9000002   -1    0    0    0    0 -0.00000000000E+00 -0.00000000000E+00  0.00000000000E+00  0.93800000000E+00  0.93800000000E+00 0. -1.
         11    1    1    2    0    0  0.24188875985E-01 -0.80590941082E-01  0.45420760317E+00  0.46193593647E+00  0.51100000000E-03 0. -1.
    9000002    1    1    2    0    0 -0.41347536249E-02  0.35960392483E+00  0.89595130501E-01  0.10085650035E+01  0.93800000000E+00 0. -1.
         22    1    1    2    0    0 -0.20054122360E-01 -0.27901298374E+00  0.34561972337E+01  0.34674990600E+01  0.00000000000E+00 0. -1.
</event>
<event>
 5    1  0.1461556E+002  0.1561818E+01  0.7818608E-02  0.3395876E+00
         11   -1    0    0    0    0  0.00000000000E+00  0.00000000000E+00  0.39999999674E+01  0.40000000000E+01  0.51100000000E-03 0.  1.
    9000002   -1    0    0    0    0 -0.00000000000E+00 -0.00000000000E+00  0.00000000000E+00  0.93800000000E+00  0.93800000000E+00 0. -1.
         11    1    1    2    0    0  0.85964557363E-01  0.32373624073E-01  0.16242420031E+00  0.18660074658E+00  0.51100000000E-03 0.  1.
    9000002    1    1    2    0    0  0.26865879147E-01  0.18181149117E+00  0.51108226449E-01  0.95720073370E+00  0.93800000000E+00 0. -1.
         22    1    1    2    0    0 -0.11283043651E+00 -0.21418511525E+00  0.37864675406E+01  0.37941985197E+01  0.00000000000E+00 0.  1.
</event>
<event>
 5    1  0.1461556E+002  0.1599438E+01  0.7818608E-02  0.3353973E+00
         11   -1    0    0    0    0  0.00000000000E+00  0.00000000000E+00  0.39999999674E+01  0.40000000000E+01  0.51100000000E-03 0. -1.
    9000002   -1    0    0    0    0 -0.00000000000E+00 -0.00000000000E+00  0.00000000000E+00  0.93800000000E+00  0.93800000000E+00 0. -1.
         11    1    1    2    0    0  0.59961664782E-01 -0.33551572628E-01  0.31812336929E+00  0.32545944214E+00  0.51100000000E-03 0. -1.
    9000002    1    1    2    0    0 -0.57727477066E+00  0.44028901432E+00  0.37970904314E+00  0.12454411003E+01  0.93800000000E+00 0. -1.
         22    1    1    2    0    0  0.51731310588E+00 -0.40673744169E+00  0.33021675549E+01  0.33670994575E+01  0.00000000000E+00 0. -1.
</event>
<event>
 5    1  0.1461556E+002  0.1574127E+01  0.7818608E-02  0.3381933E+00
         11   -1    0    0    0    0  0.00000000000E+00  0.00000000000E+00  0.39999999674E+01  0.40000000000E+01  0.51100000000E-03 0.  1.
    9000002   -1    0    0    0    0 -0.00000000000E+00 -0.00000000000E+00  0.00000000000E+00  0.93800000000E+00  0.93800000000E+00 0.  1.
         11    1    1    2    0    0  0.21680009419E-01  0.11980328327E+00  0.13787481759E+01  0.13841133057E+01  0.51100000000E-03 0.  1.
    9000002    1    1    2    0    0 -0.37505739037E-01  0.18165940547E+00  0.42060734609E-01  0.95708929858E+00  0.93800000000E+00 0.  1.
         22    1    1    2    0    0  0.15825729618E-01 -0.30146268874E+00  0.25791910569E+01  0.25967973957E+01  0.00000000000E+00 0.  1.
</event>
<event>
 5    1  0.1461556E+002  0.1564327E+01  0.7818608E-02  0.3393016E+00
         11   -1    0    0    0    0  0.00000000000E+00  0.00000000000E+00  0.39999999674E+01  0.40000000000E+01  0.51100000000E-03 0. -1.
    9000002   -1    0    0    0    0 -0.00000000000E+00 -0.00000000000E+00  0.00000000000E+00  0.93800000000E+00  0.93800000000E+00 0.  1.
         11    1    1    2    0    0 -0.18057081965E+00 -0.63035266907E-01  0.16665597858E+01  0.16774984491E+01  0.51100000000E-03 0. -1.
    9000002    1    1    2    0    0 -0.48850515043E-01 -0.81148950098E-01  0.32154693525E-01  0.94331831809E+00  0.93800000000E+00 0.  1.
         22    1    1    2    0    0  0.22942133469E+00  0.14418421701E+00  0.23012854880E+01  0.23171832328E+01  0.00000000000E+00 0. -1.
</event>
<event>
 5    1  0.1461556E+002  0.1599639E+01  0.7818608E-02  0.3353755E+00
         11   -1    0    0    0    0  0.00000000000E+00  0.00000000000E+00  0.39999999674E+01  0.40000000000E+01  0.51100000000E-03 0.  1.
    9000002   -1    0    0    0    0 -0.00000000000E+00 -0.00000000000E+00  0.00000000000E+00  0.93800000000E+00  0.93800000000E+00 0.  1.
         11    1    1    2    0    0 -0.34812110705E-02  0.76287865702E-01  0.10212301461E+01  0.10240816519E+01  0.51100000000E-03 0.  1.
    9000002    1    1    2    0    0  0.37943856587E-01 -0.29881651001E+00  0.60564078668E-01  0.98703751222E+00  0.93800000000E+00 0.  1.
         22    1    1    2    0    0 -0.34462645516E-01  0.22252864431E+00  0.29182057426E+01  0.29268808359E+01  0.00000000000E+00 0.  1.
</event>
<event>
 5    1  0.1461556E+002  0.1599673E+01  0.7818608E-02  0.3353718E+00
         11   -1    0    0    0    0  0.00000000000E+00  0.00000000000E+00  0.39999999674E+01  0.40000000000E+01  0.51100000000E-03 0. -1.
    9000002   -1    0    0    0    0 -0.00000000000E+00 -0.00000000000E+00  0.00000000000E+00  0.93800000000E+00  0.93800000000E+00 0.  1.
         11    1    1    2    0    0 -0.19914627859E+00  0.52718291179E-01  0.18924101562E+01  0.19035900081E+01  0.51100000000E-03 0. -1.
    9000002    1    1    2    0    0  0.40709313013E+00 -0.11275547285E+00  0.12072185226E+00  0.10357878059E+01  0.93800000000E+00 0.  1.
         22    1    1    2    0    0 -0.20794685154E+00  0.60037181669E-01  0.19868679589E+01  0.19986221860E+01  0.00000000000E+00 0. -1.
</event>
<event>
 5    1  0.1461556E+002  0.1599645E+01  0.7818608E-02  0.3353748E+00
         11   -1    0    0    0    0  0.00000000000E+00  0.00000000000E+00  0.39999999674E+01  0.40000000000E+01  0.51100000000E-03 0. -1.
    9000002   -1    0    0    0    0 -0.00000000000E+00 -0.00000000000E+00  0.00000000000E+00  0.93800000000E+00  0.93800000000E+00 0.  1.
         11    1    1    2    0    0  0.28141166571E+00  0.96738849249E-02  0.14127279228E+01  0.14405160723E+01  0.51100000000E-03 0. -1.
    9000002    1    1    2    0    0 -0.71073504427E+00 -0.14708100978E-01  0.36227718399E+00  0.12314419960E+01  0.93800000000E+00 0.  1.
         22    1    1    2    0    0  0.42932337856E+00  0.50342160528E-02  0.22249948606E+01  0.22660419317E+01  0.00000000000E+00 0.  1.
</event>
<event>
 5    1  0.1461556E+002  0.1594111E+01  0.7818608E-02  0.3359780E+00
         11   -1    0    0    0    0  0.00000000000E+00  0.00000000000E+00  0.39999999674E+01  0.40000000000E+01  0.51100000000E-03 0.  1.
    9000002   -1    0    0    0    0 -0.00000000000E+00 -0.00000000000E+00  0.00000000000E+00  0.93800000000E+00  0.93800000000E+00 0.  1.
         11    1    1    2    0    0 -0.50028346963E-01 -0.71150100849E-01  0.35911446482E+00  0.36949781098E+00  0.51100000000E-03 0.  1.
    9000002    1    1    2    0    0  0.20274311275E+00  0.31462200747E+00  0.98759983923E-01  0.10147360799E+01  0.93800000000E+00 0.  1.
         22    1    1    2    0    0 -0.15271476579E+00 -0.24347190662E+00  0.35421255186E+01  0.35537661092E+01  0.00000000000E+00 0.  1.
</event>
<event>
 5    1  0.1461556E+002  0.1599674E+01  0.7818608E-02  0.3353717E+00
         11   -1    0    0    0    0  0.00000000000E+00  0.00000000000E+00  0.39999999674E+01  0.40000000000E+01  0.51100000000E-03 0.  1.
    9000002   -1    0    0    0    0 -0.00000000000E+00 -0.00000000000E+00  0.00000000000E+00  0.93800000000E+00  0.93800000000E+00 0. -1.
         11    1    1    2    0    0 -0.17482291644E-01  0.30033402117E-01  0.49353826268E+00  0.49476046084E+00  0.51100000000E-03 0.  1.
    9000002    1    1    2    0    0  0.13475169302E+00 -0.23113617159E+00  0.47619875475E-01  0.97657237373E+00  0.93800000000E+00 0. -1.
         22    1    1    2    0    0 -0.11726940138E+00  0.20110276948E+00  0.34588418292E+01  0.34666671654E+01  0.00000000000E+00 0.  1.
</event>
<event>
 5    1  0.1461556E+002  0.1523238E+01  0.7818608E-02  0.3441138E+00
         11   -1    0    0    0    0  0.00000000000E+00  0.00000000000E+00  0.39999999674E+01  0.40000000000E+01  0.51100000000E-03 0. -1.
    9000002   -1    0    0    0    0 -0.00000000000E+00 -0.00000000000E+00  0.00000000000E+00  0.93800000000E+00  0.93800000000E+00 0. -1.
         11    1    1    2    0    0 -0.23518281010E+00  0.15340379704E+00  0.23875833966E+01  0.24040379397E+01  0.51100000000E-03 0. -1.
    9000002    1    1    2    0    0 -0.66102292900E-01  0.33723879848E-01  0.61422543760E-01  0.94293347702E+00  0.93800000000E+00 0. -1.
         22    1    1    2    0    0  0.30128510300E+00 -0.18712767689E+00  0.15509940270E+01  0.15910285832E+01  0.00000000000E+00 0. -1.
</event>
<event>
 5    1  0.1461556E+002  0.1599662E+01  0.7818608E-02  0.3353730E+00
         11   -1    0    0    0    0  0.00000000000E+00  0.00000000000E+00  0.39999999674E+01  0.40000000000E+01  0.51100000000E-03 0. -1.
    9000002   -1    0    0    0    0 -0.00000000000E+00 -0.00000000000E+00  0.00000000000E+00  0.93800000000E+00  0.93800000000E+00 0. -1.
         11    1    1    2    0    0  0.20274777252E-01 -0.69140884716E-01  0.10079674236E+01  0.10105395177E+01  0.51100000000E-03 0. -1.
    9000002    1    1    2    0    0 -0.91233679010E-01  0.26058585535E+00  0.50756080913E-01  0.97910609841E+00  0.93800000000E+00 0. -1.
         22    1    1    2    0    0  0.70958901758E-01 -0.19144497063E+00  0.29412764628E+01  0.29483543839E+01  0.00000000000E+00 0. -1.
</event>
<event>
 5    1  0.1461556E+002  0.1598824E+01  0.7818608E-02  0.3354641E+00
         11   -1    0    0    0    0  0.00000000000E+00  0.00000000000E+00  0.39999999674E+01  0.40000000000E+01  0.51100000000E-03 0. -1.
    9000002   -1    0    0    0    0 -0.00000000000E+00 -0.00000000000E+00  0.00000000000E+00  0.93800000000E+00  0.93800000000E+00 0. -1.
         11    1    1    2    0    0 -0.11514682540E+00 -0.69555604515E-01  0.99614526513E+00  0.10051877555E+01  0.51100000000E-03 0. -1.
    9000002    1    1    2    0    0  0.33305322203E+00  0.30790896005E+00  0.14054350983E+00  0.10513462106E+01  0.93800000000E+00 0. -1.
         22    1    1    2    0    0 -0.21790639662E+00 -0.23835335554E+00  0.28633111924E+01  0.28814660339E+01  0.00000000000E+00 0. -1.
</event>
<event>
 5    1  0.1461556E+002  0.1599659E+01  0.7818608E-02  0.3353733E+00
         11   -1    0    0    0    0  0.00000000000E+00  0.00000000000E+00  0.39999999674E+01  0.40000000000E+01  0.51100000000E-03 0.  1.
    9000002   -1    0    0    0    0 -0.00000000000E+00 -0.00000000000E+00  0.00000000000E+00  0.93800000000E+00  0.93800000000E+00 0.  1.
         11    1    1    2    0    0 -0.73078957855E-01  0.36397644280E+00  0.21071995110E+01  0.21396517065E+01  0.51100000000E-03 0.  1.
    9000002    1    1    2    0    0  0.13151347695E+00 -0.64601496249E+00  0.30740548199E+00  0.11870017931E+01  0.93800000000E+00 0.  1.
         22    1    1    2    0    0 -0.58434519093E-01  0.28203851969E+00  0.15853949744E+01  0.16113465004E+01  0.00000000000E+00 0.  1.
</event>
<event>
 5    1  0.1461556E+002  0.1596814E+01  0.7818608E-02  0.3356828E+00
         11   -1    0    0    0    0  0.00000000000E+00  0.00000000000E+00  0.39999999674E+01  0.40000000000E+01  0.51100000000E-03 0.  1.
    9000002   -1    0    0    0    0 -0.00000000000E+00 -0.00000000000E+00  0.00000000000E+00  0.93800000000E+00  0.93800000000E+00 0.  1.
         11    1    1    2    0    0  0.29429888290E-01  0.44543580106E-01  0.42848951522E+00  0.43180293495E+00  0.51100000000E-03 0.  1.
    9000002    1    1    2    0    0  0.64238938562E-01 -0.25577499065E+00  0.48454108331E-01  0.97557126223E+00  0.93800000000E+00 0.  1.
         22    1    1    2    0    0 -0.93668826852E-01  0.21123141055E+00  0.35230563438E+01  0.35306258028E+01  0.00000000000E+00 0.  1.
</event>
<event>
 5    1  0.1461556E+002  0.1599418E+01  0.7818608E-02  0.3353996E+00
         11   -1    0    0    0    0  0.00000000000E+00  0.00000000000E+00  0.39999999674E+01  0.40000000000E+01  0.51100000000E-03 0. -1.
    9000002   -1    0    0    0    0 -0.00000000000E+00 -0.00000000000E+00  0.00000000000E+00  0.93800000000E+00  0.93800000000E+00 0.  1.
         11    1    1    2    0    0 -0.42589438432E-01  0.85424729182E-02  0.49561124330E+00  0.49751140661E+00  0.51100000000E-03 0. -1.
    9000002    1    1    2    0    0  0.25288613862E+00 -0.14059013460E-01  0.42822897389E-01  0.97253630035E+00  0.93800000000E+00 0.  1.
         22    1    1    2    0    0 -0.21029670019E+00  0.55165405416E-02  0.34615658267E+01  0.34679522930E+01  0.00000000000E+00 0. -1.
</event>
<event>
 5    1  0.1461556E+002  0.1598801E+01  0.7818608E-02  0.3354666E+00
         11   -1    0    0    0    0  0.00000000000E+00  0.00000000000E+00  0.39999999674E+01  0.40000000000E+01  0.51100000000E-03 0. -1.
    9000002   -1    0    0    0    0 -0.00000000000E+00 -0.00000000000E+00  0.00000000000E+00  0.93800000000E+00  0.93800000000E+00 0.  1.
         11    1    1    2    0    0 -0.14309073701E-01 -0.36026769164E-01  0.30145150386E+00  0.30393411784E+00  0.51100000000E-03 0. -1.
    9000002    1    1    2    0    0  0.11922761785E+00  0.23314325946E+00  0.46266893977E-01  0.97496442487E+00  0.93800000000E+00 0.  1.
         22    1    1    2    0    0 -0.10491854415E+00 -0.19711649029E+00  0.36522815695E+01  0.36591014573E+01  0.00000000000E+00 0. -1.
</event>
<event>
 5    1  0.1461556E+002  0.1556439E+01  0.7818608E-02  0.3402044E+00
         11   -1    0    0    0    0  0.00000000000E+00  0.00000000000E+00  0.39999999674E+01  0.40000000000E+01  0.51100000000E-03 0.  1.
    9000002   -1    0    0    0    0 -0.00000000000E+00 -0.00000000000E+00  0.00000000000E+00  0.93800000000E+00  0.93800000000E+00 0. -1.
         11    1    1    2    0    0 -0.26479621915E+00  0.10532791404E+00  0.22859146893E+01  0.23036096099E+01  0.51100000000E-03 0.  1.
    9000002    1    1    2    0    0  0.55041061215E-01 -0.39519396935E-01  0.35125928282E-01  0.94109995855E+00  0.93800000000E+00 0. -1.
         22    1    1    2    0    0  0.20975515793E+00 -0.65808517110E-01  0.16789593498E+01  0.16932904315E+01  0.00000000000E+00 0.  1.
</event>
<event>
 5    1  0.1461556E+002  0.1599566E+01  0.7818608E-02  0.3353834E+00
         11   -1    0    0    0    0  0.00000000000E+00  0.00000000000E+00  0.39999999674E+01  0.40000000000E+01  0.51100000000E-03 0.  1.
    9000002   -1    0    0    0    0 -0.00000000000E+00 -0.00000000000E+00  0.00000000000E+00  0.93800000000E+00  0.93800000000E+00 0.  1.
         11    1    1    2    0    0  0.13008663669E+00 -0.27741575173E-01  0.14918957442E+01  0.14978135067E+01  0.51100000000E-03 0.  1.
    9000002    1    1    2    0    0 -0.35145643102E+00  0.42109880292E-01  0.84137981267E-01  0.10060904854E+01  0.93800000000E+00 0.  1.
         22    1    1    2    0    0  0.22136979433E+00 -0.14368305119E-01  0.24239662419E+01  0.24340960079E+01  0.00000000000E+00 0.  1.
</event>
<event>
 5    1  0.1461556E+002  0.1512588E+01  0.7818608E-02  0.3454068E+00
         11   -1    0    0    0    0  0.00000000000E+00  0.00000000000E+00  0.39999999674E+01  0.40000000000E+01  0.51100000000E-03 0. -1.
    9000002   -1    0    0    0    0 -0.00000000000E+00 -0.00000000000E+00  0.00000000000E+00  0.93800000000E+00  0.93800000000E+00 0. -1.
         11    1    1    2    0    0  0.21052780937E-01  0.23885185602E-01 -0.23185399103E-01  0.39389662717E-01  0.51100000000E-03 0. -1.
    9000002    1    1    2    0    0  0.44898646118E+00  0.12542916989E+00  0.22860288199E+00  0.10721122127E+01  0.93800000000E+00 0. -1.
         22    1    1    2    0    0 -0.47003924212E+00 -0.14931435550E+00  0.37945824845E+01  0.38264981246E+01  0.00000000000E+00 0. -1.
</event>
<event>
 5    1  0.1461556E+002  0.1562098E+01  0.7818608E-02  0.3395557E+00
         11   -1    0    0    0    0  0.00000000000E+00  0.00000000000E+00  0.39999999674E+01  0.40000000000E+01  0.51100000000E-03 0. -1.
    9000002   -1    0    0    0    0 -0.00000000000E+00 -0.00000000000E+00  0.00000000000E+00  0.93800000000E+00  0.93800000000E+00 0. -1.
         11    1    1    2    0    0  0.21971866292E+00 -0.71495772726E-01  0.25956584399E+01  0.26059222809E+01  0.51100000000E-03 0. -1.
    9000002    1    1    2    0    0 -0.84193694556E-02  0.19570918726E-01  0.28017089073E-01  0.93866014293E+00  0.93800000000E+00 0. -1.
         22    1    1    2    0    0 -0.21129929346E+00  0.51924854000E-01  0.13763244384E+01  0.13934175762E+01  0.00000000000E+00 0. -1.
</event>
<event>
 5    1  0.1461556E+002  0.1587003E+01  0.7818608E-02  0.3367592E+00
         11   -1    0    0    0    0  0.00000000000E+00  0.00000000000E+00  0.39999999674E+01  0.40000000000E+01  0.51100000000E-03 0. -1.
    9000002   -1    0    0    0    0 -0.00000000000E+00 -0.00000000000E+00  0.00000000000E+00  0.93800000000E+00  0.93800000000E+00 0. -1.
         11    1    1    2    0    0 -0.12137518719E+00  0.69325973420E-01  0.20451685310E+01  0.20499396596E+01  0.51100000000E-03 0. -1.
    9000002    1    1    2    0    0  0.21467681895E+00  0.12689906710E+00  0.51055919980E-01  0.97192603463E+00  0.93800000000E+00 0. -1.
         22    1    1    2    0    0 -0.93301631753E-01 -0.19622504052E+00  0.19037755164E+01  0.19161343058E+01  0.00000000000E+00 0. -1.
</event>
<event>
 5    1  0.1461556E+002  0.1599423E+01  0.7818608E-02  0.3353990E+00
         11   -1    0    0    0    0  0.00000000000E+00  0.00000000000E+00  0.39999999674E+01  0.40000000000E+01  0.51100000000E-03 0. -1.
    9000002   -1    0    0    0    0 -0.00000000000E+00 -0.00000000000E+00  0.00000000000E+00  0.93800000000E+00  0.93800000000E+00 0. -1.
         11    1    1    2    0    0 -0.12166210733E+00  0.23788154871E+00  0.20700267736E+01  0.20871991769E+01  0.51100000000E-03 0. -1.
    9000002    1    1    2    0    0  0.23015622146E+00 -0.40699052897E+00  0.14909536378E+00  0.10586248648E+01  0.93800000000E+00 0. -1.
         22    1    1    2    0    0 -0.10849411414E+00  0.16910898026E+00  0.17808778300E+01  0.17921759583E+01  0.00000000000E+00 0. -1.
</event>
<event>
 5    1  0.1461556E+002  0.1599352E+01  0.7818608E-02  0.3354067E+00
         11   -1    0    0    0    0  0.00000000000E+00  0.00000000000E+00  0.39999999674E+01  0.40000000000E+01  0.51100000000E-03 0.  1.
    9000002   -1    0    0    0    0 -0.00000000000E+00 -0.00000000000E+00  0.00000000000E+00  0.93800000000E+00  0.93800000000E+00 0.  1.
         11    1    1    2    0    0 -0.58775909603E-01  0.90680929625E-03  0.81217202335E+00  0.81429668211E+00  0.51100000000E-03 0.  1.
    9000002    1    1    2    0    0  0.36391098753E+00  0.21510838527E-01  0.89516914012E-01  0.10103223253E+01  0.93800000000E+00 0.  1.
         22    1    1    2    0    0 -0.30513507793E+00 -0.22417647823E-01  0.30983110300E+01  0.31133809926E+01  0.00000000000E+00 0.  1.
</event>
<event>
 5    1  0.1461556E+002  0.1593894E+01  0.7818608E-02  0.3360017E+00
         11   -1    0    0    0    0  0.00000000000E+00  0.00000000000E+00  0.39999999674E+01  0.40000000000E+01  0.51100000000E-03 0.  1.
    9000002   -1    0    0    0    0 -0.00000000000E+00 -0.00000000000E+00  0.00000000000E+00  0.93800000000E+00  0.93800000000E+00 0.  1.
         11    1    1    2    0    0  0.20714075394E-02  0.34197328401E+00  0.21395230902E+01  0.21666816408E+01  0.51100000000E-03 0.  1.
    9000002    1    1    2    0    0  0.15431621205E+00 -0.58828595280E+00  0.26435366008E+00  0.11487474540E+01  0.93800000000E+00 0.  1.
         22    1    1    2    0    0 -0.15638761959E+00  0.24631266879E+00  0.15961232170E+01  0.16225709052E+01  0.00000000000E+00 0.  1.
</event>
<event>
 5    1  0.1461556E+002  0.1599070E+01  0.7818608E-02  0.3354373E+00
         11   -1    0    0    0    0  0.00000000000E+00  0.00000000000E+00  0.39999999674E+01  0.40000000000E+01  0.51100000000E-03 0.  1.
    9000002   -1    0    0    0    0 -0.00000000000E+00 -0.00000000000E+00  0.00000000000E+00  0.93800000000E+00  0.93800000000E+00 0.  1.
         11    1    1    2    0    0  0.10441425745E+00  0.11506656448E+00  0.14866888469E+01  0.14947864864E+01  0.51100000000E-03 0.  1.
    9000002    1    1    2    0    0 -0.30504831070E+00 -0.36418585299E+00  0.15440406743E+00  0.10627184121E+01  0.93800000000E+00 0.  1.
         22    1    1    2    0    0  0.20063405326E+00  0.24911928851E+00  0.23589070531E+01  0.23804951015E+01  0.00000000000E+00 0.  1.
</event>
<event>
 5    1  0.1461556E+002  0.1596146E+01  0.7818608E-02  0.3357557E+00
         11   -1    0    0    0    0  0.00000000000E+00  0.00000000000E+00  0.39999999674E+01  0.40000000000E+01  0.51100000000E-03 0.  1.
    9000002   -1    0    0    0    0 -0.00000000000E+00 -0.00000000000E+00  0.00000000000E+00  0.93800000000E+00  0.93800000000E+00 0. -1.
         11    1    1    2    0    0 -0.13442258759E+00  0.72088815586E-01  0.12220845320E+01  0.12315669262E+01  0.51100000000E-03 0.  1.
    9000002    1    1    2    0    0  0.38629986208E+00 -0.42730597631E+00  0.23378819760E+00  0.11253083587E+01  0.93800000000E+00 0. -1.
         22    1    1    2    0    0 -0.25187727448E+00  0.35521716072E+00  0.25441272378E+01  0.25811247151E+01  0.00000000000E+00 0.  1.
</event>
<event>
 5    1  0.1461556E+002  0.1493146E+01  0.7818608E-02  0.3478184E+00
         11   -1    0    0    0    0  0.00000000000E+00  0.00000000000E+00  0.39999999674E+01  0.40000000000E+01  0.51100000000E-03 0.  1.
    9000002   -1    0    0    0    0 -0.00000000000E+00 -0.00000000000E+00  0.00000000000E+00  0.93800000000E+00  0.93800000000E+00 0.  1.
         11    1    1    2    0    0 -0.10894918917E+00 -0.30418186637E+00  0.16333314227E+01  0.16649829823E+01  0.51100000000E-03 0.  1.
    9000002    1    1    2    0    0 -0.76617163117E-01 -0.13552753757E+00  0.99346131543E-01  0.95600813646E+00  0.93800000000E+00 0.  1.
         22    1    1    2    0    0  0.18556635229E+00  0.43970940393E+00  0.22673224131E+01  0.23170088813E+01  0.00000000000E+00 0.  1.
</event>
<event>
 5    1  0.1461556E+002  0.1599668E+01  0.7818608E-02  0.3353724E+00
         11   -1    0    0    0    0  0.00000000000E+00  0.00000000000E+00  0.39999999674E+01  0.40000000000E+01  0.51100000000E-03 0. -1.
    9000002   -1    0    0    0    0 -0.00000000000E+00 -0.00000000000E+00  0.00000000000E+00  0.93800000000E+00  0.93800000000E+00 0. -1.
         11    1    1    2    0    0 -0.17667900440E+00  0.30263261328E+00  0.21539257122E+01  0.21822461374E+01  0.51100000000E-03 0. -1.
    9000002    1    1    2    0    0  0.30309551145E+00 -0.52159993378E+00  0.25410293940E+00  0.11438293945E+01  0.93800000000E+00 0. -1.
         22    1    1    2    0    0 -0.12641650704E+00  0.21896732049E+00  0.15919713157E+01  0.16119244681E+01  0.00000000000E+00 0. -1.
</event>
<event>
 5    1  0.1461556E+002  0.1599658E+01  0.7818608E-02  0.3353735E+00
         11   -1    0    0    0    0  0.00000000000E+00  0.00000000000E+00  0.39999999674E+01  0.40000000000E+01  0.51100000000E-03 0.  1.
    9000002   -1    0    0    0    0 -0.00000000000E+00 -0.00000000000E+00  0.00000000000E+00  0.93800000000E+00  0.93800000000E+00 0. -1.
         11    1    1    2    0    0  0.94247449937E-02 -0.27485321989E-01  0.28636001932E+00  0.28783083666E+00  0.51100000000E-03 0.  1.
    9000002    1    1    2    0    0 -0.16504945603E+00  0.37530811237E+00  0.11354914292E+00  0.10299684024E+01  0.93800000000E+00 0. -1.
         22    1    1    2    0    0  0.15562471104E+00 -0.34782279038E+00  0.36000908051E+01  0.36202007609E+01  0.00000000000E+00 0.  1.
</event>
<event>
 5    1  0.1461556E+002  0.1599676E+01  0.7818608E-02  0.3353715E+00
         11   -1    0    0    0    0  0.00000000000E+00  0.00000000000E+00  0.39999999674E+01  0.40000000000E+01  0.51100000000E-03 0.  1.
    9000002   -1    0    0    0    0 -0.00000000000E+00 -0.00000000000E+00  0.00000000000E+00  0.93800000000E+00  0.93800000000E+00 0. -1.
         11    1    1    2    0    0 -0.19630822505E+00  0.41218724909E-01  0.13827084115E+01  0.13971824201E+01  0.51100000000E-03 0.  1.
    9000002    1    1    2    0    0  0.53808441840E+00 -0.11536439288E+00  0.20918740482E+00  0.11074507460E+01  0.93800000000E+00 0. -1.
         22    1    1    2    0    0 -0.34177619335E+00  0.74145667972E-01  0.24081041510E+01  0.24333668339E+01  0.00000000000E+00 0.  1.
</event>
<event>
 5    1  0.1461556E+002  0.1549784E+01  0.7818608E-02  0.3409737E+00
         11   -1    0    0    0    0  0.00000000000E+00  0.00000000000E+00  0.39999999674E+01  0.40000000000E+01  0.51100000000E-03 0. -1.
    9000002   -1    0    0    0    0 -0.00000000000E+00 -0.00000000000E+00  0.00000000000E+00  0.93800000000E+00  0.93800000000E+00 0. -1.
         11    1    1    2    0    0 -0.45119514396E-01 -0.24715156766E+00  0.22402507797E+01  0.22542944539E+01  0.51100000000E-03 0. -1.
    9000002    1    1    2    0    0  0.23594636349E+00 -0.62988454181E-02  0.75882819590E-01  0.97021263865E+00  0.93800000000E+00 0. -1.
         22    1    1    2    0    0 -0.19082684909E+00  0.25345041308E+00  0.16838663681E+01  0.17134929074E+01  0.00000000000E+00 0.  1.
</event>
<event>
 5    1  0.1461556E+002  0.1599465E+01  0.7818608E-02  0.3353945E+00
         11   -1    0    0    0    0  0.00000000000E+00  0.00000000000E+00  0.39999999674E+01  0.40000000000E+01  0.51100000000E-03 0. -1.
    9000002   -1    0    0    0    0 -0.00000000000E+00 -0.00000000000E+00  0.00000000000E+00  0.93800000000E+00  0.93800000000E+00 0. -1.
         11    1    1    2    0    0  0.55331460529E-02  0.68299668704E+00  0.22994751092E+01  0.23987707538E+01  0.51100000000E-03 0. -1.
    9000002    1    1    2    0    0  0.48200405509E-02 -0.95525214087E+00  0.71708002454E+00  0.15187421266E+01  0.93800000000E+00 0. -1.
         22    1    1    2    0    0 -0.10353186604E-01  0.27225545383E+00  0.98344483361E+00  0.10204871197E+01  0.00000000000E+00 0. -1.
</event>
<event>
 5    1  0.1461556E+002  0.1579914E+01  0.7818608E-02  0.3375457E+00
         11   -1    0    0    0    0  0.00000000000E+00  0.00000000000E+00  0.39999999674E+01  0.40000000000E+01  0.51100000000E-03 0. -1.
    9000002   -1    0    0    0    0 -0.00000000000E+00 -0.00000000000E+00  0.00000000000E+00  0.93800000000E+00  0.93800000000E+00 0. -1.
         11    1    1    2    0    0 -0.13429788393E+00  0.10222992438E+00  0.16041017923E+01  0.16129568190E+01  0.51100000000E-03 0. -1.
    9000002    1    1    2    0    0 -0.69533050376E-01 -0.16743048009E+00  0.36601395838E-01  0.95606039189E+00  0.93800000000E+00 0. -1.
         22    1    1    2    0    0  0.20383093431E+00  0.65200555701E-01  0.23592967793E+01  0.23689827891E+01  0.00000000000E+00 0. -1.
</event>
<event>
 5    1  0.1461556E+002  0.1599603E+01  0.7818608E-02  0.3353794E+00
         11   -1    0    0    0    0  0.00000000000E+00  0.00000000000E+00  0.39999999674E+01  0.40000000000E+01  0.51100000000E-03 0. -1.
    9000002   -1    0    0    0    0 -0.00000000000E+00 -0.00000000000E+00  0.00000000000E+00  0.93800000000E+00  0.93800000000E+00 0. -1.
         11    1    1    2    0    0 -0.13094373056E+00 -0.41467745222E+00  0.22752107444E+01  0.23163954417E+01  0.51100000000E-03 0. -1.
    9000002    1    1    2    0    0  0.20716930453E+00  0.67926518158E+00  0.36150640856E+00  0.12307929115E+01  0.93800000000E+00 0. -1.
         22    1    1    2    0    0 -0.76225573964E-01 -0.26458772936E+00  0.13632828144E+01  0.13908116468E+01  0.00000000000E+00 0. -1.
</event>
<event>
 5    1  0.1461556E+002  0.1523010E+01  0.7818608E-02  0.3441413E+00
         11   -1    0    0    0    0  0.00000000000E+00  0.00000000000E+00  0.39999999674E+01  0.40000000000E+01  0.51100000000E-03 0. -1.
    9000002   -1    0    0    0    0 -0.00000000000E+00 -0.00000000000E+00  0.00000000000E+00  0.93800000000E+00  0.93800000000E+00 0.  1.
         11    1    1    2    0    0  0.22820336867E+00 -0.42453801897E-01  0.61605164474E+00  0.65833045872E+00  0.51100000000E-03 0. -1.
    9000002    1    1    2    0    0  0.99946232098E-01  0.14434850438E+00  0.79709765277E-01  0.95761338060E+00  0.93800000000E+00 0.  1.
         22    1    1    2    0    0 -0.32814960077E+00 -0.10189470249E+00  0.33042385573E+01  0.33220561607E+01  0.00000000000E+00 0. -1.
</event>
<event>
 5    1  0.1461556E+002  0.1599677E+01  0.7818608E-02  0.3353714E+00
         11   -1    0    0    0    0  0.00000000000E+00  0.00000000000E+00  0.39999999674E+01  0.40000000000E+01  0.51100000000E-03 0. -1.
    9000002   -1    0    0    0    0 -0.00000000000E+00 -0.00000000000E+00  0.00000000000E+00  0.93800000000E+00  0.93800000000E+00 0.  1.
         11    1    1    2    0    0 -0.40816848462E-01  0.62687205849E-01  0.10737827466E+01  0.10763853162E+01  0.51100000000E-03 0.  1.
    9000002    1    1    2    0    0  0.14984452353E+00 -0.23264525962E+00  0.50979888323E-01  0.97929574035E+00  0.93800000000E+00 0.  1.
         22    1    1    2    0    0 -0.10902767507E+00  0.16995805377E+00  0.28752373324E+01  0.28823189434E+01  0.00000000000E+00 0. -1.
</event>
<event>
 5    1  0.1461556E+002  0.1598188E+01  0.7818608E-02  0.3355333E+00
         11   -1    0    0    0    0  0.00000000000E+00  0.00000000000E+00  0.39999999674E+01  0.40000000000E+01  0.51100000000E-03 0.  1.
    9000002   -1    0    0    0    0 -0.00000000000E+00 -0.00000000000E+00  0.00000000000E+00  0.93800000000E+00  0.93800000000E+00 0. -1.
         11    1    1    2    0    0  0.31173732118E-01  0.36642771326E-01  0.53849376387E+00  0.54063877877E+00  0.51100000000E-03 0.  1.
    9000002    1    1    2    0    0 -0.35679142035E+00 -0.73762595776E-01  0.90359163800E-01  0.10103216402E+01  0.93800000000E+00 0. -1.
         22    1    1    2    0    0  0.32561768823E+00  0.37119824450E-01  0.33711470397E+01  0.33870395810E+01  0.00000000000E+00 0.  1.
</event>
<event>
 5    1  0.1461556E+002  0.1599395E+01  0.7818608E-02  0.3354020E+00
         11   -1    0    0    0    0  0.00000000000E+00  0.00000000000E+00  0.39999999674E+01  0.40000000000E+01  0.51100000000E-03 0.  1.
    9000002   -1    0    0    0    0 -0.00000000000E+00 -0.00000000000E+00  0.00000000000E+00  0.93800000000E+00  0.93800000000E+00 0.  1.
         11    1    1    2    0    0  0.75027843457E-01 -0.77455741167E-01  0.16013371606E+01  0.16049640283E+01  0.51100000000E-03 0.  1.
    9000002    1    1    2    0    0 -0.22082150578E+00  0.22288527536E+00  0.65979235395E-01  0.99128060754E+00  0.93800000000E+00 0.  1.
         22    1    1    2    0    0  0.14579366232E+00 -0.14542953419E+00  0.23326835714E+01  0.23417553642E+01  0.00000000000E+00 0.  1.
</event>
<event>
 5    1  0.1461556E+002  0.1598113E+01  0.7818608E-02  0.3355414E+00
         11   -1    0    0    0    0  0.00000000000E+00  0.00000000000E+00  0.39999999674E+01  0.40000000000E+01  0.51100000000E-03 0. -1.
    9000002   -1    0    0    0    0 -0.00000000000E+00 -0.00000000000E+00  0.00000000000E+00  0.93800000000E+00  0.93800000000E+00 0.  1.
         11    1    1    2    0    0 -0.19861947574E-01 -0.89762636694E-01  0.15842570824E+01  0.15869223649E+01  0.51100000000E-03 0. -1.
    9000002    1    1    2    0    0 -0.47209714579E-01  0.28793629309E+00  0.57972552720E-01  0.98404313061E+00  0.93800000000E+00 0.  1.
         22    1    1    2    0    0  0.67071662153E-01 -0.19817365639E+00  0.23577703322E+01  0.23670345045E+01  0.00000000000E+00 0. -1.
</event>
<event>
 5    1  0.1461556E+002  0.1599676E+01  0.7818608E-02  0.3353715E+00
         11   -1    0    0    0    0  0.00000000000E+00  0.00000000000E+00  0.39999999674E+01  0.40000000000E+01  0.51100000000E-03 0.  1.
    9000002   -1    0    0    0    0 -0.00000000000E+00 -0.00000000000E+00  0.00000000000E+00  0.93800000000E+00  0.93800000000E+00 0. -1.
         11    1    1    2    0    0  0.23244354450E-01  0.97098946165E-01  0.12931170124E+01  0.12969658338E+01  0.51100000000E-03 0.  1.
    9000002    1    1    2    0    0 -0.73538767355E-01 -0.29382999749E+00  0.61220858992E-01  0.98759101419E+00  0.93800000000E+00 0. -1.
         22    1    1    2    0    0  0.50294412905E-01  0.19673105132E+00  0.26456620960E+01  0.26534431520E+01  0.00000000000E+00 0.  1.
</event>
<event>
 5    1  0.1461556E+002  0.1599677E+01  0.7818608E-02  0.3353714E+00
         11   -1    0    0    0    0  0.00000000000E+00  0.00000000000E+00  0.39999999674E+01  0.40000000000E+01  0.51100000000E-03 0. -1.
    9000002   -1    0    0    0    0 -0.00000000000E+00 -0.00000000000E+00  0.00000000000E+00  0.93800000000E+00  0.93800000000E+00 0.  1.
         11    1    1    2    0    0  0.15600834921E+00  0.19353068778E+00  0.20764248310E+01  0.20912515564E+01  0.51100000000E-03 0. -1.
    9000002    1    1    2    0    0 -0.28914657233E+00 -0.35961807663E+00  0.14486739099E+00  0.10553489765E+01  0.93800000000E+00 0.  1.
         22    1    1    2    0    0  0.13313822312E+00  0.16608738885E+00  0.17787077453E+01  0.17913994670E+01  0.00000000000E+00 0. -1.
</event>
<event>
 5    1  0.1461556E+002  0.1597555E+01  0.7818608E-02  0.3356021E+00
         11   -1    0    0    0    0  0.00000000000E+00  0.00000000000E+00  0.39999999674E+01  0.40000000000E+01  0.51100000000E-03 0. -1.
    9000002   -1    0    0    0    0 -0.00000000000E+00 -0.00000000000E+00  0.00000000000E+00  0.93800000000E+00  0.93800000000E+00 0. -1.
         11    1    1    2    0    0  0.28169133363E-01 -0.10451887492E+00  0.16354850097E+01  0.16390635050E+01  0.51100000000E-03 0. -1.
    9000002    1    1    2    0    0 -0.19872936996E+00  0.25949138913E+00  0.73141234194E-01  0.99600340544E+00  0.93800000000E+00 0. -1.
         22    1    1    2    0    0  0.17056023660E+00 -0.15497251421E+00  0.22913737235E+01  0.23029330896E+01  0.00000000000E+00 0.  1.
</event>
<event>
 5    1  0.1461556E+002  0.1599674E+01  0.7818608E-02  0.3353717E+00
         11   -1    0    0    0    0  0.00000000000E+00  0.00000000000E+00  0.39999999674E+01  0.40000000000E+01  0.51100000000E-03 0.  1.
    9000002   -1    0    0    0    0 -0.00000000000E+00 -0.00000000000E+00  0.00000000000E+00  0.93800000000E+00  0.93800000000E+00 0. -1.
         11    1    1    2    0    0  0.78617703746E-01  0.56743839295E-01  0.11871216823E+01  0.11910746225E+01  0.51100000000E-03 0.  1.
    9000002    1    1    2    0    0 -0.26575525372E+00 -0.18542642668E+00  0.70218689758E-01  0.99487862525E+00  0.93800000000E+00 0. -1.
         22    1    1    2    0    0  0.18713754997E+00  0.12868258738E+00  0.27426595953E+01  0.27520467523E+01  0.00000000000E+00 0.  1.
</event>
<event>
 5    1  0.1461556E+002  0.1599609E+01  0.7818608E-02  0.3353788E+00
         11   -1    0    0    0    0  0.00000000000E+00  0.00000000000E+00  0.39999999674E+01  0.40000000000E+01  0.51100000000E-03 0.  1.
    9000002   -1    0    0    0    0 -0.00000000000E+00 -0.00000000000E+00  0.00000000000E+00  0.93800000000E+00  0.93800000000E+00 0. -1.
         11    1    1    2    0    0  0.91649463251E-01 -0.90266720024E-01  0.15496185754E+01  0.15549487757E+01  0.51100000000E-03 0.  1.
    9000002    1    1    2    0    0 -0.25130108478E+00  0.24306744497E+00  0.82010211469E-01  0.10043922007E+01  0.93800000000E+00 0. -1.
         22    1    1    2    0    0  0.15965162153E+00 -0.15280072495E+00  0.23683711805E+01  0.23786590236E+01  0.00000000000E+00 0.  1.
</event>
<event>
 5    1  0.1461556E+002  0.1599417E+01  0.7818608E-02  0.3353997E+00
         11   -1    0    0    0    0  0.00000000000E+00  0.00000000000E+00  0.39999999674E+01  0.40000000000E+01  0.51100000000E-03 0. -1.
    9000002   -1    0    0    0    0 -0.00000000000E+00 -0.00000000000E+00  0.00000000000E+00  0.93800000000E+00  0.93800000000E+00 0.  1.
         11    1    1    2    0    0 -0.38884141936E-02 -0.14254709783E-02  0.29101561984E-01  0.29399213652E-01  0.51100000000E-03 0. -1.
    9000002    1    1    2    0    0  0.33249998810E+00 -0.21017419915E+00  0.10449561055E+00  0.10224934077E+01  0.93800000000E+00 0.  1.
         22    1    1    2    0    0 -0.32861157391E+00  0.21159967013E+00  0.38664027948E+01  0.38861073787E+01  0.00000000000E+00 0. -1.
</event>
<event>
 5    1  0.1461556E+002  0.1560444E+01  0.7818608E-02  0.3397448E+00
         11   -1    0    0    0    0  0.00000000000E+00  0.00000000000E+00  0.39999999674E+01  0.40000000000E+01  0.51100000000E-03 0.  1.
    9000002   -1    0    0    0    0 -0.00000000000E+00 -0.00000000000E+00  0.00000000000E+00  0.93800000000E+00  0.93800000000E+00 0.  1.
         11    1    1    2    0    0 -0.17419592908E+00 -0.19120663280E+00  0.90618277506E+00  0.94237555204E+00  0.51100000000E-03 0.  1.
    9000002    1    1    2    0    0 -0.79314999010E-01  0.51644816864E+00  0.22463122217E+00  0.10969561367E+01  0.93800000000E+00 0.  1.
         22    1    1    2    0    0  0.25351092809E+00 -0.32524153585E+00  0.28691859701E+01  0.28986683112E+01  0.00000000000E+00 0.  1.
</event>
<event>
 5    1  0.1461556E+002  0.1555448E+01  0.7818608E-02  0.3403186E+00
         11   -1    0    0    0    0  0.00000000000E+00  0.00000000000E+00  0.39999999674E+01  0.40000000000E+01  0.51100000000E-03 0. -1.
    9000002   -1    0    0    0    0 -0.00000000000E+00 -0.00000000000E+00  0.00000000000E+00  0.93800000000E+00  0.93800000000E+00 0. -1.
         11    1    1    2    0    0  0.20158669547E+00  0.54439890138E-01  0.16893047582E+01  0.17021608986E+01  0.51100000000E-03 0. -1.
    9000002    1    1    2    0    0  0.10220526529E+00 -0.95124081415E-02  0.39974157036E-01  0.94444604684E+00  0.93800000000E+00 0. -1.
         22    1    1    2    0    0 -0.30379196075E+00 -0.44927481997E-01  0.22707210521E+01  0.22913930546E+01  0.00000000000E+00 0. -1.
</event>
<event>
 5    1  0.1461556E+002  0.1599635E+01  0.7818608E-02  0.3353759E+00
         11   -1    0    0    0    0  0.00000000000E+00  0.00000000000E+00  0.39999999674E+01  0.40000000000E+01  0.51100000000E-03 0.  1.
    9000002   -1    0    0    0    0 -0.00000000000E+00 -0.00000000000E+00  0.00000000000E+00  0.93800000000E+00  0.93800000000E+00 0.  1.
         11    1    1    2    0    0 -0.10793678980E-01  0.45365360306E-01  0.72141550131E+00  0.72292123089E+00  0.51100000000E-03 0.  1.
    9000002    1    1    2    0    0  0.73246803882E-01 -0.27773177328E+00  0.55005326447E-01  0.98253224787E+00  0.93800000000E+00 0.  1.
         22    1    1    2    0    0 -0.62453124902E-01  0.23236641297E+00  0.32235791396E+01  0.32325465212E+01  0.00000000000E+00 0.  1.
</event>
<event>
 5    1  0.1461556E+002  0.1598102E+01  0.7818608E-02  0.3355426E+00
         11   -1    0    0    0    0  0.00000000000E+00  0.00000000000E+00  0.39999999674E+01  0.40000000000E+01  0.51100000000E-03 0. -1.
    9000002   -1    0    0    0    0 -0.00000000000E+00 -0.00000000000E+00  0.00000000000E+00  0.93800000000E+00  0.93800000000E+00 0.  1.
         11    1    1    2    0    0  0.33433365041E-01  0.10061098383E+00  0.78074652933E+00  0.78791228202E+00  0.51100000000E-03 0. -1.
    9000002    1    1    2    0    0 -0.24514532614E+00 -0.32684764911E+00  0.11403968335E+00  0.10294535764E+01  0.93800000000E+00 0.  1.
         22    1    1    2    0    0  0.21171196109E+00  0.22623666528E+00  0.31052137547E+01  0.31206341415E+01  0.00000000000E+00 0. -1.
</event>
<event>
 5    1  0.1461556E+002  0.1599673E+01  0.7818608E-02  0.3353719E+00
         11   -1    0    0    0    0  0.00000000000E+00  0.00000000000E+00  0.39999999674E+01  0.40000000000E+01  0.51100000000E-03 0.  1.
    9000002   -1    0    0    0    0 -0.00000000000E+00 -0.00000000000E+00  0.00000000000E+00  0.93800000000E+00  0.93800000000E+00 0.  1.
         11    1    1    2    0    0  0.25160082707E-01 -0.15567469279E-01  0.36395520238E+00  0.36515616704E+00  0.51100000000E-03 0. -1.
    9000002    1    1    2    0    0 -0.27577681392E+00  0.18203143244E+00  0.73062292187E-01  0.99718122326E+00  0.93800000000E+00 0.  1.
         22    1    1    2    0    0  0.25061673121E+00 -0.16646396316E+00  0.35629824728E+01  0.35756626097E+01  0.00000000000E+00 0.  1.
</event>
<event>
 5    1  0.1574728E+002  0.1564821E+01  0.7818608E-02  0.3392453E+00
         11   -1    0    0    0    0  0.00000000000E+00  0.00000000000E+00  0.39999999674E+01  0.40000000000E+01  0.51100000000E-03 0. -1.
    9000002   -1    0    0    0    0 -0.00000000000E+00 -0.00000000000E+00  0.00000000000E+00  0.93800000000E+00  0.93800000000E+00 0. -1.
         11    1    1    2    0    0  0.17289256945E-01 -0.19701668039E+00  0.11272344992E+01  0.11444528684E+01  0.51100000000E-03 0. -1.
    9000002    1    1    2    0    0  0.90831275335E-01 -0.41849182131E-02  0.31300570893E-01  0.94291651797E+00  0.93800000000E+00 0. -1.
         22    1    1    2    0    0 -0.10812053228E+00  0.20120159860E+00  0.28414648973E+01  0.28506306136E+01  0.00000000000E+00 0.  1.
</event>
<event>
 5    1  0.1461556E+002  0.1599677E+01  0.7818608E-02  0.3353714E+00
         11   -1    0    0    0    0  0.00000000000E+00  0.00000000000E+00  0.39999999674E+01  0.40000000000E+01  0.51100000000E-03 0.  1.
    9000002   -1    0    0    0    0 -0.00000000000E+00 -0.00000000000E+00  0.00000000000E+00  0.93800000000E+00  0.93800000000E+00 0.  1.
         11    1    1    2    0    0  0.10768244516E+00 -0.17447519575E+00  0.19336786589E+01  0.19445180688E+01  0.51100000000E-03 0.  1.
    9000002    1    1    2    0    0 -0.21692913755E+00  0.35042935635E+00  0.11475512590E+00  0.10309567030E+01  0.93800000000E+00 0.  1.
         22    1    1    2    0    0  0.10924669239E+00 -0.17595416059E+00  0.19515661826E+01  0.19625252282E+01  0.00000000000E+00 0.  1.
</event>
<event>
 5    1  0.1461556E+002  0.1597969E+01  0.7818608E-02  0.3355570E+00
         11   -1    0    0    0    0  0.00000000000E+00  0.00000000000E+00  0.39999999674E+01  0.40000000000E+01  0.51100000000E-03 0. -1.
    9000002   -1    0    0    0    0 -0.00000000000E+00 -0.00000000000E+00  0.00000000000E+00  0.93800000000E+00  0.93800000000E+00 0. -1.
         11    1    1    2    0    0 -0.30207801084E-01  0.96452197150E-02  0.27352929958E+00  0.27536172639E+00  0.51100000000E-03 0. -1.
    9000002    1    1    2    0    0  0.19789580382E+00  0.13644189028E+00  0.39655166902E-01  0.96912108163E+00  0.93800000000E+00 0. -1.
         22    1    1    2    0    0 -0.16768800274E+00 -0.14608710999E+00  0.36868155009E+01  0.36935171920E+01  0.00000000000E+00 0. -1.
</event>
<event>
 5    1  0.1461556E+002  0.1598554E+01  0.7818608E-02  0.3354934E+00
         11   -1    0    0    0    0  0.00000000000E+00  0.00000000000E+00  0.39999999674E+01  0.40000000000E+01  0.51100000000E-03 0. -1.
    9000002   -1    0    0    0    0 -0.00000000000E+00 -0.00000000000E+00  0.00000000000E+00  0.93800000000E+00  0.93800000000E+00 0.  1.
         11    1    1    2    0    0  0.24974528960E+00  0.17350370954E+00  0.14769170946E+01  0.15078994039E+01  0.51100000000E-03 0. -1.
    9000002    1    1    2    0    0 -0.69159524748E+00 -0.41398550917E+00  0.48102975225E+00  0.13269972158E+01  0.93800000000E+00 0.  1.
         22    1    1    2    0    0  0.44184995788E+00  0.24048179963E+00  0.20420531206E+01  0.21031033803E+01  0.00000000000E+00 0. -1.
</event>
<event>
 5    1  0.1461556E+002  0.1599676E+01  0.7818608E-02  0.3353715E+00
         11   -1    0    0    0    0  0.00000000000E+00  0.00000000000E+00  0.39999999674E+01  0.40000000000E+01  0.51100000000E-03 0.  1.
    9000002   -1    0    0    0    0 -0.00000000000E+00 -0.00000000000E+00  0.00000000000E+00  0.93800000000E+00  0.93800000000E+00 0.  1.
         11    1    1    2    0    0 -0.57823965557E-02  0.13171332456E+00  0.12054148370E+01  0.12126034085E+01  0.51100000000E-03 0.  1.
    9000002    1    1    2    0    0  0.19504238319E-01 -0.42095435893E+00  0.12012380180E+00  0.10353051315E+01  0.93800000000E+00 0.  1.
         22    1    1    2    0    0 -0.13721841763E-01  0.28924103437E+00  0.26744613286E+01  0.26900914600E+01  0.00000000000E+00 0.  1.
</event>
<event>
 5    1  0.1461556E+002  0.1531553E+01  0.7818608E-02  0.3431178E+00
         11   -1    0    0    0    0  0.00000000000E+00  0.00000000000E+00  0.39999999674E+01  0.40000000000E+01  0.51100000000E-03 0. -1.
    9000002   -1    0    0    0    0 -0.00000000000E+00 -0.00000000000E+00  0.00000000000E+00  0.93800000000E+00  0.93800000000E+00 0.  1.
         11    1    1    2    0    0 -0.35812538038E-01  0.25553700140E+00  0.80737341173E+00  0.84760473338E+00  0.51100000000E-03 0. -1.
    9000002    1    1    2    0    0  0.26347188002E-01 -0.11029406648E-01  0.51600087119E-01  0.93985232410E+00  0.93800000000E+00 0.  1.
         22    1    1    2    0    0  0.94653500364E-02 -0.24450759475E+00  0.31410264685E+01  0.31505429425E+01  0.00000000000E+00 0.  1.
</event>
<event>
 5    1  0.1461556E+002  0.1494674E+01  0.7818608E-02  0.3476264E+00
         11   -1    0    0    0    0  0.00000000000E+00  0.00000000000E+00  0.39999999674E+01  0.40000000000E+01  0.51100000000E-03 0.  1.
    9000002   -1    0    0    0    0 -0.00000000000E+00 -0.00000000000E+00  0.00000000000E+00  0.93800000000E+00  0.93800000000E+00 0.  1.
         11    1    1    2    0    0  0.24382345677E+00  0.94795975517E-01  0.50406598951E+00  0.56790750826E+00  0.51100000000E-03 0.  1.
    9000002    1    1    2    0    0  0.45885617931E-01 -0.11508436062E-01  0.81878045866E-01  0.94275444758E+00  0.93800000000E+00 0.  1.
         22    1    1    2    0    0 -0.28970907470E+00 -0.83287539454E-01  0.34140559320E+01  0.34273380442E+01  0.00000000000E+00 0.  1.
</event>
<event>
 5    1  0.1461556E+002  0.1599638E+01  0.7818608E-02  0.3353756E+00
         11   -1    0    0    0    0  0.00000000000E+00  0.00000000000E+00  0.39999999674E+01  0.40000000000E+01  0.51100000000E-03 0.  1.
    9000002   -1    0    0    0    0 -0.00000000000E+00 -0.00000000000E+00  0.00000000000E+00  0.93800000000E+00  0.93800000000E+00 0.  1.
         11    1    1    2    0    0  0.22219480179E+00 -0.78325268653E-01  0.19478072901E+01  0.19620037915E+01  0.51100000000E-03 0.  1.
    9000002    1    1    2    0    0 -0.43416678518E+00  0.16871012193E+00  0.14774311768E+00  0.10576558663E+01  0.93800000000E+00 0.  1.
         22    1    1    2    0    0  0.21197198339E+00 -0.90384853273E-01  0.19044495596E+01  0.19183403422E+01  0.00000000000E+00 0.  1.
</event>
<event>
 5    1  0.1461556E+002  0.1599623E+01  0.7818608E-02  0.3353773E+00
         11   -1    0    0    0    0  0.00000000000E+00  0.00000000000E+00  0.39999999674E+01  0.40000000000E+01  0.51100000000E-03 0. -1.
    9000002   -1    0    0    0    0 -0.00000000000E+00 -0.00000000000E+00  0.00000000000E+00  0.93800000000E+00  0.93800000000E+00 0. -1.
         11    1    1    2    0    0 -0.20257718579E-01  0.41234396357E-01  0.22194541461E+00  0.22665100660E+00  0.51100000000E-03 0. -1.
    9000002    1    1    2    0    0  0.26853453176E+00 -0.65004006775E+00  0.35390125011E+00  0.12246440214E+01  0.93800000000E+00 0. -1.
         22    1    1    2    0    0 -0.24827681318E+00  0.60880567139E+00  0.34241533026E+01  0.34867049720E+01  0.00000000000E+00 0. -1.
</event>
<event>
 5    1  0.1461556E+002  0.1597564E+01  0.7818608E-02  0.3356011E+00
         11   -1    0    0    0    0  0.00000000000E+00  0.00000000000E+00  0.39999999674E+01  0.40000000000E+01  0.51100000000E-03 0. -1.
    9000002   -1    0    0    0    0 -0.00000000000E+00 -0.00000000000E+00  0.00000000000E+00  0.93800000000E+00  0.93800000000E+00 0. -1.
         11    1    1    2    0    0 -0.12079482879E+00 -0.59991797606E-01  0.68310115726E+00  0.69628863168E+00  0.51100000000E-03 0. -1.
    9000002    1    1    2    0    0  0.47703707949E+00  0.19913996594E+00  0.18539465714E+00  0.10869389496E+01  0.93800000000E+00 0. -1.
         22    1    1    2    0    0 -0.35624225070E+00 -0.13914816834E+00  0.31315041530E+01  0.31547724187E+01  0.00000000000E+00 0. -1.
</event>
<event>
 5    1  0.1461556E+002  0.1599676E+01  0.7818608E-02  0.3353715E+00
         11   -1    0    0    0    0  0.00000000000E+00  0.00000000000E+00  0.39999999674E+01  0.40000000000E+01  0.51100000000E-03 0.  1.
    9000002   -1    0    0    0    0 -0.00000000000E+00 -0.00000000000E+00  0.00000000000E+00  0.93800000000E+00  0.93800000000E+00 0.  1.
         11    1    1    2    0    0 -0.29015715011E-01 -0.51352539999E-02  0.35912466834E+00  0.36033189018E+00  0.51100000000E-03 0. -1.
    9000002    1    1    2    0    0  0.31505385763E+00  0.55146580323E-01  0.68376748576E-01  0.99338786900E+00  0.93800000000E+00 0.  1.
         22    1    1    2    0    0 -0.28603814262E+00 -0.50011326323E-01  0.35724985504E+01  0.35842802408E+01  0.00000000000E+00 0.  1.
</event>
<event>
 5    1  0.1461556E+002  0.1589896E+01  0.7818608E-02  0.3364404E+00
         11   -1    0    0    0    0  0.00000000000E+00  0.00000000000E+00  0.39999999674E+01  0.40000000000E+01  0.51100000000E-03 0.  1.
    9000002   -1    0    0    0    0 -0.00000000000E+00 -0.00000000000E+00  0.00000000000E+00  0.93800000000E+00  0.93800000000E+00 0.  1.
         11    1    1    2    0    0 -0.55553758743E-01  0.77054635285E-02  0.13466400607E+01  0.13478075933E+01  0.51100000000E-03 0.  1.
    9000002    1    1    2    0    0 -0.16150724546E+00 -0.90549902917E-01  0.30006613843E-01  0.95657110145E+00  0.93800000000E+00 0.  1.
         22    1    1    2    0    0  0.21706100420E+00  0.82844439389E-01  0.26233532928E+01  0.26336213052E+01  0.00000000000E+00 0.  1.
</event>
<event>
 5    1  0.1461556E+002  0.1594542E+01  0.7818608E-02  0.3359308E+00
         11   -1    0    0    0    0  0.00000000000E+00  0.00000000000E+00  0.39999999674E+01  0.40000000000E+01  0.51100000000E-03 0.  1.
    9000002   -1    0    0    0    0 -0.00000000000E+00 -0.00000000000E+00  0.00000000000E+00  0.93800000000E+00  0.93800000000E+00 0. -1.
         11    1    1    2    0    0 -0.95200549225E-01  0.76001739623E-01  0.20713242032E+01  0.20749032809E+01  0.51100000000E-03 0.  1.
    9000002    1    1    2    0    0  0.34162702238E+00 -0.12672857135E+00  0.93350994135E-01  0.10106075209E+01  0.93800000000E+00 0. -1.
         22    1    1    2    0    0 -0.24642647315E+00  0.50726831724E-01  0.18353247700E+01  0.18524891982E+01  0.00000000000E+00 0.  1.
</event>
<event>
 5    1  0.1461556E+002  0.1598317E+01  0.7818608E-02  0.3355192E+00
         11   -1    0    0    0    0  0.00000000000E+00  0.00000000000E+00  0.39999999674E+01  0.40000000000E+01  0.51100000000E-03 0. -1.
    9000002   -1    0    0    0    0 -0.00000000000E+00 -0.00000000000E+00  0.00000000000E+00  0.93800000000E+00  0.93800000000E+00 0. -1.
         11    1    1    2    0    0  0.58160535620E-02 -0.85350178335E-02  0.10012995490E+00  0.10066251536E+00  0.51100000000E-03 0. -1.
    9000002    1    1    2    0    0 -0.19862664744E+00 -0.21251965183E+00  0.57461982826E-01  0.98374947368E+00  0.93800000000E+00 0. -1.
         22    1    1    2    0    0  0.19281059387E+00  0.22105466966E+00  0.38424080296E+01  0.38535880110E+01  0.00000000000E+00 0. -1.
</event>
<event>
 5    1  0.1461556E+002  0.1582121E+01  0.7818608E-02  0.3373000E+00
         11   -1    0    0    0    0  0.00000000000E+00  0.00000000000E+00  0.39999999674E+01  0.40000000000E+01  0.51100000000E-03 0. -1.
    9000002   -1    0    0    0    0 -0.00000000000E+00 -0.00000000000E+00  0.00000000000E+00  0.93800000000E+00  0.93800000000E+00 0. -1.
         11    1    1    2    0    0  0.57357350810E-03  0.54589817925E-01  0.12707937779E+00  0.13831054403E+00  0.51100000000E-03 0. -1.
    9000002    1    1    2    0    0 -0.41126347306E+00  0.50393753935E-01  0.13092564971E+00  0.10337614331E+01  0.93800000000E+00 0. -1.
         22    1    1    2    0    0  0.41068989955E+00 -0.10498357186E+00  0.37419949399E+01  0.37659280229E+01  0.00000000000E+00 0. -1.
</event>
<event>
 5    1  0.1461556E+002  0.1575566E+01  0.7818608E-02  0.3380317E+00
         11   -1    0    0    0    0  0.00000000000E+00  0.00000000000E+00  0.39999999674E+01  0.40000000000E+01  0.51100000000E-03 0. -1.
    9000002   -1    0    0    0    0 -0.00000000000E+00 -0.00000000000E+00  0.00000000000E+00  0.93800000000E+00  0.93800000000E+00 0.  1.
         11    1    1    2    0    0  0.76540347981E-01 -0.92492942363E-01  0.78773476342E+00  0.79683102844E+00  0.51100000000E-03 0. -1.
    9000002    1    1    2    0    0  0.10097323444E+00 -0.10649926695E+00  0.32214744254E-01  0.94995761889E+00  0.93800000000E+00 0.  1.
         22    1    1    2    0    0 -0.17751358242E+00  0.19899220932E+00  0.31800504597E+01  0.31912113527E+01  0.00000000000E+00 0. -1.
</event>
<event>
 5    1  0.1461556E+002  0.1599673E+01  0.7818608E-02  0.3353719E+00
         11   -1    0    0    0    0  0.00000000000E+00  0.00000000000E+00  0.39999999674E+01  0.40000000000E+01  0.51100000000E-03 0.  1.
    9000002   -1    0    0    0    0 -0.00000000000E+00 -0.00000000000E+00  0.00000000000E+00  0.93800000000E+00  0.93800000000E+00 0. -1.
         11    1    1    2    0    0 -0.70197686607E-01  0.14562465205E+00  0.16036546594E+01  0.16117824860E+01  0.51100000000E-03 0.  1.
    9000002    1    1    2    0    0  0.16472363538E+00 -0.35457860383E+00  0.10299265483E+00  0.10214261350E+01  0.93800000000E+00 0. -1.
         22    1    1    2    0    0 -0.94525948768E-01  0.20895395178E+00  0.22933526531E+01  0.23047913790E+01  0.00000000000E+00 0.  1.
</event>
<event>
 5    1  0.1461556E+002  0.1599674E+01  0.7818608E-02  0.3353717E+00
         11   -1    0    0    0    0  0.00000000000E+00  0.00000000000E+00  0.39999999674E+01  0.40000000000E+01  0.51100000000E-03 0. -1.
    9000002   -1    0    0    0    0 -0.00000000000E+00 -0.00000000000E+00  0.00000000000E+00  0.93800000000E+00  0.93800000000E+00 0. -1.
         11    1    1    2    0    0  0.28342670392E-01  0.27943062900E-01  0.59935808170E+00  0.60067836065E+00  0.51100000000E-03 0. -1.
    9000002    1    1    2    0    0 -0.17835994109E+00 -0.18323776686E+00  0.43458033803E-01  0.97320139154E+00  0.93800000000E+00 0. -1.
         22    1    1    2    0    0  0.15001727070E+00  0.15529470396E+00  0.33571838519E+01  0.33641202478E+01  0.00000000000E+00 0. -1.
</event>
<event>
 5    1  0.1461556E+002  0.1551052E+01  0.7818608E-02  0.3408266E+00
         11   -1    0    0    0    0  0.00000000000E+00  0.00000000000E+00  0.39999999674E+01  0.40000000000E+01  0.51100000000E-03 0.  1.
    9000002   -1    0    0    0    0 -0.00000000000E+00 -0.00000000000E+00  0.00000000000E+00  0.93800000000E+00  0.93800000000E+00 0. -1.
         11    1    1    2    0    0 -0.19888968031E+00 -0.87777268945E-01  0.28599683957E+01  0.28682192105E+01  0.51100000000E-03 0.  1.
    9000002    1    1    2    0    0 -0.11186282576E-01 -0.42453951444E-01  0.37384484514E-01  0.93977075428E+00  0.93800000000E+00 0. -1.
         22    1    1    2    0    0  0.21007596288E+00  0.13023122039E+00  0.11026470871E+01  0.11300100352E+01  0.00000000000E+00 0. -1.
</event>
<event>
 5    1  0.1461556E+002  0.1599332E+01  0.7818608E-02  0.3354089E+00
         11   -1    0    0    0    0  0.00000000000E+00  0.00000000000E+00  0.39999999674E+01  0.40000000000E+01  0.51100000000E-03 0.  1.
    9000002   -1    0    0    0    0 -0.00000000000E+00 -0.00000000000E+00  0.00000000000E+00  0.93800000000E+00  0.93800000000E+00 0. -1.
         11    1    1    2    0    0  0.89861341381E-01  0.32127193763E+00  0.25144599750E+01  0.25364936320E+01  0.51100000000E-03 0.  1.
    9000002    1    1    2    0    0 -0.13035696470E+00 -0.51775613054E+00  0.19662597627E+00  0.10970734358E+01  0.93800000000E+00 0. -1.
         22    1    1    2    0    0  0.40495623314E-01  0.19648419291E+00  0.12889140161E+01  0.13044329322E+01  0.00000000000E+00 0.  1.
</event>
<event>
 5    1  0.1461556E+002  0.1514064E+01  0.7818608E-02  0.3452264E+00
         11   -1    0    0    0    0  0.00000000000E+00  0.00000000000E+00  0.39999999674E+01  0.40000000000E+01  0.51100000000E-03 0. -1.
    9000002   -1    0    0    0    0 -0.00000000000E+00 -0.00000000000E+00  0.00000000000E+00  0.93800000000E+00  0.93800000000E+00 0. -1.
         11    1    1    2    0    0  0.13084373089E+00  0.42020835561E+00  0.72552884006E+00  0.84857969744E+00  0.51100000000E-03 0. -1.
    9000002    1    1    2    0    0 -0.76365934075E-01 -0.70073063181E+00  0.45967986407E+00  0.12601606055E+01  0.93800000000E+00 0. -1.
         22    1    1    2    0    0 -0.54477796818E-01  0.28052227620E+00  0.28147912632E+01  0.28292596970E+01  0.00000000000E+00 0.  1.
</event>
<event>
 5    1  0.1461556E+002  0.1599676E+01  0.7818608E-02  0.3353715E+00
         11   -1    0    0    0    0  0.00000000000E+00  0.00000000000E+00  0.39999999674E+01  0.40000000000E+01  0.51100000000E-03 0. -1.
    9000002   -1    0    0    0    0 -0.00000000000E+00 -0.00000000000E+00  0.00000000000E+00  0.93800000000E+00  0.93800000000E+00 0. -1.
         11    1    1    2    0    0 -0.53015522254E-02  0.37252878422E-01  0.54171790535E+00  0.54302341893E+00  0.51100000000E-03 0.  1.
    9000002    1    1    2    0    0  0.41281412264E-01 -0.26865623244E+00  0.49164313171E-01  0.97782485953E+00  0.93800000000E+00 0. -1.
         22    1    1    2    0    0 -0.35979860039E-01  0.23140335402E+00  0.34091177488E+01  0.34171517215E+01  0.00000000000E+00 0. -1.
</event>
<event>
 5    1  0.1461556E+002  0.1557029E+01  0.7818608E-02  0.3401365E+00
         11   -1    0    0    0    0  0.00000000000E+00  0.00000000000E+00  0.39999999674E+01  0.40000000000E+01  0.51100000000E-03 0.  1.
    9000002   -1    0    0    0    0 -0.00000000000E+00 -0.00000000000E+00  0.00000000000E+00  0.93800000000E+00  0.93800000000E+00 0.  1.
         11    1    1    2    0    0  0.57394991378E-02 -0.12723777261E+00  0.29578687937E+01  0.29606098113E+01  0.51100000000E-03 0.  1.
    9000002    1    1    2    0    0 -0.16645252568E+00 -0.71667346347E-01  0.54180739007E-01  0.95688149962E+00  0.93800000000E+00 0.  1.
         22    1    1    2    0    0  0.16071302654E+00  0.19890511895E+00  0.98795043464E+00  0.10205086891E+01  0.00000000000E+00 0.  1.
</event>
<event>
 5    1  0.1461556E+002  0.1599676E+01  0.7818608E-02  0.3353715E+00
         11   -1    0    0    0    0  0.00000000000E+00  0.00000000000E+00  0.39999999674E+01  0.40000000000E+01  0.51100000000E-03 0. -1.
    9000002   -1    0    0    0    0 -0.00000000000E+00 -0.00000000000E+00  0.00000000000E+00  0.93800000000E+00  0.93800000000E+00 0. -1.
         11    1    1    2    0    0 -0.40473520842E+00 -0.55168113734E+00  0.23085724509E+01  0.24078350626E+01  0.51100000000E-03 0. -1.
    9000002    1    1    2    0    0  0.57110752231E+00  0.78064768872E+00  0.73932768687E+00  0.15368877788E+01  0.93800000000E+00 0.  1.
         22    1    1    2    0    0 -0.16637231389E+00 -0.22896655138E+00  0.95209982957E+00  0.99327715868E+00  0.00000000000E+00 0. -1.
</event>
<event>
 5    1  0.1461556E+002  0.1599676E+01  0.7818608E-02  0.3353715E+00
         11   -1    0    0    0    0  0.00000000000E+00  0.00000000000E+00  0.39999999674E+01  0.40000000000E+01  0.51100000000E-03 0.  1.
    9000002   -1    0    0    0    0 -0.00000000000E+00 -0.00000000000E+00  0.00000000000E+00  0.93800000000E+00  0.93800000000E+00 0.  1.
         11    1    1    2    0    0 -0.78043956830E-01 -0.49338540602E-01  0.10006276821E+01  0.10048786843E+01  0.51100000000E-03 0.  1.
    9000002    1    1    2    0    0  0.30323912724E+00  0.19505540270E+00  0.87270432146E-01  0.10086925730E+01  0.93800000000E+00 0.  1.
         22    1    1    2    0    0 -0.22519517041E+00 -0.14571686209E+00  0.29121018531E+01  0.29244287428E+01  0.00000000000E+00 0.  1.
</event>
<event>
 5    1  0.1461556E+002  0.1538534E+01  0.7818608E-02  0.3422903E+00
         11   -1    0    0    0    0  0.00000000000E+00  0.00000000000E+00  0.39999999674E+01  0.40000000000E+01  0.51100000000E-03 0. -1.
    9000002   -1    0    0    0    0 -0.00000000000E+00 -0.00000000000E+00  0.00000000000E+00  0.93800000000E+00  0.93800000000E+00 0.  1.
         11    1    1    2    0    0 -0.13233808548E+00 -0.22602943795E-01  0.20563133793E+01  0.20606914464E+01  0.51100000000E-03 0. -1.
    9000002    1    1    2    0    0 -0.23769468506E+00  0.31714102172E+00  0.15852301524E+00  0.10305584590E+01  0.93800000000E+00 0.  1.
         22    1    1    2    0    0  0.37003277054E+00 -0.29453807792E+00  0.17851635728E+01  0.18467500947E+01  0.00000000000E+00 0. -1.
</event>
<event>
 5    1  0.1461556E+002  0.1599340E+01  0.7818608E-02  0.3354080E+00
         11   -1    0    0    0    0  0.00000000000E+00  0.00000000000E+00  0.39999999674E+01  0.40000000000E+01  0.51100000000E-03 0.  1.
    9000002   -1    0    0    0    0 -0.00000000000E+00 -0.00000000000E+00  0.00000000000E+00  0.93800000000E+00  0.93800000000E+00 0.  1.
         11    1    1    2    0    0  0.53463780604E+00 -0.31839826563E+00  0.25631190494E+01  0.26375736125E+01  0.51100000000E-03 0.  1.
    9000002    1    1    2    0    0 -0.73627911102E+00  0.40793077298E+00  0.53019470901E+00  0.13672837578E+01  0.93800000000E+00 0.  1.
         22    1    1    2    0    0  0.20164130498E+00 -0.89532507355E-01  0.90668620899E+00  0.93314262968E+00  0.00000000000E+00 0.  1.
</event>
<event>
 5    1  0.1461556E+002  0.1594544E+01  0.7818608E-02  0.3359307E+00
         11   -1    0    0    0    0  0.00000000000E+00  0.00000000000E+00  0.39999999674E+01  0.40000000000E+01  0.51100000000E-03 0. -1.
    9000002   -1    0    0    0    0 -0.00000000000E+00 -0.00000000000E+00  0.00000000000E+00  0.93800000000E+00  0.93800000000E+00 0. -1.
         11    1    1    2    0    0  0.31167215222E-01  0.61010255562E-01  0.86814037115E+00  0.87083960160E+00  0.51100000000E-03 0. -1.
    9000002    1    1    2    0    0 -0.20677176029E+00  0.40549709302E-01  0.33283954579E-01  0.96195148600E+00  0.93800000000E+00 0. -1.
         22    1    1    2    0    0  0.17560454507E+00 -0.10155996486E+00  0.30985756416E+01  0.31052089124E+01  0.00000000000E+00 0. -1.
</event>
<event>
 5    1  0.1461556E+002  0.1599672E+01  0.7818608E-02  0.3353719E+00
         11   -1    0    0    0    0  0.00000000000E+00  0.00000000000E+00  0.39999999674E+01  0.40000000000E+01  0.51100000000E-03 0.  1.
    9000002   -1    0    0    0    0 -0.00000000000E+00 -0.00000000000E+00  0.00000000000E+00  0.93800000000E+00  0.93800000000E+00 0.  1.
         11    1    1    2    0    0 -0.48724230621E-02  0.17710413622E-01  0.28692277867E+00  0.28751059337E+00  0.51100000000E-03 0.  1.
    9000002    1    1    2    0    0  0.56830312622E-01 -0.22948852051E+00  0.37096621021E-01  0.96804691248E+00  0.93800000000E+00 0.  1.
         22    1    1    2    0    0 -0.51957889560E-01  0.21177810689E+00  0.36759805677E+01  0.36824424941E+01  0.00000000000E+00 0.  1.
</event>
<event>
 5    1  0.1461556E+002  0.1599578E+01  0.7818608E-02  0.3353821E+00
         11   -1    0    0    0    0  0.00000000000E+00  0.00000000000E+00  0.39999999674E+01  0.40000000000E+01  0.51100000000E-03 0.  1.
    9000002   -1    0    0    0    0 -0.00000000000E+00 -0.00000000000E+00  0.00000000000E+00  0.93800000000E+00  0.93800000000E+00 0. -1.
         11    1    1    2    0    0  0.23391750540E+00  0.24652271441E+00  0.23086401062E+01  0.23335188555E+01  0.51100000000E-03 0.  1.
    9000002    1    1    2    0    0 -0.39382193174E+00 -0.41793488347E+00  0.22894679887E+00  0.11233992689E+01  0.93800000000E+00 0. -1.
         22    1    1    2    0    0  0.15990442634E+00  0.17141216906E+00  0.14624130623E+01  0.14810818755E+01  0.00000000000E+00 0.  1.
</event>
<event>
 5    1  0.1461556E+002  0.1581502E+01  0.7818608E-02  0.3373688E+00
         11   -1    0    0    0    0  0.00000000000E+00  0.00000000000E+00  0.39999999674E+01  0.40000000000E+01  0.51100000000E-03 0. -1.
    9000002   -1    0    0    0    0 -0.00000000000E+00 -0.00000000000E+00  0.00000000000E+00  0.93800000000E+00  0.93800000000E+00 0.  1.
         11    1    1    2    0    0  0.36619671514E-01  0.41603323741E-02  0.24805037290E+01  0.24807775635E+01  0.51100000000E-03 0. -1.
    9000002    1    1    2    0    0 -0.47419996429E-01  0.24329677115E+00  0.54816129051E-01  0.97174625439E+00  0.93800000000E+00 0.  1.
         22    1    1    2    0    0  0.10800324915E-01 -0.24745710353E+00  0.14646801093E+01  0.14854761821E+01  0.00000000000E+00 0. -1.
</event>
<event>
 5    1  0.1461556E+002  0.1599565E+01  0.7818608E-02  0.3353836E+00
         11   -1    0    0    0    0  0.00000000000E+00  0.00000000000E+00  0.39999999674E+01  0.40000000000E+01  0.51100000000E-03 0.  1.
    9000002   -1    0    0    0    0 -0.00000000000E+00 -0.00000000000E+00  0.00000000000E+00  0.93800000000E+00  0.93800000000E+00 0.  1.
         11    1    1    2    0    0 -0.81886138283E-01 -0.51905471119E-01  0.73553283743E+00  0.74189509611E+00  0.51100000000E-03 0.  1.
    9000002    1    1    2    0    0  0.38060610014E+00  0.25222120823E+00  0.14183029462E+00  0.10528230496E+01  0.93800000000E+00 0.  1.
         22    1    1    2    0    0 -0.29871996186E+00 -0.20031573711E+00  0.31226368353E+01  0.31432818543E+01  0.00000000000E+00 0.  1.
</event>
<event>
 5    1  0.1461556E+002  0.1591317E+01  0.7818608E-02  0.3362842E+00
         11   -1    0    0    0    0  0.00000000000E+00  0.00000000000E+00  0.39999999674E+01  0.40000000000E+01  0.51100000000E-03 0. -1.
    9000002   -1    0    0    0    0 -0.00000000000E+00 -0.00000000000E+00  0.00000000000E+00  0.93800000000E+00  0.93800000000E+00 0.  1.
         11    1    1    2    0    0  0.24048465157E-01 -0.12623608390E+00  0.71141750726E+00  0.72293084615E+00  0.51100000000E-03 0. -1.
    9000002    1    1    2    0    0 -0.20455195471E+00  0.23260856730E+00  0.70673684976E-01  0.99034691775E+00  0.93800000000E+00 0.  1.
         22    1    1    2    0    0  0.18050348956E+00 -0.10637248340E+00  0.32179087751E+01  0.32247222361E+01  0.00000000000E+00 0. -1.
</event>
<event>
 5    1  0.1461556E+002  0.1599674E+01  0.7818608E-02  0.3353717E+00
         11   -1    0    0    0    0  0.00000000000E+00  0.00000000000E+00  0.39999999674E+01  0.40000000000E+01  0.51100000000E-03 0. -1.
    9000002   -1    0    0    0    0 -0.00000000000E+00 -0.00000000000E+00  0.00000000000E+00  0.93800000000E+00  0.93800000000E+00 0.  1.
         11    1    1    2    0    0  0.68615331750E-02 -0.27068263870E-01  0.42275629977E+00  0.42367785128E+00  0.51100000000E-03 0. -1.
    9000002    1    1    2    0    0 -0.73203097479E-01  0.25906266911E+00  0.48218412601E-01  0.97705740636E+00  0.93800000000E+00 0.  1.
         22    1    1    2    0    0  0.66341564304E-01 -0.23199440524E+00  0.35290252550E+01  0.35372647424E+01  0.00000000000E+00 0. -1.
</event>
<event>
 5    1  0.1461556E+002  0.1599676E+01  0.7818608E-02  0.3353715E+00
         11   -1    0    0    0    0  0.00000000000E+00  0.00000000000E+00  0.39999999674E+01  0.40000000000E+01  0.51100000000E-03 0. -1.
    9000002   -1    0    0    0    0 -0.00000000000E+00 -0.00000000000E+00  0.00000000000E+00  0.93800000000E+00  0.93800000000E+00 0.  1.
         11    1    1    2    0    0 -0.53708660441E-01  0.76263478614E-01  0.12609535457E+01  0.12643990050E+01  0.51100000000E-03 0. -1.
    9000002    1    1    2    0    0  0.17111616645E+00 -0.24086979466E+00  0.58214882219E-01  0.98515581149E+00  0.93800000000E+00 0.  1.
         22    1    1    2    0    0 -0.11740750600E+00  0.16460631604E+00  0.26808315394E+01  0.26884451835E+01  0.00000000000E+00 0. -1.
</event>
