<event>
 5    1  0.3428566E+002  0.1598730E+01  0.7818608E-02  0.3354743E+00
         11   -1    0    0    0    0  0.00000000000E+00  0.00000000000E+00  0.39999999674E+01  0.40000000000E+01  0.51100000000E-03 0. -1.
    9000002   -1    0    0    0    0 -0.00000000000E+00 -0.00000000000E+00  0.00000000000E+00  0.93800000000E+00  0.93800000000E+00 0. -1.
         11    1    1    2    0    0  0.35728118871E-01  0.52740412471E-01  0.76120931912E+00  0.76387036742E+00  0.51100000000E-03 0. -1.
    9000002    1    1    2    0    0 -0.11107729675E+00 -0.40126646856E+00  0.11797899145E+00  0.10330130624E+01  0.93800000000E+00 0. -1.
         22    1    1    2    0    0  0.75349177883E-01  0.34852605608E+00  0.31208116568E+01  0.31411165702E+01  0.00000000000E+00 0. -1.
</event>
<event>
 5    1  0.3428566E+002  0.1599599E+01  0.7818608E-02  0.3353799E+00
         11   -1    0    0    0    0  0.00000000000E+00  0.00000000000E+00  0.39999999674E+01  0.40000000000E+01  0.51100000000E-03 0.  1.
    9000002   -1    0    0    0    0 -0.00000000000E+00 -0.00000000000E+00  0.00000000000E+00  0.93800000000E+00  0.93800000000E+00 0.  1.
         11    1    1    2    0    0  0.15681780383E+00  0.64963059455E-01  0.16476121677E+01  0.16563327380E+01  0.51100000000E-03 0.  1.
    9000002    1    1    2    0    0 -0.39383769761E+00 -0.15594863864E+00  0.12147352729E+00  0.10363531868E+01  0.93800000000E+00 0.  1.
         22    1    1    2    0    0  0.23701989377E+00  0.90985579190E-01  0.22309142724E+01  0.22453140752E+01  0.00000000000E+00 0.  1.
</event>
<event>
 5    1  0.3428566E+002  0.1599244E+01  0.7818608E-02  0.3354184E+00
         11   -1    0    0    0    0  0.00000000000E+00  0.00000000000E+00  0.39999999674E+01  0.40000000000E+01  0.51100000000E-03 0. -1.
    9000002   -1    0    0    0    0 -0.00000000000E+00 -0.00000000000E+00  0.00000000000E+00  0.93800000000E+00  0.93800000000E+00 0.  1.
         11    1    1    2    0    0 -0.29618311635E-01  0.15197246734E-01  0.47523353667E+00  0.47639833773E+00  0.51100000000E-03 0. -1.
    9000002    1    1    2    0    0  0.36619343056E+00 -0.69404324100E-01  0.93739220885E-01  0.10136792542E+01  0.93800000000E+00 0.  1.
         22    1    1    2    0    0 -0.33657511893E+00  0.54207077366E-01  0.34310272098E+01  0.34479224081E+01  0.00000000000E+00 0. -1.
</event>
<event>
 5    1  0.3428566E+002  0.1597133E+01  0.7818608E-02  0.3356481E+00
         11   -1    0    0    0    0  0.00000000000E+00  0.00000000000E+00  0.39999999674E+01  0.40000000000E+01  0.51100000000E-03 0. -1.
    9000002   -1    0    0    0    0 -0.00000000000E+00 -0.00000000000E+00  0.00000000000E+00  0.93800000000E+00  0.93800000000E+00 0.  1.
         11    1    1    2    0    0 -0.10685364182E+00 -0.82988095066E-01  0.10792698675E+01  0.10877170739E+01  0.51100000000E-03 0. -1.
    9000002    1    1    2    0    0  0.32289047958E+00  0.11504900677E+00  0.80761346936E-01  0.10019286057E+01  0.93800000000E+00 0.  1.
         22    1    1    2    0    0 -0.21603683776E+00 -0.32060911709E-01  0.28399687529E+01  0.28483543204E+01  0.00000000000E+00 0. -1.
</event>
<event>
 5    1  0.3428566E+002  0.1591833E+01  0.7818608E-02  0.3362276E+00
         11   -1    0    0    0    0  0.00000000000E+00  0.00000000000E+00  0.39999999674E+01  0.40000000000E+01  0.51100000000E-03 0. -1.
    9000002   -1    0    0    0    0 -0.00000000000E+00 -0.00000000000E+00  0.00000000000E+00  0.93800000000E+00  0.93800000000E+00 0. -1.
         11    1    1    2    0    0  0.64168600507E-03 -0.55379913614E-01  0.11571323739E+01  0.11584571371E+01  0.51100000000E-03 0. -1.
    9000002    1    1    2    0    0 -0.85877379965E-01 -0.13172393678E+00  0.22155040450E-01  0.95134692186E+00  0.93800000000E+00 0. -1.
         22    1    1    2    0    0  0.85235693960E-01  0.18710385040E+00  0.28207125530E+01  0.28281959411E+01  0.00000000000E+00 0. -1.
</event>
<event>
 5    1  0.3428566E+002  0.1598020E+01  0.7818608E-02  0.3355515E+00
         11   -1    0    0    0    0  0.00000000000E+00  0.00000000000E+00  0.39999999674E+01  0.40000000000E+01  0.51100000000E-03 0. -1.
    9000002   -1    0    0    0    0 -0.00000000000E+00 -0.00000000000E+00  0.00000000000E+00  0.93800000000E+00  0.93800000000E+00 0.  1.
         11    1    1    2    0    0 -0.79593937455E-02 -0.16933716041E-02  0.16021672999E+00  0.16042406660E+00  0.51100000000E-03 0. -1.
    9000002    1    1    2    0    0  0.29748699069E+00 -0.41605406174E+00  0.18093896512E+00  0.10835969735E+01  0.93800000000E+00 0.  1.
         22    1    1    2    0    0 -0.28952759694E+00  0.41774743335E+00  0.36588442723E+01  0.36939789599E+01  0.00000000000E+00 0. -1.
</event>
<event>
 5    1  0.3428566E+002  0.1599669E+01  0.7818608E-02  0.3353723E+00
         11   -1    0    0    0    0  0.00000000000E+00  0.00000000000E+00  0.39999999674E+01  0.40000000000E+01  0.51100000000E-03 0.  1.
    9000002   -1    0    0    0    0 -0.00000000000E+00 -0.00000000000E+00  0.00000000000E+00  0.93800000000E+00  0.93800000000E+00 0. -1.
         11    1    1    2    0    0 -0.31641254525E-01 -0.21021737135E-01  0.40451271358E+00  0.40629284881E+00  0.51100000000E-03 0.  1.
    9000002    1    1    2    0    0  0.31753048352E+00  0.18694515119E+00  0.91235909184E-01  0.10119002365E+01  0.93800000000E+00 0. -1.
         22    1    1    2    0    0 -0.28588922899E+00 -0.16592341406E+00  0.35042513446E+01  0.35198069147E+01  0.00000000000E+00 0.  1.
</event>
<event>
 5    1  0.3428566E+002  0.1599653E+01  0.7818608E-02  0.3353740E+00
         11   -1    0    0    0    0  0.00000000000E+00  0.00000000000E+00  0.39999999674E+01  0.40000000000E+01  0.51100000000E-03 0. -1.
    9000002   -1    0    0    0    0 -0.00000000000E+00 -0.00000000000E+00  0.00000000000E+00  0.93800000000E+00  0.93800000000E+00 0. -1.
         11    1    1    2    0    0  0.65843435625E-01  0.87352557671E-01  0.11269595774E+01  0.11322561449E+01  0.51100000000E-03 0. -1.
    9000002    1    1    2    0    0 -0.21379751508E+00 -0.31421915056E+00  0.97207318868E-01  0.10167282404E+01  0.93800000000E+00 0. -1.
         22    1    1    2    0    0  0.14795407946E+00  0.22686659289E+00  0.27758330711E+01  0.27890156147E+01  0.00000000000E+00 0. -1.
</event>
<event>
 5    1  0.3428566E+002  0.1587606E+01  0.7818608E-02  0.3366926E+00
         11   -1    0    0    0    0  0.00000000000E+00  0.00000000000E+00  0.39999999674E+01  0.40000000000E+01  0.51100000000E-03 0. -1.
    9000002   -1    0    0    0    0 -0.00000000000E+00 -0.00000000000E+00  0.00000000000E+00  0.93800000000E+00  0.93800000000E+00 0.  1.
         11    1    1    2    0    0  0.12599356345E-01 -0.60228690089E-01  0.24475505015E+01  0.24483239077E+01  0.51100000000E-03 0. -1.
    9000002    1    1    2    0    0  0.18787155955E+00  0.10166198966E+00  0.39380084659E-01  0.96282172498E+00  0.93800000000E+00 0.  1.
         22    1    1    2    0    0 -0.20047091589E+00 -0.41433299573E-01  0.15130693812E+01  0.15268543673E+01  0.00000000000E+00 0. -1.
</event>
<event>
 5    1  0.3428566E+002  0.1599058E+01  0.7818608E-02  0.3354386E+00
         11   -1    0    0    0    0  0.00000000000E+00  0.00000000000E+00  0.39999999674E+01  0.40000000000E+01  0.51100000000E-03 0. -1.
    9000002   -1    0    0    0    0 -0.00000000000E+00 -0.00000000000E+00  0.00000000000E+00  0.93800000000E+00  0.93800000000E+00 0. -1.
         11    1    1    2    0    0 -0.17290340082E-01  0.21549853312E-01  0.70575698053E+00  0.70629776209E+00  0.51100000000E-03 0. -1.
    9000002    1    1    2    0    0  0.22352693837E+00 -0.14233613968E+00  0.47180399485E-01  0.97585544981E+00  0.93800000000E+00 0. -1.
         22    1    1    2    0    0 -0.20623659829E+00  0.12078628637E+00  0.32470625873E+01  0.32558467881E+01  0.00000000000E+00 0. -1.
</event>
<event>
 5    1  0.3428566E+002  0.1599641E+01  0.7818608E-02  0.3353753E+00
         11   -1    0    0    0    0  0.00000000000E+00  0.00000000000E+00  0.39999999674E+01  0.40000000000E+01  0.51100000000E-03 0. -1.
    9000002   -1    0    0    0    0 -0.00000000000E+00 -0.00000000000E+00  0.00000000000E+00  0.93800000000E+00  0.93800000000E+00 0.  1.
         11    1    1    2    0    0 -0.24644050124E+00  0.75684729409E-01  0.19225901362E+01  0.19397974615E+01  0.51100000000E-03 0. -1.
    9000002    1    1    2    0    0  0.48303465128E+00 -0.16297788693E+00  0.17823391722E+00  0.10823565010E+01  0.93800000000E+00 0.  1.
         22    1    1    2    0    0 -0.23659415004E+00  0.87293157523E-01  0.18991759140E+01  0.19158460375E+01  0.00000000000E+00 0. -1.
</event>
<event>
 5    1  0.3428566E+002  0.1406149E+01  0.7818608E-02  0.3597069E+00
         11   -1    0    0    0    0  0.00000000000E+00  0.00000000000E+00  0.39999999674E+01  0.40000000000E+01  0.51100000000E-03 0.  1.
    9000002   -1    0    0    0    0 -0.00000000000E+00 -0.00000000000E+00  0.00000000000E+00  0.93800000000E+00  0.93800000000E+00 0. -1.
         11    1    1    2    0    0 -0.54188034796E+00  0.16244059022E+00  0.15841025301E+01  0.16820827399E+01  0.51100000000E-03 0.  1.
    9000002    1    1    2    0    0  0.11769028742E+00  0.25534675092E-01  0.16783758533E+00  0.96047721391E+00  0.93800000000E+00 0. -1.
         22    1    1    2    0    0  0.42419006054E+00 -0.18797526532E+00  0.22480598519E+01  0.22954400462E+01  0.00000000000E+00 0.  1.
</event>
<event>
 5    1  0.3428566E+002  0.1548084E+01  0.7818608E-02  0.3411713E+00
         11   -1    0    0    0    0  0.00000000000E+00  0.00000000000E+00  0.39999999674E+01  0.40000000000E+01  0.51100000000E-03 0.  1.
    9000002   -1    0    0    0    0 -0.00000000000E+00 -0.00000000000E+00  0.00000000000E+00  0.93800000000E+00  0.93800000000E+00 0. -1.
         11    1    1    2    0    0 -0.26694128447E+00 -0.18558015817E+00  0.31907656443E+01  0.32072859714E+01  0.51100000000E-03 0.  1.
    9000002    1    1    2    0    0  0.66205694798E-01  0.19957284299E+00  0.69150579306E-01  0.96376258295E+00  0.93800000000E+00 0. -1.
         22    1    1    2    0    0  0.20073558967E+00 -0.13992684819E-01  0.74008374376E+00  0.76695144564E+00  0.00000000000E+00 0.  1.
</event>
<event>
 5    1  0.3428566E+002  0.1595664E+01  0.7818608E-02  0.3358083E+00
         11   -1    0    0    0    0  0.00000000000E+00  0.00000000000E+00  0.39999999674E+01  0.40000000000E+01  0.51100000000E-03 0. -1.
    9000002   -1    0    0    0    0 -0.00000000000E+00 -0.00000000000E+00  0.00000000000E+00  0.93800000000E+00  0.93800000000E+00 0. -1.
         11    1    1    2    0    0 -0.45021796009E-01 -0.11099935394E-01  0.19371654374E+00  0.19918968628E+00  0.51100000000E-03 0. -1.
    9000002    1    1    2    0    0  0.24684311677E+00  0.12333780154E+00  0.53797393164E-01  0.97922515138E+00  0.93800000000E+00 0. -1.
         22    1    1    2    0    0 -0.20182132076E+00 -0.11223786615E+00  0.37524860305E+01  0.37595851623E+01  0.00000000000E+00 0. -1.
</event>
<event>
 5    1  0.3428566E+002  0.1599634E+01  0.7818608E-02  0.3353761E+00
         11   -1    0    0    0    0  0.00000000000E+00  0.00000000000E+00  0.39999999674E+01  0.40000000000E+01  0.51100000000E-03 0. -1.
    9000002   -1    0    0    0    0 -0.00000000000E+00 -0.00000000000E+00  0.00000000000E+00  0.93800000000E+00  0.93800000000E+00 0. -1.
         11    1    1    2    0    0 -0.80899291493E-02 -0.23190181694E-01  0.29087957116E+00  0.29191508615E+00  0.51100000000E-03 0. -1.
    9000002    1    1    2    0    0  0.87984511468E-01  0.26354512680E+00  0.51430543970E-01  0.97963585529E+00  0.93800000000E+00 0. -1.
         22    1    1    2    0    0 -0.79894582319E-01 -0.24035494511E+00  0.36576898522E+01  0.36664490586E+01  0.00000000000E+00 0. -1.
</event>
<event>
 5    1  0.3428566E+002  0.1599041E+01  0.7818608E-02  0.3354405E+00
         11   -1    0    0    0    0  0.00000000000E+00  0.00000000000E+00  0.39999999674E+01  0.40000000000E+01  0.51100000000E-03 0.  1.
    9000002   -1    0    0    0    0 -0.00000000000E+00 -0.00000000000E+00  0.00000000000E+00  0.93800000000E+00  0.93800000000E+00 0. -1.
         11    1    1    2    0    0  0.14752542956E+00 -0.17076016203E+00  0.10437145697E+01  0.10678310491E+01  0.51100000000E-03 0.  1.
    9000002    1    1    2    0    0 -0.42314895852E+00  0.56439079134E+00  0.35685476772E+00  0.12266952889E+01  0.93800000000E+00 0. -1.
         22    1    1    2    0    0  0.27562352897E+00 -0.39363062931E+00  0.25994306300E+01  0.26434736621E+01  0.00000000000E+00 0.  1.
</event>
<event>
 5    1  0.3428566E+002  0.1592931E+01  0.7818608E-02  0.3361071E+00
         11   -1    0    0    0    0  0.00000000000E+00  0.00000000000E+00  0.39999999674E+01  0.40000000000E+01  0.51100000000E-03 0. -1.
    9000002   -1    0    0    0    0 -0.00000000000E+00 -0.00000000000E+00  0.00000000000E+00  0.93800000000E+00  0.93800000000E+00 0. -1.
         11    1    1    2    0    0 -0.34841774960E-01  0.10262413119E-02  0.20948426583E+00  0.21236506588E+00  0.51100000000E-03 0. -1.
    9000002    1    1    2    0    0 -0.16772751706E+00  0.11370075688E+00  0.32264065698E-01  0.96017985400E+00  0.93800000000E+00 0. -1.
         22    1    1    2    0    0  0.20256929202E+00 -0.11472699819E+00  0.37582516358E+01  0.37654550801E+01  0.00000000000E+00 0. -1.
</event>
<event>
 5    1  0.3428566E+002  0.1566871E+01  0.7818608E-02  0.3390125E+00
         11   -1    0    0    0    0  0.00000000000E+00  0.00000000000E+00  0.39999999674E+01  0.40000000000E+01  0.51100000000E-03 0.  1.
    9000002   -1    0    0    0    0 -0.00000000000E+00 -0.00000000000E+00  0.00000000000E+00  0.93800000000E+00  0.93800000000E+00 0. -1.
         11    1    1    2    0    0  0.10973158911E+00  0.86921455180E-01  0.13997968445E+01  0.14067792392E+01  0.51100000000E-03 0.  1.
    9000002    1    1    2    0    0  0.66802121745E-01  0.20679799430E+00  0.56461529594E-01  0.96449978654E+00  0.93800000000E+00 0. -1.
         22    1    1    2    0    0 -0.17653371085E+00 -0.29371944948E+00  0.25437415933E+01  0.25667209742E+01  0.00000000000E+00 0.  1.
</event>
<event>
 5    1  0.3428566E+002  0.1599168E+01  0.7818608E-02  0.3354267E+00
         11   -1    0    0    0    0  0.00000000000E+00  0.00000000000E+00  0.39999999674E+01  0.40000000000E+01  0.51100000000E-03 0. -1.
    9000002   -1    0    0    0    0 -0.00000000000E+00 -0.00000000000E+00  0.00000000000E+00  0.93800000000E+00  0.93800000000E+00 0. -1.
         11    1    1    2    0    0 -0.29190650930E-01 -0.77150430874E-01  0.73587975435E+00  0.74048872852E+00  0.51100000000E-03 0. -1.
    9000002    1    1    2    0    0  0.83644082756E-01  0.32380735037E+00  0.75275790524E-01  0.99867811500E+00  0.93800000000E+00 0. -1.
         22    1    1    2    0    0 -0.54453431826E-01 -0.24665691950E+00  0.31888444225E+01  0.31988331565E+01  0.00000000000E+00 0. -1.
</event>
<event>
 5    1  0.3428566E+002  0.1599587E+01  0.7818608E-02  0.3353812E+00
         11   -1    0    0    0    0  0.00000000000E+00  0.00000000000E+00  0.39999999674E+01  0.40000000000E+01  0.51100000000E-03 0.  1.
    9000002   -1    0    0    0    0 -0.00000000000E+00 -0.00000000000E+00  0.00000000000E+00  0.93800000000E+00  0.93800000000E+00 0. -1.
         11    1    1    2    0    0 -0.27800395727E-01  0.17370302782E-01  0.57829791916E+00  0.57922649615E+00  0.51100000000E-03 0.  1.
    9000002    1    1    2    0    0  0.16673559155E+00 -0.16893828649E+00  0.37460138480E-01  0.96829136323E+00  0.93800000000E+00 0. -1.
         22    1    1    2    0    0 -0.13893519583E+00  0.15156798371E+00  0.33842419097E+01  0.33904821406E+01  0.00000000000E+00 0.  1.
</event>
<event>
 5    1  0.3428566E+002  0.1599658E+01  0.7818608E-02  0.3353734E+00
         11   -1    0    0    0    0  0.00000000000E+00  0.00000000000E+00  0.39999999674E+01  0.40000000000E+01  0.51100000000E-03 0.  1.
    9000002   -1    0    0    0    0 -0.00000000000E+00 -0.00000000000E+00  0.00000000000E+00  0.93800000000E+00  0.93800000000E+00 0.  1.
         11    1    1    2    0    0  0.20166957079E-01 -0.10949280458E-01  0.28151948719E+00  0.28245366999E+00  0.51100000000E-03 0.  1.
    9000002    1    1    2    0    0 -0.30288506187E+00  0.18158452996E+00  0.83664994797E-01  0.10057614695E+01  0.93800000000E+00 0.  1.
         22    1    1    2    0    0  0.28271810479E+00 -0.17063524950E+00  0.36348154854E+01  0.36497848605E+01  0.00000000000E+00 0.  1.
</event>
<event>
 5    1  0.3428566E+002  0.1567921E+01  0.7818608E-02  0.3388935E+00
         11   -1    0    0    0    0  0.00000000000E+00  0.00000000000E+00  0.39999999674E+01  0.40000000000E+01  0.51100000000E-03 0. -1.
    9000002   -1    0    0    0    0 -0.00000000000E+00 -0.00000000000E+00  0.00000000000E+00  0.93800000000E+00  0.93800000000E+00 0. -1.
         11    1    1    2    0    0 -0.13056871895E+00  0.43320834238E-01  0.38063104286E+00  0.40472847313E+00  0.51100000000E-03 0. -1.
    9000002    1    1    2    0    0  0.41500553937E-01 -0.22251086022E+00  0.58404802010E-01  0.96668945365E+00  0.93800000000E+00 0. -1.
         22    1    1    2    0    0  0.89068165011E-01  0.17919002598E+00  0.35609641225E+01  0.35665820732E+01  0.00000000000E+00 0. -1.
</event>
<event>
 5    1  0.3428566E+002  0.1598777E+01  0.7818608E-02  0.3354692E+00
         11   -1    0    0    0    0  0.00000000000E+00  0.00000000000E+00  0.39999999674E+01  0.40000000000E+01  0.51100000000E-03 0.  1.
    9000002   -1    0    0    0    0 -0.00000000000E+00 -0.00000000000E+00  0.00000000000E+00  0.93800000000E+00  0.93800000000E+00 0. -1.
         11    1    1    2    0    0  0.20323942371E-02 -0.16283471433E-01  0.61485618479E-01  0.63639802553E-01  0.51100000000E-03 0.  1.
    9000002    1    1    2    0    0  0.15121402746E+00  0.50889477119E+00  0.19481202775E+00  0.10952786387E+01  0.93800000000E+00 0. -1.
         22    1    1    2    0    0 -0.15324642170E+00 -0.49261129975E+00  0.37437023211E+01  0.37790815587E+01  0.00000000000E+00 0.  1.
</event>
<event>
 5    1  0.3428566E+002  0.1597224E+01  0.7818608E-02  0.3356382E+00
         11   -1    0    0    0    0  0.00000000000E+00  0.00000000000E+00  0.39999999674E+01  0.40000000000E+01  0.51100000000E-03 0.  1.
    9000002   -1    0    0    0    0 -0.00000000000E+00 -0.00000000000E+00  0.00000000000E+00  0.93800000000E+00  0.93800000000E+00 0.  1.
         11    1    1    2    0    0 -0.36821577299E-01 -0.27655195212E-01  0.57247036536E+00  0.57431978785E+00  0.51100000000E-03 0.  1.
    9000002    1    1    2    0    0 -0.30224656350E-01  0.24520860491E+00  0.42414586004E-01  0.97091904239E+00  0.93800000000E+00 0.  1.
         22    1    1    2    0    0  0.67046233649E-01 -0.21755340969E+00  0.33851150160E+01  0.33927611698E+01  0.00000000000E+00 0.  1.
</event>
<event>
 5    1  0.3428566E+002  0.1540727E+01  0.7818608E-02  0.3420321E+00
         11   -1    0    0    0    0  0.00000000000E+00  0.00000000000E+00  0.39999999674E+01  0.40000000000E+01  0.51100000000E-03 0. -1.
    9000002   -1    0    0    0    0 -0.00000000000E+00 -0.00000000000E+00  0.00000000000E+00  0.93800000000E+00  0.93800000000E+00 0.  1.
         11    1    1    2    0    0  0.37651331704E+00  0.12799431359E+00  0.26643957038E+01  0.26939097145E+01  0.51100000000E-03 0. -1.
    9000002    1    1    2    0    0 -0.16351704010E+00 -0.95830420646E-01  0.69154813001E-01  0.95945176017E+00  0.93800000000E+00 0.  1.
         22    1    1    2    0    0 -0.21299627694E+00 -0.32163892941E-01  0.12664494505E+01  0.12846385253E+01  0.00000000000E+00 0. -1.
</event>
<event>
 5    1  0.3428566E+002  0.1599580E+01  0.7818608E-02  0.3353819E+00
         11   -1    0    0    0    0  0.00000000000E+00  0.00000000000E+00  0.39999999674E+01  0.40000000000E+01  0.51100000000E-03 0.  1.
    9000002   -1    0    0    0    0 -0.00000000000E+00 -0.00000000000E+00  0.00000000000E+00  0.93800000000E+00  0.93800000000E+00 0.  1.
         11    1    1    2    0    0  0.29022408685E-01 -0.10249016642E-01  0.41207538031E+00  0.41322357475E+00  0.51100000000E-03 0.  1.
    9000002    1    1    2    0    0 -0.29642714647E+00  0.31503114957E-01  0.59345721142E-01  0.98601592991E+00  0.93800000000E+00 0.  1.
         22    1    1    2    0    0  0.26740473778E+00 -0.21254098315E-01  0.35285788659E+01  0.35387604953E+01  0.00000000000E+00 0.  1.
</event>
<event>
 5    1  0.3428566E+002  0.1599677E+01  0.7818608E-02  0.3353714E+00
         11   -1    0    0    0    0  0.00000000000E+00  0.00000000000E+00  0.39999999674E+01  0.40000000000E+01  0.51100000000E-03 0. -1.
    9000002   -1    0    0    0    0 -0.00000000000E+00 -0.00000000000E+00  0.00000000000E+00  0.93800000000E+00  0.93800000000E+00 0.  1.
         11    1    1    2    0    0  0.10280628437E-01  0.82815275142E-01  0.98026621924E+00  0.98381206682E+00  0.51100000000E-03 0.  1.
    9000002    1    1    2    0    0 -0.42569042870E-01 -0.33305938424E+00  0.75478154217E-01  0.99914044489E+00  0.93800000000E+00 0.  1.
         22    1    1    2    0    0  0.32288414433E-01  0.25024410910E+00  0.29442555939E+01  0.29550474883E+01  0.00000000000E+00 0. -1.
</event>
<event>
 5    1  0.3428566E+002  0.1586529E+01  0.7818608E-02  0.3368116E+00
         11   -1    0    0    0    0  0.00000000000E+00  0.00000000000E+00  0.39999999674E+01  0.40000000000E+01  0.51100000000E-03 0.  1.
    9000002   -1    0    0    0    0 -0.00000000000E+00 -0.00000000000E+00  0.00000000000E+00  0.93800000000E+00  0.93800000000E+00 0.  1.
         11    1    1    2    0    0 -0.51693348375E-02  0.14961764636E-01  0.75600700737E-02  0.17549706670E-01  0.51100000000E-03 0.  1.
    9000002    1    1    2    0    0 -0.38263305679E+00 -0.20549834751E+00  0.13913498973E+00  0.10429957681E+01  0.93800000000E+00 0.  1.
         22    1    1    2    0    0  0.38780239163E+00  0.19053658287E+00  0.38533049076E+01  0.38774545252E+01  0.00000000000E+00 0.  1.
</event>
<event>
 5    1  0.3428566E+002  0.1495601E+01  0.7818608E-02  0.3475101E+00
         11   -1    0    0    0    0  0.00000000000E+00  0.00000000000E+00  0.39999999674E+01  0.40000000000E+01  0.51100000000E-03 0.  1.
    9000002   -1    0    0    0    0 -0.00000000000E+00 -0.00000000000E+00  0.00000000000E+00  0.93800000000E+00  0.93800000000E+00 0.  1.
         11    1    1    2    0    0 -0.29513432046E+00 -0.10818634899E+00  0.14616473760E+01  0.14950658401E+01  0.51100000000E-03 0.  1.
    9000002    1    1    2    0    0 -0.19111018200E+00  0.69596040199E-01  0.11000304610E+00  0.96608042141E+00  0.93800000000E+00 0.  1.
         22    1    1    2    0    0  0.48624450247E+00  0.38590308795E-01  0.24283495453E+01  0.24768537385E+01  0.00000000000E+00 0.  1.
</event>
<event>
 5    1  0.3428566E+002  0.1599183E+01  0.7818608E-02  0.3354251E+00
         11   -1    0    0    0    0  0.00000000000E+00  0.00000000000E+00  0.39999999674E+01  0.40000000000E+01  0.51100000000E-03 0. -1.
    9000002   -1    0    0    0    0 -0.00000000000E+00 -0.00000000000E+00  0.00000000000E+00  0.93800000000E+00  0.93800000000E+00 0. -1.
         11    1    1    2    0    0 -0.43381462052E-02 -0.15231782156E-02  0.37218022179E-01  0.37504424810E-01  0.51100000000E-03 0. -1.
    9000002    1    1    2    0    0  0.55335049466E-01  0.52514792082E+00  0.19227347191E+00  0.10934602848E+01  0.93800000000E+00 0. -1.
         22    1    1    2    0    0 -0.50996903261E-01 -0.52362474261E+00  0.37705084733E+01  0.38070352904E+01  0.00000000000E+00 0. -1.
</event>
<event>
 5    1  0.3428566E+002  0.1472992E+01  0.7818608E-02  0.3503909E+00
         11   -1    0    0    0    0  0.00000000000E+00  0.00000000000E+00  0.39999999674E+01  0.40000000000E+01  0.51100000000E-03 0. -1.
    9000002   -1    0    0    0    0 -0.00000000000E+00 -0.00000000000E+00  0.00000000000E+00  0.93800000000E+00  0.93800000000E+00 0. -1.
         11    1    1    2    0    0 -0.45611789990E+00  0.11476292199E+00  0.19092196547E+01  0.19662995748E+01  0.51100000000E-03 0. -1.
    9000002    1    1    2    0    0  0.11061346923E+00  0.68331995248E-01  0.11074160211E+00  0.95342136728E+00  0.93800000000E+00 0. -1.
         22    1    1    2    0    0  0.34550443067E+00 -0.18309491724E+00  0.19800387106E+01  0.20182790579E+01  0.00000000000E+00 0. -1.
</event>
<event>
 5    1  0.3428566E+002  0.1599612E+01  0.7818608E-02  0.3353785E+00
         11   -1    0    0    0    0  0.00000000000E+00  0.00000000000E+00  0.39999999674E+01  0.40000000000E+01  0.51100000000E-03 0. -1.
    9000002   -1    0    0    0    0 -0.00000000000E+00 -0.00000000000E+00  0.00000000000E+00  0.93800000000E+00  0.93800000000E+00 0. -1.
         11    1    1    2    0    0 -0.95850074112E-01  0.46084317853E-01  0.82407055527E+00  0.83090525467E+00  0.51100000000E-03 0. -1.
    9000002    1    1    2    0    0  0.47823145185E+00 -0.22476802460E+00  0.19215343064E+00  0.10936146155E+01  0.93800000000E+00 0. -1.
         22    1    1    2    0    0 -0.38238137774E+00  0.17868370675E+00  0.29837759815E+01  0.30134801298E+01  0.00000000000E+00 0.  1.
</event>
<event>
 5    1  0.3428566E+002  0.1589616E+01  0.7818608E-02  0.3364712E+00
         11   -1    0    0    0    0  0.00000000000E+00  0.00000000000E+00  0.39999999674E+01  0.40000000000E+01  0.51100000000E-03 0. -1.
    9000002   -1    0    0    0    0 -0.00000000000E+00 -0.00000000000E+00  0.00000000000E+00  0.93800000000E+00  0.93800000000E+00 0. -1.
         11    1    1    2    0    0 -0.48406390834E-01  0.43239064968E-01  0.95359158271E+00  0.95579807656E+00  0.51100000000E-03 0. -1.
    9000002    1    1    2    0    0 -0.66554079626E-02  0.19542127312E+00  0.32871012174E-01  0.95872742314E+00  0.93800000000E+00 0. -1.
         22    1    1    2    0    0  0.55061798797E-01 -0.23866033809E+00  0.30135373725E+01  0.30234745003E+01  0.00000000000E+00 0. -1.
</event>
<event>
 5    1  0.3428566E+002  0.1585826E+01  0.7818608E-02  0.3368892E+00
         11   -1    0    0    0    0  0.00000000000E+00  0.00000000000E+00  0.39999999674E+01  0.40000000000E+01  0.51100000000E-03 0.  1.
    9000002   -1    0    0    0    0 -0.00000000000E+00 -0.00000000000E+00  0.00000000000E+00  0.93800000000E+00  0.93800000000E+00 0.  1.
         11    1    1    2    0    0  0.25200706730E-01  0.17679541321E-01  0.41732177477E-01  0.51860173149E-01  0.51100000000E-03 0.  1.
    9000002    1    1    2    0    0  0.13513434585E+00 -0.23847465969E+00  0.60785441151E-01  0.97911711485E+00  0.93800000000E+00 0.  1.
         22    1    1    2    0    0 -0.16033505258E+00  0.22079511837E+00  0.38974823487E+01  0.39070227120E+01  0.00000000000E+00 0.  1.
</event>
<event>
 5    1  0.3428566E+002  0.1520572E+01  0.7818608E-02  0.3444357E+00
         11   -1    0    0    0    0  0.00000000000E+00  0.00000000000E+00  0.39999999674E+01  0.40000000000E+01  0.51100000000E-03 0. -1.
    9000002   -1    0    0    0    0 -0.00000000000E+00 -0.00000000000E+00  0.00000000000E+00  0.93800000000E+00  0.93800000000E+00 0.  1.
         11    1    1    2    0    0  0.14461547457E-02 -0.23150399702E+00  0.12696819485E+01  0.12906156296E+01  0.51100000000E-03 0. -1.
    9000002    1    1    2    0    0 -0.42475624070E-01 -0.26230496496E+00  0.11054105835E+00  0.98115819258E+00  0.93800000000E+00 0.  1.
         22    1    1    2    0    0  0.41029469325E-01  0.49380896198E+00  0.26197769605E+01  0.26662261778E+01  0.00000000000E+00 0. -1.
</event>
<event>
 5    1  0.3428566E+002  0.1599672E+01  0.7818608E-02  0.3353719E+00
         11   -1    0    0    0    0  0.00000000000E+00  0.00000000000E+00  0.39999999674E+01  0.40000000000E+01  0.51100000000E-03 0.  1.
    9000002   -1    0    0    0    0 -0.00000000000E+00 -0.00000000000E+00  0.00000000000E+00  0.93800000000E+00  0.93800000000E+00 0.  1.
         11    1    1    2    0    0  0.27677239155E-01  0.30952689020E+00  0.17246472240E+01  0.17524215342E+01  0.51100000000E-03 0.  1.
    9000002    1    1    2    0    0 -0.54138748026E-01 -0.66404574566E+00  0.31448062594E+00  0.11927404665E+01  0.93800000000E+00 0.  1.
         22    1    1    2    0    0  0.26461508870E-01  0.35451885545E+00  0.19608721175E+01  0.19928379993E+01  0.00000000000E+00 0.  1.
</event>
<event>
 5    1  0.3428566E+002  0.1599676E+01  0.7818608E-02  0.3353716E+00
         11   -1    0    0    0    0  0.00000000000E+00  0.00000000000E+00  0.39999999674E+01  0.40000000000E+01  0.51100000000E-03 0.  1.
    9000002   -1    0    0    0    0 -0.00000000000E+00 -0.00000000000E+00  0.00000000000E+00  0.93800000000E+00  0.93800000000E+00 0. -1.
         11    1    1    2    0    0  0.22919794930E-01  0.72243253336E-01  0.92241448778E+00  0.92552317801E+00  0.51100000000E-03 0.  1.
    9000002    1    1    2    0    0 -0.92931244951E-01 -0.30935376225E+00  0.69760374964E-01  0.99450815805E+00  0.93800000000E+00 0. -1.
         22    1    1    2    0    0  0.70011450021E-01  0.23711050891E+00  0.30078251046E+01  0.30179686639E+01  0.00000000000E+00 0.  1.
</event>
<event>
 5    1  0.3428566E+002  0.1589040E+01  0.7818608E-02  0.3365346E+00
         11   -1    0    0    0    0  0.00000000000E+00  0.00000000000E+00  0.39999999674E+01  0.40000000000E+01  0.51100000000E-03 0.  1.
    9000002   -1    0    0    0    0 -0.00000000000E+00 -0.00000000000E+00  0.00000000000E+00  0.93800000000E+00  0.93800000000E+00 0.  1.
         11    1    1    2    0    0 -0.11438531576E+00  0.43545037331E-01  0.68947482146E+00  0.70025421190E+00  0.51100000000E-03 0.  1.
    9000002    1    1    2    0    0  0.11296518780E+00 -0.26044018242E+00  0.61988289909E-01  0.98197595203E+00  0.93800000000E+00 0.  1.
         22    1    1    2    0    0  0.14201279601E-02  0.21689514509E+00  0.32485368560E+01  0.32557698361E+01  0.00000000000E+00 0.  1.
</event>
<event>
 5    1  0.3428566E+002  0.1479053E+01  0.7818608E-02  0.3496093E+00
         11   -1    0    0    0    0  0.00000000000E+00  0.00000000000E+00  0.39999999674E+01  0.40000000000E+01  0.51100000000E-03 0. -1.
    9000002   -1    0    0    0    0 -0.00000000000E+00 -0.00000000000E+00  0.00000000000E+00  0.93800000000E+00  0.93800000000E+00 0. -1.
         11    1    1    2    0    0 -0.82035828581E-01  0.58526652194E-01 -0.35272455014E-01  0.10676915937E+00  0.51100000000E-03 0. -1.
    9000002    1    1    2    0    0  0.28041636172E+00 -0.60897654227E-02  0.21107499484E+00  0.10015323632E+01  0.93800000000E+00 0. -1.
         22    1    1    2    0    0 -0.19838053314E+00 -0.52436886772E-01  0.38241974275E+01  0.38296984774E+01  0.00000000000E+00 0. -1.
</event>
<event>
 5    1  0.3428566E+002  0.1599661E+01  0.7818608E-02  0.3353732E+00
         11   -1    0    0    0    0  0.00000000000E+00  0.00000000000E+00  0.39999999674E+01  0.40000000000E+01  0.51100000000E-03 0. -1.
    9000002   -1    0    0    0    0 -0.00000000000E+00 -0.00000000000E+00  0.00000000000E+00  0.93800000000E+00  0.93800000000E+00 0. -1.
         11    1    1    2    0    0 -0.86608251478E-02  0.32511202775E-02  0.13138619217E+00  0.13171246064E+00  0.51100000000E-03 0. -1.
    9000002    1    1    2    0    0  0.23179147606E+00 -0.56771609590E-01  0.37811896907E-01  0.96861965888E+00  0.93800000000E+00 0. -1.
         22    1    1    2    0    0 -0.22313065091E+00  0.53520489313E-01  0.38308018783E+01  0.38376678805E+01  0.00000000000E+00 0. -1.
</event>
<event>
 5    1  0.3428566E+002  0.1599294E+01  0.7818608E-02  0.3354130E+00
         11   -1    0    0    0    0  0.00000000000E+00  0.00000000000E+00  0.39999999674E+01  0.40000000000E+01  0.51100000000E-03 0. -1.
    9000002   -1    0    0    0    0 -0.00000000000E+00 -0.00000000000E+00  0.00000000000E+00  0.93800000000E+00  0.93800000000E+00 0. -1.
         11    1    1    2    0    0  0.85263674194E-01 -0.83954752948E-01  0.11461586078E+01  0.11523880032E+01  0.51100000000E-03 0. -1.
    9000002    1    1    2    0    0 -0.21890405945E+00  0.27542925174E+00  0.83321112530E-01  0.10052694503E+01  0.93800000000E+00 0. -1.
         22    1    1    2    0    0  0.13364038526E+00 -0.19147449880E+00  0.27705202470E+01  0.27803425464E+01  0.00000000000E+00 0. -1.
</event>
<event>
 5    1  0.3428566E+002  0.1598052E+01  0.7818608E-02  0.3355481E+00
         11   -1    0    0    0    0  0.00000000000E+00  0.00000000000E+00  0.39999999674E+01  0.40000000000E+01  0.51100000000E-03 0.  1.
    9000002   -1    0    0    0    0 -0.00000000000E+00 -0.00000000000E+00  0.00000000000E+00  0.93800000000E+00  0.93800000000E+00 0.  1.
         11    1    1    2    0    0  0.10909965334E+00  0.36388149741E+00  0.12580590131E+01  0.13141633157E+01  0.51100000000E-03 0.  1.
    9000002    1    1    2    0    0 -0.26412874497E+00 -0.85291731453E+00  0.61083433642E+00  0.14318500361E+01  0.93800000000E+00 0.  1.
         22    1    1    2    0    0  0.15502909163E+00  0.48903581712E+00  0.21311066178E+01  0.21919866482E+01  0.00000000000E+00 0.  1.
</event>
<event>
 5    1  0.3428566E+002  0.1599579E+01  0.7818608E-02  0.3353820E+00
         11   -1    0    0    0    0  0.00000000000E+00  0.00000000000E+00  0.39999999674E+01  0.40000000000E+01  0.51100000000E-03 0. -1.
    9000002   -1    0    0    0    0 -0.00000000000E+00 -0.00000000000E+00  0.00000000000E+00  0.93800000000E+00  0.93800000000E+00 0.  1.
         11    1    1    2    0    0 -0.90994276306E-01  0.96218556220E-01  0.10980635460E+01  0.11060206965E+01  0.51100000000E-03 0. -1.
    9000002    1    1    2    0    0  0.28787572339E+00 -0.32083762774E+00  0.12593858815E+00  0.10399585297E+01  0.93800000000E+00 0.  1.
         22    1    1    2    0    0 -0.19688144708E+00  0.22461907151E+00  0.27759978332E+01  0.27920207738E+01  0.00000000000E+00 0. -1.
</event>
<event>
 5    1  0.3428566E+002  0.1599677E+01  0.7818608E-02  0.3353714E+00
         11   -1    0    0    0    0  0.00000000000E+00  0.00000000000E+00  0.39999999674E+01  0.40000000000E+01  0.51100000000E-03 0. -1.
    9000002   -1    0    0    0    0 -0.00000000000E+00 -0.00000000000E+00  0.00000000000E+00  0.93800000000E+00  0.93800000000E+00 0.  1.
         11    1    1    2    0    0 -0.12520237709E+00  0.21849685883E+00  0.18783783354E+01  0.18951838814E+01  0.51100000000E-03 0.  1.
    9000002    1    1    2    0    0  0.25485040079E+00 -0.44475441956E+00  0.18025757081E+00  0.10840166107E+01  0.93800000000E+00 0.  1.
         22    1    1    2    0    0 -0.12964802370E+00  0.22625756074E+00  0.19413640612E+01  0.19587995078E+01  0.00000000000E+00 0. -1.
</event>
<event>
 5    1  0.3428566E+002  0.1599676E+01  0.7818608E-02  0.3353715E+00
         11   -1    0    0    0    0  0.00000000000E+00  0.00000000000E+00  0.39999999674E+01  0.40000000000E+01  0.51100000000E-03 0. -1.
    9000002   -1    0    0    0    0 -0.00000000000E+00 -0.00000000000E+00  0.00000000000E+00  0.93800000000E+00  0.93800000000E+00 0. -1.
         11    1    1    2    0    0  0.35583876299E-01 -0.70635830064E-01  0.92960755472E+00  0.93296629074E+00  0.51100000000E-03 0. -1.
    9000002    1    1    2    0    0 -0.14694319537E+00  0.29878072839E+00  0.74199009549E-01  0.99810406238E+00  0.93800000000E+00 0. -1.
         22    1    1    2    0    0  0.11135931907E+00 -0.22814489832E+00  0.29961934031E+01  0.30069296469E+01  0.00000000000E+00 0. -1.
</event>
<event>
 5    1  0.3428566E+002  0.1599615E+01  0.7818608E-02  0.3353782E+00
         11   -1    0    0    0    0  0.00000000000E+00  0.00000000000E+00  0.39999999674E+01  0.40000000000E+01  0.51100000000E-03 0. -1.
    9000002   -1    0    0    0    0 -0.00000000000E+00 -0.00000000000E+00  0.00000000000E+00  0.93800000000E+00  0.93800000000E+00 0. -1.
         11    1    1    2    0    0 -0.84698211525E-01 -0.17173893559E+00  0.12392451450E+01  0.12539524869E+01  0.51100000000E-03 0. -1.
    9000002    1    1    2    0    0  0.23521723033E+00  0.53722628152E+00  0.23934452412E+00  0.11318431977E+01  0.93800000000E+00 0. -1.
         22    1    1    2    0    0 -0.15051901881E+00 -0.36548734593E+00  0.25214102983E+01  0.25522043153E+01  0.00000000000E+00 0. -1.
</event>
<event>
 5    1  0.3428566E+002  0.1599665E+01  0.7818608E-02  0.3353727E+00
         11   -1    0    0    0    0  0.00000000000E+00  0.00000000000E+00  0.39999999674E+01  0.40000000000E+01  0.51100000000E-03 0. -1.
    9000002   -1    0    0    0    0 -0.00000000000E+00 -0.00000000000E+00  0.00000000000E+00  0.93800000000E+00  0.93800000000E+00 0. -1.
         11    1    1    2    0    0  0.14832318129E+00 -0.61869611041E-01  0.13064335298E+01  0.13162812935E+01  0.51100000000E-03 0. -1.
    9000002    1    1    2    0    0 -0.44330295216E+00  0.19108289562E+00  0.15908105925E+00  0.10668556434E+01  0.93800000000E+00 0. -1.
         22    1    1    2    0    0  0.29497977088E+00 -0.12921328458E+00  0.25344853783E+01  0.25548630631E+01  0.00000000000E+00 0. -1.
</event>
<event>
 5    1  0.3428566E+002  0.1535656E+01  0.7818608E-02  0.3426305E+00
         11   -1    0    0    0    0  0.00000000000E+00  0.00000000000E+00  0.39999999674E+01  0.40000000000E+01  0.51100000000E-03 0.  1.
    9000002   -1    0    0    0    0 -0.00000000000E+00 -0.00000000000E+00  0.00000000000E+00  0.93800000000E+00  0.93800000000E+00 0. -1.
         11    1    1    2    0    0 -0.13538409614E+00  0.12226203661E+00  0.58337515796E+00  0.61123129429E+00  0.51100000000E-03 0.  1.
    9000002    1    1    2    0    0 -0.20388380090E+00  0.12731465120E+00  0.88772050480E-01  0.97236932368E+00  0.93800000000E+00 0. -1.
         22    1    1    2    0    0  0.33926789705E+00 -0.24957668782E+00  0.33278527589E+01  0.33543993820E+01  0.00000000000E+00 0.  1.
</event>
<event>
 5    1  0.3428566E+002  0.1599673E+01  0.7818608E-02  0.3353718E+00
         11   -1    0    0    0    0  0.00000000000E+00  0.00000000000E+00  0.39999999674E+01  0.40000000000E+01  0.51100000000E-03 0. -1.
    9000002   -1    0    0    0    0 -0.00000000000E+00 -0.00000000000E+00  0.00000000000E+00  0.93800000000E+00  0.93800000000E+00 0.  1.
         11    1    1    2    0    0  0.87119072205E-01 -0.24189245451E+00  0.13161052627E+01  0.13409828544E+01  0.51100000000E-03 0. -1.
    9000002    1    1    2    0    0 -0.23816688539E+00  0.67362085905E+00  0.36628575492E+00  0.12347055444E+01  0.93800000000E+00 0.  1.
         22    1    1    2    0    0  0.15104781318E+00 -0.43172840455E+00  0.23176089497E+01  0.23623116012E+01  0.00000000000E+00 0. -1.
</event>
<event>
 5    1  0.3428566E+002  0.1599595E+01  0.7818608E-02  0.3353803E+00
         11   -1    0    0    0    0  0.00000000000E+00  0.00000000000E+00  0.39999999674E+01  0.40000000000E+01  0.51100000000E-03 0.  1.
    9000002   -1    0    0    0    0 -0.00000000000E+00 -0.00000000000E+00  0.00000000000E+00  0.93800000000E+00  0.93800000000E+00 0.  1.
         11    1    1    2    0    0 -0.86080045473E-03  0.17901174748E-01  0.19248772258E+00  0.19332091843E+00  0.51100000000E-03 0.  1.
    9000002    1    1    2    0    0 -0.77518774762E-01 -0.36827368204E+00  0.95322542200E-01  0.10151674997E+01  0.93800000000E+00 0.  1.
         22    1    1    2    0    0  0.78379575217E-01  0.35037250729E+00  0.37121897026E+01  0.37295115819E+01  0.00000000000E+00 0.  1.
</event>
<event>
 5    1  0.3428566E+002  0.1599666E+01  0.7818608E-02  0.3353726E+00
         11   -1    0    0    0    0  0.00000000000E+00  0.00000000000E+00  0.39999999674E+01  0.40000000000E+01  0.51100000000E-03 0.  1.
    9000002   -1    0    0    0    0 -0.00000000000E+00 -0.00000000000E+00  0.00000000000E+00  0.93800000000E+00  0.93800000000E+00 0.  1.
         11    1    1    2    0    0 -0.35951395397E-02 -0.37649829646E-01  0.49067073884E+00  0.49212647742E+00  0.51100000000E-03 0.  1.
    9000002    1    1    2    0    0  0.49147277773E-01  0.29640830557E+00  0.60233748099E-01  0.98678540876E+00  0.93800000000E+00 0.  1.
         22    1    1    2    0    0 -0.45552138233E-01 -0.25875847592E+00  0.34490954804E+01  0.34590881138E+01  0.00000000000E+00 0.  1.
</event>
<event>
 5    1  0.3428566E+002  0.1567328E+01  0.7818608E-02  0.3389606E+00
         11   -1    0    0    0    0  0.00000000000E+00  0.00000000000E+00  0.39999999674E+01  0.40000000000E+01  0.51100000000E-03 0.  1.
    9000002   -1    0    0    0    0 -0.00000000000E+00 -0.00000000000E+00  0.00000000000E+00  0.93800000000E+00  0.93800000000E+00 0. -1.
         11    1    1    2    0    0  0.59991533104E-01  0.98830831518E-01  0.36872500220E+00  0.38642580875E+00  0.51100000000E-03 0.  1.
    9000002    1    1    2    0    0  0.28620928917E-01  0.12049636015E+00  0.34230384936E-01  0.94675986904E+00  0.93800000000E+00 0. -1.
         22    1    1    2    0    0 -0.88612462021E-01 -0.21932719167E+00  0.35970445802E+01  0.36048143222E+01  0.00000000000E+00 0.  1.
</event>
<event>
 5    1  0.3428566E+002  0.1599675E+01  0.7818608E-02  0.3353716E+00
         11   -1    0    0    0    0  0.00000000000E+00  0.00000000000E+00  0.39999999674E+01  0.40000000000E+01  0.51100000000E-03 0. -1.
    9000002   -1    0    0    0    0 -0.00000000000E+00 -0.00000000000E+00  0.00000000000E+00  0.93800000000E+00  0.93800000000E+00 0.  1.
         11    1    1    2    0    0  0.46621701661E-02  0.32238344149E-01  0.55891240184E+00  0.55986103696E+00  0.51100000000E-03 0. -1.
    9000002    1    1    2    0    0 -0.35496417423E-01 -0.23528738678E+00  0.37579649552E-01  0.96844017889E+00  0.93800000000E+00 0.  1.
         22    1    1    2    0    0  0.30834247257E-01  0.20304904263E+00  0.34035079160E+01  0.34096987841E+01  0.00000000000E+00 0. -1.
</event>
<event>
 5    1  0.3428566E+002  0.1598447E+01  0.7818608E-02  0.3355051E+00
         11   -1    0    0    0    0  0.00000000000E+00  0.00000000000E+00  0.39999999674E+01  0.40000000000E+01  0.51100000000E-03 0. -1.
    9000002   -1    0    0    0    0 -0.00000000000E+00 -0.00000000000E+00  0.00000000000E+00  0.93800000000E+00  0.93800000000E+00 0.  1.
         11    1    1    2    0    0 -0.17368258306E-02 -0.50965904078E-03  0.24203980011E+00  0.24204710756E+00  0.51100000000E-03 0. -1.
    9000002    1    1    2    0    0 -0.23262610425E-01 -0.31739914444E+00  0.68658977381E-01  0.99289547341E+00  0.93800000000E+00 0.  1.
         22    1    1    2    0    0  0.24999436256E-01  0.31790880348E+00  0.36893011899E+01  0.37030574190E+01  0.00000000000E+00 0. -1.
</event>
<event>
 5    1  0.3428566E+002  0.1599671E+01  0.7818608E-02  0.3353721E+00
         11   -1    0    0    0    0  0.00000000000E+00  0.00000000000E+00  0.39999999674E+01  0.40000000000E+01  0.51100000000E-03 0.  1.
    9000002   -1    0    0    0    0 -0.00000000000E+00 -0.00000000000E+00  0.00000000000E+00  0.93800000000E+00  0.93800000000E+00 0. -1.
         11    1    1    2    0    0 -0.83375533298E-01 -0.99475650657E-02  0.10808009146E+01  0.10840577991E+01  0.51100000000E-03 0.  1.
    9000002    1    1    2    0    0  0.30951791556E+00  0.28241473050E-01  0.64513521119E-01  0.99025497487E+00  0.93800000000E+00 0. -1.
         22    1    1    2    0    0 -0.22614238226E+00 -0.18293907984E-01  0.28546855316E+01  0.28636872261E+01  0.00000000000E+00 0.  1.
</event>
<event>
 5    1  0.3428566E+002  0.1599677E+01  0.7818608E-02  0.3353714E+00
         11   -1    0    0    0    0  0.00000000000E+00  0.00000000000E+00  0.39999999674E+01  0.40000000000E+01  0.51100000000E-03 0. -1.
    9000002   -1    0    0    0    0 -0.00000000000E+00 -0.00000000000E+00  0.00000000000E+00  0.93800000000E+00  0.93800000000E+00 0.  1.
         11    1    1    2    0    0  0.78714381656E-01  0.33106551234E-02  0.10541068156E+01  0.10570469971E+01  0.51100000000E-03 0. -1.
    9000002    1    1    2    0    0 -0.29286437609E+00 -0.13101645230E-01  0.57296528072E-01  0.98441255987E+00  0.93800000000E+00 0.  1.
         22    1    1    2    0    0  0.21414999444E+00  0.97909901064E-02  0.28885966237E+01  0.28965404430E+01  0.00000000000E+00 0. -1.
</event>
<event>
 5    1  0.3428566E+002  0.1599270E+01  0.7818608E-02  0.3354156E+00
         11   -1    0    0    0    0  0.00000000000E+00  0.00000000000E+00  0.39999999674E+01  0.40000000000E+01  0.51100000000E-03 0. -1.
    9000002   -1    0    0    0    0 -0.00000000000E+00 -0.00000000000E+00  0.00000000000E+00  0.93800000000E+00  0.93800000000E+00 0. -1.
         11    1    1    2    0    0 -0.39422905685E-01  0.10222862117E+00  0.10550414661E+01  0.10607156135E+01  0.51100000000E-03 0. -1.
    9000002    1    1    2    0    0  0.83790489702E-01 -0.33000642080E+00  0.77974523770E-01  0.10009241281E+01  0.93800000000E+00 0. -1.
         22    1    1    2    0    0 -0.44367584017E-01  0.22777779962E+00  0.28669839775E+01  0.28763602583E+01  0.00000000000E+00 0. -1.
</event>
<event>
 5    1  0.3428566E+002  0.1599427E+01  0.7818608E-02  0.3353985E+00
         11   -1    0    0    0    0  0.00000000000E+00  0.00000000000E+00  0.39999999674E+01  0.40000000000E+01  0.51100000000E-03 0.  1.
    9000002   -1    0    0    0    0 -0.00000000000E+00 -0.00000000000E+00  0.00000000000E+00  0.93800000000E+00  0.93800000000E+00 0.  1.
         11    1    1    2    0    0 -0.22322902190E-01 -0.63900089025E-02  0.29951394100E+00  0.30041305922E+00  0.51100000000E-03 0.  1.
    9000002    1    1    2    0    0  0.25588821239E+00 -0.42579158277E-01  0.44925802892E-01  0.97424539502E+00  0.93800000000E+00 0.  1.
         22    1    1    2    0    0 -0.23356531020E+00  0.48969167179E-01  0.36555602235E+01  0.36633415458E+01  0.00000000000E+00 0.  1.
</event>
<event>
 5    1  0.3428566E+002  0.1599676E+01  0.7818608E-02  0.3353715E+00
         11   -1    0    0    0    0  0.00000000000E+00  0.00000000000E+00  0.39999999674E+01  0.40000000000E+01  0.51100000000E-03 0.  1.
    9000002   -1    0    0    0    0 -0.00000000000E+00 -0.00000000000E+00  0.00000000000E+00  0.93800000000E+00  0.93800000000E+00 0. -1.
         11    1    1    2    0    0 -0.35831374629E-02  0.32486225753E-01  0.10694065541E+00  0.11182467812E+00  0.51100000000E-03 0. -1.
    9000002    1    1    2    0    0  0.10731648206E+00 -0.97868338841E+00  0.77310431662E+00  0.15642481537E+01  0.93800000000E+00 0. -1.
         22    1    1    2    0    0 -0.10373334460E+00  0.94619716265E+00  0.31199549953E+01  0.32619271681E+01  0.00000000000E+00 0.  1.
</event>
<event>
 5    1  0.3428566E+002  0.1598696E+01  0.7818608E-02  0.3354780E+00
         11   -1    0    0    0    0  0.00000000000E+00  0.00000000000E+00  0.39999999674E+01  0.40000000000E+01  0.51100000000E-03 0.  1.
    9000002   -1    0    0    0    0 -0.00000000000E+00 -0.00000000000E+00  0.00000000000E+00  0.93800000000E+00  0.93800000000E+00 0. -1.
         11    1    1    2    0    0  0.36483764402E-01  0.17081553318E-01  0.26706849747E+00  0.27009014789E+00  0.51100000000E-03 0.  1.
    9000002    1    1    2    0    0 -0.26212884839E+00 -0.32136573426E+00  0.11705827438E+00  0.10322471157E+01  0.93800000000E+00 0. -1.
         22    1    1    2    0    0  0.22564508399E+00  0.30428418094E+00  0.36158731955E+01  0.36356627364E+01  0.00000000000E+00 0.  1.
</event>
<event>
 5    1  0.3428566E+002  0.1599675E+01  0.7818608E-02  0.3353716E+00
         11   -1    0    0    0    0  0.00000000000E+00  0.00000000000E+00  0.39999999674E+01  0.40000000000E+01  0.51100000000E-03 0. -1.
    9000002   -1    0    0    0    0 -0.00000000000E+00 -0.00000000000E+00  0.00000000000E+00  0.93800000000E+00  0.93800000000E+00 0. -1.
         11    1    1    2    0    0 -0.14425642350E+00 -0.13784185581E+00  0.17405490718E+01  0.17519479517E+01  0.51100000000E-03 0. -1.
    9000002    1    1    2    0    0  0.31760136710E+00  0.30831654028E+00  0.13293093326E+00  0.10456788945E+01  0.93800000000E+00 0. -1.
         22    1    1    2    0    0 -0.17334494360E+00 -0.17047468447E+00  0.21265199623E+01  0.21403731538E+01  0.00000000000E+00 0. -1.
</event>
<event>
 5    1  0.3428566E+002  0.1599612E+01  0.7818608E-02  0.3353785E+00
         11   -1    0    0    0    0  0.00000000000E+00  0.00000000000E+00  0.39999999674E+01  0.40000000000E+01  0.51100000000E-03 0. -1.
    9000002   -1    0    0    0    0 -0.00000000000E+00 -0.00000000000E+00  0.00000000000E+00  0.93800000000E+00  0.93800000000E+00 0.  1.
         11    1    1    2    0    0 -0.28445740127E-02  0.31599055304E-02  0.34995627732E-01  0.35256654487E-01  0.51100000000E-03 0. -1.
    9000002    1    1    2    0    0  0.14052308526E+00 -0.27262028024E+00  0.62844996892E-01  0.98886907542E+00  0.93800000000E+00 0.  1.
         22    1    1    2    0    0 -0.13767851124E+00  0.26946037471E+00  0.39021593427E+01  0.39138742701E+01  0.00000000000E+00 0. -1.
</event>
<event>
 5    1  0.3428566E+002  0.1599677E+01  0.7818608E-02  0.3353714E+00
         11   -1    0    0    0    0  0.00000000000E+00  0.00000000000E+00  0.39999999674E+01  0.40000000000E+01  0.51100000000E-03 0.  1.
    9000002   -1    0    0    0    0 -0.00000000000E+00 -0.00000000000E+00  0.00000000000E+00  0.93800000000E+00  0.93800000000E+00 0.  1.
         11    1    1    2    0    0 -0.37927415384E-01  0.21813438898E+00  0.19270280326E+01  0.19397057508E+01  0.51100000000E-03 0. -1.
    9000002    1    1    2    0    0  0.76960455634E-01 -0.43746839207E+00  0.13389020271E+00  0.10464569232E+01  0.93800000000E+00 0.  1.
         22    1    1    2    0    0 -0.39033040250E-01  0.21933400308E+00  0.19390817321E+01  0.19518373259E+01  0.00000000000E+00 0.  1.
</event>
<event>
 5    1  0.3428566E+002  0.1599390E+01  0.7818608E-02  0.3354026E+00
         11   -1    0    0    0    0  0.00000000000E+00  0.00000000000E+00  0.39999999674E+01  0.40000000000E+01  0.51100000000E-03 0. -1.
    9000002   -1    0    0    0    0 -0.00000000000E+00 -0.00000000000E+00  0.00000000000E+00  0.93800000000E+00  0.93800000000E+00 0.  1.
         11    1    1    2    0    0  0.33663500203E-01 -0.14821436621E-01  0.28974371667E+00  0.29206949293E+00  0.51100000000E-03 0. -1.
    9000002    1    1    2    0    0 -0.31590574003E+00  0.24588344950E+00  0.10833876252E+00  0.10255907540E+01  0.93800000000E+00 0.  1.
         22    1    1    2    0    0  0.28224223983E+00 -0.23106201288E+00  0.36019174882E+01  0.36203397530E+01  0.00000000000E+00 0. -1.
</event>
<event>
 5    1  0.3428566E+002  0.1543654E+01  0.7818608E-02  0.3416886E+00
         11   -1    0    0    0    0  0.00000000000E+00  0.00000000000E+00  0.39999999674E+01  0.40000000000E+01  0.51100000000E-03 0. -1.
    9000002   -1    0    0    0    0 -0.00000000000E+00 -0.00000000000E+00  0.00000000000E+00  0.93800000000E+00  0.93800000000E+00 0.  1.
         11    1    1    2    0    0 -0.65281516596E-01  0.42635533712E+00  0.21908625266E+01  0.22329172447E+01  0.51100000000E-03 0. -1.
    9000002    1    1    2    0    0  0.24977006713E+00 -0.27243074389E+00  0.13897187367E+00  0.10177233309E+01  0.93800000000E+00 0.  1.
         22    1    1    2    0    0 -0.18448855053E+00 -0.15392459323E+00  0.16701655671E+01  0.16873594244E+01  0.00000000000E+00 0. -1.
</event>
<event>
 5    1  0.3428566E+002  0.1599671E+01  0.7818608E-02  0.3353721E+00
         11   -1    0    0    0    0  0.00000000000E+00  0.00000000000E+00  0.39999999674E+01  0.40000000000E+01  0.51100000000E-03 0.  1.
    9000002   -1    0    0    0    0 -0.00000000000E+00 -0.00000000000E+00  0.00000000000E+00  0.93800000000E+00  0.93800000000E+00 0. -1.
         11    1    1    2    0    0 -0.54441498464E-01  0.52539082859E-01  0.10204945753E+01  0.10232954956E+01  0.51100000000E-03 0.  1.
    9000002    1    1    2    0    0  0.20255473464E+00 -0.20957619394E+00  0.56632172324E-01  0.98387082716E+00  0.93800000000E+00 0. -1.
         22    1    1    2    0    0 -0.14811323618E+00  0.15703711108E+00  0.29228732198E+01  0.29308336773E+01  0.00000000000E+00 0.  1.
</event>
<event>
 5    1  0.3428566E+002  0.1599676E+01  0.7818608E-02  0.3353715E+00
         11   -1    0    0    0    0  0.00000000000E+00  0.00000000000E+00  0.39999999674E+01  0.40000000000E+01  0.51100000000E-03 0.  1.
    9000002   -1    0    0    0    0 -0.00000000000E+00 -0.00000000000E+00  0.00000000000E+00  0.93800000000E+00  0.93800000000E+00 0. -1.
         11    1    1    2    0    0  0.68064727335E-02 -0.18423106972E-01  0.28428842279E+00  0.28496650223E+00  0.51100000000E-03 0.  1.
    9000002    1    1    2    0    0 -0.90227234466E-01  0.24981274527E+00  0.46922822933E-01  0.97600876679E+00  0.93800000000E+00 0. -1.
         22    1    1    2    0    0  0.83420761732E-01 -0.23138963830E+00  0.36687887216E+01  0.36770247310E+01  0.00000000000E+00 0.  1.
</event>
<event>
 5    1  0.3428566E+002  0.1599642E+01  0.7818608E-02  0.3353752E+00
         11   -1    0    0    0    0  0.00000000000E+00  0.00000000000E+00  0.39999999674E+01  0.40000000000E+01  0.51100000000E-03 0. -1.
    9000002   -1    0    0    0    0 -0.00000000000E+00 -0.00000000000E+00  0.00000000000E+00  0.93800000000E+00  0.93800000000E+00 0. -1.
         11    1    1    2    0    0  0.16962249607E+00  0.31520515272E+00  0.13617788605E+01  0.14080369333E+01  0.51100000000E-03 0. -1.
    9000002    1    1    2    0    0 -0.42399979728E+00 -0.77177272034E+00  0.58871082855E+00  0.14148616185E+01  0.93800000000E+00 0. -1.
         22    1    1    2    0    0  0.25437730121E+00  0.45656756762E+00  0.20495102783E+01  0.21151014482E+01  0.00000000000E+00 0.  1.
</event>
<event>
 5    1  0.3428566E+002  0.1579884E+01  0.7818608E-02  0.3375490E+00
         11   -1    0    0    0    0  0.00000000000E+00  0.00000000000E+00  0.39999999674E+01  0.40000000000E+01  0.51100000000E-03 0. -1.
    9000002   -1    0    0    0    0 -0.00000000000E+00 -0.00000000000E+00  0.00000000000E+00  0.93800000000E+00  0.93800000000E+00 0. -1.
         11    1    1    2    0    0  0.75706631903E-01  0.12659346612E-01  0.24733968514E+01  0.24745876422E+01  0.51100000000E-03 0. -1.
    9000002    1    1    2    0    0 -0.18354710280E-01  0.22133154134E+00  0.47805209282E-01  0.96511858578E+00  0.93800000000E+00 0. -1.
         22    1    1    2    0    0 -0.57351921624E-01 -0.23399088795E+00  0.14787979066E+01  0.14982937720E+01  0.00000000000E+00 0. -1.
</event>
<event>
 5    1  0.3428566E+002  0.1599676E+01  0.7818608E-02  0.3353715E+00
         11   -1    0    0    0    0  0.00000000000E+00  0.00000000000E+00  0.39999999674E+01  0.40000000000E+01  0.51100000000E-03 0.  1.
    9000002   -1    0    0    0    0 -0.00000000000E+00 -0.00000000000E+00  0.00000000000E+00  0.93800000000E+00  0.93800000000E+00 0. -1.
         11    1    1    2    0    0 -0.82249851104E-03  0.17126629092E-01  0.26855533659E+00  0.26910263443E+00  0.51100000000E-03 0. -1.
    9000002    1    1    2    0    0  0.11019594852E-01 -0.25093271810E+00  0.41913400375E-01  0.97195133295E+00  0.93800000000E+00 0. -1.
         22    1    1    2    0    0 -0.10197096341E-01  0.23380608901E+00  0.36895312304E+01  0.36969460326E+01  0.00000000000E+00 0.  1.
</event>
<event>
 5    1  0.3428566E+002  0.1540713E+01  0.7818608E-02  0.3420337E+00
         11   -1    0    0    0    0  0.00000000000E+00  0.00000000000E+00  0.39999999674E+01  0.40000000000E+01  0.51100000000E-03 0. -1.
    9000002   -1    0    0    0    0 -0.00000000000E+00 -0.00000000000E+00  0.00000000000E+00  0.93800000000E+00  0.93800000000E+00 0.  1.
         11    1    1    2    0    0 -0.21388544618E+00  0.43718328621E-01  0.63779373643E+00  0.67412119659E+00  0.51100000000E-03 0. -1.
    9000002    1    1    2    0    0  0.29590094371E-01  0.88196497875E-01  0.49999440232E-01  0.94392697808E+00  0.93800000000E+00 0.  1.
         22    1    1    2    0    0  0.18429535181E+00 -0.13191482650E+00  0.33122067907E+01  0.33199518253E+01  0.00000000000E+00 0. -1.
</event>
<event>
 5    1  0.3428566E+002  0.1547239E+01  0.7818608E-02  0.3412697E+00
         11   -1    0    0    0    0  0.00000000000E+00  0.00000000000E+00  0.39999999674E+01  0.40000000000E+01  0.51100000000E-03 0.  1.
    9000002   -1    0    0    0    0 -0.00000000000E+00 -0.00000000000E+00  0.00000000000E+00  0.93800000000E+00  0.93800000000E+00 0. -1.
         11    1    1    2    0    0 -0.19985690392E+00 -0.24812570528E+00  0.27965648413E+01  0.28146552756E+01  0.51100000000E-03 0.  1.
    9000002    1    1    2    0    0  0.84605146151E-01  0.56405823495E-01  0.46133864395E-01  0.94462266600E+00  0.93800000000E+00 0. -1.
         22    1    1    2    0    0  0.11525175776E+00  0.19171988179E+00  0.11573012617E+01  0.11787220584E+01  0.00000000000E+00 0. -1.
</event>
<event>
 5    1  0.3428566E+002  0.1599201E+01  0.7818608E-02  0.3354231E+00
         11   -1    0    0    0    0  0.00000000000E+00  0.00000000000E+00  0.39999999674E+01  0.40000000000E+01  0.51100000000E-03 0.  1.
    9000002   -1    0    0    0    0 -0.00000000000E+00 -0.00000000000E+00  0.00000000000E+00  0.93800000000E+00  0.93800000000E+00 0.  1.
         11    1    1    2    0    0 -0.10628781252E-01  0.60010100018E-02  0.86936979511E-01  0.87791130756E-01  0.51100000000E-03 0.  1.
    9000002    1    1    2    0    0  0.27524532334E+00  0.98503695351E-02  0.50862868159E-01  0.97892188103E+00  0.93800000000E+00 0.  1.
         22    1    1    2    0    0 -0.26461654209E+00 -0.15851379537E-01  0.38622001197E+01  0.38712869882E+01  0.00000000000E+00 0.  1.
</event>
<event>
 5    1  0.3428566E+002  0.1595449E+01  0.7818608E-02  0.3358318E+00
         11   -1    0    0    0    0  0.00000000000E+00  0.00000000000E+00  0.39999999674E+01  0.40000000000E+01  0.51100000000E-03 0. -1.
    9000002   -1    0    0    0    0 -0.00000000000E+00 -0.00000000000E+00  0.00000000000E+00  0.93800000000E+00  0.93800000000E+00 0.  1.
         11    1    1    2    0    0  0.80853563841E-01  0.11549974172E+00  0.16608228359E+01  0.16667964011E+01  0.51100000000E-03 0. -1.
    9000002    1    1    2    0    0 -0.25302400466E+00 -0.43299510684E+00  0.17603638918E+00  0.10781181381E+01  0.93800000000E+00 0.  1.
         22    1    1    2    0    0  0.17217044081E+00  0.31749536512E+00  0.21631407423E+01  0.21930854608E+01  0.00000000000E+00 0.  1.
</event>
<event>
 5    1  0.3428566E+002  0.1599582E+01  0.7818608E-02  0.3353818E+00
         11   -1    0    0    0    0  0.00000000000E+00  0.00000000000E+00  0.39999999674E+01  0.40000000000E+01  0.51100000000E-03 0. -1.
    9000002   -1    0    0    0    0 -0.00000000000E+00 -0.00000000000E+00  0.00000000000E+00  0.93800000000E+00  0.93800000000E+00 0.  1.
         11    1    1    2    0    0  0.57264525693E-03  0.26473456782E-01  0.36212442457E+00  0.36309163007E+00  0.51100000000E-03 0. -1.
    9000002    1    1    2    0    0 -0.52603777600E-01 -0.34372171957E+00  0.81129005883E-01  0.10036621411E+01  0.93800000000E+00 0.  1.
         22    1    1    2    0    0  0.52031132343E-01  0.31724826279E+00  0.35567465369E+01  0.35712462288E+01  0.00000000000E+00 0. -1.
</event>
<event>
 5    1  0.3428566E+002  0.1599676E+01  0.7818608E-02  0.3353715E+00
         11   -1    0    0    0    0  0.00000000000E+00  0.00000000000E+00  0.39999999674E+01  0.40000000000E+01  0.51100000000E-03 0.  1.
    9000002   -1    0    0    0    0 -0.00000000000E+00 -0.00000000000E+00  0.00000000000E+00  0.93800000000E+00  0.93800000000E+00 0. -1.
         11    1    1    2    0    0 -0.52646316913E+00  0.39119109520E+00  0.23182125130E+01  0.24092122069E+01  0.51100000000E-03 0.  1.
    9000002    1    1    2    0    0  0.75420416970E+00 -0.55923660079E+00  0.68685930090E+00  0.14943858954E+01  0.93800000000E+00 0. -1.
         22    1    1    2    0    0 -0.22774100057E+00  0.16804550560E+00  0.99492815345E+00  0.10344018976E+01  0.00000000000E+00 0.  1.
</event>
<event>
 5    1  0.3428566E+002  0.1599610E+01  0.7818608E-02  0.3353787E+00
         11   -1    0    0    0    0  0.00000000000E+00  0.00000000000E+00  0.39999999674E+01  0.40000000000E+01  0.51100000000E-03 0.  1.
    9000002   -1    0    0    0    0 -0.00000000000E+00 -0.00000000000E+00  0.00000000000E+00  0.93800000000E+00  0.93800000000E+00 0.  1.
         11    1    1    2    0    0  0.15201761117E-02 -0.26947343582E-02  0.61510386273E-01  0.61590269273E-01  0.51100000000E-03 0.  1.
    9000002    1    1    2    0    0  0.85989449069E-02  0.28406198101E+00  0.53854680680E-01  0.98158518608E+00  0.93800000000E+00 0.  1.
         22    1    1    2    0    0 -0.10119121019E-01 -0.28136724665E+00  0.38846349004E+01  0.38948245446E+01  0.00000000000E+00 0.  1.
</event>
<event>
 5    1  0.3428566E+002  0.1599677E+01  0.7818608E-02  0.3353714E+00
         11   -1    0    0    0    0  0.00000000000E+00  0.00000000000E+00  0.39999999674E+01  0.40000000000E+01  0.51100000000E-03 0.  1.
    9000002   -1    0    0    0    0 -0.00000000000E+00 -0.00000000000E+00  0.00000000000E+00  0.93800000000E+00  0.93800000000E+00 0.  1.
         11    1    1    2    0    0  0.95274525084E-01 -0.21188956325E-01  0.11400063360E+01  0.11441769593E+01  0.51100000000E-03 0.  1.
    9000002    1    1    2    0    0 -0.32889495316E+00  0.74436954670E-01  0.76140514613E-01  0.99967701204E+00  0.93800000000E+00 0.  1.
         22    1    1    2    0    0  0.23362042808E+00 -0.53247998345E-01  0.27838531167E+01  0.27941460286E+01  0.00000000000E+00 0.  1.
</event>
<event>
 5    1  0.3428566E+002  0.1599271E+01  0.7818608E-02  0.3354155E+00
         11   -1    0    0    0    0  0.00000000000E+00  0.00000000000E+00  0.39999999674E+01  0.40000000000E+01  0.51100000000E-03 0. -1.
    9000002   -1    0    0    0    0 -0.00000000000E+00 -0.00000000000E+00  0.00000000000E+00  0.93800000000E+00  0.93800000000E+00 0. -1.
         11    1    1    2    0    0  0.10270064280E+00 -0.14202055512E-01  0.83946745117E+00  0.84584572063E+00  0.51100000000E-03 0. -1.
    9000002    1    1    2    0    0 -0.55118197496E+00  0.88756133203E-01  0.21600558303E+00  0.11127361020E+01  0.93800000000E+00 0. -1.
         22    1    1    2    0    0  0.44848133216E+00 -0.74554077691E-01  0.29445269332E+01  0.29794181774E+01  0.00000000000E+00 0. -1.
</event>
<event>
 5    1  0.3438646E+002  0.1576205E+01  0.7818608E-02  0.3379602E+00
         11   -1    0    0    0    0  0.00000000000E+00  0.00000000000E+00  0.39999999674E+01  0.40000000000E+01  0.51100000000E-03 0.  1.
    9000002   -1    0    0    0    0 -0.00000000000E+00 -0.00000000000E+00  0.00000000000E+00  0.93800000000E+00  0.93800000000E+00 0.  1.
         11    1    1    2    0    0  0.23213829261E-02  0.17251043338E+00  0.16963865029E+01  0.17051371402E+01  0.51100000000E-03 0.  1.
    9000002    1    1    2    0    0 -0.11609434353E+00  0.84975755165E-02  0.26326080122E-01  0.94556182658E+00  0.93800000000E+00 0.  1.
         22    1    1    2    0    0  0.11377296060E+00 -0.18100800890E+00  0.22772873843E+01  0.22873010332E+01  0.00000000000E+00 0.  1.
</event>
<event>
 5    1  0.3428566E+002  0.1599675E+01  0.7818608E-02  0.3353717E+00
         11   -1    0    0    0    0  0.00000000000E+00  0.00000000000E+00  0.39999999674E+01  0.40000000000E+01  0.51100000000E-03 0.  1.
    9000002   -1    0    0    0    0 -0.00000000000E+00 -0.00000000000E+00  0.00000000000E+00  0.93800000000E+00  0.93800000000E+00 0.  1.
         11    1    1    2    0    0 -0.59462648971E-01  0.98335988949E-01  0.11909504014E+01  0.11964818816E+01  0.51100000000E-03 0.  1.
    9000002    1    1    2    0    0  0.19036726567E+00 -0.32550989350E+00  0.95643828127E-01  0.10154743367E+01  0.93800000000E+00 0.  1.
         22    1    1    2    0    0 -0.13090461670E+00  0.22717390455E+00  0.27134057378E+01  0.27260437817E+01  0.00000000000E+00 0.  1.
</event>
<event>
 5    1  0.3428566E+002  0.1599579E+01  0.7818608E-02  0.3353821E+00
         11   -1    0    0    0    0  0.00000000000E+00  0.00000000000E+00  0.39999999674E+01  0.40000000000E+01  0.51100000000E-03 0.  1.
    9000002   -1    0    0    0    0 -0.00000000000E+00 -0.00000000000E+00  0.00000000000E+00  0.93800000000E+00  0.93800000000E+00 0. -1.
         11    1    1    2    0    0  0.90740331546E-02  0.50524751424E-02  0.13448760576E+00  0.13488900180E+00  0.51100000000E-03 0.  1.
    9000002    1    1    2    0    0 -0.14294592447E+00 -0.17136542293E+00  0.33091607014E-01  0.96474799816E+00  0.93800000000E+00 0. -1.
         22    1    1    2    0    0  0.13387189132E+00  0.16631294779E+00  0.38324207546E+01  0.38383630000E+01  0.00000000000E+00 0.  1.
</event>
<event>
 5    1  0.3428566E+002  0.1599668E+01  0.7818608E-02  0.3353724E+00
         11   -1    0    0    0    0  0.00000000000E+00  0.00000000000E+00  0.39999999674E+01  0.40000000000E+01  0.51100000000E-03 0. -1.
    9000002   -1    0    0    0    0 -0.00000000000E+00 -0.00000000000E+00  0.00000000000E+00  0.93800000000E+00  0.93800000000E+00 0. -1.
         11    1    1    2    0    0  0.20363735495E-01 -0.56335964860E-02  0.18388960083E+00  0.18510015005E+00  0.51100000000E-03 0. -1.
    9000002    1    1    2    0    0 -0.45630392412E+00  0.10906211973E+00  0.14993570381E+00  0.10594491646E+01  0.93800000000E+00 0. -1.
         22    1    1    2    0    0  0.43594018863E+00 -0.10342852325E+00  0.36661746627E+01  0.36934506853E+01  0.00000000000E+00 0. -1.
</event>
<event>
 5    1  0.3428566E+002  0.1557314E+01  0.7818608E-02  0.3401038E+00
         11   -1    0    0    0    0  0.00000000000E+00  0.00000000000E+00  0.39999999674E+01  0.40000000000E+01  0.51100000000E-03 0.  1.
    9000002   -1    0    0    0    0 -0.00000000000E+00 -0.00000000000E+00  0.00000000000E+00  0.93800000000E+00  0.93800000000E+00 0.  1.
         11    1    1    2    0    0 -0.69424385585E+00  0.46355307569E+00  0.16350360458E+01  0.18358102074E+01  0.51100000000E-03 0.  1.
    9000002    1    1    2    0    0  0.90226935738E+00 -0.54119089326E+00  0.10221767465E+01  0.17411682507E+01  0.93800000000E+00 0.  1.
         22    1    1    2    0    0 -0.20802550154E+00  0.77637817563E-01  0.13427871751E+01  0.13610215419E+01  0.00000000000E+00 0. -1.
</event>
<event>
 5    1  0.3428566E+002  0.1599666E+01  0.7818608E-02  0.3353726E+00
         11   -1    0    0    0    0  0.00000000000E+00  0.00000000000E+00  0.39999999674E+01  0.40000000000E+01  0.51100000000E-03 0. -1.
    9000002   -1    0    0    0    0 -0.00000000000E+00 -0.00000000000E+00  0.00000000000E+00  0.93800000000E+00  0.93800000000E+00 0.  1.
         11    1    1    2    0    0  0.58535715225E-01 -0.39564285204E-01  0.10215048705E+01  0.10239454205E+01  0.51100000000E-03 0. -1.
    9000002    1    1    2    0    0 -0.23603339889E+00  0.14392854534E+00  0.50886842909E-01  0.97921430869E+00  0.93800000000E+00 0.  1.
         22    1    1    2    0    0  0.17749768366E+00 -0.10436426014E+00  0.29276082540E+01  0.29348402708E+01  0.00000000000E+00 0. -1.
</event>
<event>
 5    1  0.3428566E+002  0.1599665E+01  0.7818608E-02  0.3353727E+00
         11   -1    0    0    0    0  0.00000000000E+00  0.00000000000E+00  0.39999999674E+01  0.40000000000E+01  0.51100000000E-03 0.  1.
    9000002   -1    0    0    0    0 -0.00000000000E+00 -0.00000000000E+00  0.00000000000E+00  0.93800000000E+00  0.93800000000E+00 0. -1.
         11    1    1    2    0    0 -0.23278342013E+00  0.47208177921E+00  0.20348899583E+01  0.21018626811E+01  0.51100000000E-03 0.  1.
    9000002    1    1    2    0    0  0.39457597491E+00 -0.79382308424E+00  0.59806597516E+00  0.14224528814E+01  0.93800000000E+00 0. -1.
         22    1    1    2    0    0 -0.16179255478E+00  0.32174130503E+00  0.13670440339E+01  0.14136844375E+01  0.00000000000E+00 0.  1.
</event>
<event>
 5    1  0.3428566E+002  0.1599615E+01  0.7818608E-02  0.3353781E+00
         11   -1    0    0    0    0  0.00000000000E+00  0.00000000000E+00  0.39999999674E+01  0.40000000000E+01  0.51100000000E-03 0. -1.
    9000002   -1    0    0    0    0 -0.00000000000E+00 -0.00000000000E+00  0.00000000000E+00  0.93800000000E+00  0.93800000000E+00 0. -1.
         11    1    1    2    0    0  0.15976348087E-01  0.38329663518E-02  0.29327781502E+00  0.29373810313E+00  0.51100000000E-03 0. -1.
    9000002    1    1    2    0    0 -0.26097342590E+00 -0.99870109894E-01  0.52040787344E-01  0.98011908023E+00  0.93800000000E+00 0. -1.
         22    1    1    2    0    0  0.24499707781E+00  0.96037143542E-01  0.36546813650E+01  0.36641428166E+01  0.00000000000E+00 0. -1.
</event>
<event>
 5    1  0.3428566E+002  0.1572002E+01  0.7818608E-02  0.3384324E+00
         11   -1    0    0    0    0  0.00000000000E+00  0.00000000000E+00  0.39999999674E+01  0.40000000000E+01  0.51100000000E-03 0.  1.
    9000002   -1    0    0    0    0 -0.00000000000E+00 -0.00000000000E+00  0.00000000000E+00  0.93800000000E+00  0.93800000000E+00 0.  1.
         11    1    1    2    0    0 -0.73432720855E-01  0.27855779045E-03  0.12103685125E+00  0.14157196957E+00  0.51100000000E-03 0.  1.
    9000002    1    1    2    0    0  0.65264654544E-01 -0.31270311846E+00  0.90423330216E-01  0.99501914257E+00  0.93800000000E+00 0.  1.
         22    1    1    2    0    0  0.81680663113E-02  0.31242456067E+00  0.37885397859E+01  0.38014088879E+01  0.00000000000E+00 0.  1.
</event>
<event>
 5    1  0.3428566E+002  0.1598421E+01  0.7818608E-02  0.3355079E+00
         11   -1    0    0    0    0  0.00000000000E+00  0.00000000000E+00  0.39999999674E+01  0.40000000000E+01  0.51100000000E-03 0. -1.
    9000002   -1    0    0    0    0 -0.00000000000E+00 -0.00000000000E+00  0.00000000000E+00  0.93800000000E+00  0.93800000000E+00 0.  1.
         11    1    1    2    0    0 -0.10711486757E+00 -0.80092545788E-02  0.13598018727E+01  0.13640378064E+01  0.51100000000E-03 0. -1.
    9000002    1    1    2    0    0  0.31572517891E+00 -0.93898124518E-01  0.73589877567E-01  0.99687447378E+00  0.93800000000E+00 0.  1.
         22    1    1    2    0    0 -0.20861031134E+00  0.10190737910E+00  0.25666082171E+01  0.25770877199E+01  0.00000000000E+00 0.  1.
</event>
<event>
 5    1  0.3428566E+002  0.1599643E+01  0.7818608E-02  0.3353751E+00
         11   -1    0    0    0    0  0.00000000000E+00  0.00000000000E+00  0.39999999674E+01  0.40000000000E+01  0.51100000000E-03 0. -1.
    9000002   -1    0    0    0    0 -0.00000000000E+00 -0.00000000000E+00  0.00000000000E+00  0.93800000000E+00  0.93800000000E+00 0. -1.
         11    1    1    2    0    0 -0.26521217210E-01  0.38589288994E-01  0.46989375382E+00  0.47222125025E+00  0.51100000000E-03 0. -1.
    9000002    1    1    2    0    0  0.25447469181E+00 -0.30461378487E+00  0.10625517419E+00  0.10240513116E+01  0.93800000000E+00 0. -1.
         22    1    1    2    0    0 -0.22795347460E+00  0.26602449587E+00  0.34238510393E+01  0.34417274382E+01  0.00000000000E+00 0. -1.
</event>
<event>
 5    1  0.3428566E+002  0.1599673E+01  0.7818608E-02  0.3353719E+00
         11   -1    0    0    0    0  0.00000000000E+00  0.00000000000E+00  0.39999999674E+01  0.40000000000E+01  0.51100000000E-03 0. -1.
    9000002   -1    0    0    0    0 -0.00000000000E+00 -0.00000000000E+00  0.00000000000E+00  0.93800000000E+00  0.93800000000E+00 0. -1.
         11    1    1    2    0    0 -0.99009491964E-02  0.25815315965E-01  0.41743589920E+00  0.41835086996E+00  0.51100000000E-03 0. -1.
    9000002    1    1    2    0    0  0.83738066054E-01 -0.25392152528E+00  0.47557684041E-01  0.97652134540E+00  0.93800000000E+00 0. -1.
         22    1    1    2    0    0 -0.73837116857E-01  0.22810620931E+00  0.35350063841E+01  0.35431277846E+01  0.00000000000E+00 0. -1.
</event>
<event>
 5    1  0.3428566E+002  0.1599670E+01  0.7818608E-02  0.3353722E+00
         11   -1    0    0    0    0  0.00000000000E+00  0.00000000000E+00  0.39999999674E+01  0.40000000000E+01  0.51100000000E-03 0.  1.
    9000002   -1    0    0    0    0 -0.00000000000E+00 -0.00000000000E+00  0.00000000000E+00  0.93800000000E+00  0.93800000000E+00 0.  1.
         11    1    1    2    0    0 -0.70372450839E-01 -0.11359041462E-01  0.57972323943E+00  0.58408955231E+00  0.51100000000E-03 0.  1.
    9000002    1    1    2    0    0  0.45370173334E+00  0.70147394232E-01  0.14334971933E+00  0.10541152981E+01  0.93800000000E+00 0.  1.
         22    1    1    2    0    0 -0.38332928251E+00 -0.58788352770E-01  0.32769270086E+01  0.32997951495E+01  0.00000000000E+00 0.  1.
</event>
<event>
 5    1  0.3428566E+002  0.1599673E+01  0.7818608E-02  0.3353718E+00
         11   -1    0    0    0    0  0.00000000000E+00  0.00000000000E+00  0.39999999674E+01  0.40000000000E+01  0.51100000000E-03 0.  1.
    9000002   -1    0    0    0    0 -0.00000000000E+00 -0.00000000000E+00  0.00000000000E+00  0.93800000000E+00  0.93800000000E+00 0.  1.
         11    1    1    2    0    0  0.22916969059E-02  0.63789892143E-02  0.11027849392E+00  0.11048778539E+00  0.51100000000E-03 0. -1.
    9000002    1    1    2    0    0 -0.90197719706E-01 -0.20788329326E+00  0.34057066013E-01  0.96558530229E+00  0.93800000000E+00 0.  1.
         22    1    1    2    0    0  0.87906022800E-01  0.20150430404E+00  0.38556644074E+01  0.38619269123E+01  0.00000000000E+00 0.  1.
</event>
<event>
 5    1  0.3428566E+002  0.1598831E+01  0.7818608E-02  0.3354633E+00
         11   -1    0    0    0    0  0.00000000000E+00  0.00000000000E+00  0.39999999674E+01  0.40000000000E+01  0.51100000000E-03 0.  1.
    9000002   -1    0    0    0    0 -0.00000000000E+00 -0.00000000000E+00  0.00000000000E+00  0.93800000000E+00  0.93800000000E+00 0. -1.
         11    1    1    2    0    0 -0.15535189681E+00 -0.28732863844E-01  0.15623343134E+01  0.15703020592E+01  0.51100000000E-03 0.  1.
    9000002    1    1    2    0    0  0.39899080914E+00 -0.13051492989E-01  0.10818697430E+00  0.10251401995E+01  0.93800000000E+00 0. -1.
         22    1    1    2    0    0 -0.24363891233E+00  0.41784356834E-01  0.23294786797E+01  0.23425577413E+01  0.00000000000E+00 0. -1.
</event>
<event>
 5    1  0.3428566E+002  0.1599540E+01  0.7818608E-02  0.3353863E+00
         11   -1    0    0    0    0  0.00000000000E+00  0.00000000000E+00  0.39999999674E+01  0.40000000000E+01  0.51100000000E-03 0. -1.
    9000002   -1    0    0    0    0 -0.00000000000E+00 -0.00000000000E+00  0.00000000000E+00  0.93800000000E+00  0.93800000000E+00 0. -1.
         11    1    1    2    0    0 -0.85237638219E-01 -0.37401582235E-01  0.12784813285E+01  0.12818654773E+01  0.51100000000E-03 0. -1.
    9000002    1    1    2    0    0  0.29902292927E+00  0.97628607686E-01  0.66208230836E-01  0.99155110161E+00  0.93800000000E+00 0. -1.
         22    1    1    2    0    0 -0.21378529105E+00 -0.60227025451E-01  0.26553104080E+01  0.26645834211E+01  0.00000000000E+00 0. -1.
</event>
<event>
 5    1  0.3428566E+002  0.1599657E+01  0.7818608E-02  0.3353736E+00
         11   -1    0    0    0    0  0.00000000000E+00  0.00000000000E+00  0.39999999674E+01  0.40000000000E+01  0.51100000000E-03 0. -1.
    9000002   -1    0    0    0    0 -0.00000000000E+00 -0.00000000000E+00  0.00000000000E+00  0.93800000000E+00  0.93800000000E+00 0.  1.
         11    1    1    2    0    0 -0.11389848931E-01 -0.34684157857E-01  0.53802141095E+00  0.53925876833E+00  0.51100000000E-03 0. -1.
    9000002    1    1    2    0    0  0.10699041883E+00  0.24149959750E+00  0.46413825024E-01  0.97558559259E+00  0.93800000000E+00 0.  1.
         22    1    1    2    0    0 -0.95600569901E-01 -0.20681543965E+00  0.34155647314E+01  0.34231556391E+01  0.00000000000E+00 0. -1.
</event>
<event>
 5    1  0.3428566E+002  0.1598353E+01  0.7818608E-02  0.3355152E+00
         11   -1    0    0    0    0  0.00000000000E+00  0.00000000000E+00  0.39999999674E+01  0.40000000000E+01  0.51100000000E-03 0.  1.
    9000002   -1    0    0    0    0 -0.00000000000E+00 -0.00000000000E+00  0.00000000000E+00  0.93800000000E+00  0.93800000000E+00 0.  1.
         11    1    1    2    0    0  0.68553180141E-01 -0.61653853187E-01  0.15629979211E+01  0.15657150120E+01  0.51100000000E-03 0.  1.
    9000002    1    1    2    0    0 -0.20787609151E+00  0.25673749744E+00  0.74071071701E-01  0.99722471674E+00  0.93800000000E+00 0.  1.
         22    1    1    2    0    0  0.13932291137E+00 -0.19508364426E+00  0.23629309745E+01  0.23750602713E+01  0.00000000000E+00 0.  1.
</event>
<event>
 5    1  0.3428566E+002  0.1599674E+01  0.7818608E-02  0.3353717E+00
         11   -1    0    0    0    0  0.00000000000E+00  0.00000000000E+00  0.39999999674E+01  0.40000000000E+01  0.51100000000E-03 0.  1.
    9000002   -1    0    0    0    0 -0.00000000000E+00 -0.00000000000E+00  0.00000000000E+00  0.93800000000E+00  0.93800000000E+00 0. -1.
         11    1    1    2    0    0  0.22283912022E-01  0.42977282714E-01  0.24817467699E+00  0.25285282476E+00  0.51100000000E-03 0. -1.
    9000002    1    1    2    0    0 -0.33693032183E+00 -0.63724585531E+00  0.37348962987E+00  0.12405413437E+01  0.93800000000E+00 0. -1.
         22    1    1    2    0    0  0.31464640980E+00  0.59426857259E+00  0.33783356605E+01  0.34446058315E+01  0.00000000000E+00 0.  1.
</event>
<event>
 5    1  0.3428566E+002  0.1599671E+01  0.7818608E-02  0.3353721E+00
         11   -1    0    0    0    0  0.00000000000E+00  0.00000000000E+00  0.39999999674E+01  0.40000000000E+01  0.51100000000E-03 0.  1.
    9000002   -1    0    0    0    0 -0.00000000000E+00 -0.00000000000E+00  0.00000000000E+00  0.93800000000E+00  0.93800000000E+00 0.  1.
         11    1    1    2    0    0 -0.19122519614E-01 -0.42920150745E+00  0.22778219265E+01  0.23179845976E+01  0.51100000000E-03 0.  1.
    9000002    1    1    2    0    0  0.29357377516E-01  0.68588503734E+00  0.33563193409E+00  0.12098731071E+01  0.93800000000E+00 0.  1.
         22    1    1    2    0    0 -0.10234857902E-01 -0.25668352989E+00  0.13865461067E+01  0.14101422953E+01  0.00000000000E+00 0.  1.
</event>
<event>
 5    1  0.3428566E+002  0.1599465E+01  0.7818608E-02  0.3353945E+00
         11   -1    0    0    0    0  0.00000000000E+00  0.00000000000E+00  0.39999999674E+01  0.40000000000E+01  0.51100000000E-03 0. -1.
    9000002   -1    0    0    0    0 -0.00000000000E+00 -0.00000000000E+00  0.00000000000E+00  0.93800000000E+00  0.93800000000E+00 0.  1.
         11    1    1    2    0    0  0.25079528179E-01  0.32239844894E-01  0.39429407133E+00  0.39640442245E+00  0.51100000000E-03 0. -1.
    9000002    1    1    2    0    0 -0.28500984338E+00 -0.22155763085E+00  0.87659989958E-01  0.10088838726E+01  0.93800000000E+00 0.  1.
         22    1    1    2    0    0  0.25993031520E+00  0.18931778596E+00  0.35180459061E+01  0.35327117049E+01  0.00000000000E+00 0. -1.
</event>
<event>
 5    1  0.3428566E+002  0.1587668E+01  0.7818608E-02  0.3366858E+00
         11   -1    0    0    0    0  0.00000000000E+00  0.00000000000E+00  0.39999999674E+01  0.40000000000E+01  0.51100000000E-03 0. -1.
    9000002   -1    0    0    0    0 -0.00000000000E+00 -0.00000000000E+00  0.00000000000E+00  0.93800000000E+00  0.93800000000E+00 0.  1.
         11    1    1    2    0    0  0.84926829261E-01  0.18550061117E+00  0.17510806239E+01  0.17629255956E+01  0.51100000000E-03 0. -1.
    9000002    1    1    2    0    0  0.82141913796E-01 -0.30569905452E+00  0.76494836765E-01  0.99292228598E+00  0.93800000000E+00 0.  1.
         22    1    1    2    0    0 -0.16706874306E+00  0.12019844335E+00  0.21724245067E+01  0.21821521184E+01  0.00000000000E+00 0. -1.
</event>
<event>
 5    1  0.3428566E+002  0.1599666E+01  0.7818608E-02  0.3353726E+00
         11   -1    0    0    0    0  0.00000000000E+00  0.00000000000E+00  0.39999999674E+01  0.40000000000E+01  0.51100000000E-03 0. -1.
    9000002   -1    0    0    0    0 -0.00000000000E+00 -0.00000000000E+00  0.00000000000E+00  0.93800000000E+00  0.93800000000E+00 0.  1.
         11    1    1    2    0    0  0.18104603856E-01  0.29357452319E-01  0.53343185839E+00  0.53454601800E+00  0.51100000000E-03 0. -1.
    9000002    1    1    2    0    0 -0.11644544863E+00 -0.22676978811E+00  0.43193116267E-01  0.97298187270E+00  0.93800000000E+00 0.  1.
         22    1    1    2    0    0  0.98340844779E-01  0.19741233579E+00  0.34233749927E+01  0.34304721093E+01  0.00000000000E+00 0. -1.
</event>
<event>
 5    1  0.3428566E+002  0.1593397E+01  0.7818608E-02  0.3360561E+00
         11   -1    0    0    0    0  0.00000000000E+00  0.00000000000E+00  0.39999999674E+01  0.40000000000E+01  0.51100000000E-03 0.  1.
    9000002   -1    0    0    0    0 -0.00000000000E+00 -0.00000000000E+00  0.00000000000E+00  0.93800000000E+00  0.93800000000E+00 0.  1.
         11    1    1    2    0    0  0.16012294725E-01 -0.21605090167E-01  0.25610148830E+00  0.25751001327E+00  0.51100000000E-03 0.  1.
    9000002    1    1    2    0    0  0.43071275708E+00  0.80248729781E-01  0.13554053997E+00  0.10441113809E+01  0.93800000000E+00 0.  1.
         22    1    1    2    0    0 -0.44672505180E+00 -0.58643639615E-01  0.36083579391E+01  0.36363786058E+01  0.00000000000E+00 0.  1.
</event>
<event>
 5    1  0.3428566E+002  0.1582154E+01  0.7818608E-02  0.3372963E+00
         11   -1    0    0    0    0  0.00000000000E+00  0.00000000000E+00  0.39999999674E+01  0.40000000000E+01  0.51100000000E-03 0. -1.
    9000002   -1    0    0    0    0 -0.00000000000E+00 -0.00000000000E+00  0.00000000000E+00  0.93800000000E+00  0.93800000000E+00 0.  1.
         11    1    1    2    0    0 -0.39330516897E-01  0.49562549776E-01  0.11617370195E+01  0.11634588517E+01  0.51100000000E-03 0. -1.
    9000002    1    1    2    0    0 -0.19994880918E+00  0.19475345337E+00  0.65573581022E-01  0.98084266242E+00  0.93800000000E+00 0.  1.
         22    1    1    2    0    0  0.23927932608E+00 -0.24431600314E+00  0.27726893668E+01  0.27936984859E+01  0.00000000000E+00 0. -1.
</event>
<event>
 5    1  0.3428566E+002  0.1599044E+01  0.7818608E-02  0.3354402E+00
         11   -1    0    0    0    0  0.00000000000E+00  0.00000000000E+00  0.39999999674E+01  0.40000000000E+01  0.51100000000E-03 0. -1.
    9000002   -1    0    0    0    0 -0.00000000000E+00 -0.00000000000E+00  0.00000000000E+00  0.93800000000E+00  0.93800000000E+00 0. -1.
         11    1    1    2    0    0 -0.14094667698E-01  0.87515945338E-02  0.49825849442E+00  0.49853489190E+00  0.51100000000E-03 0. -1.
    9000002    1    1    2    0    0  0.27114455902E+00 -0.66844810897E-01  0.52420415899E-01  0.98009157768E+00  0.93800000000E+00 0. -1.
         22    1    1    2    0    0 -0.25704989132E+00  0.58093216363E-01  0.34493210570E+01  0.34593735304E+01  0.00000000000E+00 0. -1.
</event>
<event>
 5    1  0.3428566E+002  0.1599676E+01  0.7818608E-02  0.3353715E+00
         11   -1    0    0    0    0  0.00000000000E+00  0.00000000000E+00  0.39999999674E+01  0.40000000000E+01  0.51100000000E-03 0.  1.
    9000002   -1    0    0    0    0 -0.00000000000E+00 -0.00000000000E+00  0.00000000000E+00  0.93800000000E+00  0.93800000000E+00 0. -1.
         11    1    1    2    0    0 -0.27726902909E-01  0.61908246564E-02  0.46561861461E+00  0.46648479380E+00  0.51100000000E-03 0. -1.
    9000002    1    1    2    0    0  0.23349007090E+00 -0.49675844672E-01  0.37823317147E-01  0.96863817087E+00  0.93800000000E+00 0. -1.
         22    1    1    2    0    0 -0.20576316799E+00  0.43485020016E-01  0.34965580356E+01  0.35028770353E+01  0.00000000000E+00 0.  1.
</event>
<event>
 5    1  0.3428566E+002  0.1599373E+01  0.7818608E-02  0.3354044E+00
         11   -1    0    0    0    0  0.00000000000E+00  0.00000000000E+00  0.39999999674E+01  0.40000000000E+01  0.51100000000E-03 0. -1.
    9000002   -1    0    0    0    0 -0.00000000000E+00 -0.00000000000E+00  0.00000000000E+00  0.93800000000E+00  0.93800000000E+00 0.  1.
         11    1    1    2    0    0 -0.48632223730E+00 -0.11108279438E+00  0.23494193735E+01  0.24017952367E+01  0.51100000000E-03 0. -1.
    9000002    1    1    2    0    0  0.71771570042E+00  0.15985887743E+00  0.39060219638E+00  0.12542267591E+01  0.93800000000E+00 0.  1.
         22    1    1    2    0    0 -0.23139346312E+00 -0.48776083046E-01  0.12599783975E+01  0.12819780042E+01  0.00000000000E+00 0. -1.
</event>
<event>
 5    1  0.3428566E+002  0.1599025E+01  0.7818608E-02  0.3354422E+00
         11   -1    0    0    0    0  0.00000000000E+00  0.00000000000E+00  0.39999999674E+01  0.40000000000E+01  0.51100000000E-03 0.  1.
    9000002   -1    0    0    0    0 -0.00000000000E+00 -0.00000000000E+00  0.00000000000E+00  0.93800000000E+00  0.93800000000E+00 0. -1.
         11    1    1    2    0    0  0.12457268331E+00 -0.17733862296E-01  0.18272068919E+01  0.18315343650E+01  0.51100000000E-03 0.  1.
    9000002    1    1    2    0    0 -0.32789090670E+00  0.64969590434E-01  0.75311731455E-01  0.99862372858E+00  0.93800000000E+00 0. -1.
         22    1    1    2    0    0  0.20331822339E+00 -0.47235728137E-01  0.20974813440E+01  0.21078419064E+01  0.00000000000E+00 0.  1.
</event>
<event>
 5    1  0.3428566E+002  0.1596389E+01  0.7818608E-02  0.3357292E+00
         11   -1    0    0    0    0  0.00000000000E+00  0.00000000000E+00  0.39999999674E+01  0.40000000000E+01  0.51100000000E-03 0.  1.
    9000002   -1    0    0    0    0 -0.00000000000E+00 -0.00000000000E+00  0.00000000000E+00  0.93800000000E+00  0.93800000000E+00 0. -1.
         11    1    1    2    0    0 -0.51113828928E-01 -0.84410306928E-01  0.36892435776E+00  0.38189418206E+00  0.51100000000E-03 0.  1.
    9000002    1    1    2    0    0  0.34110199917E+00  0.47324979449E+00  0.23982896777E+00  0.11303441403E+01  0.93800000000E+00 0. -1.
         22    1    1    2    0    0 -0.28998817024E+00 -0.38883948757E+00  0.33912466418E+01  0.34257616776E+01  0.00000000000E+00 0.  1.
</event>
<event>
 5    1  0.3428566E+002  0.1599619E+01  0.7818608E-02  0.3353777E+00
         11   -1    0    0    0    0  0.00000000000E+00  0.00000000000E+00  0.39999999674E+01  0.40000000000E+01  0.51100000000E-03 0. -1.
    9000002   -1    0    0    0    0 -0.00000000000E+00 -0.00000000000E+00  0.00000000000E+00  0.93800000000E+00  0.93800000000E+00 0. -1.
         11    1    1    2    0    0 -0.67536562184E-01  0.15251586155E+00  0.16615718048E+01  0.16699231716E+01  0.51100000000E-03 0. -1.
    9000002    1    1    2    0    0  0.17638283940E+00 -0.34648550322E+00  0.10186603576E+00  0.10204821406E+01  0.93800000000E+00 0. -1.
         22    1    1    2    0    0 -0.10884627722E+00  0.19396964167E+00  0.22365621268E+01  0.22475946879E+01  0.00000000000E+00 0. -1.
</event>
<event>
 5    1  0.3428566E+002  0.1546973E+01  0.7818608E-02  0.3413008E+00
         11   -1    0    0    0    0  0.00000000000E+00  0.00000000000E+00  0.39999999674E+01  0.40000000000E+01  0.51100000000E-03 0. -1.
    9000002   -1    0    0    0    0 -0.00000000000E+00 -0.00000000000E+00  0.00000000000E+00  0.93800000000E+00  0.93800000000E+00 0.  1.
         11    1    1    2    0    0 -0.15755964339E+00 -0.19351488409E+00  0.31591469909E+01  0.31689876969E+01  0.51100000000E-03 0. -1.
    9000002    1    1    2    0    0  0.10021494323E+00 -0.18784484719E-01  0.46378294230E-01  0.94466440490E+00  0.93800000000E+00 0.  1.
         22    1    1    2    0    0  0.57344700157E-01  0.21229936881E+00  0.79447468221E+00  0.82434789822E+00  0.00000000000E+00 0. -1.
</event>
<event>
 5    1  0.3428566E+002  0.1599179E+01  0.7818608E-02  0.3354255E+00
         11   -1    0    0    0    0  0.00000000000E+00  0.00000000000E+00  0.39999999674E+01  0.40000000000E+01  0.51100000000E-03 0. -1.
    9000002   -1    0    0    0    0 -0.00000000000E+00 -0.00000000000E+00  0.00000000000E+00  0.93800000000E+00  0.93800000000E+00 0.  1.
         11    1    1    2    0    0 -0.54700726702E-02 -0.79985800899E-01  0.12776361225E+01  0.12801491994E+01  0.51100000000E-03 0. -1.
    9000002    1    1    2    0    0 -0.47822142204E-01  0.28971111832E+00  0.57873035258E-01  0.98458761803E+00  0.93800000000E+00 0.  1.
         22    1    1    2    0    0  0.53292214874E-01 -0.20972531742E+00  0.26644908096E+01  0.26732631826E+01  0.00000000000E+00 0. -1.
</event>
<event>
 5    1  0.3428566E+002  0.1599671E+01  0.7818608E-02  0.3353721E+00
         11   -1    0    0    0    0  0.00000000000E+00  0.00000000000E+00  0.39999999674E+01  0.40000000000E+01  0.51100000000E-03 0.  1.
    9000002   -1    0    0    0    0 -0.00000000000E+00 -0.00000000000E+00  0.00000000000E+00  0.93800000000E+00  0.93800000000E+00 0. -1.
         11    1    1    2    0    0 -0.83233585197E-03 -0.60261600151E-02  0.12584255464E+00  0.12599054356E+00  0.51100000000E-03 0.  1.
    9000002    1    1    2    0    0  0.21397110292E-01  0.21920928632E+00  0.32161046074E-01  0.96404817329E+00  0.93800000000E+00 0. -1.
         22    1    1    2    0    0 -0.20564774440E-01 -0.21318312631E+00  0.38419963666E+01  0.38479612831E+01  0.00000000000E+00 0.  1.
</event>
<event>
 5    1  0.3428566E+002  0.1599236E+01  0.7818608E-02  0.3354194E+00
         11   -1    0    0    0    0  0.00000000000E+00  0.00000000000E+00  0.39999999674E+01  0.40000000000E+01  0.51100000000E-03 0. -1.
    9000002   -1    0    0    0    0 -0.00000000000E+00 -0.00000000000E+00  0.00000000000E+00  0.93800000000E+00  0.93800000000E+00 0. -1.
         11    1    1    2    0    0 -0.17651913390E-01  0.32851932266E-01  0.45073663844E+00  0.45227714717E+00  0.51100000000E-03 0. -1.
    9000002    1    1    2    0    0  0.52585421019E-01 -0.38199583872E+00  0.10047410223E+00  0.10191295759E+01  0.93800000000E+00 0. -1.
         22    1    1    2    0    0 -0.34933507629E-01  0.34914390645E+00  0.34487892267E+01  0.34665932769E+01  0.00000000000E+00 0. -1.
</event>
<event>
 5    1  0.3428566E+002  0.1599672E+01  0.7818608E-02  0.3353719E+00
         11   -1    0    0    0    0  0.00000000000E+00  0.00000000000E+00  0.39999999674E+01  0.40000000000E+01  0.51100000000E-03 0.  1.
    9000002   -1    0    0    0    0 -0.00000000000E+00 -0.00000000000E+00  0.00000000000E+00  0.93800000000E+00  0.93800000000E+00 0.  1.
         11    1    1    2    0    0 -0.11817054317E+00 -0.45186973801E-01  0.15183329891E+01  0.15235949156E+01  0.51100000000E-03 0.  1.
    9000002    1    1    2    0    0  0.31116869555E+00  0.12054611983E+00  0.74539563093E-01  0.99837741890E+00  0.93800000000E+00 0.  1.
         22    1    1    2    0    0 -0.19299815238E+00 -0.75359146034E-01  0.24071274152E+01  0.24160276655E+01  0.00000000000E+00 0.  1.
</event>
<event>
 5    1  0.3428566E+002  0.1557382E+01  0.7818608E-02  0.3400959E+00
         11   -1    0    0    0    0  0.00000000000E+00  0.00000000000E+00  0.39999999674E+01  0.40000000000E+01  0.51100000000E-03 0. -1.
    9000002   -1    0    0    0    0 -0.00000000000E+00 -0.00000000000E+00  0.00000000000E+00  0.93800000000E+00  0.93800000000E+00 0.  1.
         11    1    1    2    0    0 -0.12911242749E+00  0.12519308128E+00  0.95224815866E+00  0.96908211382E+00  0.51100000000E-03 0. -1.
    9000002    1    1    2    0    0 -0.21874548292E+00 -0.67399341751E-01  0.67503647205E-01  0.96788067444E+00  0.93800000000E+00 0.  1.
         22    1    1    2    0    0  0.34785791041E+00 -0.57793739525E-01  0.29802481615E+01  0.30010372117E+01  0.00000000000E+00 0. -1.
</event>
<event>
 5    1  0.3428566E+002  0.1599546E+01  0.7818608E-02  0.3353857E+00
         11   -1    0    0    0    0  0.00000000000E+00  0.00000000000E+00  0.39999999674E+01  0.40000000000E+01  0.51100000000E-03 0. -1.
    9000002   -1    0    0    0    0 -0.00000000000E+00 -0.00000000000E+00  0.00000000000E+00  0.93800000000E+00  0.93800000000E+00 0.  1.
         11    1    1    2    0    0 -0.72366295111E-01  0.28564502017E-01  0.11528527426E+01  0.11554750186E+01  0.51100000000E-03 0. -1.
    9000002    1    1    2    0    0  0.25621891663E+00 -0.13975993620E+00  0.56885245527E-01  0.98400249195E+00  0.93800000000E+00 0.  1.
         22    1    1    2    0    0 -0.18385262151E+00  0.11119543419E+00  0.27902619793E+01  0.27985224895E+01  0.00000000000E+00 0. -1.
</event>
<event>
 5    1  0.3428566E+002  0.1584563E+01  0.7818608E-02  0.3370290E+00
         11   -1    0    0    0    0  0.00000000000E+00  0.00000000000E+00  0.39999999674E+01  0.40000000000E+01  0.51100000000E-03 0. -1.
    9000002   -1    0    0    0    0 -0.00000000000E+00 -0.00000000000E+00  0.00000000000E+00  0.93800000000E+00  0.93800000000E+00 0.  1.
         11    1    1    2    0    0  0.15465547937E+00 -0.25701346899E+00  0.26090316401E+01  0.26262179271E+01  0.51100000000E-03 0. -1.
    9000002    1    1    2    0    0 -0.26379213957E-01  0.41515054128E+00  0.12979979199E+00  0.10342813064E+01  0.93800000000E+00 0.  1.
         22    1    1    2    0    0 -0.12827626541E+00 -0.15813707229E+00  0.12611685352E+01  0.12775007664E+01  0.00000000000E+00 0. -1.
</event>
<event>
 5    1  0.3428566E+002  0.1599360E+01  0.7818608E-02  0.3354058E+00
         11   -1    0    0    0    0  0.00000000000E+00  0.00000000000E+00  0.39999999674E+01  0.40000000000E+01  0.51100000000E-03 0.  1.
    9000002   -1    0    0    0    0 -0.00000000000E+00 -0.00000000000E+00  0.00000000000E+00  0.93800000000E+00  0.93800000000E+00 0.  1.
         11    1    1    2    0    0 -0.25241168271E-01 -0.22979969746E-01  0.55980140152E+00  0.56084139099E+00  0.51100000000E-03 0.  1.
    9000002    1    1    2    0    0  0.94780659565E-01  0.22679782812E+00  0.40365934422E-01  0.97051225491E+00  0.93800000000E+00 0.  1.
         22    1    1    2    0    0 -0.69539491293E-01 -0.20381785837E+00  0.33998326314E+01  0.34066463541E+01  0.00000000000E+00 0.  1.
</event>
<event>
 5    1  0.3428566E+002  0.1599640E+01  0.7818608E-02  0.3353755E+00
         11   -1    0    0    0    0  0.00000000000E+00  0.00000000000E+00  0.39999999674E+01  0.40000000000E+01  0.51100000000E-03 0.  1.
    9000002   -1    0    0    0    0 -0.00000000000E+00 -0.00000000000E+00  0.00000000000E+00  0.93800000000E+00  0.93800000000E+00 0. -1.
         11    1    1    2    0    0 -0.27344460430E+00  0.10576631277E+00  0.20814102423E+01  0.21019579735E+01  0.51100000000E-03 0.  1.
    9000002    1    1    2    0    0  0.49947912929E+00 -0.17998652959E+00  0.19403762114E+00  0.10951571348E+01  0.93800000000E+00 0. -1.
         22    1    1    2    0    0 -0.22603452499E+00  0.74220216820E-01  0.17245521039E+01  0.17408848917E+01  0.00000000000E+00 0.  1.
</event>
<event>
 5    1  0.3428566E+002  0.1481357E+01  0.7818608E-02  0.3493140E+00
         11   -1    0    0    0    0  0.00000000000E+00  0.00000000000E+00  0.39999999674E+01  0.40000000000E+01  0.51100000000E-03 0.  1.
    9000002   -1    0    0    0    0 -0.00000000000E+00 -0.00000000000E+00  0.00000000000E+00  0.93800000000E+00  0.93800000000E+00 0.  1.
         11    1    1    2    0    0  0.55456902789E-01  0.43605113690E+00  0.26174490788E+01  0.26541017319E+01  0.51100000000E-03 0.  1.
    9000002    1    1    2    0    0  0.64895040286E-01 -0.88363685540E-01  0.10005664440E+00  0.94967091103E+00  0.93800000000E+00 0.  1.
         22    1    1    2    0    0 -0.12035194308E+00 -0.34768745136E+00  0.12824942441E+01  0.13342273570E+01  0.00000000000E+00 0.  1.
</event>
<event>
 5    1  0.3428566E+002  0.1599668E+01  0.7818608E-02  0.3353724E+00
         11   -1    0    0    0    0  0.00000000000E+00  0.00000000000E+00  0.39999999674E+01  0.40000000000E+01  0.51100000000E-03 0.  1.
    9000002   -1    0    0    0    0 -0.00000000000E+00 -0.00000000000E+00  0.00000000000E+00  0.93800000000E+00  0.93800000000E+00 0. -1.
         11    1    1    2    0    0 -0.18525659521E-02  0.53358549691E-04  0.39853488827E-01  0.39899831334E-01  0.51100000000E-03 0.  1.
    9000002    1    1    2    0    0  0.20599114170E+00 -0.53788423966E-01  0.30037526031E-01  0.96232624301E+00  0.93800000000E+00 0. -1.
         22    1    1    2    0    0 -0.20413857575E+00  0.53735065416E-01  0.39301089525E+01  0.39357739257E+01  0.00000000000E+00 0.  1.
</event>
<event>
 5    1  0.3428566E+002  0.1599511E+01  0.7818608E-02  0.3353894E+00
         11   -1    0    0    0    0  0.00000000000E+00  0.00000000000E+00  0.39999999674E+01  0.40000000000E+01  0.51100000000E-03 0. -1.
    9000002   -1    0    0    0    0 -0.00000000000E+00 -0.00000000000E+00  0.00000000000E+00  0.93800000000E+00  0.93800000000E+00 0.  1.
         11    1    1    2    0    0 -0.20992349741E+00  0.21466397588E-01  0.18298103357E+01  0.18419377858E+01  0.51100000000E-03 0. -1.
    9000002    1    1    2    0    0  0.46929221198E+00 -0.27732926801E-01  0.15070614599E+00  0.10599814328E+01  0.93800000000E+00 0.  1.
         22    1    1    2    0    0 -0.25936871457E+00  0.62665292134E-02  0.20194834856E+01  0.20360807814E+01  0.00000000000E+00 0. -1.
</event>
<event>
 5    1  0.3428566E+002  0.1599616E+01  0.7818608E-02  0.3353780E+00
         11   -1    0    0    0    0  0.00000000000E+00  0.00000000000E+00  0.39999999674E+01  0.40000000000E+01  0.51100000000E-03 0. -1.
    9000002   -1    0    0    0    0 -0.00000000000E+00 -0.00000000000E+00  0.00000000000E+00  0.93800000000E+00  0.93800000000E+00 0.  1.
         11    1    1    2    0    0  0.34293639739E-01 -0.35504583390E-01  0.57019069538E+00  0.57232361421E+00  0.51100000000E-03 0. -1.
    9000002    1    1    2    0    0 -0.27646924421E+00  0.26088459693E+00  0.97273999734E-01  0.10167606635E+01  0.93800000000E+00 0.  1.
         22    1    1    2    0    0  0.24217560447E+00 -0.22538001354E+00  0.33325352722E+01  0.33489157222E+01  0.00000000000E+00 0. -1.
</event>
<event>
 5    1  0.3428566E+002  0.1599675E+01  0.7818608E-02  0.3353716E+00
         11   -1    0    0    0    0  0.00000000000E+00  0.00000000000E+00  0.39999999674E+01  0.40000000000E+01  0.51100000000E-03 0. -1.
    9000002   -1    0    0    0    0 -0.00000000000E+00 -0.00000000000E+00  0.00000000000E+00  0.93800000000E+00  0.93800000000E+00 0.  1.
         11    1    1    2    0    0  0.79412541327E-01  0.19593728829E-01  0.11332762434E+01  0.11362242608E+01  0.51100000000E-03 0. -1.
    9000002    1    1    2    0    0 -0.27321148198E+00 -0.72282712215E-01  0.53199810016E-01  0.98109302523E+00  0.93800000000E+00 0.  1.
         22    1    1    2    0    0  0.19379894065E+00  0.52688983385E-01  0.28135239140E+01  0.28206827140E+01  0.00000000000E+00 0. -1.
</event>
<event>
 5    1  0.3428566E+002  0.1599671E+01  0.7818608E-02  0.3353720E+00
         11   -1    0    0    0    0  0.00000000000E+00  0.00000000000E+00  0.39999999674E+01  0.40000000000E+01  0.51100000000E-03 0. -1.
    9000002   -1    0    0    0    0 -0.00000000000E+00 -0.00000000000E+00  0.00000000000E+00  0.93800000000E+00  0.93800000000E+00 0.  1.
         11    1    1    2    0    0  0.79371590028E-02 -0.26243615892E-03  0.16199478236E+00  0.16219012917E+00  0.51100000000E-03 0. -1.
    9000002    1    1    2    0    0 -0.21640660664E+00  0.19952681209E-01  0.31305764426E-01  0.96335558325E+00  0.93800000000E+00 0.  1.
         22    1    1    2    0    0  0.20846944764E+00 -0.19690245051E-01  0.38066994206E+01  0.38124542876E+01  0.00000000000E+00 0. -1.
</event>
<event>
 5    1  0.3428566E+002  0.1541652E+01  0.7818608E-02  0.3419234E+00
         11   -1    0    0    0    0  0.00000000000E+00  0.00000000000E+00  0.39999999674E+01  0.40000000000E+01  0.51100000000E-03 0.  1.
    9000002   -1    0    0    0    0 -0.00000000000E+00 -0.00000000000E+00  0.00000000000E+00  0.93800000000E+00  0.93800000000E+00 0.  1.
         11    1    1    2    0    0  0.16719803220E+00  0.15600602849E+00  0.17436207103E+01  0.17585523892E+01  0.51100000000E-03 0.  1.
    9000002    1    1    2    0    0  0.15997942372E+00  0.13767740459E-01  0.61279913172E-01  0.95361532834E+00  0.93800000000E+00 0.  1.
         22    1    1    2    0    0 -0.32717745592E+00 -0.16977376895E+00  0.21950993439E+01  0.22258322825E+01  0.00000000000E+00 0.  1.
</event>
<event>
 5    1  0.3428566E+002  0.1599677E+01  0.7818608E-02  0.3353714E+00
         11   -1    0    0    0    0  0.00000000000E+00  0.00000000000E+00  0.39999999674E+01  0.40000000000E+01  0.51100000000E-03 0. -1.
    9000002   -1    0    0    0    0 -0.00000000000E+00 -0.00000000000E+00  0.00000000000E+00  0.93800000000E+00  0.93800000000E+00 0. -1.
         11    1    1    2    0    0  0.62739277388E-02  0.18270008695E+00  0.94724936361E+00  0.96472809741E+00  0.51100000000E-03 0. -1.
    9000002    1    1    2    0    0 -0.26396032366E-01 -0.70248646915E+00  0.35346566575E+00  0.12243226563E+01  0.93800000000E+00 0. -1.
         22    1    1    2    0    0  0.20122104627E-01  0.51978638220E+00  0.26992849380E+01  0.27489492463E+01  0.00000000000E+00 0. -1.
</event>
<event>
 5    1  0.3428566E+002  0.1503716E+01  0.7818608E-02  0.3464989E+00
         11   -1    0    0    0    0  0.00000000000E+00  0.00000000000E+00  0.39999999674E+01  0.40000000000E+01  0.51100000000E-03 0.  1.
    9000002   -1    0    0    0    0 -0.00000000000E+00 -0.00000000000E+00  0.00000000000E+00  0.93800000000E+00  0.93800000000E+00 0. -1.
         11    1    1    2    0    0 -0.13965517561E+00 -0.88772142824E-01  0.20828592232E+00  0.26602132993E+00  0.51100000000E-03 0.  1.
    9000002    1    1    2    0    0 -0.12941351535E+00 -0.16477595265E+00  0.10506820281E+00  0.96684140363E+00  0.93800000000E+00 0. -1.
         22    1    1    2    0    0  0.26906869096E+00  0.25354809548E+00  0.36866458422E+01  0.37051372664E+01  0.00000000000E+00 0.  1.
</event>
<event>
 5    1  0.3428566E+002  0.1530044E+01  0.7818608E-02  0.3432976E+00
         11   -1    0    0    0    0  0.00000000000E+00  0.00000000000E+00  0.39999999674E+01  0.40000000000E+01  0.51100000000E-03 0.  1.
    9000002   -1    0    0    0    0 -0.00000000000E+00 -0.00000000000E+00  0.00000000000E+00  0.93800000000E+00  0.93800000000E+00 0. -1.
         11    1    1    2    0    0  0.11052841561E+00 -0.14855267077E+00  0.39572714261E+00  0.43690348953E+00  0.51100000000E-03 0.  1.
    9000002    1    1    2    0    0  0.79559464825E-01 -0.52714861043E-01  0.58631916481E-01  0.94466410255E+00  0.93800000000E+00 0. -1.
         22    1    1    2    0    0 -0.19008788044E+00  0.20126753181E+00  0.35456409083E+01  0.35564324079E+01  0.00000000000E+00 0.  1.
</event>
<event>
 5    1  0.3428566E+002  0.1525955E+01  0.7818608E-02  0.3437871E+00
         11   -1    0    0    0    0  0.00000000000E+00  0.00000000000E+00  0.39999999674E+01  0.40000000000E+01  0.51100000000E-03 0.  1.
    9000002   -1    0    0    0    0 -0.00000000000E+00 -0.00000000000E+00  0.00000000000E+00  0.93800000000E+00  0.93800000000E+00 0.  1.
         11    1    1    2    0    0  0.92610553934E-01  0.25607384995E+00  0.31448757372E+01  0.31566428678E+01  0.51100000000E-03 0.  1.
    9000002    1    1    2    0    0  0.98732528537E-01 -0.69767300634E-01  0.65762990799E-01  0.94804238270E+00  0.93800000000E+00 0.  1.
         22    1    1    2    0    0 -0.19134308247E+00 -0.18630654931E+00  0.78936123938E+00  0.83331474952E+00  0.00000000000E+00 0.  1.
</event>
<event>
 5    1  0.3428566E+002  0.1599675E+01  0.7818608E-02  0.3353716E+00
         11   -1    0    0    0    0  0.00000000000E+00  0.00000000000E+00  0.39999999674E+01  0.40000000000E+01  0.51100000000E-03 0.  1.
    9000002   -1    0    0    0    0 -0.00000000000E+00 -0.00000000000E+00  0.00000000000E+00  0.93800000000E+00  0.93800000000E+00 0.  1.
         11    1    1    2    0    0 -0.18265035794E-01 -0.12502384058E-01  0.34988438952E+00  0.35058418146E+00  0.51100000000E-03 0.  1.
    9000002    1    1    2    0    0  0.21149081265E+00  0.14898514468E+00  0.44489110885E-01  0.97403707227E+00  0.93800000000E+00 0.  1.
         22    1    1    2    0    0 -0.19322577685E+00 -0.13648276062E+00  0.36056264670E+01  0.36133787463E+01  0.00000000000E+00 0.  1.
</event>
<event>
 5    1  0.3428566E+002  0.1454315E+01  0.7818608E-02  0.3528440E+00
         11   -1    0    0    0    0  0.00000000000E+00  0.00000000000E+00  0.39999999674E+01  0.40000000000E+01  0.51100000000E-03 0. -1.
    9000002   -1    0    0    0    0 -0.00000000000E+00 -0.00000000000E+00  0.00000000000E+00  0.93800000000E+00  0.93800000000E+00 0.  1.
         11    1    1    2    0    0  0.11311140860E+00  0.65370080309E-01  0.17027388346E-01  0.13174836329E+00  0.51100000000E-03 0. -1.
    9000002    1    1    2    0    0 -0.12455130251E+00  0.36495016340E+00  0.24469978009E+00  0.10432754340E+01  0.93800000000E+00 0.  1.
         22    1    1    2    0    0  0.11439893904E-01 -0.43032024371E+00  0.37382727989E+01  0.37629762028E+01  0.00000000000E+00 0. -1.
</event>
<event>
 5    1  0.3428566E+002  0.1599675E+01  0.7818608E-02  0.3353717E+00
         11   -1    0    0    0    0  0.00000000000E+00  0.00000000000E+00  0.39999999674E+01  0.40000000000E+01  0.51100000000E-03 0. -1.
    9000002   -1    0    0    0    0 -0.00000000000E+00 -0.00000000000E+00  0.00000000000E+00  0.93800000000E+00  0.93800000000E+00 0. -1.
         11    1    1    2    0    0  0.36816809367E-01  0.14059531519E-01  0.47900698587E+00  0.48062573954E+00  0.51100000000E-03 0.  1.
    9000002    1    1    2    0    0 -0.29274317980E+00 -0.11694768777E+00  0.66393156800E-01  0.99177990616E+00  0.93800000000E+00 0. -1.
         22    1    1    2    0    0  0.25592637043E+00  0.10288815625E+00  0.34545998247E+01  0.34655943543E+01  0.00000000000E+00 0. -1.
</event>
<event>
 5    1  0.3428566E+002  0.1599670E+01  0.7818608E-02  0.3353722E+00
         11   -1    0    0    0    0  0.00000000000E+00  0.00000000000E+00  0.39999999674E+01  0.40000000000E+01  0.51100000000E-03 0. -1.
    9000002   -1    0    0    0    0 -0.00000000000E+00 -0.00000000000E+00  0.00000000000E+00  0.93800000000E+00  0.93800000000E+00 0. -1.
         11    1    1    2    0    0  0.20501696691E+00  0.24370335649E+00  0.22066437147E+01  0.22295066780E+01  0.51100000000E-03 0. -1.
    9000002    1    1    2    0    0 -0.34920500242E+00 -0.42342799380E+00  0.20802516912E+00  0.11065052511E+01  0.93800000000E+00 0. -1.
         22    1    1    2    0    0  0.14418803551E+00  0.17972463731E+00  0.15853310836E+01  0.16019880709E+01  0.00000000000E+00 0. -1.
</event>
<event>
 5    1  0.3428566E+002  0.1599677E+01  0.7818608E-02  0.3353714E+00
         11   -1    0    0    0    0  0.00000000000E+00  0.00000000000E+00  0.39999999674E+01  0.40000000000E+01  0.51100000000E-03 0.  1.
    9000002   -1    0    0    0    0 -0.00000000000E+00 -0.00000000000E+00  0.00000000000E+00  0.93800000000E+00  0.93800000000E+00 0. -1.
         11    1    1    2    0    0  0.19813024003E+00  0.12304608575E-01  0.74913583025E+00  0.77499145073E+00  0.51100000000E-03 0. -1.
    9000002    1    1    2    0    0 -0.89658763283E+00 -0.53974491590E-01  0.61705000394E+00  0.14378377295E+01  0.93800000000E+00 0. -1.
         22    1    1    2    0    0  0.69845739280E+00  0.41669883014E-01  0.26338141332E+01  0.27251708197E+01  0.00000000000E+00 0.  1.
</event>
<event>
 5    1  0.3428566E+002  0.1599676E+01  0.7818608E-02  0.3353715E+00
         11   -1    0    0    0    0  0.00000000000E+00  0.00000000000E+00  0.39999999674E+01  0.40000000000E+01  0.51100000000E-03 0. -1.
    9000002   -1    0    0    0    0 -0.00000000000E+00 -0.00000000000E+00  0.00000000000E+00  0.93800000000E+00  0.93800000000E+00 0. -1.
         11    1    1    2    0    0  0.23228208108E-02 -0.21175281591E-01  0.23877719542E+00  0.23972608999E+00  0.51100000000E-03 0. -1.
    9000002    1    1    2    0    0 -0.32033640608E-01  0.34967375612E+00  0.82683783894E-01  0.10049768644E+01  0.93800000000E+00 0. -1.
         22    1    1    2    0    0  0.29710819797E-01 -0.32849847453E+00  0.36785389880E+01  0.36932970456E+01  0.00000000000E+00 0. -1.
</event>
<event>
 5    1  0.3428566E+002  0.1599676E+01  0.7818608E-02  0.3353715E+00
         11   -1    0    0    0    0  0.00000000000E+00  0.00000000000E+00  0.39999999674E+01  0.40000000000E+01  0.51100000000E-03 0. -1.
    9000002   -1    0    0    0    0 -0.00000000000E+00 -0.00000000000E+00  0.00000000000E+00  0.93800000000E+00  0.93800000000E+00 0.  1.
         11    1    1    2    0    0 -0.52781908844E-01 -0.34226322438E-01  0.89513279729E+00  0.89734071397E+00  0.51100000000E-03 0. -1.
    9000002    1    1    2    0    0  0.23337542919E+00  0.14621580251E+00  0.50486211578E-01  0.97889530054E+00  0.93800000000E+00 0.  1.
         22    1    1    2    0    0 -0.18059352035E+00 -0.11198948007E+00  0.30543809585E+01  0.30617639855E+01  0.00000000000E+00 0. -1.
</event>
<event>
 5    1  0.3428566E+002  0.1573720E+01  0.7818608E-02  0.3382390E+00
         11   -1    0    0    0    0  0.00000000000E+00  0.00000000000E+00  0.39999999674E+01  0.40000000000E+01  0.51100000000E-03 0.  1.
    9000002   -1    0    0    0    0 -0.00000000000E+00 -0.00000000000E+00  0.00000000000E+00  0.93800000000E+00  0.93800000000E+00 0.  1.
         11    1    1    2    0    0  0.23733909278E+00  0.15137056796E+00  0.16137542690E+01  0.16381227047E+01  0.51100000000E-03 0.  1.
    9000002    1    1    2    0    0 -0.11287045180E+00 -0.32854771466E+00  0.10206574051E+00  0.10054574855E+01  0.93800000000E+00 0.  1.
         22    1    1    2    0    0 -0.12446864097E+00  0.17717714671E+00  0.22841799578E+01  0.22944198098E+01  0.00000000000E+00 0. -1.
</event>
<event>
 5    1  0.3428566E+002  0.1599626E+01  0.7818608E-02  0.3353769E+00
         11   -1    0    0    0    0  0.00000000000E+00  0.00000000000E+00  0.39999999674E+01  0.40000000000E+01  0.51100000000E-03 0.  1.
    9000002   -1    0    0    0    0 -0.00000000000E+00 -0.00000000000E+00  0.00000000000E+00  0.93800000000E+00  0.93800000000E+00 0.  1.
         11    1    1    2    0    0 -0.27857963121E-01  0.34127287379E-01  0.65630285117E+00  0.65777992629E+00  0.51100000000E-03 0.  1.
    9000002    1    1    2    0    0  0.18088367177E+00 -0.24076458316E+00  0.60544335580E-01  0.98701373029E+00  0.93800000000E+00 0.  1.
         22    1    1    2    0    0 -0.15302570865E+00  0.20663729578E+00  0.32831527806E+01  0.32932063434E+01  0.00000000000E+00 0.  1.
</event>
<event>
 5    1  0.4235225E+002  0.1594939E+01  0.7818608E-02  0.3358874E+00
         11   -1    0    0    0    0  0.00000000000E+00  0.00000000000E+00  0.39999999674E+01  0.40000000000E+01  0.51100000000E-03 0.  1.
    9000002   -1    0    0    0    0 -0.00000000000E+00 -0.00000000000E+00  0.00000000000E+00  0.93800000000E+00  0.93800000000E+00 0.  1.
         11    1    1    2    0    0 -0.23990590768E-01 -0.90241932188E-02  0.16601642279E+00  0.16798422029E+00  0.51100000000E-03 0.  1.
    9000002    1    1    2    0    0 -0.16718284324E+00 -0.68435639582E-01  0.25116004491E-01  0.95556703246E+00  0.93800000000E+00 0.  1.
         22    1    1    2    0    0  0.19117343400E+00  0.77459832801E-01  0.38088675401E+01  0.38144487473E+01  0.00000000000E+00 0.  1.
</event>
<event>
 5    1  0.3428566E+002  0.1530676E+01  0.7818608E-02  0.3432222E+00
         11   -1    0    0    0    0  0.00000000000E+00  0.00000000000E+00  0.39999999674E+01  0.40000000000E+01  0.51100000000E-03 0. -1.
    9000002   -1    0    0    0    0 -0.00000000000E+00 -0.00000000000E+00  0.00000000000E+00  0.93800000000E+00  0.93800000000E+00 0.  1.
         11    1    1    2    0    0 -0.96329815710E-01 -0.16948846891E+00  0.43055391008E+00  0.47263379597E+00  0.51100000000E-03 0. -1.
    9000002    1    1    2    0    0 -0.12578309679E+00  0.16384964088E-01  0.63079444680E-01  0.94863737583E+00  0.93800000000E+00 0.  1.
         22    1    1    2    0    0  0.22211291250E+00  0.15310350483E+00  0.35063666126E+01  0.35167288282E+01  0.00000000000E+00 0. -1.
</event>
<event>
 5    1  0.3428566E+002  0.1599676E+01  0.7818608E-02  0.3353715E+00
         11   -1    0    0    0    0  0.00000000000E+00  0.00000000000E+00  0.39999999674E+01  0.40000000000E+01  0.51100000000E-03 0.  1.
    9000002   -1    0    0    0    0 -0.00000000000E+00 -0.00000000000E+00  0.00000000000E+00  0.93800000000E+00  0.93800000000E+00 0. -1.
         11    1    1    2    0    0  0.11353172447E+00  0.14611930053E+00  0.16388895537E+01  0.16493027414E+01  0.51100000000E-03 0.  1.
    9000002    1    1    2    0    0 -0.27037304488E+00 -0.34544895366E+00  0.13048565392E+00  0.10436987443E+01  0.93800000000E+00 0. -1.
         22    1    1    2    0    0  0.15684132041E+00  0.19932965313E+00  0.22306247597E+01  0.22449985143E+01  0.00000000000E+00 0.  1.
</event>
<event>
 5    1  0.3428566E+002  0.1519533E+01  0.7818608E-02  0.3445615E+00
         11   -1    0    0    0    0  0.00000000000E+00  0.00000000000E+00  0.39999999674E+01  0.40000000000E+01  0.51100000000E-03 0.  1.
    9000002   -1    0    0    0    0 -0.00000000000E+00 -0.00000000000E+00  0.00000000000E+00  0.93800000000E+00  0.93800000000E+00 0.  1.
         11    1    1    2    0    0 -0.13504468350E+00  0.32513341409E+00  0.16395649131E+01  0.16769383319E+01  0.51100000000E-03 0.  1.
    9000002    1    1    2    0    0  0.19555887318E+00  0.16614564905E-01  0.88076381361E-01  0.96235168499E+00  0.93800000000E+00 0.  1.
         22    1    1    2    0    0 -0.60514189684E-01 -0.34174797899E+00  0.22723586729E+01  0.22987099832E+01  0.00000000000E+00 0.  1.
</event>
<event>
 5    1  0.3428566E+002  0.1599336E+01  0.7818608E-02  0.3354084E+00
         11   -1    0    0    0    0  0.00000000000E+00  0.00000000000E+00  0.39999999674E+01  0.40000000000E+01  0.51100000000E-03 0. -1.
    9000002   -1    0    0    0    0 -0.00000000000E+00 -0.00000000000E+00  0.00000000000E+00  0.93800000000E+00  0.93800000000E+00 0.  1.
         11    1    1    2    0    0 -0.10813765498E-01 -0.45952146066E-01  0.84290077930E+00  0.84422184414E+00  0.51100000000E-03 0. -1.
    9000002    1    1    2    0    0 -0.26473159779E-01  0.25220872500E+00  0.42993385070E-01  0.97262659861E+00  0.93800000000E+00 0.  1.
         22    1    1    2    0    0  0.37286925277E-01 -0.20625657894E+00  0.31141058030E+01  0.31211515573E+01  0.00000000000E+00 0. -1.
</event>
<event>
 5    1  0.3428566E+002  0.1599025E+01  0.7818608E-02  0.3354423E+00
         11   -1    0    0    0    0  0.00000000000E+00  0.00000000000E+00  0.39999999674E+01  0.40000000000E+01  0.51100000000E-03 0. -1.
    9000002   -1    0    0    0    0 -0.00000000000E+00 -0.00000000000E+00  0.00000000000E+00  0.93800000000E+00  0.93800000000E+00 0. -1.
         11    1    1    2    0    0  0.11979221934E-01 -0.29730482339E-01  0.25995880150E+00  0.26192793462E+00  0.51100000000E-03 0. -1.
    9000002    1    1    2    0    0 -0.78012612719E-01  0.24446289158E+00  0.44264832994E-01  0.97347390748E+00  0.93800000000E+00 0. -1.
         22    1    1    2    0    0  0.66033390785E-01 -0.21473240925E+00  0.36957763329E+01  0.37025981579E+01  0.00000000000E+00 0. -1.
</event>
<event>
 5    1  0.3428566E+002  0.1599666E+01  0.7818608E-02  0.3353726E+00
         11   -1    0    0    0    0  0.00000000000E+00  0.00000000000E+00  0.39999999674E+01  0.40000000000E+01  0.51100000000E-03 0.  1.
    9000002   -1    0    0    0    0 -0.00000000000E+00 -0.00000000000E+00  0.00000000000E+00  0.93800000000E+00  0.93800000000E+00 0. -1.
         11    1    1    2    0    0  0.44747603873E-01  0.64066504899E-01  0.85540970598E+00  0.85897199681E+00  0.51100000000E-03 0.  1.
    9000002    1    1    2    0    0 -0.19847773450E+00 -0.30644031148E+00  0.89539741001E-01  0.10105248343E+01  0.93800000000E+00 0. -1.
         22    1    1    2    0    0  0.15373013063E+00  0.24237380658E+00  0.30550505204E+01  0.30685031689E+01  0.00000000000E+00 0. -1.
</event>
<event>
 5    1  0.3428566E+002  0.1598770E+01  0.7818608E-02  0.3354700E+00
         11   -1    0    0    0    0  0.00000000000E+00  0.00000000000E+00  0.39999999674E+01  0.40000000000E+01  0.51100000000E-03 0. -1.
    9000002   -1    0    0    0    0 -0.00000000000E+00 -0.00000000000E+00  0.00000000000E+00  0.93800000000E+00  0.93800000000E+00 0. -1.
         11    1    1    2    0    0  0.86232896126E-01 -0.45149339286E-02  0.79267404532E+00  0.79736371892E+00  0.51100000000E-03 0. -1.
    9000002    1    1    2    0    0 -0.29100824833E+00 -0.22350900243E-01  0.57493396461E-01  0.98404006726E+00  0.93800000000E+00 0. -1.
         22    1    1    2    0    0  0.20477535220E+00  0.26865834172E-01  0.31498325256E+01  0.31565962138E+01  0.00000000000E+00 0. -1.
</event>
<event>
 5    1  0.3428566E+002  0.1599654E+01  0.7818608E-02  0.3353739E+00
         11   -1    0    0    0    0  0.00000000000E+00  0.00000000000E+00  0.39999999674E+01  0.40000000000E+01  0.51100000000E-03 0.  1.
    9000002   -1    0    0    0    0 -0.00000000000E+00 -0.00000000000E+00  0.00000000000E+00  0.93800000000E+00  0.93800000000E+00 0.  1.
         11    1    1    2    0    0  0.37503285049E-01  0.40534250952E-02  0.32114437261E+00  0.32335258747E+00  0.51100000000E-03 0.  1.
    9000002    1    1    2    0    0 -0.41535231321E+00 -0.47749483968E-01  0.11820479754E+00  0.10337378447E+01  0.93800000000E+00 0.  1.
         22    1    1    2    0    0  0.37784902816E+00  0.43696058873E-01  0.35606507972E+01  0.35809095679E+01  0.00000000000E+00 0.  1.
</event>
<event>
 5    1  0.3428566E+002  0.1599661E+01  0.7818608E-02  0.3353732E+00
         11   -1    0    0    0    0  0.00000000000E+00  0.00000000000E+00  0.39999999674E+01  0.40000000000E+01  0.51100000000E-03 0.  1.
    9000002   -1    0    0    0    0 -0.00000000000E+00 -0.00000000000E+00  0.00000000000E+00  0.93800000000E+00  0.93800000000E+00 0.  1.
         11    1    1    2    0    0 -0.34163108968E-01 -0.47180035697E-01  0.72901248082E+00  0.73133612798E+00  0.51100000000E-03 0.  1.
    9000002    1    1    2    0    0  0.16471577492E+00  0.25087562594E+00  0.60100087341E-01  0.98667415427E+00  0.93800000000E+00 0.  1.
         22    1    1    2    0    0 -0.13055266596E+00 -0.20369559024E+00  0.32108873992E+01  0.32199897177E+01  0.00000000000E+00 0.  1.
</event>
<event>
 5    1  0.3428566E+002  0.1599670E+01  0.7818608E-02  0.3353722E+00
         11   -1    0    0    0    0  0.00000000000E+00  0.00000000000E+00  0.39999999674E+01  0.40000000000E+01  0.51100000000E-03 0.  1.
    9000002   -1    0    0    0    0 -0.00000000000E+00 -0.00000000000E+00  0.00000000000E+00  0.93800000000E+00  0.93800000000E+00 0. -1.
         11    1    1    2    0    0  0.22015351639E+00 -0.19293232095E+00  0.14585356138E+01  0.14876212048E+01  0.51100000000E-03 0.  1.
    9000002    1    1    2    0    0 -0.55104168894E+00  0.47266907858E+00  0.37940999016E+00  0.12453348712E+01  0.93800000000E+00 0. -1.
         22    1    1    2    0    0  0.33088817254E+00 -0.27973675764E+00  0.21620543634E+01  0.22050439240E+01  0.00000000000E+00 0. -1.
</event>
<event>
 5    1  0.3428566E+002  0.1599472E+01  0.7818608E-02  0.3353936E+00
         11   -1    0    0    0    0  0.00000000000E+00  0.00000000000E+00  0.39999999674E+01  0.40000000000E+01  0.51100000000E-03 0.  1.
    9000002   -1    0    0    0    0 -0.00000000000E+00 -0.00000000000E+00  0.00000000000E+00  0.93800000000E+00  0.93800000000E+00 0.  1.
         11    1    1    2    0    0  0.10492501740E+00  0.27767146783E-01  0.12636073771E+01  0.12682602802E+01  0.51100000000E-03 0.  1.
    9000002    1    1    2    0    0 -0.34445664147E+00 -0.39956797958E-01  0.80762773071E-01  0.10033013252E+01  0.93800000000E+00 0.  1.
         22    1    1    2    0    0  0.23953162408E+00  0.12189651175E-01  0.26556298172E+01  0.26664383947E+01  0.00000000000E+00 0.  1.
</event>
<event>
 5    1  0.3428566E+002  0.1599670E+01  0.7818608E-02  0.3353722E+00
         11   -1    0    0    0    0  0.00000000000E+00  0.00000000000E+00  0.39999999674E+01  0.40000000000E+01  0.51100000000E-03 0.  1.
    9000002   -1    0    0    0    0 -0.00000000000E+00 -0.00000000000E+00  0.00000000000E+00  0.93800000000E+00  0.93800000000E+00 0.  1.
         11    1    1    2    0    0  0.14772958582E+00  0.65848529259E-01  0.16908189320E+01  0.16985373064E+01  0.51100000000E-03 0.  1.
    9000002    1    1    2    0    0 -0.33523591564E+00 -0.14857896866E+00  0.90332272796E-01  0.10111690010E+01  0.93800000000E+00 0.  1.
         22    1    1    2    0    0  0.18750632983E+00  0.82730439402E-01  0.22188487626E+01  0.22282936926E+01  0.00000000000E+00 0.  1.
</event>
<event>
 5    1  0.3428566E+002  0.1599630E+01  0.7818608E-02  0.3353765E+00
         11   -1    0    0    0    0  0.00000000000E+00  0.00000000000E+00  0.39999999674E+01  0.40000000000E+01  0.51100000000E-03 0.  1.
    9000002   -1    0    0    0    0 -0.00000000000E+00 -0.00000000000E+00  0.00000000000E+00  0.93800000000E+00  0.93800000000E+00 0.  1.
         11    1    1    2    0    0  0.14699535353E+00 -0.32494916468E-01  0.16150058389E+01  0.16220072979E+01  0.51100000000E-03 0.  1.
    9000002    1    1    2    0    0 -0.36817633440E+00  0.93414379849E-01  0.97114240179E-01  0.10166391863E+01  0.93800000000E+00 0.  1.
         22    1    1    2    0    0  0.22118098087E+00 -0.60919463381E-01  0.22878798883E+01  0.22993535158E+01  0.00000000000E+00 0. -1.
</event>
<event>
 5    1  0.3428566E+002  0.1599675E+01  0.7818608E-02  0.3353716E+00
         11   -1    0    0    0    0  0.00000000000E+00  0.00000000000E+00  0.39999999674E+01  0.40000000000E+01  0.51100000000E-03 0.  1.
    9000002   -1    0    0    0    0 -0.00000000000E+00 -0.00000000000E+00  0.00000000000E+00  0.93800000000E+00  0.93800000000E+00 0.  1.
         11    1    1    2    0    0  0.34753147556E-01 -0.77809100164E-01  0.82319561129E+00  0.82759489661E+00  0.51100000000E-03 0.  1.
    9000002    1    1    2    0    0 -0.17042042110E+00  0.36798160794E+00  0.11100819700E+00  0.10279204266E+01  0.93800000000E+00 0.  1.
         22    1    1    2    0    0  0.13566727354E+00 -0.29017250778E+00  0.30657961591E+01  0.30824846767E+01  0.00000000000E+00 0.  1.
</event>
<event>
 5    1  0.3428566E+002  0.1589425E+01  0.7818608E-02  0.3364922E+00
         11   -1    0    0    0    0  0.00000000000E+00  0.00000000000E+00  0.39999999674E+01  0.40000000000E+01  0.51100000000E-03 0.  1.
    9000002   -1    0    0    0    0 -0.00000000000E+00 -0.00000000000E+00  0.00000000000E+00  0.93800000000E+00  0.93800000000E+00 0.  1.
         11    1    1    2    0    0 -0.14990623536E+00  0.95105491141E-01  0.25507088274E+01  0.25568794882E+01  0.51100000000E-03 0.  1.
    9000002    1    1    2    0    0  0.25897519210E+00 -0.31867231097E+00  0.12254050040E+00  0.10312518442E+01  0.93800000000E+00 0.  1.
         22    1    1    2    0    0 -0.10906895674E+00  0.22356681982E+00  0.13267506396E+01  0.13498686676E+01  0.00000000000E+00 0.  1.
</event>
<event>
 5    1  0.3428566E+002  0.1599676E+01  0.7818608E-02  0.3353715E+00
         11   -1    0    0    0    0  0.00000000000E+00  0.00000000000E+00  0.39999999674E+01  0.40000000000E+01  0.51100000000E-03 0.  1.
    9000002   -1    0    0    0    0 -0.00000000000E+00 -0.00000000000E+00  0.00000000000E+00  0.93800000000E+00  0.93800000000E+00 0. -1.
         11    1    1    2    0    0 -0.17950994348E-01  0.13669701540E-01  0.23338638060E+00  0.23447507908E+00  0.51100000000E-03 0. -1.
    9000002    1    1    2    0    0  0.29930296682E+00 -0.22199854404E+00  0.93353125868E-01  0.10136194679E+01  0.93800000000E+00 0. -1.
         22    1    1    2    0    0 -0.28135197247E+00  0.20832884250E+00  0.36732604609E+01  0.36899054531E+01  0.00000000000E+00 0.  1.
</event>
<event>
 5    1  0.3428566E+002  0.1582830E+01  0.7818608E-02  0.3372212E+00
         11   -1    0    0    0    0  0.00000000000E+00  0.00000000000E+00  0.39999999674E+01  0.40000000000E+01  0.51100000000E-03 0.  1.
    9000002   -1    0    0    0    0 -0.00000000000E+00 -0.00000000000E+00  0.00000000000E+00  0.93800000000E+00  0.93800000000E+00 0. -1.
         11    1    1    2    0    0 -0.11914546451E+00 -0.64695850310E-01  0.13650317340E+01  0.13717481878E+01  0.51100000000E-03 0.  1.
    9000002    1    1    2    0    0  0.45289979074E+00  0.55346332664E+00  0.38656401989E+00  0.12412556610E+01  0.93800000000E+00 0. -1.
         22    1    1    2    0    0 -0.33375432624E+00 -0.48876747632E+00  0.22484042134E+01  0.23249961512E+01  0.00000000000E+00 0.  1.
</event>
<event>
 5    1  0.3428566E+002  0.1599411E+01  0.7818608E-02  0.3354003E+00
         11   -1    0    0    0    0  0.00000000000E+00  0.00000000000E+00  0.39999999674E+01  0.40000000000E+01  0.51100000000E-03 0.  1.
    9000002   -1    0    0    0    0 -0.00000000000E+00 -0.00000000000E+00  0.00000000000E+00  0.93800000000E+00  0.93800000000E+00 0.  1.
         11    1    1    2    0    0 -0.37613079450E-01 -0.14003243130E-01  0.65096277506E+00  0.65219907252E+00  0.51100000000E-03 0.  1.
    9000002    1    1    2    0    0  0.18870233930E+00  0.16400419667E+00  0.41725342376E-01  0.97164342924E+00  0.93800000000E+00 0.  1.
         22    1    1    2    0    0 -0.15108925985E+00 -0.15000095354E+00  0.33073118499E+01  0.33141574982E+01  0.00000000000E+00 0.  1.
</event>
<event>
 5    1  0.3428566E+002  0.1478287E+01  0.7818608E-02  0.3497076E+00
         11   -1    0    0    0    0  0.00000000000E+00  0.00000000000E+00  0.39999999674E+01  0.40000000000E+01  0.51100000000E-03 0. -1.
    9000002   -1    0    0    0    0 -0.00000000000E+00 -0.00000000000E+00  0.00000000000E+00  0.93800000000E+00  0.93800000000E+00 0. -1.
         11    1    1    2    0    0 -0.14182151150E+00 -0.34045886674E+00  0.10699210411E+01  0.11317052958E+01  0.51100000000E-03 0. -1.
    9000002    1    1    2    0    0  0.98298724397E-01 -0.64069034472E-01  0.10392657246E+00  0.95100589528E+00  0.93800000000E+00 0. -1.
         22    1    1    2    0    0  0.43522787103E-01  0.40452790122E+00  0.28261523538E+01  0.28552888090E+01  0.00000000000E+00 0.  1.
</event>
<event>
 5    1  0.3428566E+002  0.1597003E+01  0.7818608E-02  0.3356622E+00
         11   -1    0    0    0    0  0.00000000000E+00  0.00000000000E+00  0.39999999674E+01  0.40000000000E+01  0.51100000000E-03 0.  1.
    9000002   -1    0    0    0    0 -0.00000000000E+00 -0.00000000000E+00  0.00000000000E+00  0.93800000000E+00  0.93800000000E+00 0.  1.
         11    1    1    2    0    0  0.73360434181E-01 -0.18023184026E-01  0.16956284394E+01  0.16973104177E+01  0.51100000000E-03 0.  1.
    9000002    1    1    2    0    0 -0.31259383252E+00  0.56147344358E-01  0.69519207487E-01  0.99274586306E+00  0.93800000000E+00 0.  1.
         22    1    1    2    0    0  0.23923339834E+00 -0.38124160333E-01  0.22348523205E+01  0.22479437193E+01  0.00000000000E+00 0. -1.
</event>
<event>
 5    1  0.3428566E+002  0.1599603E+01  0.7818608E-02  0.3353794E+00
         11   -1    0    0    0    0  0.00000000000E+00  0.00000000000E+00  0.39999999674E+01  0.40000000000E+01  0.51100000000E-03 0. -1.
    9000002   -1    0    0    0    0 -0.00000000000E+00 -0.00000000000E+00  0.00000000000E+00  0.93800000000E+00  0.93800000000E+00 0.  1.
         11    1    1    2    0    0 -0.44417388141E+00 -0.16803467524E+00  0.22221292986E+01  0.22723082911E+01  0.51100000000E-03 0. -1.
    9000002    1    1    2    0    0  0.72318190395E+00  0.25692103858E+00  0.42937838152E+00  0.12857722507E+01  0.93800000000E+00 0.  1.
         22    1    1    2    0    0 -0.27900802254E+00 -0.88886363344E-01  0.13484922873E+01  0.13799194582E+01  0.00000000000E+00 0.  1.
</event>
<event>
 5    1  0.3428566E+002  0.1599603E+01  0.7818608E-02  0.3353795E+00
         11   -1    0    0    0    0  0.00000000000E+00  0.00000000000E+00  0.39999999674E+01  0.40000000000E+01  0.51100000000E-03 0.  1.
    9000002   -1    0    0    0    0 -0.00000000000E+00 -0.00000000000E+00  0.00000000000E+00  0.93800000000E+00  0.93800000000E+00 0. -1.
         11    1    1    2    0    0 -0.72347611695E-01 -0.65399958689E-01  0.72027580311E+00  0.72684855725E+00  0.51100000000E-03 0.  1.
    9000002    1    1    2    0    0  0.34474677884E+00  0.36413881361E+00  0.17223855201E+00  0.10774773946E+01  0.93800000000E+00 0. -1.
         22    1    1    2    0    0 -0.27239916714E+00 -0.29873885492E+00  0.31074856122E+01  0.31336740481E+01  0.00000000000E+00 0.  1.
</event>
<event>
 5    1  0.3428566E+002  0.1599664E+01  0.7818608E-02  0.3353728E+00
         11   -1    0    0    0    0  0.00000000000E+00  0.00000000000E+00  0.39999999674E+01  0.40000000000E+01  0.51100000000E-03 0. -1.
    9000002   -1    0    0    0    0 -0.00000000000E+00 -0.00000000000E+00  0.00000000000E+00  0.93800000000E+00  0.93800000000E+00 0. -1.
         11    1    1    2    0    0  0.13256319246E+00  0.28736770633E-01  0.71959380784E+00  0.73226655761E+00  0.51100000000E-03 0. -1.
    9000002    1    1    2    0    0 -0.68872232563E+00 -0.14832939746E+00  0.35516917833E+00  0.12256953933E+01  0.93800000000E+00 0. -1.
         22    1    1    2    0    0  0.55615913317E+00  0.11959262683E+00  0.29252369812E+01  0.29800380491E+01  0.00000000000E+00 0. -1.
</event>
<event>
 5    1  0.3428566E+002  0.1574890E+01  0.7818608E-02  0.3381076E+00
         11   -1    0    0    0    0  0.00000000000E+00  0.00000000000E+00  0.39999999674E+01  0.40000000000E+01  0.51100000000E-03 0. -1.
    9000002   -1    0    0    0    0 -0.00000000000E+00 -0.00000000000E+00  0.00000000000E+00  0.93800000000E+00  0.93800000000E+00 0. -1.
         11    1    1    2    0    0  0.20519252367E-01  0.74290609825E-01  0.16631726355E+00  0.18330801319E+00  0.51100000000E-03 0. -1.
    9000002    1    1    2    0    0 -0.17664692521E+00  0.54279927491E-01  0.41302426656E-01  0.95692232556E+00  0.93800000000E+00 0. -1.
         22    1    1    2    0    0  0.15612767285E+00 -0.12857053732E+00  0.37923802772E+01  0.37977696612E+01  0.00000000000E+00 0. -1.
</event>
<event>
 5    1  0.3428566E+002  0.1597331E+01  0.7818608E-02  0.3356266E+00
         11   -1    0    0    0    0  0.00000000000E+00  0.00000000000E+00  0.39999999674E+01  0.40000000000E+01  0.51100000000E-03 0.  1.
    9000002   -1    0    0    0    0 -0.00000000000E+00 -0.00000000000E+00  0.00000000000E+00  0.93800000000E+00  0.93800000000E+00 0.  1.
         11    1    1    2    0    0  0.97183141513E-02 -0.58251892438E-02  0.81027512004E+00  0.81035449634E+00  0.51100000000E-03 0.  1.
    9000002    1    1    2    0    0 -0.27298865781E+00  0.70424915702E-01  0.54759327677E-01  0.98098168179E+00  0.93800000000E+00 0.  1.
         22    1    1    2    0    0  0.26327034366E+00 -0.64599726459E-01  0.31349655196E+01  0.31466638219E+01  0.00000000000E+00 0.  1.
</event>
<event>
 5    1  0.3428566E+002  0.1578390E+01  0.7818608E-02  0.3377157E+00
         11   -1    0    0    0    0  0.00000000000E+00  0.00000000000E+00  0.39999999674E+01  0.40000000000E+01  0.51100000000E-03 0.  1.
    9000002   -1    0    0    0    0 -0.00000000000E+00 -0.00000000000E+00  0.00000000000E+00  0.93800000000E+00  0.93800000000E+00 0.  1.
         11    1    1    2    0    0  0.73980015120E-01 -0.71092825024E-01  0.47247753190E+00  0.48348992925E+00  0.51100000000E-03 0.  1.
    9000002    1    1    2    0    0  0.12526605922E+00 -0.24048412494E-02  0.26138276682E-01  0.94669138496E+00  0.93800000000E+00 0.  1.
         22    1    1    2    0    0 -0.19924607434E+00  0.73497666273E-01  0.35013841588E+01  0.35078186858E+01  0.00000000000E+00 0.  1.
</event>
<event>
 5    1  0.3428566E+002  0.1567799E+01  0.7818608E-02  0.3389072E+00
         11   -1    0    0    0    0  0.00000000000E+00  0.00000000000E+00  0.39999999674E+01  0.40000000000E+01  0.51100000000E-03 0.  1.
    9000002   -1    0    0    0    0 -0.00000000000E+00 -0.00000000000E+00  0.00000000000E+00  0.93800000000E+00  0.93800000000E+00 0. -1.
         11    1    1    2    0    0  0.81482569995E-02  0.43398922622E-01  0.28422835193E-01  0.52516466544E-01  0.51100000000E-03 0.  1.
    9000002    1    1    2    0    0  0.25511967746E+00 -0.13790686239E+00  0.81306276436E-01  0.98516956059E+00  0.93800000000E+00 0. -1.
         22    1    1    2    0    0 -0.26326793446E+00  0.94507939768E-01  0.38902708557E+01  0.39003139729E+01  0.00000000000E+00 0.  1.
</event>
<event>
 5    1  0.3428566E+002  0.1598511E+01  0.7818608E-02  0.3354981E+00
         11   -1    0    0    0    0  0.00000000000E+00  0.00000000000E+00  0.39999999674E+01  0.40000000000E+01  0.51100000000E-03 0. -1.
    9000002   -1    0    0    0    0 -0.00000000000E+00 -0.00000000000E+00  0.00000000000E+00  0.93800000000E+00  0.93800000000E+00 0.  1.
         11    1    1    2    0    0 -0.46088980570E-01 -0.42593198157E-01  0.76765924754E+00  0.77022032959E+00  0.51100000000E-03 0. -1.
    9000002    1    1    2    0    0  0.87592589672E-01  0.29417148408E+00  0.63805595965E-01  0.98900175828E+00  0.93800000000E+00 0.  1.
         22    1    1    2    0    0 -0.41503609102E-01 -0.25157828593E+00  0.31685351239E+01  0.31787779121E+01  0.00000000000E+00 0. -1.
</event>
<event>
 5    1  0.3428566E+002  0.1599588E+01  0.7818608E-02  0.3353810E+00
         11   -1    0    0    0    0  0.00000000000E+00  0.00000000000E+00  0.39999999674E+01  0.40000000000E+01  0.51100000000E-03 0.  1.
    9000002   -1    0    0    0    0 -0.00000000000E+00 -0.00000000000E+00  0.00000000000E+00  0.93800000000E+00  0.93800000000E+00 0. -1.
         11    1    1    2    0    0  0.23952096738E-01 -0.39848503937E-01  0.50961404994E+00  0.51173073703E+00  0.51100000000E-03 0.  1.
    9000002    1    1    2    0    0 -0.17438029496E+00  0.25004071812E+00  0.62091697239E-01  0.98824502369E+00  0.93800000000E+00 0. -1.
         22    1    1    2    0    0  0.15042819822E+00 -0.21019221419E+00  0.34282942202E+01  0.34380242393E+01  0.00000000000E+00 0.  1.
</event>
<event>
 5    1  0.3428566E+002  0.1599661E+01  0.7818608E-02  0.3353731E+00
         11   -1    0    0    0    0  0.00000000000E+00  0.00000000000E+00  0.39999999674E+01  0.40000000000E+01  0.51100000000E-03 0. -1.
    9000002   -1    0    0    0    0 -0.00000000000E+00 -0.00000000000E+00  0.00000000000E+00  0.93800000000E+00  0.93800000000E+00 0. -1.
         11    1    1    2    0    0  0.18362409570E-01  0.37552501734E-02  0.31913207468E+00  0.31968237705E+00  0.51100000000E-03 0. -1.
    9000002    1    1    2    0    0 -0.24200071596E+00 -0.17833561763E-01  0.39105501545E-01  0.96966778987E+00  0.93800000000E+00 0. -1.
         22    1    1    2    0    0  0.22363830639E+00  0.14078311589E-01  0.36417623911E+01  0.36486498331E+01  0.00000000000E+00 0. -1.
</event>
<event>
 5    1  0.3428566E+002  0.1591820E+01  0.7818608E-02  0.3362290E+00
         11   -1    0    0    0    0  0.00000000000E+00  0.00000000000E+00  0.39999999674E+01  0.40000000000E+01  0.51100000000E-03 0.  1.
    9000002   -1    0    0    0    0 -0.00000000000E+00 -0.00000000000E+00  0.00000000000E+00  0.93800000000E+00  0.93800000000E+00 0.  1.
         11    1    1    2    0    0 -0.12738877592E+00 -0.86663461390E-01  0.77843247974E+00  0.79353376891E+00  0.51100000000E-03 0.  1.
    9000002    1    1    2    0    0  0.21751731623E+00  0.33730968712E+00  0.11525153089E+00  0.10267514418E+01  0.93800000000E+00 0.  1.
         22    1    1    2    0    0 -0.90128540305E-01 -0.25064622573E+00  0.31063159567E+01  0.31177147893E+01  0.00000000000E+00 0.  1.
</event>
<event>
 5    1  0.3428566E+002  0.1599531E+01  0.7818608E-02  0.3353873E+00
         11   -1    0    0    0    0  0.00000000000E+00  0.00000000000E+00  0.39999999674E+01  0.40000000000E+01  0.51100000000E-03 0.  1.
    9000002   -1    0    0    0    0 -0.00000000000E+00 -0.00000000000E+00  0.00000000000E+00  0.93800000000E+00  0.93800000000E+00 0.  1.
         11    1    1    2    0    0  0.12915559733E+00  0.28835104612E-01  0.13366244763E+01  0.13431596641E+01  0.51100000000E-03 0.  1.
    9000002    1    1    2    0    0 -0.40310787157E+00 -0.11267682349E+00  0.11858324635E+00  0.10339719575E+01  0.93800000000E+00 0.  1.
         22    1    1    2    0    0  0.27395227425E+00  0.83841718883E-01  0.25447922447E+01  0.25608683783E+01  0.00000000000E+00 0.  1.
</event>
<event>
 5    1  0.3428566E+002  0.1590808E+01  0.7818608E-02  0.3363401E+00
         11   -1    0    0    0    0  0.00000000000E+00  0.00000000000E+00  0.39999999674E+01  0.40000000000E+01  0.51100000000E-03 0.  1.
    9000002   -1    0    0    0    0 -0.00000000000E+00 -0.00000000000E+00  0.00000000000E+00  0.93800000000E+00  0.93800000000E+00 0.  1.
         11    1    1    2    0    0 -0.11936559528E-01  0.56478710866E-02  0.19038057211E+01  0.19038515868E+01  0.51100000000E-03 0.  1.
    9000002    1    1    2    0    0  0.14892532022E+00  0.18854630345E+00  0.45100568927E-01  0.96933302887E+00  0.93800000000E+00 0.  1.
         22    1    1    2    0    0 -0.13698876070E+00 -0.19419417454E+00  0.20510936773E+01  0.20648153843E+01  0.00000000000E+00 0.  1.
</event>
<event>
 5    1  0.3428566E+002  0.1589090E+01  0.7818608E-02  0.3365291E+00
         11   -1    0    0    0    0  0.00000000000E+00  0.00000000000E+00  0.39999999674E+01  0.40000000000E+01  0.51100000000E-03 0. -1.
    9000002   -1    0    0    0    0 -0.00000000000E+00 -0.00000000000E+00  0.00000000000E+00  0.93800000000E+00  0.93800000000E+00 0. -1.
         11    1    1    2    0    0  0.10838331478E+00  0.12180505246E+00  0.13400936566E+01  0.13499758084E+01  0.51100000000E-03 0. -1.
    9000002    1    1    2    0    0  0.24137991833E-01 -0.31595744674E+00  0.75504069561E-01  0.99295348094E+00  0.93800000000E+00 0. -1.
         22    1    1    2    0    0 -0.13252130661E+00  0.19415239428E+00  0.25844022412E+01  0.25950707106E+01  0.00000000000E+00 0. -1.
</event>
<event>
 5    1  0.3428566E+002  0.1599647E+01  0.7818608E-02  0.3353746E+00
         11   -1    0    0    0    0  0.00000000000E+00  0.00000000000E+00  0.39999999674E+01  0.40000000000E+01  0.51100000000E-03 0.  1.
    9000002   -1    0    0    0    0 -0.00000000000E+00 -0.00000000000E+00  0.00000000000E+00  0.93800000000E+00  0.93800000000E+00 0. -1.
         11    1    1    2    0    0  0.10393083688E-01  0.10415424365E-01  0.11648705399E+00  0.11741376461E+00  0.51100000000E-03 0.  1.
    9000002    1    1    2    0    0 -0.34224607337E+00 -0.27332057260E+00  0.13009074909E+00  0.10433619282E+01  0.93800000000E+00 0. -1.
         22    1    1    2    0    0  0.33185298968E+00  0.26290514823E+00  0.37534221643E+01  0.37772243072E+01  0.00000000000E+00 0.  1.
</event>
<event>
 5    1  0.3428566E+002  0.1581055E+01  0.7818608E-02  0.3374186E+00
         11   -1    0    0    0    0  0.00000000000E+00  0.00000000000E+00  0.39999999674E+01  0.40000000000E+01  0.51100000000E-03 0. -1.
    9000002   -1    0    0    0    0 -0.00000000000E+00 -0.00000000000E+00  0.00000000000E+00  0.93800000000E+00  0.93800000000E+00 0.  1.
         11    1    1    2    0    0  0.24084362977E+00  0.17144850929E+00  0.91591650129E+00  0.96244664465E+00  0.51100000000E-03 0. -1.
    9000002    1    1    2    0    0 -0.53059414365E+00 -0.31366726530E+00  0.28511805711E+00  0.11580386889E+01  0.93800000000E+00 0.  1.
         22    1    1    2    0    0  0.28975051388E+00  0.14221875601E+00  0.27989654090E+01  0.28175146664E+01  0.00000000000E+00 0. -1.
</event>
<event>
 5    1  0.3428566E+002  0.1589331E+01  0.7818608E-02  0.3365026E+00
         11   -1    0    0    0    0  0.00000000000E+00  0.00000000000E+00  0.39999999674E+01  0.40000000000E+01  0.51100000000E-03 0.  1.
    9000002   -1    0    0    0    0 -0.00000000000E+00 -0.00000000000E+00  0.00000000000E+00  0.93800000000E+00  0.93800000000E+00 0.  1.
         11    1    1    2    0    0 -0.32363275519E-01 -0.84127273808E-01  0.15998071496E+01  0.16023445188E+01  0.51100000000E-03 0.  1.
    9000002    1    1    2    0    0  0.16096595952E+00 -0.78117019237E-01  0.28906972438E-01  0.95534910995E+00  0.93800000000E+00 0.  1.
         22    1    1    2    0    0 -0.12860268400E+00  0.16224429304E+00  0.23712858453E+01  0.23803063713E+01  0.00000000000E+00 0.  1.
</event>
<event>
 5    1  0.3428566E+002  0.1598353E+01  0.7818608E-02  0.3355153E+00
         11   -1    0    0    0    0  0.00000000000E+00  0.00000000000E+00  0.39999999674E+01  0.40000000000E+01  0.51100000000E-03 0.  1.
    9000002   -1    0    0    0    0 -0.00000000000E+00 -0.00000000000E+00  0.00000000000E+00  0.93800000000E+00  0.93800000000E+00 0.  1.
         11    1    1    2    0    0 -0.85944905545E-01  0.14140021857E-01  0.71278025955E+00  0.71808246499E+00  0.51100000000E-03 0.  1.
    9000002    1    1    2    0    0  0.30587242680E+00 -0.16074299372E+00  0.81081558269E-01  0.10029030215E+01  0.93800000000E+00 0.  1.
         22    1    1    2    0    0 -0.21992752125E+00  0.14660297187E+00  0.32061381495E+01  0.32170145135E+01  0.00000000000E+00 0.  1.
</event>
<event>
 5    1  0.3428566E+002  0.1595134E+01  0.7818608E-02  0.3358661E+00
         11   -1    0    0    0    0  0.00000000000E+00  0.00000000000E+00  0.39999999674E+01  0.40000000000E+01  0.51100000000E-03 0.  1.
    9000002   -1    0    0    0    0 -0.00000000000E+00 -0.00000000000E+00  0.00000000000E+00  0.93800000000E+00  0.93800000000E+00 0. -1.
         11    1    1    2    0    0 -0.19040050319E-01  0.12713922873E-01  0.99159057290E+00  0.99185497566E+00  0.51100000000E-03 0.  1.
    9000002    1    1    2    0    0 -0.13129980287E+00  0.13890822938E+00  0.27576044926E-01  0.95767404302E+00  0.93800000000E+00 0. -1.
         22    1    1    2    0    0  0.15033985319E+00 -0.15162215225E+00  0.29808333495E+01  0.29884709813E+01  0.00000000000E+00 0.  1.
</event>
<event>
 5    1  0.3428566E+002  0.1564913E+01  0.7818608E-02  0.3392349E+00
         11   -1    0    0    0    0  0.00000000000E+00  0.00000000000E+00  0.39999999674E+01  0.40000000000E+01  0.51100000000E-03 0. -1.
    9000002   -1    0    0    0    0 -0.00000000000E+00 -0.00000000000E+00  0.00000000000E+00  0.93800000000E+00  0.93800000000E+00 0.  1.
         11    1    1    2    0    0 -0.57283212616E-01  0.49984042021E-01  0.12484531239E+01  0.12507658592E+01  0.51100000000E-03 0. -1.
    9000002    1    1    2    0    0 -0.42340487905E+00 -0.37767514455E+00  0.25729341609E+00  0.11260346835E+01  0.93800000000E+00 0.  1.
         22    1    1    2    0    0  0.48068809167E+00  0.32769110253E+00  0.24942534274E+01  0.25611994573E+01  0.00000000000E+00 0. -1.
</event>
<event>
 5    1  0.3428566E+002  0.1516327E+01  0.7818608E-02  0.3449506E+00
         11   -1    0    0    0    0  0.00000000000E+00  0.00000000000E+00  0.39999999674E+01  0.40000000000E+01  0.51100000000E-03 0.  1.
    9000002   -1    0    0    0    0 -0.00000000000E+00 -0.00000000000E+00  0.00000000000E+00  0.93800000000E+00  0.93800000000E+00 0.  1.
         11    1    1    2    0    0 -0.19781711710E+00  0.13010166743E+00  0.61981628100E+00  0.66349871063E+00  0.51100000000E-03 0.  1.
    9000002    1    1    2    0    0 -0.12541918208E+00  0.24766563401E-01  0.74669648664E-01  0.94961197882E+00  0.93800000000E+00 0.  1.
         22    1    1    2    0    0  0.32323629917E+00 -0.15486823083E+00  0.33055140377E+01  0.33248893105E+01  0.00000000000E+00 0.  1.
</event>
<event>
 5    1  0.3428566E+002  0.1563524E+01  0.7818608E-02  0.3393931E+00
         11   -1    0    0    0    0  0.00000000000E+00  0.00000000000E+00  0.39999999674E+01  0.40000000000E+01  0.51100000000E-03 0.  1.
    9000002   -1    0    0    0    0 -0.00000000000E+00 -0.00000000000E+00  0.00000000000E+00  0.93800000000E+00  0.93800000000E+00 0. -1.
         11    1    1    2    0    0  0.23195479399E+00  0.55613041623E-01  0.21718874615E+01  0.21849465081E+01  0.51100000000E-03 0.  1.
    9000002    1    1    2    0    0 -0.81259484460E-02 -0.12038144737E+00  0.36584010380E-01  0.94643547785E+00  0.93800000000E+00 0. -1.
         22    1    1    2    0    0 -0.22382884554E+00  0.64768405746E-01  0.17915284955E+01  0.18066180140E+01  0.00000000000E+00 0. -1.
</event>
<event>
 5    1  0.3428566E+002  0.1599671E+01  0.7818608E-02  0.3353721E+00
         11   -1    0    0    0    0  0.00000000000E+00  0.00000000000E+00  0.39999999674E+01  0.40000000000E+01  0.51100000000E-03 0.  1.
    9000002   -1    0    0    0    0 -0.00000000000E+00 -0.00000000000E+00  0.00000000000E+00  0.93800000000E+00  0.93800000000E+00 0. -1.
         11    1    1    2    0    0 -0.22309287328E-02 -0.21745501914E-02  0.53318859830E-01  0.53412242474E-01  0.51100000000E-03 0. -1.
    9000002    1    1    2    0    0  0.14076110588E+00  0.18593423151E+00  0.36087410306E-01  0.96722878811E+00  0.93800000000E+00 0. -1.
         22    1    1    2    0    0 -0.13853017715E+00 -0.18375968132E+00  0.39105936972E+01  0.39173589694E+01  0.00000000000E+00 0.  1.
</event>
<event>
 5    1  0.3428566E+002  0.1592427E+01  0.7818608E-02  0.3361625E+00
         11   -1    0    0    0    0  0.00000000000E+00  0.00000000000E+00  0.39999999674E+01  0.40000000000E+01  0.51100000000E-03 0. -1.
    9000002   -1    0    0    0    0 -0.00000000000E+00 -0.00000000000E+00  0.00000000000E+00  0.93800000000E+00  0.93800000000E+00 0. -1.
         11    1    1    2    0    0  0.20611430843E-02  0.38421967044E-01  0.25514116592E+00  0.25802668763E+00  0.51100000000E-03 0. -1.
    9000002    1    1    2    0    0 -0.17525569386E+00  0.17209278853E+00  0.45614502718E-01  0.97069828935E+00  0.93800000000E+00 0. -1.
         22    1    1    2    0    0  0.17319455077E+00 -0.21051475558E+00  0.36992442987E+01  0.37092750230E+01  0.00000000000E+00 0. -1.
</event>
<event>
 5    1  0.3428566E+002  0.1599677E+01  0.7818608E-02  0.3353714E+00
         11   -1    0    0    0    0  0.00000000000E+00  0.00000000000E+00  0.39999999674E+01  0.40000000000E+01  0.51100000000E-03 0.  1.
    9000002   -1    0    0    0    0 -0.00000000000E+00 -0.00000000000E+00  0.00000000000E+00  0.93800000000E+00  0.93800000000E+00 0. -1.
         11    1    1    2    0    0  0.14115548543E-01 -0.45352592887E+00  0.24464150501E+01  0.24881382348E+01  0.51100000000E-03 0.  1.
    9000002    1    1    2    0    0 -0.20688600955E-01  0.68049868060E+00  0.32958781019E+00  0.12049807455E+01  0.93800000000E+00 0. -1.
         22    1    1    2    0    0  0.65730524119E-02 -0.22697275173E+00  0.12239971071E+01  0.12448810197E+01  0.00000000000E+00 0. -1.
</event>
<event>
 5    1  0.3428566E+002  0.1599651E+01  0.7818608E-02  0.3353742E+00
         11   -1    0    0    0    0  0.00000000000E+00  0.00000000000E+00  0.39999999674E+01  0.40000000000E+01  0.51100000000E-03 0. -1.
    9000002   -1    0    0    0    0 -0.00000000000E+00 -0.00000000000E+00  0.00000000000E+00  0.93800000000E+00  0.93800000000E+00 0.  1.
         11    1    1    2    0    0 -0.23887910835E-01  0.41271980272E-01  0.65054888803E+00  0.65229450824E+00  0.51100000000E-03 0. -1.
    9000002    1    1    2    0    0  0.17028190144E+00 -0.23948554157E+00  0.57592492578E-01  0.98463706297E+00  0.93800000000E+00 0.  1.
         22    1    1    2    0    0 -0.14639399060E+00  0.19821356130E+00  0.32918585867E+01  0.33010684288E+01  0.00000000000E+00 0. -1.
</event>
<event>
 5    1  0.3428566E+002  0.1574473E+01  0.7818608E-02  0.3381544E+00
         11   -1    0    0    0    0  0.00000000000E+00  0.00000000000E+00  0.39999999674E+01  0.40000000000E+01  0.51100000000E-03 0. -1.
    9000002   -1    0    0    0    0 -0.00000000000E+00 -0.00000000000E+00  0.00000000000E+00  0.93800000000E+00  0.93800000000E+00 0.  1.
         11    1    1    2    0    0  0.10637193538E+00 -0.63412159247E-01  0.16864758013E+01  0.16910165522E+01  0.51100000000E-03 0. -1.
    9000002    1    1    2    0    0 -0.13360865302E+00 -0.27763230799E+00  0.83460709923E-01  0.99082827004E+00  0.93800000000E+00 0.  1.
         22    1    1    2    0    0  0.27236717637E-01  0.34104446724E+00  0.22300634562E+01  0.22561551777E+01  0.00000000000E+00 0.  1.
</event>
<event>
 5    1  0.3428566E+002  0.1544862E+01  0.7818608E-02  0.3415472E+00
         11   -1    0    0    0    0  0.00000000000E+00  0.00000000000E+00  0.39999999674E+01  0.40000000000E+01  0.51100000000E-03 0. -1.
    9000002   -1    0    0    0    0 -0.00000000000E+00 -0.00000000000E+00  0.00000000000E+00  0.93800000000E+00  0.93800000000E+00 0. -1.
         11    1    1    2    0    0 -0.18195554284E+00 -0.31653743264E+00  0.23909284687E+01  0.24186448622E+01  0.51100000000E-03 0. -1.
    9000002    1    1    2    0    0  0.17534142066E+00  0.85532518729E-01  0.67380862073E-01  0.96043979829E+00  0.93800000000E+00 0. -1.
         22    1    1    2    0    0  0.66141221828E-02  0.23100491391E+00  0.15416906366E+01  0.15589153396E+01  0.00000000000E+00 0. -1.
</event>
<event>
 5    1  0.3428566E+002  0.1599677E+01  0.7818608E-02  0.3353714E+00
         11   -1    0    0    0    0  0.00000000000E+00  0.00000000000E+00  0.39999999674E+01  0.40000000000E+01  0.51100000000E-03 0.  1.
    9000002   -1    0    0    0    0 -0.00000000000E+00 -0.00000000000E+00  0.00000000000E+00  0.93800000000E+00  0.93800000000E+00 0.  1.
         11    1    1    2    0    0 -0.10333977304E+00 -0.12139890494E+00  0.15367493218E+01  0.15449969392E+01  0.51100000000E-03 0.  1.
    9000002    1    1    2    0    0  0.26121613884E+00  0.30664728967E+00  0.10949183841E+00  0.10266931840E+01  0.93800000000E+00 0.  1.
         22    1    1    2    0    0 -0.15787636579E+00 -0.18524838473E+00  0.23537588071E+01  0.23663098768E+01  0.00000000000E+00 0.  1.
</event>
<event>
 5    1  0.3629422E+002  0.1568798E+01  0.7818608E-02  0.3387941E+00
         11   -1    0    0    0    0  0.00000000000E+00  0.00000000000E+00  0.39999999674E+01  0.40000000000E+01  0.51100000000E-03 0.  1.
    9000002   -1    0    0    0    0 -0.00000000000E+00 -0.00000000000E+00  0.00000000000E+00  0.93800000000E+00  0.93800000000E+00 0. -1.
         11    1    1    2    0    0  0.39819877308E-01  0.13938919672E+00  0.71336726992E+00  0.72794786469E+00  0.51100000000E-03 0.  1.
    9000002    1    1    2    0    0 -0.25695774432E-01  0.10821797809E+00  0.31096988339E-01  0.94508329066E+00  0.93800000000E+00 0. -1.
         22    1    1    2    0    0 -0.14124102876E-01 -0.24760717480E+00  0.32555357091E+01  0.32649688446E+01  0.00000000000E+00 0.  1.
</event>
<event>
 5    1  0.3428566E+002  0.1599548E+01  0.7818608E-02  0.3353854E+00
         11   -1    0    0    0    0  0.00000000000E+00  0.00000000000E+00  0.39999999674E+01  0.40000000000E+01  0.51100000000E-03 0. -1.
    9000002   -1    0    0    0    0 -0.00000000000E+00 -0.00000000000E+00  0.00000000000E+00  0.93800000000E+00  0.93800000000E+00 0.  1.
         11    1    1    2    0    0  0.70375302806E-01 -0.17481719125E-01  0.10641390928E+01  0.10666070334E+01  0.51100000000E-03 0. -1.
    9000002    1    1    2    0    0 -0.29421849682E+00  0.34708548882E-01  0.58632686900E-01  0.98541919974E+00  0.93800000000E+00 0.  1.
         22    1    1    2    0    0  0.22384319401E+00 -0.17226829756E-01  0.28772281877E+01  0.28859737669E+01  0.00000000000E+00 0. -1.
</event>
<event>
 5    1  0.3428566E+002  0.1599252E+01  0.7818608E-02  0.3354176E+00
         11   -1    0    0    0    0  0.00000000000E+00  0.00000000000E+00  0.39999999674E+01  0.40000000000E+01  0.51100000000E-03 0. -1.
    9000002   -1    0    0    0    0 -0.00000000000E+00 -0.00000000000E+00  0.00000000000E+00  0.93800000000E+00  0.93800000000E+00 0. -1.
         11    1    1    2    0    0 -0.72645274197E-01  0.48399518615E-01  0.11989067522E+01  0.12020804927E+01  0.51100000000E-03 0. -1.
    9000002    1    1    2    0    0  0.29850177601E+00 -0.20084465472E+00  0.87231525308E-01  0.10084122295E+01  0.93800000000E+00 0. -1.
         22    1    1    2    0    0 -0.22585650181E+00  0.15244513610E+00  0.27138616898E+01  0.27275072778E+01  0.00000000000E+00 0. -1.
</event>
<event>
 5    1  0.3428566E+002  0.1590961E+01  0.7818608E-02  0.3363232E+00
         11   -1    0    0    0    0  0.00000000000E+00  0.00000000000E+00  0.39999999674E+01  0.40000000000E+01  0.51100000000E-03 0. -1.
    9000002   -1    0    0    0    0 -0.00000000000E+00 -0.00000000000E+00  0.00000000000E+00  0.93800000000E+00  0.93800000000E+00 0. -1.
         11    1    1    2    0    0 -0.10780176407E+00 -0.11688432810E+00  0.11591596467E+01  0.11700147495E+01  0.51100000000E-03 0. -1.
    9000002    1    1    2    0    0  0.22307903490E-01  0.33673121888E+00  0.83256068711E-01  0.10003305100E+01  0.93800000000E+00 0. -1.
         22    1    1    2    0    0  0.85493860583E-01 -0.21984689079E+00  0.27575842520E+01  0.27676547405E+01  0.00000000000E+00 0. -1.
</event>
<event>
 5    1  0.3428566E+002  0.1599673E+01  0.7818608E-02  0.3353718E+00
         11   -1    0    0    0    0  0.00000000000E+00  0.00000000000E+00  0.39999999674E+01  0.40000000000E+01  0.51100000000E-03 0. -1.
    9000002   -1    0    0    0    0 -0.00000000000E+00 -0.00000000000E+00  0.00000000000E+00  0.93800000000E+00  0.93800000000E+00 0.  1.
         11    1    1    2    0    0 -0.17582938132E-01  0.65587481434E-02  0.27577121883E+00  0.27640948455E+00  0.51100000000E-03 0. -1.
    9000002    1    1    2    0    0  0.23634152475E+00 -0.98078917769E-01  0.43518497052E-01  0.97324953122E+00  0.93800000000E+00 0.  1.
         22    1    1    2    0    0 -0.21875858662E+00  0.91520169626E-01  0.36807102515E+01  0.36883409842E+01  0.00000000000E+00 0. -1.
</event>
<event>
 5    1  0.3842922E+002  0.1599661E+01  0.7818608E-02  0.3353732E+00
         11   -1    0    0    0    0  0.00000000000E+00  0.00000000000E+00  0.39999999674E+01  0.40000000000E+01  0.51100000000E-03 0.  1.
    9000002   -1    0    0    0    0 -0.00000000000E+00 -0.00000000000E+00  0.00000000000E+00  0.93800000000E+00  0.93800000000E+00 0.  1.
         11    1    1    2    0    0 -0.33048011599E-02  0.43608966279E-02  0.81293150428E-01  0.81478687751E-01  0.51100000000E-03 0.  1.
    9000002    1    1    2    0    0  0.10652149455E+00 -0.18243660290E+00  0.29578787114E-01  0.96195054318E+00  0.93800000000E+00 0.  1.
         22    1    1    2    0    0 -0.10321669339E+00  0.17807570628E+00  0.38891280298E+01  0.38945707691E+01  0.00000000000E+00 0.  1.
</event>
<event>
 5    1  0.3428566E+002  0.1599644E+01  0.7818608E-02  0.3353749E+00
         11   -1    0    0    0    0  0.00000000000E+00  0.00000000000E+00  0.39999999674E+01  0.40000000000E+01  0.51100000000E-03 0.  1.
    9000002   -1    0    0    0    0 -0.00000000000E+00 -0.00000000000E+00  0.00000000000E+00  0.93800000000E+00  0.93800000000E+00 0. -1.
         11    1    1    2    0    0  0.16490600408E-02  0.43057439569E-02  0.10942137381E+00  0.10951966489E+00  0.51100000000E-03 0.  1.
    9000002    1    1    2    0    0 -0.12691129432E+00 -0.19899802960E+00  0.36991806430E-01  0.96794580745E+00  0.93800000000E+00 0. -1.
         22    1    1    2    0    0  0.12526223428E+00  0.19469228564E+00  0.38535867871E+01  0.38605345277E+01  0.00000000000E+00 0.  1.
</event>
<event>
 5    1  0.3428566E+002  0.1599676E+01  0.7818608E-02  0.3353715E+00
         11   -1    0    0    0    0  0.00000000000E+00  0.00000000000E+00  0.39999999674E+01  0.40000000000E+01  0.51100000000E-03 0.  1.
    9000002   -1    0    0    0    0 -0.00000000000E+00 -0.00000000000E+00  0.00000000000E+00  0.93800000000E+00  0.93800000000E+00 0.  1.
         11    1    1    2    0    0 -0.28930954513E+00 -0.24003013867E+00  0.20492763890E+01  0.20834702926E+01  0.51100000000E-03 0.  1.
    9000002    1    1    2    0    0  0.51792719886E+00  0.42968004419E+00  0.32138294395E+00  0.11983340604E+01  0.93800000000E+00 0.  1.
         22    1    1    2    0    0 -0.22861765373E+00 -0.18964990553E+00  0.16293406344E+01  0.16561956470E+01  0.00000000000E+00 0. -1.
</event>
<event>
 5    1  0.3428566E+002  0.1599677E+01  0.7818608E-02  0.3353714E+00
         11   -1    0    0    0    0  0.00000000000E+00  0.00000000000E+00  0.39999999674E+01  0.40000000000E+01  0.51100000000E-03 0. -1.
    9000002   -1    0    0    0    0 -0.00000000000E+00 -0.00000000000E+00  0.00000000000E+00  0.93800000000E+00  0.93800000000E+00 0.  1.
         11    1    1    2    0    0  0.45193048963E-01 -0.25047223250E-01  0.80684843852E+00  0.80850135370E+00  0.51100000000E-03 0.  1.
    9000002    1    1    2    0    0 -0.22094217354E+00  0.12395520300E+00  0.42645475581E-01  0.97254458663E+00  0.93800000000E+00 0.  1.
         22    1    1    2    0    0  0.17574912458E+00 -0.98907979748E-01  0.31505060533E+01  0.31569540597E+01  0.00000000000E+00 0. -1.
</event>
<event>
 5    1  0.3428566E+002  0.1599285E+01  0.7818608E-02  0.3354140E+00
         11   -1    0    0    0    0  0.00000000000E+00  0.00000000000E+00  0.39999999674E+01  0.40000000000E+01  0.51100000000E-03 0. -1.
    9000002   -1    0    0    0    0 -0.00000000000E+00 -0.00000000000E+00  0.00000000000E+00  0.93800000000E+00  0.93800000000E+00 0.  1.
         11    1    1    2    0    0  0.23685220569E+00  0.17114912480E+00  0.17180940810E+01  0.17427674895E+01  0.51100000000E-03 0. -1.
    9000002    1    1    2    0    0 -0.54577528634E+00 -0.39970691788E+00  0.32547946997E+00  0.12014229766E+01  0.93800000000E+00 0.  1.
         22    1    1    2    0    0  0.30892308065E+00  0.22855779308E+00  0.19564264164E+01  0.19938095339E+01  0.00000000000E+00 0. -1.
</event>
<event>
 5    1  0.3428566E+002  0.1599668E+01  0.7818608E-02  0.3353724E+00
         11   -1    0    0    0    0  0.00000000000E+00  0.00000000000E+00  0.39999999674E+01  0.40000000000E+01  0.51100000000E-03 0.  1.
    9000002   -1    0    0    0    0 -0.00000000000E+00 -0.00000000000E+00  0.00000000000E+00  0.93800000000E+00  0.93800000000E+00 0.  1.
         11    1    1    2    0    0  0.34831709619E-01  0.51095378702E-01  0.62197009558E+00  0.62503683622E+00  0.51100000000E-03 0.  1.
    9000002    1    1    2    0    0 -0.23046751991E+00 -0.30900045418E+00  0.10005619637E+00  0.10190445529E+01  0.93800000000E+00 0.  1.
         22    1    1    2    0    0  0.19563581029E+00  0.25790507547E+00  0.32779736754E+01  0.32939186109E+01  0.00000000000E+00 0.  1.
</event>
<event>
 5    1  0.3428566E+002  0.1599676E+01  0.7818608E-02  0.3353715E+00
         11   -1    0    0    0    0  0.00000000000E+00  0.00000000000E+00  0.39999999674E+01  0.40000000000E+01  0.51100000000E-03 0. -1.
    9000002   -1    0    0    0    0 -0.00000000000E+00 -0.00000000000E+00  0.00000000000E+00  0.93800000000E+00  0.93800000000E+00 0. -1.
         11    1    1    2    0    0 -0.13507045426E-01 -0.10990197682E-01  0.26869424598E+00  0.26925839572E+00  0.51100000000E-03 0.  1.
    9000002    1    1    2    0    0  0.19596316776E+00  0.16613703701E+00  0.43869418835E-01  0.97353562035E+00  0.93800000000E+00 0. -1.
         22    1    1    2    0    0 -0.18245612234E+00 -0.15514683933E+00  0.36874363025E+01  0.36952059839E+01  0.00000000000E+00 0. -1.
</event>
<event>
 5    1  0.3428566E+002  0.1592346E+01  0.7818608E-02  0.3361713E+00
         11   -1    0    0    0    0  0.00000000000E+00  0.00000000000E+00  0.39999999674E+01  0.40000000000E+01  0.51100000000E-03 0.  1.
    9000002   -1    0    0    0    0 -0.00000000000E+00 -0.00000000000E+00  0.00000000000E+00  0.93800000000E+00  0.93800000000E+00 0.  1.
         11    1    1    2    0    0 -0.28462035732E+00  0.45073836632E+00  0.52944827558E+00  0.75132520276E+00  0.51100000000E-03 0.  1.
    9000002    1    1    2    0    0  0.45624921368E+00  0.16425484071E-01  0.46837794162E+00  0.11435274539E+01  0.93800000000E+00 0.  1.
         22    1    1    2    0    0 -0.17162885636E+00 -0.46716385039E+00  0.30021737502E+01  0.30431473434E+01  0.00000000000E+00 0.  1.
</event>
<event>
 5    1  0.3428566E+002  0.1599675E+01  0.7818608E-02  0.3353717E+00
         11   -1    0    0    0    0  0.00000000000E+00  0.00000000000E+00  0.39999999674E+01  0.40000000000E+01  0.51100000000E-03 0. -1.
    9000002   -1    0    0    0    0 -0.00000000000E+00 -0.00000000000E+00  0.00000000000E+00  0.93800000000E+00  0.93800000000E+00 0. -1.
         11    1    1    2    0    0 -0.18676437988E-01  0.10624913489E+00  0.13091436942E+01  0.13135810447E+01  0.51100000000E-03 0. -1.
    9000002    1    1    2    0    0  0.51372904099E-01 -0.32149238439E+00  0.70889905318E-01  0.99542247673E+00  0.93800000000E+00 0. -1.
         22    1    1    2    0    0 -0.32696466111E-01  0.21524324950E+00  0.26199663679E+01  0.26289964785E+01  0.00000000000E+00 0. -1.
</event>
<event>
 5    1  0.3428566E+002  0.1599674E+01  0.7818608E-02  0.3353718E+00
         11   -1    0    0    0    0  0.00000000000E+00  0.00000000000E+00  0.39999999674E+01  0.40000000000E+01  0.51100000000E-03 0.  1.
    9000002   -1    0    0    0    0 -0.00000000000E+00 -0.00000000000E+00  0.00000000000E+00  0.93800000000E+00  0.93800000000E+00 0.  1.
         11    1    1    2    0    0 -0.25128067492E-01  0.35536906090E-01  0.55956078068E+00  0.56125112015E+00  0.51100000000E-03 0.  1.
    9000002    1    1    2    0    0  0.18175389416E+00 -0.24103256490E+00  0.60807925021E-01  0.98725517427E+00  0.93800000000E+00 0.  1.
         22    1    1    2    0    0 -0.15662582667E+00  0.20549565881E+00  0.33796312617E+01  0.33894937056E+01  0.00000000000E+00 0.  1.
</event>
<event>
 5    1  0.3428566E+002  0.1599676E+01  0.7818608E-02  0.3353715E+00
         11   -1    0    0    0    0  0.00000000000E+00  0.00000000000E+00  0.39999999674E+01  0.40000000000E+01  0.51100000000E-03 0. -1.
    9000002   -1    0    0    0    0 -0.00000000000E+00 -0.00000000000E+00  0.00000000000E+00  0.93800000000E+00  0.93800000000E+00 0.  1.
         11    1    1    2    0    0  0.28009482081E-01 -0.27024371532E-01  0.50144993694E+00  0.50295839601E+00  0.51100000000E-03 0. -1.
    9000002    1    1    2    0    0 -0.22356153875E+00  0.21260305557E+00  0.63547165121E-01  0.98947565055E+00  0.93800000000E+00 0.  1.
         22    1    1    2    0    0  0.19555205667E+00 -0.18557868403E+00  0.34350028653E+01  0.34455659534E+01  0.00000000000E+00 0. -1.
</event>
<event>
 5    1  0.3428566E+002  0.1599677E+01  0.7818608E-02  0.3353714E+00
         11   -1    0    0    0    0  0.00000000000E+00  0.00000000000E+00  0.39999999674E+01  0.40000000000E+01  0.51100000000E-03 0. -1.
    9000002   -1    0    0    0    0 -0.00000000000E+00 -0.00000000000E+00  0.00000000000E+00  0.93800000000E+00  0.93800000000E+00 0. -1.
         11    1    1    2    0    0 -0.27223215617E+00  0.22697862384E+00  0.23816431146E+01  0.24078733000E+01  0.51100000000E-03 0. -1.
    9000002    1    1    2    0    0  0.43164666300E+00 -0.35989985977E+00  0.21866065452E+00  0.11151247610E+01  0.93800000000E+00 0. -1.
         22    1    1    2    0    0 -0.15941450683E+00  0.13292123592E+00  0.13996961982E+01  0.14150019390E+01  0.00000000000E+00 0. -1.
</event>
<event>
 5    1  0.3428566E+002  0.1599675E+01  0.7818608E-02  0.3353716E+00
         11   -1    0    0    0    0  0.00000000000E+00  0.00000000000E+00  0.39999999674E+01  0.40000000000E+01  0.51100000000E-03 0.  1.
    9000002   -1    0    0    0    0 -0.00000000000E+00 -0.00000000000E+00  0.00000000000E+00  0.93800000000E+00  0.93800000000E+00 0. -1.
         11    1    1    2    0    0 -0.12203238854E+00  0.44517499642E-01  0.13730008227E+01  0.13791320575E+01  0.51100000000E-03 0.  1.
    9000002    1    1    2    0    0  0.34518398341E+00 -0.12323783894E+00  0.90246073876E-01  0.10111023198E+01  0.93800000000E+00 0. -1.
         22    1    1    2    0    0 -0.22315159486E+00  0.78720339300E-01  0.25367530708E+01  0.25477656227E+01  0.00000000000E+00 0.  1.
</event>
<event>
 5    1  0.3428566E+002  0.1571622E+01  0.7818608E-02  0.3384751E+00
         11   -1    0    0    0    0  0.00000000000E+00  0.00000000000E+00  0.39999999674E+01  0.40000000000E+01  0.51100000000E-03 0.  1.
    9000002   -1    0    0    0    0 -0.00000000000E+00 -0.00000000000E+00  0.00000000000E+00  0.93800000000E+00  0.93800000000E+00 0.  1.
         11    1    1    2    0    0  0.34249576987E-02  0.46411941587E-01  0.35591297705E-01  0.58590103690E-01  0.51100000000E-03 0.  1.
    9000002    1    1    2    0    0 -0.10298217312E+00 -0.22881107690E+00  0.63590676985E-01  0.97306094932E+00  0.93800000000E+00 0.  1.
         22    1    1    2    0    0  0.99557215426E-01  0.18239913531E+00  0.39008179927E+01  0.39063489470E+01  0.00000000000E+00 0.  1.
</event>
<event>
 5    1  0.3428566E+002  0.1599673E+01  0.7818608E-02  0.3353718E+00
         11   -1    0    0    0    0  0.00000000000E+00  0.00000000000E+00  0.39999999674E+01  0.40000000000E+01  0.51100000000E-03 0. -1.
    9000002   -1    0    0    0    0 -0.00000000000E+00 -0.00000000000E+00  0.00000000000E+00  0.93800000000E+00  0.93800000000E+00 0. -1.
         11    1    1    2    0    0  0.35458060455E-01 -0.19047307116E-01  0.47407749436E+00  0.47578336009E+00  0.51100000000E-03 0. -1.
    9000002    1    1    2    0    0 -0.28226586107E+00  0.15626976662E+00  0.69597852376E-01  0.99437523971E+00  0.93800000000E+00 0. -1.
         22    1    1    2    0    0  0.24680780062E+00 -0.13722245950E+00  0.34563246206E+01  0.34678414002E+01  0.00000000000E+00 0. -1.
</event>
<event>
 5    1  0.3428566E+002  0.1599673E+01  0.7818608E-02  0.3353719E+00
         11   -1    0    0    0    0  0.00000000000E+00  0.00000000000E+00  0.39999999674E+01  0.40000000000E+01  0.51100000000E-03 0. -1.
    9000002   -1    0    0    0    0 -0.00000000000E+00 -0.00000000000E+00  0.00000000000E+00  0.93800000000E+00  0.93800000000E+00 0. -1.
         11    1    1    2    0    0 -0.12283914754E+00 -0.96795864189E-02  0.82709865674E+00  0.83622700248E+00  0.51100000000E-03 0. -1.
    9000002    1    1    2    0    0  0.55312096926E+00  0.42072462336E-01  0.21273337379E+00  0.11103208487E+01  0.93800000000E+00 0. -1.
         22    1    1    2    0    0 -0.43028182172E+00 -0.32392875917E-01  0.29601679368E+01  0.29914521488E+01  0.00000000000E+00 0. -1.
</event>
<event>
 5    1  0.3428566E+002  0.1599676E+01  0.7818608E-02  0.3353715E+00
         11   -1    0    0    0    0  0.00000000000E+00  0.00000000000E+00  0.39999999674E+01  0.40000000000E+01  0.51100000000E-03 0.  1.
    9000002   -1    0    0    0    0 -0.00000000000E+00 -0.00000000000E+00  0.00000000000E+00  0.93800000000E+00  0.93800000000E+00 0.  1.
         11    1    1    2    0    0 -0.37615811707E-02  0.70988452466E-01  0.94216649163E+00  0.94484467980E+00  0.51100000000E-03 0.  1.
    9000002    1    1    2    0    0  0.16242330490E-01 -0.30038918743E+00  0.60377211780E-01  0.98690773881E+00  0.93800000000E+00 0.  1.
         22    1    1    2    0    0 -0.12480749319E-01  0.22940073496E+00  0.29974562639E+01  0.30062475814E+01  0.00000000000E+00 0.  1.
</event>
<event>
 5    1  0.3428566E+002  0.1599672E+01  0.7818608E-02  0.3353719E+00
         11   -1    0    0    0    0  0.00000000000E+00  0.00000000000E+00  0.39999999674E+01  0.40000000000E+01  0.51100000000E-03 0.  1.
    9000002   -1    0    0    0    0 -0.00000000000E+00 -0.00000000000E+00  0.00000000000E+00  0.93800000000E+00  0.93800000000E+00 0. -1.
         11    1    1    2    0    0 -0.19206295451E+00 -0.36203819246E-01  0.18331970213E+01  0.18435863080E+01  0.51100000000E-03 0.  1.
    9000002    1    1    2    0    0  0.40726426769E+00  0.71049991368E-01  0.11549046620E+00  0.10315494815E+01  0.93800000000E+00 0. -1.
         22    1    1    2    0    0 -0.21520131318E+00 -0.34846172122E-01  0.20513124799E+01  0.20628642105E+01  0.00000000000E+00 0. -1.
</event>
<event>
 5    1  0.3428566E+002  0.1599671E+01  0.7818608E-02  0.3353720E+00
         11   -1    0    0    0    0  0.00000000000E+00  0.00000000000E+00  0.39999999674E+01  0.40000000000E+01  0.51100000000E-03 0.  1.
    9000002   -1    0    0    0    0 -0.00000000000E+00 -0.00000000000E+00  0.00000000000E+00  0.93800000000E+00  0.93800000000E+00 0.  1.
         11    1    1    2    0    0 -0.95079113225E-01 -0.41783030681E+00  0.25216259249E+01  0.25577763329E+01  0.51100000000E-03 0.  1.
    9000002    1    1    2    0    0  0.14382391143E+00  0.61759693909E+00  0.28269585702E+00  0.11669928210E+01  0.93800000000E+00 0.  1.
         22    1    1    2    0    0 -0.48744798208E-01 -0.19976663228E+00  0.11956781855E+01  0.12132308461E+01  0.00000000000E+00 0. -1.
</event>
<event>
 5    1  0.3428566E+002  0.1282961E+01  0.7818608E-02  0.3815064E+00
         11   -1    0    0    0    0  0.00000000000E+00  0.00000000000E+00  0.39999999674E+01  0.40000000000E+01  0.51100000000E-03 0. -1.
    9000002   -1    0    0    0    0 -0.00000000000E+00 -0.00000000000E+00  0.00000000000E+00  0.93800000000E+00  0.93800000000E+00 0.  1.
         11    1    1    2    0    0 -0.11457924674E+00  0.15700850223E+00  0.36324160462E+01  0.36376127704E+01  0.51100000000E-03 0. -1.
    9000002    1    1    2    0    0 -0.57344343726E-01  0.92199522779E-01  0.29114673099E+00  0.98812931579E+00  0.93800000000E+00 0.  1.
         22    1    1    2    0    0  0.17192359047E+00 -0.24920802501E+00  0.76437190153E-01  0.31225791379E+00  0.00000000000E+00 0.  1.
</event>
<event>
 5    1  0.3428566E+002  0.1595704E+01  0.7818608E-02  0.3358039E+00
         11   -1    0    0    0    0  0.00000000000E+00  0.00000000000E+00  0.39999999674E+01  0.40000000000E+01  0.51100000000E-03 0. -1.
    9000002   -1    0    0    0    0 -0.00000000000E+00 -0.00000000000E+00  0.00000000000E+00  0.93800000000E+00  0.93800000000E+00 0.  1.
         11    1    1    2    0    0  0.88718319129E-02  0.32687796736E-01  0.37822699694E+00  0.37974086400E+00  0.51100000000E-03 0. -1.
    9000002    1    1    2    0    0  0.26776627289E+00 -0.45798458260E-01  0.52179430615E-01  0.97793812108E+00  0.93800000000E+00 0.  1.
         22    1    1    2    0    0 -0.27663810480E+00  0.13110661524E-01  0.35695935398E+01  0.35803210149E+01  0.00000000000E+00 0. -1.
</event>
<event>
 5    1  0.3428566E+002  0.1599544E+01  0.7818608E-02  0.3353859E+00
         11   -1    0    0    0    0  0.00000000000E+00  0.00000000000E+00  0.39999999674E+01  0.40000000000E+01  0.51100000000E-03 0.  1.
    9000002   -1    0    0    0    0 -0.00000000000E+00 -0.00000000000E+00  0.00000000000E+00  0.93800000000E+00  0.93800000000E+00 0. -1.
         11    1    1    2    0    0  0.41008512576E-01 -0.78490452791E-01  0.10581777674E+01  0.10618770634E+01  0.51100000000E-03 0.  1.
    9000002    1    1    2    0    0 -0.19467546258E+00  0.30556360459E+00  0.88246523279E-01  0.10094053205E+01  0.93800000000E+00 0. -1.
         22    1    1    2    0    0  0.15366695000E+00 -0.22707315180E+00  0.28535756767E+01  0.28667176161E+01  0.00000000000E+00 0.  1.
</event>
<event>
 5    1  0.3428566E+002  0.1599664E+01  0.7818608E-02  0.3353728E+00
         11   -1    0    0    0    0  0.00000000000E+00  0.00000000000E+00  0.39999999674E+01  0.40000000000E+01  0.51100000000E-03 0. -1.
    9000002   -1    0    0    0    0 -0.00000000000E+00 -0.00000000000E+00  0.00000000000E+00  0.93800000000E+00  0.93800000000E+00 0. -1.
         11    1    1    2    0    0 -0.59391521630E-01 -0.81187501746E-01  0.11147195044E+01  0.11192491223E+01  0.51100000000E-03 0. -1.
    9000002    1    1    2    0    0  0.19529693050E+00  0.28483575348E+00  0.79942836640E-01  0.10027497966E+01  0.93800000000E+00 0. -1.
         22    1    1    2    0    0 -0.13590540887E+00 -0.20364825174E+00  0.28053376264E+01  0.28160010811E+01  0.00000000000E+00 0.  1.
</event>
<event>
 5    1  0.3428566E+002  0.1599675E+01  0.7818608E-02  0.3353716E+00
         11   -1    0    0    0    0  0.00000000000E+00  0.00000000000E+00  0.39999999674E+01  0.40000000000E+01  0.51100000000E-03 0.  1.
    9000002   -1    0    0    0    0 -0.00000000000E+00 -0.00000000000E+00  0.00000000000E+00  0.93800000000E+00  0.93800000000E+00 0.  1.
         11    1    1    2    0    0 -0.17491584833E+00 -0.23118938125E+00  0.22052117109E+01  0.22241859264E+01  0.51100000000E-03 0.  1.
    9000002    1    1    2    0    0  0.30219834208E+00  0.40388655543E+00  0.17431630110E+00  0.10792026503E+01  0.93800000000E+00 0.  1.
         22    1    1    2    0    0 -0.12728249375E+00 -0.17269717417E+00  0.16204719553E+01  0.16346114233E+01  0.00000000000E+00 0.  1.
</event>
<event>
 5    1  0.3428566E+002  0.1599490E+01  0.7818608E-02  0.3353917E+00
         11   -1    0    0    0    0  0.00000000000E+00  0.00000000000E+00  0.39999999674E+01  0.40000000000E+01  0.51100000000E-03 0. -1.
    9000002   -1    0    0    0    0 -0.00000000000E+00 -0.00000000000E+00  0.00000000000E+00  0.93800000000E+00  0.93800000000E+00 0.  1.
         11    1    1    2    0    0 -0.42234594914E-01 -0.63592518484E-01  0.78300655469E+00  0.78671932430E+00  0.51100000000E-03 0. -1.
    9000002    1    1    2    0    0  0.23166341281E+00  0.25561329457E+00  0.79901075603E-01  0.10026137218E+01  0.93800000000E+00 0.  1.
         22    1    1    2    0    0 -0.18942881790E+00 -0.19202077609E+00  0.31370923371E+01  0.31486669539E+01  0.00000000000E+00 0. -1.
</event>
<event>
 5    1  0.3428566E+002  0.1597346E+01  0.7818608E-02  0.3356248E+00
         11   -1    0    0    0    0  0.00000000000E+00  0.00000000000E+00  0.39999999674E+01  0.40000000000E+01  0.51100000000E-03 0. -1.
    9000002   -1    0    0    0    0 -0.00000000000E+00 -0.00000000000E+00  0.00000000000E+00  0.93800000000E+00  0.93800000000E+00 0. -1.
         11    1    1    2    0    0  0.44762683613E-01 -0.53082210005E-01  0.16235044165E+01  0.16249886985E+01  0.51100000000E-03 0. -1.
    9000002    1    1    2    0    0 -0.20178906577E+00  0.23169362691E+00  0.64852229963E-01  0.98916660657E+00  0.93800000000E+00 0. -1.
         22    1    1    2    0    0  0.15702638216E+00 -0.17861141690E+00  0.23116433209E+01  0.23238446949E+01  0.00000000000E+00 0. -1.
</event>
<event>
 5    1  0.3428566E+002  0.1599659E+01  0.7818608E-02  0.3353734E+00
         11   -1    0    0    0    0  0.00000000000E+00  0.00000000000E+00  0.39999999674E+01  0.40000000000E+01  0.51100000000E-03 0.  1.
    9000002   -1    0    0    0    0 -0.00000000000E+00 -0.00000000000E+00  0.00000000000E+00  0.93800000000E+00  0.93800000000E+00 0.  1.
         11    1    1    2    0    0  0.24637138172E-01 -0.12529026860E-01  0.33504724717E+00  0.33618578799E+00  0.51100000000E-03 0.  1.
    9000002    1    1    2    0    0 -0.29322382478E+00  0.17948515620E+00  0.79211960878E-01  0.10021545128E+01  0.93800000000E+00 0.  1.
         22    1    1    2    0    0  0.26858668660E+00 -0.16695612934E+00  0.35857407593E+01  0.35996596992E+01  0.00000000000E+00 0.  1.
</event>
<event>
 5    1  0.3428566E+002  0.1599675E+01  0.7818608E-02  0.3353716E+00
         11   -1    0    0    0    0  0.00000000000E+00  0.00000000000E+00  0.39999999674E+01  0.40000000000E+01  0.51100000000E-03 0.  1.
    9000002   -1    0    0    0    0 -0.00000000000E+00 -0.00000000000E+00  0.00000000000E+00  0.93800000000E+00  0.93800000000E+00 0. -1.
         11    1    1    2    0    0  0.12072101497E-01  0.65414347684E-02  0.16803309733E+00  0.16859391721E+00  0.51100000000E-03 0. -1.
    9000002    1    1    2    0    0 -0.27605161184E+00 -0.16409458262E+00  0.68942755392E-01  0.99384537427E+00  0.93800000000E+00 0. -1.
         22    1    1    2    0    0  0.26397951034E+00  0.15755314786E+00  0.37630241146E+01  0.37755607085E+01  0.00000000000E+00 0.  1.
</event>
<event>
 5    1  0.3428566E+002  0.1596278E+01  0.7818608E-02  0.3357413E+00
         11   -1    0    0    0    0  0.00000000000E+00  0.00000000000E+00  0.39999999674E+01  0.40000000000E+01  0.51100000000E-03 0.  1.
    9000002   -1    0    0    0    0 -0.00000000000E+00 -0.00000000000E+00  0.00000000000E+00  0.93800000000E+00  0.93800000000E+00 0.  1.
         11    1    1    2    0    0 -0.29365518285E-01 -0.32323021530E-01  0.10301600805E+01  0.10310854300E+01  0.51100000000E-03 0.  1.
    9000002    1    1    2    0    0 -0.11775575737E+00  0.17786741638E+00  0.32712835681E-01  0.96250577444E+00  0.93800000000E+00 0.  1.
         22    1    1    2    0    0  0.14712127565E+00 -0.14554439485E+00  0.29371270512E+01  0.29444087956E+01  0.00000000000E+00 0.  1.
</event>
<event>
 5    1  0.3428566E+002  0.1599671E+01  0.7818608E-02  0.3353721E+00
         11   -1    0    0    0    0  0.00000000000E+00  0.00000000000E+00  0.39999999674E+01  0.40000000000E+01  0.51100000000E-03 0. -1.
    9000002   -1    0    0    0    0 -0.00000000000E+00 -0.00000000000E+00  0.00000000000E+00  0.93800000000E+00  0.93800000000E+00 0.  1.
         11    1    1    2    0    0 -0.84660298687E-02 -0.39185016453E-02  0.15808705524E+00  0.15836289487E+00  0.51100000000E-03 0. -1.
    9000002    1    1    2    0    0  0.22539603943E+00  0.74953261384E-01  0.37449996177E-01  0.96833251944E+00  0.93800000000E+00 0.  1.
         22    1    1    2    0    0 -0.21693000956E+00 -0.71034759739E-01  0.38044629159E+01  0.38113045857E+01  0.00000000000E+00 0. -1.
</event>
<event>
 5    1  0.3428566E+002  0.1599668E+01  0.7818608E-02  0.3353724E+00
         11   -1    0    0    0    0  0.00000000000E+00  0.00000000000E+00  0.39999999674E+01  0.40000000000E+01  0.51100000000E-03 0. -1.
    9000002   -1    0    0    0    0 -0.00000000000E+00 -0.00000000000E+00  0.00000000000E+00  0.93800000000E+00  0.93800000000E+00 0.  1.
         11    1    1    2    0    0 -0.11624405030E+00  0.10963937733E+00  0.14419435532E+01  0.14507704657E+01  0.51100000000E-03 0. -1.
    9000002    1    1    2    0    0  0.30437479093E+00 -0.29098063351E+00  0.11994324176E+00  0.10351541545E+01  0.93800000000E+00 0.  1.
         22    1    1    2    0    0 -0.18813074063E+00  0.18134125618E+00  0.24381131724E+01  0.24520753798E+01  0.00000000000E+00 0. -1.
</event>
<event>
 5    1  0.3428566E+002  0.1599246E+01  0.7818608E-02  0.3354182E+00
         11   -1    0    0    0    0  0.00000000000E+00  0.00000000000E+00  0.39999999674E+01  0.40000000000E+01  0.51100000000E-03 0. -1.
    9000002   -1    0    0    0    0 -0.00000000000E+00 -0.00000000000E+00  0.00000000000E+00  0.93800000000E+00  0.93800000000E+00 0.  1.
         11    1    1    2    0    0 -0.21578011229E-02 -0.62357655736E-01  0.10304669070E+01  0.10323543195E+01  0.51100000000E-03 0. -1.
    9000002    1    1    2    0    0  0.91743061474E-01  0.24975099261E+00  0.47418226206E-01  0.97615820225E+00  0.93800000000E+00 0.  1.
         22    1    1    2    0    0 -0.89585260351E-01 -0.18739333687E+00  0.29221148341E+01  0.29294874783E+01  0.00000000000E+00 0. -1.
</event>
<event>
 5    1  0.3428566E+002  0.1599458E+01  0.7818608E-02  0.3353952E+00
         11   -1    0    0    0    0  0.00000000000E+00  0.00000000000E+00  0.39999999674E+01  0.40000000000E+01  0.51100000000E-03 0. -1.
    9000002   -1    0    0    0    0 -0.00000000000E+00 -0.00000000000E+00  0.00000000000E+00  0.93800000000E+00  0.93800000000E+00 0.  1.
         11    1    1    2    0    0  0.10672236354E+00 -0.10683473225E+00  0.83911656972E+00  0.85259615387E+00  0.51100000000E-03 0. -1.
    9000002    1    1    2    0    0 -0.46934860915E+00  0.40829025531E+00  0.27153581391E+00  0.11578275984E+01  0.93800000000E+00 0.  1.
         22    1    1    2    0    0  0.36262624561E+00 -0.30145552306E+00  0.28893475837E+01  0.29275762477E+01  0.00000000000E+00 0. -1.
</event>
<event>
 5    1  0.3428566E+002  0.1599573E+01  0.7818608E-02  0.3353827E+00
         11   -1    0    0    0    0  0.00000000000E+00  0.00000000000E+00  0.39999999674E+01  0.40000000000E+01  0.51100000000E-03 0.  1.
    9000002   -1    0    0    0    0 -0.00000000000E+00 -0.00000000000E+00  0.00000000000E+00  0.93800000000E+00  0.93800000000E+00 0.  1.
         11    1    1    2    0    0 -0.35684481629E-01  0.59948013626E-01  0.97939606422E+00  0.98187782249E+00  0.51100000000E-03 0.  1.
    9000002    1    1    2    0    0  0.12454801093E+00 -0.27920918058E+00  0.62469969956E-01  0.98854259933E+00  0.93800000000E+00 0.  1.
         22    1    1    2    0    0 -0.88863529304E-01  0.21926116695E+00  0.29581339332E+01  0.29675795782E+01  0.00000000000E+00 0.  1.
</event>
<event>
 5    1  0.3428566E+002  0.1599677E+01  0.7818608E-02  0.3353714E+00
         11   -1    0    0    0    0  0.00000000000E+00  0.00000000000E+00  0.39999999674E+01  0.40000000000E+01  0.51100000000E-03 0. -1.
    9000002   -1    0    0    0    0 -0.00000000000E+00 -0.00000000000E+00  0.00000000000E+00  0.93800000000E+00  0.93800000000E+00 0.  1.
         11    1    1    2    0    0 -0.72813908964E-01 -0.30053886184E+00  0.18952381828E+01  0.19203003680E+01  0.51100000000E-03 0.  1.
    9000002    1    1    2    0    0  0.14225612500E+00  0.59356107597E+00  0.26051287781E+00  0.11490267688E+01  0.93800000000E+00 0.  1.
         22    1    1    2    0    0 -0.69442216032E-01 -0.29302221412E+00  0.18442489067E+01  0.18686728631E+01  0.00000000000E+00 0. -1.
</event>
<event>
 5    1  0.3428566E+002  0.1599677E+01  0.7818608E-02  0.3353714E+00
         11   -1    0    0    0    0  0.00000000000E+00  0.00000000000E+00  0.39999999674E+01  0.40000000000E+01  0.51100000000E-03 0. -1.
    9000002   -1    0    0    0    0 -0.00000000000E+00 -0.00000000000E+00  0.00000000000E+00  0.93800000000E+00  0.93800000000E+00 0. -1.
         11    1    1    2    0    0 -0.51770562969E-02  0.11836793503E+00  0.11219457265E+01  0.11281844904E+01  0.51100000000E-03 0. -1.
    9000002    1    1    2    0    0  0.16329276557E-01 -0.40885004360E+00  0.11306664532E+00  0.10295887867E+01  0.93800000000E+00 0. -1.
         22    1    1    2    0    0 -0.11152220260E-01  0.29048210856E+00  0.27649875955E+01  0.27802267229E+01  0.00000000000E+00 0. -1.
</event>
<event>
 5    1  0.3428566E+002  0.1599673E+01  0.7818608E-02  0.3353719E+00
         11   -1    0    0    0    0  0.00000000000E+00  0.00000000000E+00  0.39999999674E+01  0.40000000000E+01  0.51100000000E-03 0.  1.
    9000002   -1    0    0    0    0 -0.00000000000E+00 -0.00000000000E+00  0.00000000000E+00  0.93800000000E+00  0.93800000000E+00 0. -1.
         11    1    1    2    0    0  0.48245376442E-01 -0.15278346392E-01  0.72260607965E+00  0.72437618106E+00  0.51100000000E-03 0.  1.
    9000002    1    1    2    0    0 -0.25649599138E+00  0.91029653995E-01  0.49299259499E-01  0.97793200607E+00  0.93800000000E+00 0. -1.
         22    1    1    2    0    0  0.20825061494E+00 -0.75751307603E-01  0.32280946282E+01  0.32356918129E+01  0.00000000000E+00 0.  1.
</event>
<event>
 5    1  0.3428566E+002  0.1598583E+01  0.7818608E-02  0.3354903E+00
         11   -1    0    0    0    0  0.00000000000E+00  0.00000000000E+00  0.39999999674E+01  0.40000000000E+01  0.51100000000E-03 0. -1.
    9000002   -1    0    0    0    0 -0.00000000000E+00 -0.00000000000E+00  0.00000000000E+00  0.93800000000E+00  0.93800000000E+00 0. -1.
         11    1    1    2    0    0  0.12510485631E-01 -0.17264381666E-01  0.92230247957E-01  0.94663883737E-01  0.51100000000E-03 0. -1.
    9000002    1    1    2    0    0 -0.20121123282E+00  0.32907503422E+00  0.10107443040E+00  0.10192332308E+01  0.93800000000E+00 0. -1.
         22    1    1    2    0    0  0.18870074719E+00 -0.31181065256E+00  0.38066952890E+01  0.38241028854E+01  0.00000000000E+00 0. -1.
</event>
<event>
 5    1  0.3428566E+002  0.1584358E+01  0.7818608E-02  0.3370517E+00
         11   -1    0    0    0    0  0.00000000000E+00  0.00000000000E+00  0.39999999674E+01  0.40000000000E+01  0.51100000000E-03 0. -1.
    9000002   -1    0    0    0    0 -0.00000000000E+00 -0.00000000000E+00  0.00000000000E+00  0.93800000000E+00  0.93800000000E+00 0. -1.
         11    1    1    2    0    0  0.13482306216E+00 -0.22341653056E+00  0.12005684740E+01  0.12285996606E+01  0.51100000000E-03 0. -1.
    9000002    1    1    2    0    0 -0.95146181249E-01  0.42635871893E+00  0.14257904690E+00  0.10445129667E+01  0.93800000000E+00 0. -1.
         22    1    1    2    0    0 -0.39676880916E-01 -0.20294218837E+00  0.26568524465E+01  0.26648873727E+01  0.00000000000E+00 0. -1.
</event>
<event>
 5    1  0.3428566E+002  0.1599239E+01  0.7818608E-02  0.3354190E+00
         11   -1    0    0    0    0  0.00000000000E+00  0.00000000000E+00  0.39999999674E+01  0.40000000000E+01  0.51100000000E-03 0. -1.
    9000002   -1    0    0    0    0 -0.00000000000E+00 -0.00000000000E+00  0.00000000000E+00  0.93800000000E+00  0.93800000000E+00 0.  1.
         11    1    1    2    0    0 -0.38075570020E-01 -0.12119708655E+00  0.17316647781E+01  0.17363184177E+01  0.51100000000E-03 0. -1.
    9000002    1    1    2    0    0  0.64604894285E-01  0.32724237441E+00  0.74819698500E-01  0.99835031490E+00  0.93800000000E+00 0.  1.
         22    1    1    2    0    0 -0.26529324265E-01 -0.20604528786E+00  0.21935154908E+01  0.22033312674E+01  0.00000000000E+00 0.  1.
</event>
<event>
 5    1  0.3428566E+002  0.1578901E+01  0.7818608E-02  0.3376587E+00
         11   -1    0    0    0    0  0.00000000000E+00  0.00000000000E+00  0.39999999674E+01  0.40000000000E+01  0.51100000000E-03 0. -1.
    9000002   -1    0    0    0    0 -0.00000000000E+00 -0.00000000000E+00  0.00000000000E+00  0.93800000000E+00  0.93800000000E+00 0.  1.
         11    1    1    2    0    0  0.63636170697E-02 -0.29627506191E-02 -0.61636436485E-02  0.93554870245E-02  0.51100000000E-03 0. -1.
    9000002    1    1    2    0    0 -0.23893871101E+00 -0.17913596773E+00  0.75917381134E-01  0.98731395782E+00  0.93800000000E+00 0.  1.
         22    1    1    2    0    0  0.23257509394E+00  0.18209871835E+00  0.39302462299E+01  0.39413305552E+01  0.00000000000E+00 0. -1.
</event>
<event>
 5    1  0.3428566E+002  0.1402430E+01  0.7818608E-02  0.3602987E+00
         11   -1    0    0    0    0  0.00000000000E+00  0.00000000000E+00  0.39999999674E+01  0.40000000000E+01  0.51100000000E-03 0. -1.
    9000002   -1    0    0    0    0 -0.00000000000E+00 -0.00000000000E+00  0.00000000000E+00  0.93800000000E+00  0.93800000000E+00 0.  1.
         11    1    1    2    0    0  0.54044922171E+00 -0.42119828639E+00  0.21868843181E+01  0.22917147814E+01  0.51100000000E-03 0. -1.
    9000002    1    1    2    0    0 -0.21801808361E+00  0.16247637988E+00  0.22090943236E+00  0.10012868900E+01  0.93800000000E+00 0.  1.
         22    1    1    2    0    0 -0.32243113810E+00  0.25872190651E+00  0.15922062169E+01  0.16449983286E+01  0.00000000000E+00 0.  1.
</event>
<event>
 5    1  0.3428566E+002  0.1599666E+01  0.7818608E-02  0.3353726E+00
         11   -1    0    0    0    0  0.00000000000E+00  0.00000000000E+00  0.39999999674E+01  0.40000000000E+01  0.51100000000E-03 0.  1.
    9000002   -1    0    0    0    0 -0.00000000000E+00 -0.00000000000E+00  0.00000000000E+00  0.93800000000E+00  0.93800000000E+00 0. -1.
         11    1    1    2    0    0  0.32385884216E-02 -0.84049760576E-01  0.99807006900E+00  0.10016081941E+01  0.51100000000E-03 0.  1.
    9000002    1    1    2    0    0 -0.85899843302E-02  0.34324627877E+00  0.78999205521E-01  0.10019863623E+01  0.93800000000E+00 0. -1.
         22    1    1    2    0    0  0.53513959086E-02 -0.25919651820E+00  0.29229306928E+01  0.29344054436E+01  0.00000000000E+00 0.  1.
</event>
<event>
 5    1  0.3428566E+002  0.1595338E+01  0.7818608E-02  0.3358439E+00
         11   -1    0    0    0    0  0.00000000000E+00  0.00000000000E+00  0.39999999674E+01  0.40000000000E+01  0.51100000000E-03 0. -1.
    9000002   -1    0    0    0    0 -0.00000000000E+00 -0.00000000000E+00  0.00000000000E+00  0.93800000000E+00  0.93800000000E+00 0.  1.
         11    1    1    2    0    0  0.62885614000E-01  0.28096719020E-01  0.18610096170E+01  0.18622838349E+01  0.51100000000E-03 0. -1.
    9000002    1    1    2    0    0 -0.14195549871E+00 -0.22756922780E+00  0.51208343268E-01  0.97693674896E+00  0.93800000000E+00 0.  1.
         22    1    1    2    0    0  0.79069884712E-01  0.19947250878E+00  0.20877820071E+01  0.20987794161E+01  0.00000000000E+00 0. -1.
</event>
<event>
 5    1  0.3428566E+002  0.1598127E+01  0.7818608E-02  0.3355398E+00
         11   -1    0    0    0    0  0.00000000000E+00  0.00000000000E+00  0.39999999674E+01  0.40000000000E+01  0.51100000000E-03 0.  1.
    9000002   -1    0    0    0    0 -0.00000000000E+00 -0.00000000000E+00  0.00000000000E+00  0.93800000000E+00  0.93800000000E+00 0. -1.
         11    1    1    2    0    0 -0.29746529861E-01  0.22798102303E-01  0.65644621720E+00  0.65751540416E+00  0.51100000000E-03 0.  1.
    9000002    1    1    2    0    0 -0.12676309528E-01 -0.22841453249E+00  0.35885703020E-01  0.96616027198E+00  0.93800000000E+00 0. -1.
         22    1    1    2    0    0  0.42422839389E-01  0.20561643019E+00  0.33076680471E+01  0.33143243239E+01  0.00000000000E+00 0.  1.
</event>
<event>
 5    1  0.3428566E+002  0.1527471E+01  0.7818608E-02  0.3436053E+00
         11   -1    0    0    0    0  0.00000000000E+00  0.00000000000E+00  0.39999999674E+01  0.40000000000E+01  0.51100000000E-03 0.  1.
    9000002   -1    0    0    0    0 -0.00000000000E+00 -0.00000000000E+00  0.00000000000E+00  0.93800000000E+00  0.93800000000E+00 0. -1.
         11    1    1    2    0    0  0.22398271822E+00 -0.18163582872E+00  0.79709468951E+00  0.84765561256E+00  0.51100000000E-03 0.  1.
    9000002    1    1    2    0    0 -0.19800342970E+00 -0.33738989674E-01  0.82936473949E-01  0.96284273706E+00  0.93800000000E+00 0. -1.
         22    1    1    2    0    0 -0.25979288516E-01  0.21537481839E+00  0.31199688039E+01  0.31275016504E+01  0.00000000000E+00 0.  1.
</event>
<event>
 5    1  0.3428566E+002  0.1598400E+01  0.7818608E-02  0.3355102E+00
         11   -1    0    0    0    0  0.00000000000E+00  0.00000000000E+00  0.39999999674E+01  0.40000000000E+01  0.51100000000E-03 0. -1.
    9000002   -1    0    0    0    0 -0.00000000000E+00 -0.00000000000E+00  0.00000000000E+00  0.93800000000E+00  0.93800000000E+00 0. -1.
         11    1    1    2    0    0  0.31176179271E+00  0.43968459434E-01  0.17639787566E+01  0.17918565667E+01  0.51100000000E-03 0. -1.
    9000002    1    1    2    0    0 -0.66040644312E+00 -0.17997027183E+00  0.33487753999E+00  0.12085168330E+01  0.93800000000E+00 0. -1.
         22    1    1    2    0    0  0.34864465041E+00  0.13600181240E+00  0.19011436708E+01  0.19376266003E+01  0.00000000000E+00 0. -1.
</event>
<event>
 5    1  0.3428566E+002  0.1599591E+01  0.7818608E-02  0.3353808E+00
         11   -1    0    0    0    0  0.00000000000E+00  0.00000000000E+00  0.39999999674E+01  0.40000000000E+01  0.51100000000E-03 0. -1.
    9000002   -1    0    0    0    0 -0.00000000000E+00 -0.00000000000E+00  0.00000000000E+00  0.93800000000E+00  0.93800000000E+00 0. -1.
         11    1    1    2    0    0  0.32093445798E-01 -0.34649458467E-01  0.78964131655E+00  0.79105261782E+00  0.51100000000E-03 0. -1.
    9000002    1    1    2    0    0 -0.17812372805E+00  0.21440990506E+00  0.51802725252E-01  0.97991182880E+00  0.93800000000E+00 0. -1.
         22    1    1    2    0    0  0.14603028225E+00 -0.17976044659E+00  0.31585559256E+01  0.31670355534E+01  0.00000000000E+00 0. -1.
</event>
<event>
 5    1  0.3428566E+002  0.1557444E+01  0.7818608E-02  0.3400889E+00
         11   -1    0    0    0    0  0.00000000000E+00  0.00000000000E+00  0.39999999674E+01  0.40000000000E+01  0.51100000000E-03 0. -1.
    9000002   -1    0    0    0    0 -0.00000000000E+00 -0.00000000000E+00  0.00000000000E+00  0.93800000000E+00  0.93800000000E+00 0. -1.
         11    1    1    2    0    0  0.49015732749E-01 -0.11461137556E+00  0.77924322033E+00  0.78915053508E+00  0.51100000000E-03 0. -1.
    9000002    1    1    2    0    0  0.92175088692E-01 -0.35677166700E+00  0.12647792838E+00  0.10156884048E+01  0.93800000000E+00 0. -1.
         22    1    1    2    0    0 -0.14119082144E+00  0.47138304256E+00  0.30942788187E+01  0.31331610601E+01  0.00000000000E+00 0. -1.
</event>
<event>
 5    1  0.3428566E+002  0.1599664E+01  0.7818608E-02  0.3353728E+00
         11   -1    0    0    0    0  0.00000000000E+00  0.00000000000E+00  0.39999999674E+01  0.40000000000E+01  0.51100000000E-03 0. -1.
    9000002   -1    0    0    0    0 -0.00000000000E+00 -0.00000000000E+00  0.00000000000E+00  0.93800000000E+00  0.93800000000E+00 0.  1.
         11    1    1    2    0    0  0.74854764602E-01 -0.10912839497E+00  0.88515950429E+00  0.89499712375E+00  0.51100000000E-03 0. -1.
    9000002    1    1    2    0    0 -0.30616658674E+00  0.47363268900E+00  0.22029406854E+00  0.11164404953E+01  0.93800000000E+00 0.  1.
         22    1    1    2    0    0  0.23131182214E+00 -0.36450429403E+00  0.28945463945E+01  0.29265623809E+01  0.00000000000E+00 0. -1.
</event>
<event>
 5    1  0.3428566E+002  0.1599676E+01  0.7818608E-02  0.3353715E+00
         11   -1    0    0    0    0  0.00000000000E+00  0.00000000000E+00  0.39999999674E+01  0.40000000000E+01  0.51100000000E-03 0. -1.
    9000002   -1    0    0    0    0 -0.00000000000E+00 -0.00000000000E+00  0.00000000000E+00  0.93800000000E+00  0.93800000000E+00 0.  1.
         11    1    1    2    0    0  0.49582805016E-01  0.37931714356E-01  0.80292258254E+00  0.80534601519E+00  0.51100000000E-03 0. -1.
    9000002    1    1    2    0    0 -0.24128687533E+00 -0.19087732472E+00  0.63191173219E-01  0.98918685478E+00  0.93800000000E+00 0.  1.
         22    1    1    2    0    0  0.19170407032E+00  0.15294561037E+00  0.31338862116E+01  0.31434671300E+01  0.00000000000E+00 0. -1.
</event>
<event>
 5    1  0.3428566E+002  0.1596040E+01  0.7818608E-02  0.3357673E+00
         11   -1    0    0    0    0  0.00000000000E+00  0.00000000000E+00  0.39999999674E+01  0.40000000000E+01  0.51100000000E-03 0.  1.
    9000002   -1    0    0    0    0 -0.00000000000E+00 -0.00000000000E+00  0.00000000000E+00  0.93800000000E+00  0.93800000000E+00 0.  1.
         11    1    1    2    0    0  0.40683009542E+00  0.59302060270E+00  0.24216445507E+01  0.25261723521E+01  0.51100000000E-03 0.  1.
    9000002    1    1    2    0    0 -0.61641947203E+00 -0.79343915520E+00  0.82150345317E+00  0.16013215112E+01  0.93800000000E+00 0.  1.
         22    1    1    2    0    0  0.20958937661E+00  0.20041855250E+00  0.75685196350E+00  0.81050613670E+00  0.00000000000E+00 0.  1.
</event>
<event>
 5    1  0.3428566E+002  0.1598998E+01  0.7818608E-02  0.3354452E+00
         11   -1    0    0    0    0  0.00000000000E+00  0.00000000000E+00  0.39999999674E+01  0.40000000000E+01  0.51100000000E-03 0.  1.
    9000002   -1    0    0    0    0 -0.00000000000E+00 -0.00000000000E+00  0.00000000000E+00  0.93800000000E+00  0.93800000000E+00 0.  1.
         11    1    1    2    0    0 -0.22120600124E+00 -0.20261768655E+00  0.99727395742E+00  0.10414132845E+01  0.51100000000E-03 0.  1.
    9000002    1    1    2    0    0  0.75400317224E+00  0.70758669300E+00  0.87944082398E+00  0.16499878408E+01  0.93800000000E+00 0.  1.
         22    1    1    2    0    0 -0.53279717101E+00 -0.50496900645E+00  0.21232851860E+01  0.22465988747E+01  0.00000000000E+00 0.  1.
</event>
<event>
 5    1  0.3428566E+002  0.1598000E+01  0.7818608E-02  0.3355537E+00
         11   -1    0    0    0    0  0.00000000000E+00  0.00000000000E+00  0.39999999674E+01  0.40000000000E+01  0.51100000000E-03 0. -1.
    9000002   -1    0    0    0    0 -0.00000000000E+00 -0.00000000000E+00  0.00000000000E+00  0.93800000000E+00  0.93800000000E+00 0.  1.
         11    1    1    2    0    0  0.23384853266E-01  0.15768615529E-02  0.11739503489E+00  0.11971296167E+00  0.51100000000E-03 0. -1.
    9000002    1    1    2    0    0 -0.24283392815E+00  0.10585857028E+00  0.47962550516E-01  0.97586820822E+00  0.93800000000E+00 0.  1.
         22    1    1    2    0    0  0.21944907489E+00 -0.10743543183E+00  0.38346423820E+01  0.38424188301E+01  0.00000000000E+00 0. -1.
</event>
<event>
 5    1  0.3428566E+002  0.1599328E+01  0.7818608E-02  0.3354093E+00
         11   -1    0    0    0    0  0.00000000000E+00  0.00000000000E+00  0.39999999674E+01  0.40000000000E+01  0.51100000000E-03 0. -1.
    9000002   -1    0    0    0    0 -0.00000000000E+00 -0.00000000000E+00  0.00000000000E+00  0.93800000000E+00  0.93800000000E+00 0.  1.
         11    1    1    2    0    0  0.47566570725E-01  0.31223905681E-01  0.80767671521E+00  0.80967860806E+00  0.51100000000E-03 0. -1.
    9000002    1    1    2    0    0 -0.17339227378E+00 -0.21861655403E+00  0.52112709835E-01  0.98000908814E+00  0.93800000000E+00 0.  1.
         22    1    1    2    0    0  0.12582570306E+00  0.18739264835E+00  0.31402105423E+01  0.31483123038E+01  0.00000000000E+00 0. -1.
</event>
<event>
 5    1  0.3428566E+002  0.1599390E+01  0.7818608E-02  0.3354026E+00
         11   -1    0    0    0    0  0.00000000000E+00  0.00000000000E+00  0.39999999674E+01  0.40000000000E+01  0.51100000000E-03 0.  1.
    9000002   -1    0    0    0    0 -0.00000000000E+00 -0.00000000000E+00  0.00000000000E+00  0.93800000000E+00  0.93800000000E+00 0. -1.
         11    1    1    2    0    0  0.23430461300E+00  0.18081678874E+00  0.84688191560E+00  0.89710791037E+00  0.51100000000E-03 0.  1.
    9000002    1    1    2    0    0 -0.82459332527E+00 -0.70590398624E+00  0.10036464147E+01  0.17508297220E+01  0.93800000000E+00 0. -1.
         22    1    1    2    0    0  0.59028871227E+00  0.52508719750E+00  0.21494716371E+01  0.22900623676E+01  0.00000000000E+00 0.  1.
</event>
<event>
 5    1  0.3428566E+002  0.1598944E+01  0.7818608E-02  0.3354511E+00
         11   -1    0    0    0    0  0.00000000000E+00  0.00000000000E+00  0.39999999674E+01  0.40000000000E+01  0.51100000000E-03 0. -1.
    9000002   -1    0    0    0    0 -0.00000000000E+00 -0.00000000000E+00  0.00000000000E+00  0.93800000000E+00  0.93800000000E+00 0. -1.
         11    1    1    2    0    0 -0.12092812680E+00 -0.25865311482E+00  0.24701452600E+01  0.24865926310E+01  0.51100000000E-03 0. -1.
    9000002    1    1    2    0    0  0.21667124427E+00  0.44084411937E+00  0.16559128995E+00  0.10717063222E+01  0.93800000000E+00 0. -1.
         22    1    1    2    0    0 -0.95743117468E-01 -0.18219100456E+00  0.13642634174E+01  0.13797010469E+01  0.00000000000E+00 0. -1.
</event>
<event>
 5    1  0.3428566E+002  0.1599677E+01  0.7818608E-02  0.3353714E+00
         11   -1    0    0    0    0  0.00000000000E+00  0.00000000000E+00  0.39999999674E+01  0.40000000000E+01  0.51100000000E-03 0.  1.
    9000002   -1    0    0    0    0 -0.00000000000E+00 -0.00000000000E+00  0.00000000000E+00  0.93800000000E+00  0.93800000000E+00 0.  1.
         11    1    1    2    0    0 -0.62458169050E-02 -0.39849102741E-01  0.61302380871E+00  0.61434958484E+00  0.51100000000E-03 0.  1.
    9000002    1    1    2    0    0  0.39086816342E-01  0.25719136731E+00  0.44991807366E-01  0.97444519670E+00  0.93800000000E+00 0.  1.
         22    1    1    2    0    0 -0.32840999437E-01 -0.21734226457E+00  0.33419843513E+01  0.33492052185E+01  0.00000000000E+00 0.  1.
</event>
<event>
 5    1  0.3428566E+002  0.1598609E+01  0.7818608E-02  0.3354874E+00
         11   -1    0    0    0    0  0.00000000000E+00  0.00000000000E+00  0.39999999674E+01  0.40000000000E+01  0.51100000000E-03 0. -1.
    9000002   -1    0    0    0    0 -0.00000000000E+00 -0.00000000000E+00  0.00000000000E+00  0.93800000000E+00  0.93800000000E+00 0. -1.
         11    1    1    2    0    0 -0.12594930401E-01 -0.40392418675E-01  0.48424540767E+00  0.48609058387E+00  0.51100000000E-03 0. -1.
    9000002    1    1    2    0    0 -0.10648213796E+00  0.34650751028E+00  0.89100067495E-01  0.10095487717E+01  0.93800000000E+00 0. -1.
         22    1    1    2    0    0  0.11907706836E+00 -0.30611509161E+00  0.34266544922E+01  0.34423606444E+01  0.00000000000E+00 0. -1.
</event>
<event>
 5    1  0.3428566E+002  0.1599074E+01  0.7818608E-02  0.3354369E+00
         11   -1    0    0    0    0  0.00000000000E+00  0.00000000000E+00  0.39999999674E+01  0.40000000000E+01  0.51100000000E-03 0.  1.
    9000002   -1    0    0    0    0 -0.00000000000E+00 -0.00000000000E+00  0.00000000000E+00  0.93800000000E+00  0.93800000000E+00 0. -1.
         11    1    1    2    0    0 -0.47906861072E-01  0.26654423266E-01  0.58404046795E+00  0.58660809314E+00  0.51100000000E-03 0.  1.
    9000002    1    1    2    0    0  0.18643445370E+00 -0.21642401265E+00  0.54832484759E-01  0.98206301232E+00  0.93800000000E+00 0. -1.
         22    1    1    2    0    0 -0.13852759262E+00  0.18976958938E+00  0.33611270147E+01  0.33693288945E+01  0.00000000000E+00 0.  1.
</event>
<event>
 5    1  0.3428566E+002  0.1540902E+01  0.7818608E-02  0.3420115E+00
         11   -1    0    0    0    0  0.00000000000E+00  0.00000000000E+00  0.39999999674E+01  0.40000000000E+01  0.51100000000E-03 0.  1.
    9000002   -1    0    0    0    0 -0.00000000000E+00 -0.00000000000E+00  0.00000000000E+00  0.93800000000E+00  0.93800000000E+00 0. -1.
         11    1    1    2    0    0  0.21084551664E+00 -0.79938572619E-01  0.73958211721E+00  0.77319336294E+00  0.51100000000E-03 0.  1.
    9000002    1    1    2    0    0 -0.28314407228E-01 -0.11292179041E+00  0.53283018464E-01  0.94669747885E+00  0.93800000000E+00 0. -1.
         22    1    1    2    0    0 -0.18253110941E+00  0.19286036303E+00  0.32071348317E+01  0.32181091582E+01  0.00000000000E+00 0.  1.
</event>
<event>
 5    1  0.3428566E+002  0.1596345E+01  0.7818608E-02  0.3357339E+00
         11   -1    0    0    0    0  0.00000000000E+00  0.00000000000E+00  0.39999999674E+01  0.40000000000E+01  0.51100000000E-03 0.  1.
    9000002   -1    0    0    0    0 -0.00000000000E+00 -0.00000000000E+00  0.00000000000E+00  0.93800000000E+00  0.93800000000E+00 0. -1.
         11    1    1    2    0    0 -0.33362203148E-01 -0.52021808810E-01  0.16087378801E+01  0.16099245738E+01  0.51100000000E-03 0.  1.
    9000002    1    1    2    0    0 -0.34813840841E-01  0.24852653667E+00  0.44389653109E-01  0.97200405567E+00  0.93800000000E+00 0. -1.
         22    1    1    2    0    0  0.68176043989E-01 -0.19650472786E+00  0.23468724341E+01  0.23560713705E+01  0.00000000000E+00 0.  1.
</event>
<event>
 5    1  0.3428566E+002  0.1599676E+01  0.7818608E-02  0.3353715E+00
         11   -1    0    0    0    0  0.00000000000E+00  0.00000000000E+00  0.39999999674E+01  0.40000000000E+01  0.51100000000E-03 0.  1.
    9000002   -1    0    0    0    0 -0.00000000000E+00 -0.00000000000E+00  0.00000000000E+00  0.93800000000E+00  0.93800000000E+00 0. -1.
         11    1    1    2    0    0 -0.15916104916E+00  0.36593589686E-01  0.15729596299E+01  0.15814150590E+01  0.51100000000E-03 0.  1.
    9000002    1    1    2    0    0  0.39643894312E+00 -0.92018123237E-01  0.11182377302E+00  0.10285814148E+01  0.93800000000E+00 0. -1.
         22    1    1    2    0    0 -0.23727789396E+00  0.55424533551E-01  0.23152165644E+01  0.23280035262E+01  0.00000000000E+00 0.  1.
</event>
<event>
 5    1  0.3428566E+002  0.1599677E+01  0.7818608E-02  0.3353715E+00
         11   -1    0    0    0    0  0.00000000000E+00  0.00000000000E+00  0.39999999674E+01  0.40000000000E+01  0.51100000000E-03 0.  1.
    9000002   -1    0    0    0    0 -0.00000000000E+00 -0.00000000000E+00  0.00000000000E+00  0.93800000000E+00  0.93800000000E+00 0.  1.
         11    1    1    2    0    0 -0.18006912162E-01 -0.30344989632E-01  0.37958252086E+00  0.38121938374E+00  0.51100000000E-03 0.  1.
    9000002    1    1    2    0    0  0.18341131761E+00  0.31113370161E+00  0.87574117590E-01  0.10089386095E+01  0.93800000000E+00 0.  1.
         22    1    1    2    0    0 -0.16540440545E+00 -0.28078871198E+00  0.35328433289E+01  0.35478420067E+01  0.00000000000E+00 0.  1.
</event>
<event>
 5    1  0.3428566E+002  0.1599663E+01  0.7818608E-02  0.3353729E+00
         11   -1    0    0    0    0  0.00000000000E+00  0.00000000000E+00  0.39999999674E+01  0.40000000000E+01  0.51100000000E-03 0.  1.
    9000002   -1    0    0    0    0 -0.00000000000E+00 -0.00000000000E+00  0.00000000000E+00  0.93800000000E+00  0.93800000000E+00 0. -1.
         11    1    1    2    0    0 -0.11229619046E+00 -0.21589160899E+00  0.19290778388E+01  0.19443665268E+01  0.51100000000E-03 0.  1.
    9000002    1    1    2    0    0  0.22759033918E+00  0.42198947579E+00  0.15684486227E+00  0.10650430935E+01  0.93800000000E+00 0. -1.
         22    1    1    2    0    0 -0.11529414872E+00 -0.20609786680E+00  0.19140772662E+01  0.19285903797E+01  0.00000000000E+00 0.  1.
</event>
<event>
 5    1  0.3428566E+002  0.1597072E+01  0.7818608E-02  0.3356548E+00
         11   -1    0    0    0    0  0.00000000000E+00  0.00000000000E+00  0.39999999674E+01  0.40000000000E+01  0.51100000000E-03 0.  1.
    9000002   -1    0    0    0    0 -0.00000000000E+00 -0.00000000000E+00  0.00000000000E+00  0.93800000000E+00  0.93800000000E+00 0. -1.
         11    1    1    2    0    0  0.12852571433E-01  0.15756777933E-01  0.34659966243E+00  0.34719598466E+00  0.51100000000E-03 0.  1.
    9000002    1    1    2    0    0  0.22710418987E+00 -0.47991783986E-01  0.37723120036E-01  0.96702976075E+00  0.93800000000E+00 0. -1.
         22    1    1    2    0    0 -0.23995676131E+00  0.32235006052E-01  0.36156771849E+01  0.36237742546E+01  0.00000000000E+00 0.  1.
</event>
<event>
 5    1  0.3428566E+002  0.1599333E+01  0.7818608E-02  0.3354088E+00
         11   -1    0    0    0    0  0.00000000000E+00  0.00000000000E+00  0.39999999674E+01  0.40000000000E+01  0.51100000000E-03 0. -1.
    9000002   -1    0    0    0    0 -0.00000000000E+00 -0.00000000000E+00  0.00000000000E+00  0.93800000000E+00  0.93800000000E+00 0. -1.
         11    1    1    2    0    0  0.26036013046E+00  0.10895273117E+00  0.22597760640E+01  0.22773331368E+01  0.51100000000E-03 0. -1.
    9000002    1    1    2    0    0 -0.45986182396E+00 -0.15212921453E+00  0.16050116138E+00  0.10678112276E+01  0.93800000000E+00 0. -1.
         22    1    1    2    0    0  0.19950169349E+00  0.43176483359E-01  0.15797227420E+01  0.15928556356E+01  0.00000000000E+00 0. -1.
</event>
<event>
 5    1  0.3428566E+002  0.1596010E+01  0.7818608E-02  0.3357706E+00
         11   -1    0    0    0    0  0.00000000000E+00  0.00000000000E+00  0.39999999674E+01  0.40000000000E+01  0.51100000000E-03 0. -1.
    9000002   -1    0    0    0    0 -0.00000000000E+00 -0.00000000000E+00  0.00000000000E+00  0.93800000000E+00  0.93800000000E+00 0. -1.
         11    1    1    2    0    0  0.32810628371E-01 -0.10099148231E-01  0.29863151796E+00  0.30059869389E+00  0.51100000000E-03 0. -1.
    9000002    1    1    2    0    0 -0.75717137410E-01 -0.22870384830E+00  0.41324941167E-01  0.96932465453E+00  0.93800000000E+00 0. -1.
         22    1    1    2    0    0  0.42906509039E-01  0.23880299653E+00  0.36600435082E+01  0.36680766516E+01  0.00000000000E+00 0. -1.
</event>
<event>
 5    1  0.3428566E+002  0.1590141E+01  0.7818608E-02  0.3364134E+00
         11   -1    0    0    0    0  0.00000000000E+00  0.00000000000E+00  0.39999999674E+01  0.40000000000E+01  0.51100000000E-03 0.  1.
    9000002   -1    0    0    0    0 -0.00000000000E+00 -0.00000000000E+00  0.00000000000E+00  0.93800000000E+00  0.93800000000E+00 0. -1.
         11    1    1    2    0    0  0.32464858203E-01  0.12554092909E-01  0.69808091001E-01  0.78006428947E-01  0.51100000000E-03 0.  1.
    9000002    1    1    2    0    0 -0.98828468143E-01 -0.21531044447E+00  0.44530114652E-01  0.96847952210E+00  0.93800000000E+00 0. -1.
         22    1    1    2    0    0  0.66363609941E-01  0.20275635156E+00  0.38856617617E+01  0.38915140490E+01  0.00000000000E+00 0.  1.
</event>
<event>
 5    1  0.3428566E+002  0.1599658E+01  0.7818608E-02  0.3353735E+00
         11   -1    0    0    0    0  0.00000000000E+00  0.00000000000E+00  0.39999999674E+01  0.40000000000E+01  0.51100000000E-03 0. -1.
    9000002   -1    0    0    0    0 -0.00000000000E+00 -0.00000000000E+00  0.00000000000E+00  0.93800000000E+00  0.93800000000E+00 0.  1.
         11    1    1    2    0    0  0.16269402153E-01  0.90858498690E-01  0.12638781657E+01  0.12672443486E+01  0.51100000000E-03 0. -1.
    9000002    1    1    2    0    0 -0.52115135243E-01 -0.29838659244E+00  0.61239424621E-01  0.98759547032E+00  0.93800000000E+00 0.  1.
         22    1    1    2    0    0  0.35845733091E-01  0.20752809375E+00  0.26748823771E+01  0.26831601811E+01  0.00000000000E+00 0. -1.
</event>
<event>
 5    1  0.3428566E+002  0.1478011E+01  0.7818608E-02  0.3497432E+00
         11   -1    0    0    0    0  0.00000000000E+00  0.00000000000E+00  0.39999999674E+01  0.40000000000E+01  0.51100000000E-03 0.  1.
    9000002   -1    0    0    0    0 -0.00000000000E+00 -0.00000000000E+00  0.00000000000E+00  0.93800000000E+00  0.93800000000E+00 0. -1.
         11    1    1    2    0    0 -0.37877065278E+00  0.23818756800E+00  0.11202385111E+01  0.12062898109E+01  0.51100000000E-03 0.  1.
    9000002    1    1    2    0    0  0.19580945300E+00 -0.93717727440E-01  0.12935622280E+00  0.97144294053E+00  0.93800000000E+00 0. -1.
         22    1    1    2    0    0  0.18296119978E+00 -0.14446984056E+00  0.27504052334E+01  0.27602672486E+01  0.00000000000E+00 0.  1.
</event>
<event>
 5    1  0.3428566E+002  0.1599663E+01  0.7818608E-02  0.3353729E+00
         11   -1    0    0    0    0  0.00000000000E+00  0.00000000000E+00  0.39999999674E+01  0.40000000000E+01  0.51100000000E-03 0. -1.
    9000002   -1    0    0    0    0 -0.00000000000E+00 -0.00000000000E+00  0.00000000000E+00  0.93800000000E+00  0.93800000000E+00 0. -1.
         11    1    1    2    0    0 -0.25953714117E-01 -0.12967675410E+00  0.15834888001E+01  0.15890017926E+01  0.51100000000E-03 0. -1.
    9000002    1    1    2    0    0  0.67390492540E-01  0.33178214440E+00  0.76770407888E-01  0.10001792666E+01  0.93800000000E+00 0. -1.
         22    1    1    2    0    0 -0.41436778423E-01 -0.20210539030E+00  0.23397407594E+01  0.23488189408E+01  0.00000000000E+00 0.  1.
</event>
<event>
 5    1  0.3428566E+002  0.1578035E+01  0.7818608E-02  0.3377554E+00
         11   -1    0    0    0    0  0.00000000000E+00  0.00000000000E+00  0.39999999674E+01  0.40000000000E+01  0.51100000000E-03 0. -1.
    9000002   -1    0    0    0    0 -0.00000000000E+00 -0.00000000000E+00  0.00000000000E+00  0.93800000000E+00  0.93800000000E+00 0. -1.
         11    1    1    2    0    0 -0.78811824014E-01 -0.88914196064E-01  0.18557703417E+01  0.18595700740E+01  0.51100000000E-03 0. -1.
    9000002    1    1    2    0    0 -0.70382167336E-01 -0.10276566752E+00  0.26281504198E-01  0.94659872669E+00  0.93800000000E+00 0. -1.
         22    1    1    2    0    0  0.14919399135E+00  0.19167986359E+00  0.21179481215E+01  0.21318311993E+01  0.00000000000E+00 0. -1.
</event>
<event>
 5    1  0.3428566E+002  0.1550300E+01  0.7818608E-02  0.3409138E+00
         11   -1    0    0    0    0  0.00000000000E+00  0.00000000000E+00  0.39999999674E+01  0.40000000000E+01  0.51100000000E-03 0.  1.
    9000002   -1    0    0    0    0 -0.00000000000E+00 -0.00000000000E+00  0.00000000000E+00  0.93800000000E+00  0.93800000000E+00 0.  1.
         11    1    1    2    0    0  0.15233909041E+00 -0.49686988298E-01  0.40254858929E+00  0.43326853467E+00  0.51100000000E-03 0.  1.
    9000002    1    1    2    0    0  0.86344667488E-01  0.17950304821E+00  0.64215523366E-01  0.96106419107E+00  0.93800000000E+00 0.  1.
         22    1    1    2    0    0 -0.23868375790E+00 -0.12981605991E+00  0.35332358547E+01  0.35436672743E+01  0.00000000000E+00 0.  1.
</event>
<event>
 5    1  0.3428566E+002  0.1599676E+01  0.7818608E-02  0.3353715E+00
         11   -1    0    0    0    0  0.00000000000E+00  0.00000000000E+00  0.39999999674E+01  0.40000000000E+01  0.51100000000E-03 0. -1.
    9000002   -1    0    0    0    0 -0.00000000000E+00 -0.00000000000E+00  0.00000000000E+00  0.93800000000E+00  0.93800000000E+00 0. -1.
         11    1    1    2    0    0 -0.13049112149E-01 -0.35756995366E-01  0.62235998642E+00  0.62352309970E+00  0.51100000000E-03 0. -1.
    9000002    1    1    2    0    0  0.86706162899E-01  0.22826474500E+00  0.39589835782E-01  0.97006912516E+00  0.93800000000E+00 0. -1.
         22    1    1    2    0    0 -0.73657050750E-01 -0.19250774963E+00  0.33380501452E+01  0.33444077751E+01  0.00000000000E+00 0. -1.
</event>
<event>
 5    1  0.3428566E+002  0.1599677E+01  0.7818608E-02  0.3353715E+00
         11   -1    0    0    0    0  0.00000000000E+00  0.00000000000E+00  0.39999999674E+01  0.40000000000E+01  0.51100000000E-03 0. -1.
    9000002   -1    0    0    0    0 -0.00000000000E+00 -0.00000000000E+00  0.00000000000E+00  0.93800000000E+00  0.93800000000E+00 0.  1.
         11    1    1    2    0    0 -0.44729053298E-01 -0.40587537431E-01  0.90779826509E+00  0.90980546692E+00  0.51100000000E-03 0. -1.
    9000002    1    1    2    0    0  0.19692595880E+00  0.17508982544E+00  0.46175287224E-01  0.97540373045E+00  0.93800000000E+00 0.  1.
         22    1    1    2    0    0 -0.15219690550E+00 -0.13450228801E+00  0.30460264150E+01  0.30527908026E+01  0.00000000000E+00 0. -1.
</event>
<event>
 5    1  0.3428566E+002  0.1518598E+01  0.7818608E-02  0.3446747E+00
         11   -1    0    0    0    0  0.00000000000E+00  0.00000000000E+00  0.39999999674E+01  0.40000000000E+01  0.51100000000E-03 0.  1.
    9000002   -1    0    0    0    0 -0.00000000000E+00 -0.00000000000E+00  0.00000000000E+00  0.93800000000E+00  0.93800000000E+00 0. -1.
         11    1    1    2    0    0  0.27769995415E+00  0.11233121047E+00  0.82395744138E+00  0.87672212913E+00  0.51100000000E-03 0.  1.
    9000002    1    1    2    0    0 -0.34426824779E+00  0.41013476824E+00  0.27734743605E+00  0.11151218565E+01  0.93800000000E+00 0. -1.
         22    1    1    2    0    0  0.66568293640E-01 -0.52246597871E+00  0.28986950899E+01  0.29461560144E+01  0.00000000000E+00 0.  1.
</event>
<event>
 5    1  0.3428566E+002  0.1599637E+01  0.7818608E-02  0.3353758E+00
         11   -1    0    0    0    0  0.00000000000E+00  0.00000000000E+00  0.39999999674E+01  0.40000000000E+01  0.51100000000E-03 0.  1.
    9000002   -1    0    0    0    0 -0.00000000000E+00 -0.00000000000E+00  0.00000000000E+00  0.93800000000E+00  0.93800000000E+00 0. -1.
         11    1    1    2    0    0  0.20164357289E+00  0.29976965209E-01  0.14114643041E+01  0.14261102663E+01  0.51100000000E-03 0.  1.
    9000002    1    1    2    0    0 -0.55205000096E+00 -0.96403607243E-01  0.21738909655E+00  0.11140713076E+01  0.93800000000E+00 0. -1.
         22    1    1    2    0    0  0.35040642807E+00  0.66426642034E-01  0.23711465668E+01  0.23978184261E+01  0.00000000000E+00 0.  1.
</event>
<event>
 5    1  0.3428566E+002  0.1583098E+01  0.7818608E-02  0.3371915E+00
         11   -1    0    0    0    0  0.00000000000E+00  0.00000000000E+00  0.39999999674E+01  0.40000000000E+01  0.51100000000E-03 0. -1.
    9000002   -1    0    0    0    0 -0.00000000000E+00 -0.00000000000E+00  0.00000000000E+00  0.93800000000E+00  0.93800000000E+00 0.  1.
         11    1    1    2    0    0  0.25581426017E+00  0.21027725172E+00  0.25363790623E+01  0.25579047025E+01  0.51100000000E-03 0. -1.
    9000002    1    1    2    0    0 -0.21590039986E+00 -0.45740381640E+00  0.19047071298E+00  0.10825683934E+01  0.93800000000E+00 0.  1.
         22    1    1    2    0    0 -0.39913860310E-01  0.24712656468E+00  0.12731501921E+01  0.12975269041E+01  0.00000000000E+00 0.  1.
</event>
<event>
 5    1  0.3428566E+002  0.1599666E+01  0.7818608E-02  0.3353726E+00
         11   -1    0    0    0    0  0.00000000000E+00  0.00000000000E+00  0.39999999674E+01  0.40000000000E+01  0.51100000000E-03 0.  1.
    9000002   -1    0    0    0    0 -0.00000000000E+00 -0.00000000000E+00  0.00000000000E+00  0.93800000000E+00  0.93800000000E+00 0. -1.
         11    1    1    2    0    0 -0.12501169896E-01 -0.57691787778E-02  0.27774593942E+00  0.27808745146E+00  0.51100000000E-03 0.  1.
    9000002    1    1    2    0    0  0.19802923465E+00  0.10290594004E+00  0.33029270045E-01  0.96474874602E+00  0.93800000000E+00 0. -1.
         22    1    1    2    0    0 -0.18552806475E+00 -0.97136761265E-01  0.36892247579E+01  0.36951638025E+01  0.00000000000E+00 0.  1.
</event>
<event>
 5    1  0.3428566E+002  0.1599676E+01  0.7818608E-02  0.3353715E+00
         11   -1    0    0    0    0  0.00000000000E+00  0.00000000000E+00  0.39999999674E+01  0.40000000000E+01  0.51100000000E-03 0. -1.
    9000002   -1    0    0    0    0 -0.00000000000E+00 -0.00000000000E+00  0.00000000000E+00  0.93800000000E+00  0.93800000000E+00 0.  1.
         11    1    1    2    0    0 -0.60969213365E-01 -0.94185241414E-01  0.11829697152E+01  0.11882784660E+01  0.51100000000E-03 0. -1.
    9000002    1    1    2    0    0  0.20305071557E+00  0.31479154914E+00  0.94355064221E-01  0.10144309689E+01  0.93800000000E+00 0.  1.
         22    1    1    2    0    0 -0.14208150220E+00 -0.22060630772E+00  0.27226751880E+01  0.27352905651E+01  0.00000000000E+00 0. -1.
</event>
<event>
 5    1  0.3428566E+002  0.1596594E+01  0.7818608E-02  0.3357069E+00
         11   -1    0    0    0    0  0.00000000000E+00  0.00000000000E+00  0.39999999674E+01  0.40000000000E+01  0.51100000000E-03 0. -1.
    9000002   -1    0    0    0    0 -0.00000000000E+00 -0.00000000000E+00  0.00000000000E+00  0.93800000000E+00  0.93800000000E+00 0. -1.
         11    1    1    2    0    0 -0.28298651711E+00 -0.29499627403E+00  0.16214652990E+01  0.16722003909E+01  0.51100000000E-03 0. -1.
    9000002    1    1    2    0    0  0.48186582908E+00  0.59915079570E+00  0.43488101738E+00  0.12884649209E+01  0.93800000000E+00 0. -1.
         22    1    1    2    0    0 -0.19887931196E+00 -0.30415452167E+00  0.19436536510E+01  0.19773346881E+01  0.00000000000E+00 0. -1.
</event>
<event>
 5    1  0.3428566E+002  0.1599674E+01  0.7818608E-02  0.3353718E+00
         11   -1    0    0    0    0  0.00000000000E+00  0.00000000000E+00  0.39999999674E+01  0.40000000000E+01  0.51100000000E-03 0.  1.
    9000002   -1    0    0    0    0 -0.00000000000E+00 -0.00000000000E+00  0.00000000000E+00  0.93800000000E+00  0.93800000000E+00 0. -1.
         11    1    1    2    0    0 -0.27422098071E-01 -0.27483767343E-01  0.45641066075E+00  0.45805925523E+00  0.51100000000E-03 0.  1.
    9000002    1    1    2    0    0  0.24105703964E+00  0.22573711145E+00  0.72978340128E-01  0.99711362340E+00  0.93800000000E+00 0. -1.
         22    1    1    2    0    0 -0.21363494157E+00 -0.19825334411E+00  0.34706109665E+01  0.34828271214E+01  0.00000000000E+00 0.  1.
</event>
<event>
 5    1  0.3428566E+002  0.1599676E+01  0.7818608E-02  0.3353715E+00
         11   -1    0    0    0    0  0.00000000000E+00  0.00000000000E+00  0.39999999674E+01  0.40000000000E+01  0.51100000000E-03 0.  1.
    9000002   -1    0    0    0    0 -0.00000000000E+00 -0.00000000000E+00  0.00000000000E+00  0.93800000000E+00  0.93800000000E+00 0.  1.
         11    1    1    2    0    0 -0.12889983898E-01 -0.50750561966E-02  0.24853083731E+00  0.24891714705E+00  0.51100000000E-03 0. -1.
    9000002    1    1    2    0    0  0.20507009776E+00  0.74036786478E-01  0.31506001448E-01  0.96352053371E+00  0.93800000000E+00 0.  1.
         22    1    1    2    0    0 -0.19218011387E+00 -0.68961730282E-01  0.37199631286E+01  0.37255623192E+01  0.00000000000E+00 0.  1.
</event>
<event>
 5    1  0.3428566E+002  0.1555303E+01  0.7818608E-02  0.3403353E+00
         11   -1    0    0    0    0  0.00000000000E+00  0.00000000000E+00  0.39999999674E+01  0.40000000000E+01  0.51100000000E-03 0. -1.
    9000002   -1    0    0    0    0 -0.00000000000E+00 -0.00000000000E+00  0.00000000000E+00  0.93800000000E+00  0.93800000000E+00 0. -1.
         11    1    1    2    0    0 -0.68985810259E-01 -0.10673293142E+00  0.45246948185E+00  0.46997856738E+00  0.51100000000E-03 0. -1.
    9000002    1    1    2    0    0  0.71673845642E-01 -0.38468587260E+00  0.14083063821E+00  0.10260592719E+01  0.93800000000E+00 0. -1.
         22    1    1    2    0    0 -0.26880353828E-02  0.49141880402E+00  0.34066998473E+01  0.34419621608E+01  0.00000000000E+00 0. -1.
</event>
<event>
 5    1  0.3428566E+002  0.1599658E+01  0.7818608E-02  0.3353734E+00
         11   -1    0    0    0    0  0.00000000000E+00  0.00000000000E+00  0.39999999674E+01  0.40000000000E+01  0.51100000000E-03 0.  1.
    9000002   -1    0    0    0    0 -0.00000000000E+00 -0.00000000000E+00  0.00000000000E+00  0.93800000000E+00  0.93800000000E+00 0.  1.
         11    1    1    2    0    0  0.43405457063E-01  0.51018476652E-01  0.82442187539E+00  0.82713880842E+00  0.51100000000E-03 0.  1.
    9000002    1    1    2    0    0 -0.21684354500E+00 -0.22570405118E+00  0.65448390192E-01  0.99100501185E+00  0.93800000000E+00 0.  1.
         22    1    1    2    0    0  0.17343808793E+00  0.17468557453E+00  0.31101297018E+01  0.31198561797E+01  0.00000000000E+00 0.  1.
</event>
<event>
 5    1  0.3428566E+002  0.1548854E+01  0.7818608E-02  0.3410817E+00
         11   -1    0    0    0    0  0.00000000000E+00  0.00000000000E+00  0.39999999674E+01  0.40000000000E+01  0.51100000000E-03 0.  1.
    9000002   -1    0    0    0    0 -0.00000000000E+00 -0.00000000000E+00  0.00000000000E+00  0.93800000000E+00  0.93800000000E+00 0.  1.
         11    1    1    2    0    0  0.22747866977E+00  0.29133279133E+00  0.19329850302E+01  0.19680072989E+01  0.51100000000E-03 0.  1.
    9000002    1    1    2    0    0 -0.27202729321E+00 -0.73228226067E-01  0.93367113663E-01  0.98383059480E+00  0.93800000000E+00 0.  1.
         22    1    1    2    0    0  0.44548623444E-01 -0.21810456526E+00  0.19736478235E+01  0.19861621063E+01  0.00000000000E+00 0.  1.
</event>
<event>
 5    1  0.3428566E+002  0.1586543E+01  0.7818608E-02  0.3368100E+00
         11   -1    0    0    0    0  0.00000000000E+00  0.00000000000E+00  0.39999999674E+01  0.40000000000E+01  0.51100000000E-03 0.  1.
    9000002   -1    0    0    0    0 -0.00000000000E+00 -0.00000000000E+00  0.00000000000E+00  0.93800000000E+00  0.93800000000E+00 0.  1.
         11    1    1    2    0    0  0.63986136332E-01 -0.10037052503E+00  0.23359613266E+01  0.23389921010E+01  0.51100000000E-03 0.  1.
    9000002    1    1    2    0    0 -0.26962829566E+00  0.70998524354E-02  0.58599479366E-01  0.97776670260E+00  0.93800000000E+00 0.  1.
         22    1    1    2    0    0  0.20564215932E+00  0.93270672598E-01  0.16054391614E+01  0.16212411964E+01  0.00000000000E+00 0.  1.
</event>
<event>
 5    1  0.3428566E+002  0.1599677E+01  0.7818608E-02  0.3353714E+00
         11   -1    0    0    0    0  0.00000000000E+00  0.00000000000E+00  0.39999999674E+01  0.40000000000E+01  0.51100000000E-03 0. -1.
    9000002   -1    0    0    0    0 -0.00000000000E+00 -0.00000000000E+00  0.00000000000E+00  0.93800000000E+00  0.93800000000E+00 0. -1.
         11    1    1    2    0    0 -0.10753175217E+00  0.17638123501E+00  0.14046485490E+01  0.14197574530E+01  0.51100000000E-03 0. -1.
    9000002    1    1    2    0    0  0.28947839174E+00 -0.47482783027E+00  0.21385544050E+00  0.11112323596E+01  0.93800000000E+00 0. -1.
         22    1    1    2    0    0 -0.18194663957E+00  0.29844659526E+00  0.23814959778E+01  0.24070101874E+01  0.00000000000E+00 0.  1.
</event>
<event>
 5    1  0.3428566E+002  0.1556453E+01  0.7818608E-02  0.3402028E+00
         11   -1    0    0    0    0  0.00000000000E+00  0.00000000000E+00  0.39999999674E+01  0.40000000000E+01  0.51100000000E-03 0. -1.
    9000002   -1    0    0    0    0 -0.00000000000E+00 -0.00000000000E+00  0.00000000000E+00  0.93800000000E+00  0.93800000000E+00 0. -1.
         11    1    1    2    0    0  0.13083772917E+00  0.30248089779E-01  0.74550482975E+00  0.75750324792E+00  0.51100000000E-03 0. -1.
    9000002    1    1    2    0    0  0.32293368709E+00  0.53490893675E-01  0.10684397972E+00  0.99920322156E+00  0.93800000000E+00 0. -1.
         22    1    1    2    0    0 -0.45377141626E+00 -0.83738983454E-01  0.31476511579E+01  0.31812935305E+01  0.00000000000E+00 0.  1.
</event>
<event>
 5    1  0.3428566E+002  0.1502746E+01  0.7818608E-02  0.3466191E+00
         11   -1    0    0    0    0  0.00000000000E+00  0.00000000000E+00  0.39999999674E+01  0.40000000000E+01  0.51100000000E-03 0.  1.
    9000002   -1    0    0    0    0 -0.00000000000E+00 -0.00000000000E+00  0.00000000000E+00  0.93800000000E+00  0.93800000000E+00 0. -1.
         11    1    1    2    0    0  0.14906396259E+00  0.10697065063E-01  0.34595364940E+01  0.34627629874E+01  0.51100000000E-03 0.  1.
    9000002    1    1    2    0    0  0.95313957050E-01  0.82621732080E-01  0.85327446722E-01  0.95028199719E+00  0.93800000000E+00 0. -1.
         22    1    1    2    0    0 -0.24437791964E+00 -0.93318797142E-01  0.45513602664E+00  0.52495501546E+00  0.00000000000E+00 0.  1.
</event>
<event>
 5    1  0.3428566E+002  0.1598604E+01  0.7818608E-02  0.3354880E+00
         11   -1    0    0    0    0  0.00000000000E+00  0.00000000000E+00  0.39999999674E+01  0.40000000000E+01  0.51100000000E-03 0.  1.
    9000002   -1    0    0    0    0 -0.00000000000E+00 -0.00000000000E+00  0.00000000000E+00  0.93800000000E+00  0.93800000000E+00 0.  1.
         11    1    1    2    0    0  0.11657502085E-01 -0.20614179536E-01  0.73071890032E-01  0.76815388997E-01  0.51100000000E-03 0.  1.
    9000002    1    1    2    0    0 -0.33392774855E+00  0.53801561104E+00  0.28293588510E+00  0.11665612946E+01  0.93800000000E+00 0.  1.
         22    1    1    2    0    0  0.32227024647E+00 -0.51740143151E+00  0.36439921922E+01  0.36946233164E+01  0.00000000000E+00 0.  1.
</event>
<event>
 5    1  0.3428566E+002  0.1599663E+01  0.7818608E-02  0.3353729E+00
         11   -1    0    0    0    0  0.00000000000E+00  0.00000000000E+00  0.39999999674E+01  0.40000000000E+01  0.51100000000E-03 0. -1.
    9000002   -1    0    0    0    0 -0.00000000000E+00 -0.00000000000E+00  0.00000000000E+00  0.93800000000E+00  0.93800000000E+00 0. -1.
         11    1    1    2    0    0 -0.19013832326E+00  0.23461241053E-01  0.18127172161E+01  0.18228129302E+01  0.51100000000E-03 0. -1.
    9000002    1    1    2    0    0  0.40940062291E+00 -0.40993700669E-01  0.11437111343E+00  0.10306377177E+01  0.93800000000E+00 0. -1.
         22    1    1    2    0    0 -0.21926229965E+00  0.17532459616E-01  0.20729116379E+01  0.20845493521E+01  0.00000000000E+00 0. -1.
</event>
<event>
 5    1  0.3428566E+002  0.1590486E+01  0.7818608E-02  0.3363755E+00
         11   -1    0    0    0    0  0.00000000000E+00  0.00000000000E+00  0.39999999674E+01  0.40000000000E+01  0.51100000000E-03 0.  1.
    9000002   -1    0    0    0    0 -0.00000000000E+00 -0.00000000000E+00  0.00000000000E+00  0.93800000000E+00  0.93800000000E+00 0. -1.
         11    1    1    2    0    0 -0.40686871376E-01 -0.11532376237E-02  0.17528948906E+00  0.17995393176E+00  0.51100000000E-03 0.  1.
    9000002    1    1    2    0    0 -0.14301922949E+00  0.20053308071E+00  0.47335434741E-01  0.97095450967E+00  0.93800000000E+00 0. -1.
         22    1    1    2    0    0  0.18370610086E+00 -0.19937984309E+00  0.37773750436E+01  0.37870915586E+01  0.00000000000E+00 0.  1.
</event>
<event>
 5    1  0.3428566E+002  0.1599676E+01  0.7818608E-02  0.3353715E+00
         11   -1    0    0    0    0  0.00000000000E+00  0.00000000000E+00  0.39999999674E+01  0.40000000000E+01  0.51100000000E-03 0.  1.
    9000002   -1    0    0    0    0 -0.00000000000E+00 -0.00000000000E+00  0.00000000000E+00  0.93800000000E+00  0.93800000000E+00 0.  1.
         11    1    1    2    0    0  0.16601786691E+00 -0.19712211972E+00  0.19615121424E+01  0.19783703415E+01  0.51100000000E-03 0.  1.
    9000002    1    1    2    0    0 -0.32225781355E+00  0.38627010522E+00  0.17331994699E+00  0.10783962614E+01  0.93800000000E+00 0.  1.
         22    1    1    2    0    0  0.15623994664E+00 -0.18914798550E+00  0.18651678779E+01  0.18812333971E+01  0.00000000000E+00 0.  1.
</event>
<event>
 5    1  0.3428566E+002  0.1565626E+01  0.7818608E-02  0.3391538E+00
         11   -1    0    0    0    0  0.00000000000E+00  0.00000000000E+00  0.39999999674E+01  0.40000000000E+01  0.51100000000E-03 0.  1.
    9000002   -1    0    0    0    0 -0.00000000000E+00 -0.00000000000E+00  0.00000000000E+00  0.93800000000E+00  0.93800000000E+00 0.  1.
         11    1    1    2    0    0  0.70197544589E-01  0.14439356784E+00  0.94631439407E+00  0.95983769005E+00  0.51100000000E-03 0.  1.
    9000002    1    1    2    0    0 -0.17290072156E+00  0.18014491801E+00  0.67902040325E-01  0.97303727476E+00  0.93800000000E+00 0.  1.
         22    1    1    2    0    0  0.10270317697E+00 -0.32453848585E+00  0.29857835330E+01  0.30051250352E+01  0.00000000000E+00 0.  1.
</event>
<event>
 5    1  0.3428566E+002  0.1599573E+01  0.7818608E-02  0.3353827E+00
         11   -1    0    0    0    0  0.00000000000E+00  0.00000000000E+00  0.39999999674E+01  0.40000000000E+01  0.51100000000E-03 0. -1.
    9000002   -1    0    0    0    0 -0.00000000000E+00 -0.00000000000E+00  0.00000000000E+00  0.93800000000E+00  0.93800000000E+00 0. -1.
         11    1    1    2    0    0  0.52861606673E-01 -0.77146128528E-01  0.80779925329E+00  0.81319479176E+00  0.51100000000E-03 0. -1.
    9000002    1    1    2    0    0 -0.22902350235E+00  0.40948572375E+00  0.15003470718E+00  0.10594738014E+01  0.93800000000E+00 0. -1.
         22    1    1    2    0    0  0.17616189568E+00 -0.33233959522E+00  0.30421660069E+01  0.30653314068E+01  0.00000000000E+00 0. -1.
</event>
<event>
 5    1  0.3428566E+002  0.1597648E+01  0.7818608E-02  0.3355921E+00
         11   -1    0    0    0    0  0.00000000000E+00  0.00000000000E+00  0.39999999674E+01  0.40000000000E+01  0.51100000000E-03 0. -1.
    9000002   -1    0    0    0    0 -0.00000000000E+00 -0.00000000000E+00  0.00000000000E+00  0.93800000000E+00  0.93800000000E+00 0.  1.
         11    1    1    2    0    0 -0.48458944342E-01  0.29768741577E+00  0.17160876546E+01  0.17423900730E+01  0.51100000000E-03 0. -1.
    9000002    1    1    2    0    0  0.56097784301E-01 -0.54815718484E+00  0.21167321055E+00  0.11082746991E+01  0.93800000000E+00 0.  1.
         22    1    1    2    0    0 -0.76388399589E-02  0.25046976907E+00  0.20722391022E+01  0.20873352279E+01  0.00000000000E+00 0.  1.
</event>
<event>
 5    1  0.3428566E+002  0.1579896E+01  0.7818608E-02  0.3375476E+00
         11   -1    0    0    0    0  0.00000000000E+00  0.00000000000E+00  0.39999999674E+01  0.40000000000E+01  0.51100000000E-03 0. -1.
    9000002   -1    0    0    0    0 -0.00000000000E+00 -0.00000000000E+00  0.00000000000E+00  0.93800000000E+00  0.93800000000E+00 0. -1.
         11    1    1    2    0    0 -0.11408351405E+00 -0.31467921838E-01  0.24702599613E+01  0.24730931676E+01  0.51100000000E-03 0. -1.
    9000002    1    1    2    0    0 -0.21365233452E-01 -0.11650216744E+00  0.23886494711E-01  0.94575038612E+00  0.93800000000E+00 0. -1.
         22    1    1    2    0    0  0.13544874751E+00  0.14797008927E+00  0.15058535114E+01  0.15191564463E+01  0.00000000000E+00 0. -1.
</event>
<event>
 5    1  0.3428566E+002  0.1599531E+01  0.7818608E-02  0.3353872E+00
         11   -1    0    0    0    0  0.00000000000E+00  0.00000000000E+00  0.39999999674E+01  0.40000000000E+01  0.51100000000E-03 0.  1.
    9000002   -1    0    0    0    0 -0.00000000000E+00 -0.00000000000E+00  0.00000000000E+00  0.93800000000E+00  0.93800000000E+00 0. -1.
         11    1    1    2    0    0 -0.17962921258E-01 -0.12272966461E-01  0.16958992393E+00  0.17098039555E+00  0.51100000000E-03 0.  1.
    9000002    1    1    2    0    0  0.30442291306E+00  0.36554569985E+00  0.15443012086E+00  0.10630097040E+01  0.93800000000E+00 0. -1.
         22    1    1    2    0    0 -0.28645999180E+00 -0.35327273339E+00  0.36759799226E+01  0.37040099004E+01  0.00000000000E+00 0.  1.
</event>
<event>
 5    1  0.3428566E+002  0.1597889E+01  0.7818608E-02  0.3355657E+00
         11   -1    0    0    0    0  0.00000000000E+00  0.00000000000E+00  0.39999999674E+01  0.40000000000E+01  0.51100000000E-03 0.  1.
    9000002   -1    0    0    0    0 -0.00000000000E+00 -0.00000000000E+00  0.00000000000E+00  0.93800000000E+00  0.93800000000E+00 0. -1.
         11    1    1    2    0    0  0.65505019358E-01  0.86976995092E-01  0.73167735561E+00  0.73973503302E+00  0.51100000000E-03 0.  1.
    9000002    1    1    2    0    0 -0.25346106704E+00 -0.27387519929E+00  0.95078275352E-01  0.10139694353E+01  0.93800000000E+00 0. -1.
         22    1    1    2    0    0  0.18795604768E+00  0.18689820419E+00  0.31732443364E+01  0.31842955317E+01  0.00000000000E+00 0.  1.
</event>
<event>
 5    1  0.3428566E+002  0.1581585E+01  0.7818608E-02  0.3373596E+00
         11   -1    0    0    0    0  0.00000000000E+00  0.00000000000E+00  0.39999999674E+01  0.40000000000E+01  0.51100000000E-03 0. -1.
    9000002   -1    0    0    0    0 -0.00000000000E+00 -0.00000000000E+00  0.00000000000E+00  0.93800000000E+00  0.93800000000E+00 0.  1.
         11    1    1    2    0    0 -0.81028404781E-01 -0.15093827789E-01  0.19844833348E+00  0.21488468582E+00  0.51100000000E-03 0. -1.
    9000002    1    1    2    0    0  0.24703940446E+00 -0.16997295913E+00  0.74281819082E-01  0.98756319435E+00  0.93800000000E+00 0.  1.
         22    1    1    2    0    0 -0.16601099968E+00  0.18506678692E+00  0.37272698148E+01  0.37355521198E+01  0.00000000000E+00 0. -1.
</event>
<event>
 5    1  0.3428566E+002  0.1594796E+01  0.7818608E-02  0.3359031E+00
         11   -1    0    0    0    0  0.00000000000E+00  0.00000000000E+00  0.39999999674E+01  0.40000000000E+01  0.51100000000E-03 0.  1.
    9000002   -1    0    0    0    0 -0.00000000000E+00 -0.00000000000E+00  0.00000000000E+00  0.93800000000E+00  0.93800000000E+00 0. -1.
         11    1    1    2    0    0 -0.17344106296E-02  0.28953068338E-01  0.26498709289E+00  0.26657027003E+00  0.51100000000E-03 0.  1.
    9000002    1    1    2    0    0  0.12383915187E+00  0.18749998917E+00  0.37180585663E-01  0.96525580932E+00  0.93800000000E+00 0. -1.
         22    1    1    2    0    0 -0.12210474125E+00 -0.21645305751E+00  0.36978322888E+01  0.37061739206E+01  0.00000000000E+00 0.  1.
</event>
<event>
 5    1  0.3428566E+002  0.1599674E+01  0.7818608E-02  0.3353717E+00
         11   -1    0    0    0    0  0.00000000000E+00  0.00000000000E+00  0.39999999674E+01  0.40000000000E+01  0.51100000000E-03 0.  1.
    9000002   -1    0    0    0    0 -0.00000000000E+00 -0.00000000000E+00  0.00000000000E+00  0.93800000000E+00  0.93800000000E+00 0.  1.
         11    1    1    2    0    0 -0.39763260333E-02  0.45084797896E-02  0.10195175134E+00  0.10213010467E+00  0.51100000000E-03 0. -1.
    9000002    1    1    2    0    0  0.13740158858E+00 -0.17885403698E+00  0.33733408053E-01  0.96532373114E+00  0.93800000000E+00 0.  1.
         22    1    1    2    0    0 -0.13342526255E+00  0.17434555719E+00  0.38643148080E+01  0.38705461642E+01  0.00000000000E+00 0.  1.
</event>
<event>
 5    1  0.3428566E+002  0.1599671E+01  0.7818608E-02  0.3353721E+00
         11   -1    0    0    0    0  0.00000000000E+00  0.00000000000E+00  0.39999999674E+01  0.40000000000E+01  0.51100000000E-03 0.  1.
    9000002   -1    0    0    0    0 -0.00000000000E+00 -0.00000000000E+00  0.00000000000E+00  0.93800000000E+00  0.93800000000E+00 0. -1.
         11    1    1    2    0    0  0.11089450037E-01  0.85205035667E-02  0.12907962579E+00  0.12983599577E+00  0.51100000000E-03 0.  1.
    9000002    1    1    2    0    0 -0.30526236067E+00 -0.25184381508E+00  0.10558481557E+00  0.10235245817E+01  0.93800000000E+00 0. -1.
         22    1    1    2    0    0  0.29417291063E+00  0.24332331151E+00  0.37653355260E+01  0.37846394225E+01  0.00000000000E+00 0.  1.
</event>
<event>
 5    1  0.3428566E+002  0.1547382E+01  0.7818608E-02  0.3412531E+00
         11   -1    0    0    0    0  0.00000000000E+00  0.00000000000E+00  0.39999999674E+01  0.40000000000E+01  0.51100000000E-03 0.  1.
    9000002   -1    0    0    0    0 -0.00000000000E+00 -0.00000000000E+00  0.00000000000E+00  0.93800000000E+00  0.93800000000E+00 0.  1.
         11    1    1    2    0    0 -0.12003584314E+00 -0.13339931721E+00  0.39967579595E+00  0.43811526389E+00  0.51100000000E-03 0.  1.
    9000002    1    1    2    0    0 -0.94732109996E-01  0.23118396294E+00  0.82552584259E-01  0.97420692184E+00  0.93800000000E+00 0.  1.
         22    1    1    2    0    0  0.21476795314E+00 -0.97784645734E-01  0.35177715872E+01  0.35256778143E+01  0.00000000000E+00 0.  1.
</event>
<event>
 5    1  0.3428566E+002  0.1594640E+01  0.7818608E-02  0.3359201E+00
         11   -1    0    0    0    0  0.00000000000E+00  0.00000000000E+00  0.39999999674E+01  0.40000000000E+01  0.51100000000E-03 0. -1.
    9000002   -1    0    0    0    0 -0.00000000000E+00 -0.00000000000E+00  0.00000000000E+00  0.93800000000E+00  0.93800000000E+00 0.  1.
         11    1    1    2    0    0 -0.13589623642E-02  0.18655829081E+00  0.11777854863E+01  0.11924700229E+01  0.51100000000E-03 0. -1.
    9000002    1    1    2    0    0  0.20204588589E+00 -0.44323992309E+00  0.16658830542E+00  0.10699905761E+01  0.93800000000E+00 0.  1.
         22    1    1    2    0    0 -0.20068692352E+00  0.25668163228E+00  0.26556261757E+01  0.26755394010E+01  0.00000000000E+00 0. -1.
</event>
<event>
 5    1  0.3428566E+002  0.1599674E+01  0.7818608E-02  0.3353717E+00
         11   -1    0    0    0    0  0.00000000000E+00  0.00000000000E+00  0.39999999674E+01  0.40000000000E+01  0.51100000000E-03 0. -1.
    9000002   -1    0    0    0    0 -0.00000000000E+00 -0.00000000000E+00  0.00000000000E+00  0.93800000000E+00  0.93800000000E+00 0. -1.
         11    1    1    2    0    0  0.20798926905E-01 -0.62716386429E-01  0.90620096210E+00  0.90860683759E+00  0.51100000000E-03 0. -1.
    9000002    1    1    2    0    0 -0.87527958599E-01  0.26668965189E+00  0.52469079837E-01  0.98050064676E+00  0.93800000000E+00 0. -1.
         22    1    1    2    0    0  0.66729031694E-01 -0.20397326546E+00  0.30413299254E+01  0.30488925156E+01  0.00000000000E+00 0. -1.
</event>
<event>
 5    1  0.3428566E+002  0.1599674E+01  0.7818608E-02  0.3353717E+00
         11   -1    0    0    0    0  0.00000000000E+00  0.00000000000E+00  0.39999999674E+01  0.40000000000E+01  0.51100000000E-03 0. -1.
    9000002   -1    0    0    0    0 -0.00000000000E+00 -0.00000000000E+00  0.00000000000E+00  0.93800000000E+00  0.93800000000E+00 0.  1.
         11    1    1    2    0    0  0.82691981695E-01 -0.16518327397E-03  0.11197417330E+01  0.11227910762E+01  0.51100000000E-03 0. -1.
    9000002    1    1    2    0    0 -0.28562143196E+00  0.29759034726E-02  0.54359887086E-01  0.98203230890E+00  0.93800000000E+00 0.  1.
         22    1    1    2    0    0  0.20292945026E+00 -0.28107201986E-02  0.28258983473E+01  0.28331766149E+01  0.00000000000E+00 0. -1.
</event>
<event>
 5    1  0.3428566E+002  0.1587852E+01  0.7818608E-02  0.3366655E+00
         11   -1    0    0    0    0  0.00000000000E+00  0.00000000000E+00  0.39999999674E+01  0.40000000000E+01  0.51100000000E-03 0.  1.
    9000002   -1    0    0    0    0 -0.00000000000E+00 -0.00000000000E+00  0.00000000000E+00  0.93800000000E+00  0.93800000000E+00 0.  1.
         11    1    1    2    0    0  0.12543388893E+00 -0.13283168294E+00  0.13665810279E+01  0.13787392369E+01  0.51100000000E-03 0.  1.
    9000002    1    1    2    0    0 -0.33515568832E+00  0.23811901243E-01  0.85086514698E-01  0.99999002847E+00  0.93800000000E+00 0.  1.
         22    1    1    2    0    0  0.20972179939E+00  0.10901978170E+00  0.25483324248E+01  0.25592707346E+01  0.00000000000E+00 0. -1.
</event>
<event>
 5    1  0.3428566E+002  0.1598774E+01  0.7818608E-02  0.3354695E+00
         11   -1    0    0    0    0  0.00000000000E+00  0.00000000000E+00  0.39999999674E+01  0.40000000000E+01  0.51100000000E-03 0. -1.
    9000002   -1    0    0    0    0 -0.00000000000E+00 -0.00000000000E+00  0.00000000000E+00  0.93800000000E+00  0.93800000000E+00 0.  1.
         11    1    1    2    0    0  0.11482893648E+00 -0.19029092161E+00  0.19969524281E+01  0.20092823547E+01  0.51100000000E-03 0. -1.
    9000002    1    1    2    0    0 -0.15813967710E+00  0.39632425022E+00  0.12402166512E+00  0.10379337369E+01  0.93800000000E+00 0.  1.
         22    1    1    2    0    0  0.43310740618E-01 -0.20603332860E+00  0.18790258741E+01  0.18907839084E+01  0.00000000000E+00 0.  1.
</event>
<event>
 5    1  0.3428566E+002  0.1599675E+01  0.7818608E-02  0.3353717E+00
         11   -1    0    0    0    0  0.00000000000E+00  0.00000000000E+00  0.39999999674E+01  0.40000000000E+01  0.51100000000E-03 0.  1.
    9000002   -1    0    0    0    0 -0.00000000000E+00 -0.00000000000E+00  0.00000000000E+00  0.93800000000E+00  0.93800000000E+00 0. -1.
         11    1    1    2    0    0 -0.43682835256E-01  0.46551706785E-01  0.86744303711E+00  0.86978901767E+00  0.51100000000E-03 0.  1.
    9000002    1    1    2    0    0  0.19271135498E+00 -0.20857681153E+00  0.53721149751E-01  0.98151511174E+00  0.93800000000E+00 0. -1.
         22    1    1    2    0    0 -0.14902851972E+00  0.16202510475E+00  0.30788357805E+01  0.30866958706E+01  0.00000000000E+00 0.  1.
</event>
<event>
 5    1  0.3428566E+002  0.1587509E+01  0.7818608E-02  0.3367033E+00
         11   -1    0    0    0    0  0.00000000000E+00  0.00000000000E+00  0.39999999674E+01  0.40000000000E+01  0.51100000000E-03 0. -1.
    9000002   -1    0    0    0    0 -0.00000000000E+00 -0.00000000000E+00  0.00000000000E+00  0.93800000000E+00  0.93800000000E+00 0.  1.
         11    1    1    2    0    0  0.11615997671E+00  0.14858520737E+00  0.91222271200E+00  0.93151556157E+00  0.51100000000E-03 0. -1.
    9000002    1    1    2    0    0 -0.34754797779E+00 -0.17396563182E+00  0.11185701216E+00  0.10214742430E+01  0.93800000000E+00 0.  1.
         22    1    1    2    0    0  0.23138800108E+00  0.25380424445E-01  0.29759202432E+01  0.29850101954E+01  0.00000000000E+00 0. -1.
</event>
<event>
 5    1  0.3428566E+002  0.1599674E+01  0.7818608E-02  0.3353717E+00
         11   -1    0    0    0    0  0.00000000000E+00  0.00000000000E+00  0.39999999674E+01  0.40000000000E+01  0.51100000000E-03 0. -1.
    9000002   -1    0    0    0    0 -0.00000000000E+00 -0.00000000000E+00  0.00000000000E+00  0.93800000000E+00  0.93800000000E+00 0. -1.
         11    1    1    2    0    0  0.19821385493E+00  0.17203469801E+00  0.15148262678E+01  0.15373950541E+01  0.51100000000E-03 0. -1.
    9000002    1    1    2    0    0 -0.48093438849E+00 -0.42280316961E+00  0.28870037877E+00  0.11718584876E+01  0.93800000000E+00 0. -1.
         22    1    1    2    0    0  0.28272053356E+00  0.25076847161E+00  0.21964733208E+01  0.22287464583E+01  0.00000000000E+00 0. -1.
</event>
<event>
 5    1  0.3428566E+002  0.1462488E+01  0.7818608E-02  0.3517620E+00
         11   -1    0    0    0    0  0.00000000000E+00  0.00000000000E+00  0.39999999674E+01  0.40000000000E+01  0.51100000000E-03 0.  1.
    9000002   -1    0    0    0    0 -0.00000000000E+00 -0.00000000000E+00  0.00000000000E+00  0.93800000000E+00  0.93800000000E+00 0.  1.
         11    1    1    2    0    0  0.32164332347E+00 -0.68236776834E+00  0.21133499264E+01  0.22439537364E+01  0.51100000000E-03 0.  1.
    9000002    1    1    2    0    0 -0.60740422464E+00  0.40876537605E+00  0.57026807427E+00  0.13194994131E+01  0.93800000000E+00 0.  1.
         22    1    1    2    0    0  0.28576090117E+00  0.27360239229E+00  0.13163819667E+01  0.13745468504E+01  0.00000000000E+00 0.  1.
</event>
<event>
 5    1  0.3428566E+002  0.1599674E+01  0.7818608E-02  0.3353717E+00
         11   -1    0    0    0    0  0.00000000000E+00  0.00000000000E+00  0.39999999674E+01  0.40000000000E+01  0.51100000000E-03 0. -1.
    9000002   -1    0    0    0    0 -0.00000000000E+00 -0.00000000000E+00  0.00000000000E+00  0.93800000000E+00  0.93800000000E+00 0. -1.
         11    1    1    2    0    0 -0.83852987582E-01  0.60128342140E+00  0.25631253942E+01  0.26340434932E+01  0.51100000000E-03 0. -1.
    9000002    1    1    2    0    0  0.11298501114E+00 -0.81760575140E+00  0.50629151097E+00  0.13481171579E+01  0.93800000000E+00 0. -1.
         22    1    1    2    0    0 -0.29132023555E-01  0.21632233000E+00  0.93058306218E+00  0.95583934888E+00  0.00000000000E+00 0. -1.
</event>
<event>
 5    1  0.3428566E+002  0.1599325E+01  0.7818608E-02  0.3354096E+00
         11   -1    0    0    0    0  0.00000000000E+00  0.00000000000E+00  0.39999999674E+01  0.40000000000E+01  0.51100000000E-03 0.  1.
    9000002   -1    0    0    0    0 -0.00000000000E+00 -0.00000000000E+00  0.00000000000E+00  0.93800000000E+00  0.93800000000E+00 0. -1.
         11    1    1    2    0    0  0.37137330192E-01  0.69788241782E-02  0.40358769475E+00  0.40535314697E+00  0.51100000000E-03 0.  1.
    9000002    1    1    2    0    0 -0.23668124552E+00 -0.11099803726E+00  0.45707782718E-01  0.97481884351E+00  0.93800000000E+00 0. -1.
         22    1    1    2    0    0  0.19954391533E+00  0.10401921308E+00  0.35507044899E+01  0.35578280095E+01  0.00000000000E+00 0.  1.
</event>
<event>
 5    1  0.3428566E+002  0.1599670E+01  0.7818608E-02  0.3353722E+00
         11   -1    0    0    0    0  0.00000000000E+00  0.00000000000E+00  0.39999999674E+01  0.40000000000E+01  0.51100000000E-03 0.  1.
    9000002   -1    0    0    0    0 -0.00000000000E+00 -0.00000000000E+00  0.00000000000E+00  0.93800000000E+00  0.93800000000E+00 0.  1.
         11    1    1    2    0    0 -0.16099038615E+00 -0.12605276807E+00  0.18182390882E+01  0.18296996606E+01  0.51100000000E-03 0.  1.
    9000002    1    1    2    0    0  0.34259407856E+00  0.27522414951E+00  0.13096876676E+00  0.10440861329E+01  0.93800000000E+00 0.  1.
         22    1    1    2    0    0 -0.18160369241E+00 -0.14917138144E+00  0.20507921124E+01  0.20642142065E+01  0.00000000000E+00 0.  1.
</event>
<event>
 5    1  0.3428566E+002  0.1599480E+01  0.7818608E-02  0.3353928E+00
         11   -1    0    0    0    0  0.00000000000E+00  0.00000000000E+00  0.39999999674E+01  0.40000000000E+01  0.51100000000E-03 0. -1.
    9000002   -1    0    0    0    0 -0.00000000000E+00 -0.00000000000E+00  0.00000000000E+00  0.93800000000E+00  0.93800000000E+00 0.  1.
         11    1    1    2    0    0 -0.25291339042E+00 -0.10209581247E+00  0.20035360183E+01  0.20220152263E+01  0.51100000000E-03 0. -1.
    9000002    1    1    2    0    0  0.46069758517E+00  0.17274377591E+00  0.16567566614E+00  0.10720891304E+01  0.93800000000E+00 0.  1.
         22    1    1    2    0    0 -0.20778419475E+00 -0.70647963433E-01  0.18307882830E+01  0.18438956433E+01  0.00000000000E+00 0.  1.
</event>
<event>
 5    1  0.3428566E+002  0.1599676E+01  0.7818608E-02  0.3353715E+00
         11   -1    0    0    0    0  0.00000000000E+00  0.00000000000E+00  0.39999999674E+01  0.40000000000E+01  0.51100000000E-03 0.  1.
    9000002   -1    0    0    0    0 -0.00000000000E+00 -0.00000000000E+00  0.00000000000E+00  0.93800000000E+00  0.93800000000E+00 0. -1.
         11    1    1    2    0    0 -0.21833198673E-01  0.75098662068E-01  0.73083896697E+00  0.73501180560E+00  0.51100000000E-03 0.  1.
    9000002    1    1    2    0    0  0.11878631071E+00 -0.40055117222E+00  0.11801508280E+00  0.10335971115E+01  0.93800000000E+00 0. -1.
         22    1    1    2    0    0 -0.96953112036E-01  0.32545251015E+00  0.31511459176E+01  0.31693910829E+01  0.00000000000E+00 0.  1.
</event>
<event>
 5    1  0.3428566E+002  0.1599670E+01  0.7818608E-02  0.3353722E+00
         11   -1    0    0    0    0  0.00000000000E+00  0.00000000000E+00  0.39999999674E+01  0.40000000000E+01  0.51100000000E-03 0. -1.
    9000002   -1    0    0    0    0 -0.00000000000E+00 -0.00000000000E+00  0.00000000000E+00  0.93800000000E+00  0.93800000000E+00 0.  1.
         11    1    1    2    0    0  0.27724775230E+00 -0.23861626568E+00  0.23223890599E+01  0.23510200435E+01  0.51100000000E-03 0. -1.
    9000002    1    1    2    0    0 -0.45059320988E+00  0.39003259081E+00  0.24758849962E+00  0.11385533487E+01  0.93800000000E+00 0.  1.
         22    1    1    2    0    0  0.17334545758E+00 -0.15141632514E+00  0.14300224079E+01  0.14484266078E+01  0.00000000000E+00 0. -1.
</event>
<event>
 5    1  0.3428566E+002  0.1599199E+01  0.7818608E-02  0.3354233E+00
         11   -1    0    0    0    0  0.00000000000E+00  0.00000000000E+00  0.39999999674E+01  0.40000000000E+01  0.51100000000E-03 0. -1.
    9000002   -1    0    0    0    0 -0.00000000000E+00 -0.00000000000E+00  0.00000000000E+00  0.93800000000E+00  0.93800000000E+00 0.  1.
         11    1    1    2    0    0  0.95193930903E-02  0.16334243163E-01  0.26716530881E+00  0.26783388452E+00  0.51100000000E-03 0. -1.
    9000002    1    1    2    0    0 -0.20906800409E+00 -0.58997276784E-01  0.31635124170E-01  0.96334567528E+00  0.93800000000E+00 0.  1.
         22    1    1    2    0    0  0.19954861099E+00  0.42663033621E-01  0.37011995344E+01  0.37068204402E+01  0.00000000000E+00 0. -1.
</event>
<event>
 5    1  0.3428566E+002  0.1599673E+01  0.7818608E-02  0.3353718E+00
         11   -1    0    0    0    0  0.00000000000E+00  0.00000000000E+00  0.39999999674E+01  0.40000000000E+01  0.51100000000E-03 0. -1.
    9000002   -1    0    0    0    0 -0.00000000000E+00 -0.00000000000E+00  0.00000000000E+00  0.93800000000E+00  0.93800000000E+00 0. -1.
         11    1    1    2    0    0 -0.43092140950E-01  0.73240754842E-01  0.10470263492E+01  0.10504692179E+01  0.51100000000E-03 0. -1.
    9000002    1    1    2    0    0  0.16406481713E+00 -0.26776857808E+00  0.65879942536E-01  0.99136342602E+00  0.93800000000E+00 0. -1.
         22    1    1    2    0    0 -0.12097267618E+00  0.19452782324E+00  0.28870936757E+01  0.28961673561E+01  0.00000000000E+00 0. -1.
</event>
<event>
 5    1  0.3428566E+002  0.1599675E+01  0.7818608E-02  0.3353716E+00
         11   -1    0    0    0    0  0.00000000000E+00  0.00000000000E+00  0.39999999674E+01  0.40000000000E+01  0.51100000000E-03 0.  1.
    9000002   -1    0    0    0    0 -0.00000000000E+00 -0.00000000000E+00  0.00000000000E+00  0.93800000000E+00  0.93800000000E+00 0.  1.
         11    1    1    2    0    0 -0.72165711528E-02  0.85702396816E-01  0.55271164959E+00  0.55936339569E+00  0.51100000000E-03 0.  1.
    9000002    1    1    2    0    0  0.41796649327E-01 -0.58251275641E+00  0.23716770499E+00  0.11301153001E+01  0.93800000000E+00 0.  1.
         22    1    1    2    0    0 -0.34580078174E-01  0.49681035960E+00  0.32101206128E+01  0.32485213042E+01  0.00000000000E+00 0.  1.
</event>
<event>
 5    1  0.3428566E+002  0.1599529E+01  0.7818608E-02  0.3353875E+00
         11   -1    0    0    0    0  0.00000000000E+00  0.00000000000E+00  0.39999999674E+01  0.40000000000E+01  0.51100000000E-03 0. -1.
    9000002   -1    0    0    0    0 -0.00000000000E+00 -0.00000000000E+00  0.00000000000E+00  0.93800000000E+00  0.93800000000E+00 0.  1.
         11    1    1    2    0    0 -0.28499986643E+00  0.13973533737E+00  0.20454697718E+01  0.20699511436E+01  0.51100000000E-03 0. -1.
    9000002    1    1    2    0    0  0.50464453783E+00 -0.24285902551E+00  0.21719575505E+00  0.11138512521E+01  0.93800000000E+00 0.  1.
         22    1    1    2    0    0 -0.21964467139E+00  0.10312368814E+00  0.17373344405E+01  0.17541976043E+01  0.00000000000E+00 0. -1.
</event>
<event>
 5    1  0.3428566E+002  0.1599645E+01  0.7818608E-02  0.3353749E+00
         11   -1    0    0    0    0  0.00000000000E+00  0.00000000000E+00  0.39999999674E+01  0.40000000000E+01  0.51100000000E-03 0.  1.
    9000002   -1    0    0    0    0 -0.00000000000E+00 -0.00000000000E+00  0.00000000000E+00  0.93800000000E+00  0.93800000000E+00 0.  1.
         11    1    1    2    0    0 -0.67494576730E-01  0.28374817581E-01  0.84804884306E+00  0.85120370623E+00  0.51100000000E-03 0.  1.
    9000002    1    1    2    0    0  0.29527278567E+00 -0.15088469775E+00  0.73604636513E-01  0.99760405597E+00  0.93800000000E+00 0.  1.
         22    1    1    2    0    0 -0.22777820894E+00  0.12250988017E+00  0.30783464878E+01  0.30891922378E+01  0.00000000000E+00 0.  1.
</event>
<event>
 5    1  0.3428566E+002  0.1599640E+01  0.7818608E-02  0.3353755E+00
         11   -1    0    0    0    0  0.00000000000E+00  0.00000000000E+00  0.39999999674E+01  0.40000000000E+01  0.51100000000E-03 0.  1.
    9000002   -1    0    0    0    0 -0.00000000000E+00 -0.00000000000E+00  0.00000000000E+00  0.93800000000E+00  0.93800000000E+00 0.  1.
         11    1    1    2    0    0 -0.76058803405E-01  0.65214084510E-01  0.89106797128E+00  0.89668289209E+00  0.51100000000E-03 0.  1.
    9000002    1    1    2    0    0  0.31567536699E+00 -0.30574315484E+00  0.13100196355E+00  0.10440954595E+01  0.93800000000E+00 0.  1.
         22    1    1    2    0    0 -0.23961656359E+00  0.24052907033E+00  0.29779300325E+01  0.29972216484E+01  0.00000000000E+00 0.  1.
</event>
<event>
 5    1  0.3428566E+002  0.1591106E+01  0.7818608E-02  0.3363073E+00
         11   -1    0    0    0    0  0.00000000000E+00  0.00000000000E+00  0.39999999674E+01  0.40000000000E+01  0.51100000000E-03 0.  1.
    9000002   -1    0    0    0    0 -0.00000000000E+00 -0.00000000000E+00  0.00000000000E+00  0.93800000000E+00  0.93800000000E+00 0. -1.
         11    1    1    2    0    0  0.12890467365E-01 -0.24598498146E+00  0.22312279403E+01  0.22447835436E+01  0.51100000000E-03 0.  1.
    9000002    1    1    2    0    0 -0.21169624800E+00  0.42431454552E+00  0.16087264691E+00  0.10632883633E+01  0.93800000000E+00 0. -1.
         22    1    1    2    0    0  0.19880578064E+00 -0.17832956406E+00  0.16078993802E+01  0.16299280931E+01  0.00000000000E+00 0.  1.
</event>
<event>
 5    1  0.3428566E+002  0.1595224E+01  0.7818608E-02  0.3358564E+00
         11   -1    0    0    0    0  0.00000000000E+00  0.00000000000E+00  0.39999999674E+01  0.40000000000E+01  0.51100000000E-03 0. -1.
    9000002   -1    0    0    0    0 -0.00000000000E+00 -0.00000000000E+00  0.00000000000E+00  0.93800000000E+00  0.93800000000E+00 0.  1.
         11    1    1    2    0    0  0.26547581299E-01  0.18515980655E-01  0.10059620646E+01  0.10064827629E+01  0.51100000000E-03 0. -1.
    9000002    1    1    2    0    0 -0.37587818636E+00 -0.70613576426E-01  0.10211610588E+00  0.10181072572E+01  0.93800000000E+00 0.  1.
         22    1    1    2    0    0  0.34933060506E+00  0.52097595772E-01  0.28919217969E+01  0.29134099798E+01  0.00000000000E+00 0. -1.
</event>
<event>
 5    1  0.3428566E+002  0.1599662E+01  0.7818608E-02  0.3353730E+00
         11   -1    0    0    0    0  0.00000000000E+00  0.00000000000E+00  0.39999999674E+01  0.40000000000E+01  0.51100000000E-03 0.  1.
    9000002   -1    0    0    0    0 -0.00000000000E+00 -0.00000000000E+00  0.00000000000E+00  0.93800000000E+00  0.93800000000E+00 0. -1.
         11    1    1    2    0    0 -0.37153227689E-01 -0.63500773141E-01  0.47892004325E+00  0.48453831579E+00  0.51100000000E-03 0.  1.
    9000002    1    1    2    0    0  0.27117430396E+00  0.49105907964E+00  0.21781906077E+00  0.11144342359E+01  0.93800000000E+00 0. -1.
         22    1    1    2    0    0 -0.23402107627E+00 -0.42755830650E+00  0.33032608633E+01  0.33390274484E+01  0.00000000000E+00 0.  1.
</event>
<event>
 5    1  0.3428566E+002  0.1599677E+01  0.7818608E-02  0.3353714E+00
         11   -1    0    0    0    0  0.00000000000E+00  0.00000000000E+00  0.39999999674E+01  0.40000000000E+01  0.51100000000E-03 0. -1.
    9000002   -1    0    0    0    0 -0.00000000000E+00 -0.00000000000E+00  0.00000000000E+00  0.93800000000E+00  0.93800000000E+00 0.  1.
         11    1    1    2    0    0  0.41376070741E-01 -0.12855747173E-01  0.65197034208E+00  0.65340862983E+00  0.51100000000E-03 0. -1.
    9000002    1    1    2    0    0 -0.24933098901E+00  0.79525791647E-01  0.45539493087E-01  0.97488878291E+00  0.93800000000E+00 0.  1.
         22    1    1    2    0    0  0.20795491827E+00 -0.66670044474E-01  0.33024901322E+01  0.33097025873E+01  0.00000000000E+00 0. -1.
</event>
<event>
 5    1  0.3428566E+002  0.1574975E+01  0.7818608E-02  0.3380980E+00
         11   -1    0    0    0    0  0.00000000000E+00  0.00000000000E+00  0.39999999674E+01  0.40000000000E+01  0.51100000000E-03 0.  1.
    9000002   -1    0    0    0    0 -0.00000000000E+00 -0.00000000000E+00  0.00000000000E+00  0.93800000000E+00  0.93800000000E+00 0.  1.
         11    1    1    2    0    0  0.68383660503E-01 -0.13948643467E-02  0.27566218360E+01  0.27574703042E+01  0.51100000000E-03 0.  1.
    9000002    1    1    2    0    0  0.24399159238E-01  0.21975651488E+00  0.51301456704E-01  0.96507206169E+00  0.93800000000E+00 0.  1.
         22    1    1    2    0    0 -0.92782819741E-01 -0.21836165053E+00  0.11920766746E+01  0.12154576341E+01  0.00000000000E+00 0. -1.
</event>
<event>
 5    1  0.3428566E+002  0.1599218E+01  0.7818608E-02  0.3354213E+00
         11   -1    0    0    0    0  0.00000000000E+00  0.00000000000E+00  0.39999999674E+01  0.40000000000E+01  0.51100000000E-03 0.  1.
    9000002   -1    0    0    0    0 -0.00000000000E+00 -0.00000000000E+00  0.00000000000E+00  0.93800000000E+00  0.93800000000E+00 0. -1.
         11    1    1    2    0    0 -0.14137088972E-01 -0.63366334527E-03  0.18449562505E+00  0.18503825441E+00  0.51100000000E-03 0.  1.
    9000002    1    1    2    0    0  0.45443615013E+00  0.17822231198E+00  0.16320275200E+00  0.10699320284E+01  0.93800000000E+00 0. -1.
         22    1    1    2    0    0 -0.44029906116E+00 -0.17758864864E+00  0.36523015903E+01  0.36830297172E+01  0.00000000000E+00 0.  1.
</event>
<event>
 5    1  0.3428566E+002  0.1530618E+01  0.7818608E-02  0.3432292E+00
         11   -1    0    0    0    0  0.00000000000E+00  0.00000000000E+00  0.39999999674E+01  0.40000000000E+01  0.51100000000E-03 0.  1.
    9000002   -1    0    0    0    0 -0.00000000000E+00 -0.00000000000E+00  0.00000000000E+00  0.93800000000E+00  0.93800000000E+00 0.  1.
         11    1    1    2    0    0 -0.27646717375E+00  0.12080700327E+00  0.24606776414E+01  0.24791053117E+01  0.51100000000E-03 0.  1.
    9000002    1    1    2    0    0 -0.36962016528E-01 -0.88853134725E-01  0.58290632506E-01  0.94472369932E+00  0.93800000000E+00 0.  1.
         22    1    1    2    0    0  0.31342919028E+00 -0.31953868544E-01  0.14810316934E+01  0.15141709890E+01  0.00000000000E+00 0.  1.
</event>
<event>
 5    1  0.3428566E+002  0.1598403E+01  0.7818608E-02  0.3355098E+00
         11   -1    0    0    0    0  0.00000000000E+00  0.00000000000E+00  0.39999999674E+01  0.40000000000E+01  0.51100000000E-03 0.  1.
    9000002   -1    0    0    0    0 -0.00000000000E+00 -0.00000000000E+00  0.00000000000E+00  0.93800000000E+00  0.93800000000E+00 0. -1.
         11    1    1    2    0    0  0.23524759120E-01 -0.13544553937E+00  0.11517728438E+01  0.11599482115E+01  0.51100000000E-03 0.  1.
    9000002    1    1    2    0    0 -0.34774832246E-01  0.33545109892E+00  0.77174935745E-01  0.99976832288E+00  0.93800000000E+00 0. -1.
         22    1    1    2    0    0  0.11250073126E-01 -0.20000555955E+00  0.27710521878E+01  0.27782834656E+01  0.00000000000E+00 0.  1.
</event>
<event>
 5    1  0.3428566E+002  0.1599676E+01  0.7818608E-02  0.3353715E+00
         11   -1    0    0    0    0  0.00000000000E+00  0.00000000000E+00  0.39999999674E+01  0.40000000000E+01  0.51100000000E-03 0. -1.
    9000002   -1    0    0    0    0 -0.00000000000E+00 -0.00000000000E+00  0.00000000000E+00  0.93800000000E+00  0.93800000000E+00 0.  1.
         11    1    1    2    0    0 -0.15380102043E+00 -0.14533085721E+00  0.16418918098E+01  0.16554711680E+01  0.51100000000E-03 0. -1.
    9000002    1    1    2    0    0  0.36030160293E+00  0.33753365561E+00  0.16668366828E+00  0.10730208102E+01  0.93800000000E+00 0.  1.
         22    1    1    2    0    0 -0.20650058250E+00 -0.19220279840E+00  0.21914244893E+01  0.22095080219E+01  0.00000000000E+00 0. -1.
</event>
<event>
 5    1  0.3428566E+002  0.1594522E+01  0.7818608E-02  0.3359330E+00
         11   -1    0    0    0    0  0.00000000000E+00  0.00000000000E+00  0.39999999674E+01  0.40000000000E+01  0.51100000000E-03 0.  1.
    9000002   -1    0    0    0    0 -0.00000000000E+00 -0.00000000000E+00  0.00000000000E+00  0.93800000000E+00  0.93800000000E+00 0.  1.
         11    1    1    2    0    0 -0.13847055156E+00  0.81958384073E-01  0.19861434534E+01  0.19926508347E+01  0.51100000000E-03 0.  1.
    9000002    1    1    2    0    0  0.43014024349E+00 -0.10854028538E+00  0.13798278805E+00  0.10467496704E+01  0.93800000000E+00 0.  1.
         22    1    1    2    0    0 -0.29166969193E+00  0.26581901306E-01  0.18758737259E+01  0.18985994950E+01  0.00000000000E+00 0. -1.
</event>
<event>
 5    1  0.3428566E+002  0.1597528E+01  0.7818608E-02  0.3356051E+00
         11   -1    0    0    0    0  0.00000000000E+00  0.00000000000E+00  0.39999999674E+01  0.40000000000E+01  0.51100000000E-03 0. -1.
    9000002   -1    0    0    0    0 -0.00000000000E+00 -0.00000000000E+00  0.00000000000E+00  0.93800000000E+00  0.93800000000E+00 0.  1.
         11    1    1    2    0    0  0.14214794283E-02 -0.26236210514E-01  0.13029581332E+00  0.13291959764E+00  0.51100000000E-03 0. -1.
    9000002    1    1    2    0    0  0.18087139052E+00  0.22953863571E+00  0.58609742520E-01  0.98421620954E+00  0.93800000000E+00 0.  1.
         22    1    1    2    0    0 -0.18229286995E+00 -0.20330242520E+00  0.38110944115E+01  0.38208641928E+01  0.00000000000E+00 0. -1.
</event>
<event>
 5    1  0.3428566E+002  0.1599662E+01  0.7818608E-02  0.3353731E+00
         11   -1    0    0    0    0  0.00000000000E+00  0.00000000000E+00  0.39999999674E+01  0.40000000000E+01  0.51100000000E-03 0. -1.
    9000002   -1    0    0    0    0 -0.00000000000E+00 -0.00000000000E+00  0.00000000000E+00  0.93800000000E+00  0.93800000000E+00 0.  1.
         11    1    1    2    0    0 -0.16175259263E-01  0.12168728436E-01  0.32892311753E+00  0.32954574088E+00  0.51100000000E-03 0. -1.
    9000002    1    1    2    0    0  0.22401823061E+00 -0.13694002130E+00  0.45851110243E-01  0.97513233019E+00  0.93800000000E+00 0.  1.
         22    1    1    2    0    0 -0.20784297135E+00  0.12477129287E+00  0.36252257396E+01  0.36333219289E+01  0.00000000000E+00 0. -1.
</event>
<event>
 5    1  0.3428566E+002  0.1596935E+01  0.7818608E-02  0.3356697E+00
         11   -1    0    0    0    0  0.00000000000E+00  0.00000000000E+00  0.39999999674E+01  0.40000000000E+01  0.51100000000E-03 0. -1.
    9000002   -1    0    0    0    0 -0.00000000000E+00 -0.00000000000E+00  0.00000000000E+00  0.93800000000E+00  0.93800000000E+00 0. -1.
         11    1    1    2    0    0  0.46719490368E-01 -0.94140500701E-02  0.35381277926E+00  0.35700851392E+00  0.51100000000E-03 0. -1.
    9000002    1    1    2    0    0 -0.19344514663E+00 -0.12677658486E+00  0.37568326519E-01  0.96682403072E+00  0.93800000000E+00 0. -1.
         22    1    1    2    0    0  0.14672565626E+00  0.13619063493E+00  0.36086188616E+01  0.36141674554E+01  0.00000000000E+00 0. -1.
</event>
<event>
 5    1  0.3428566E+002  0.1599075E+01  0.7818608E-02  0.3354368E+00
         11   -1    0    0    0    0  0.00000000000E+00  0.00000000000E+00  0.39999999674E+01  0.40000000000E+01  0.51100000000E-03 0.  1.
    9000002   -1    0    0    0    0 -0.00000000000E+00 -0.00000000000E+00  0.00000000000E+00  0.93800000000E+00  0.93800000000E+00 0.  1.
         11    1    1    2    0    0  0.17640336112E+00 -0.10411932248E+00  0.15377973595E+01  0.15513800176E+01  0.51100000000E-03 0.  1.
    9000002    1    1    2    0    0 -0.37405179851E+00  0.23866384420E+00  0.13410936541E+00  0.10462812721E+01  0.93800000000E+00 0.  1.
         22    1    1    2    0    0  0.19764843739E+00 -0.13454452172E+00  0.23280932425E+01  0.23403387103E+01  0.00000000000E+00 0.  1.
</event>
<event>
 5    1  0.3428566E+002  0.1598413E+01  0.7818608E-02  0.3355088E+00
         11   -1    0    0    0    0  0.00000000000E+00  0.00000000000E+00  0.39999999674E+01  0.40000000000E+01  0.51100000000E-03 0. -1.
    9000002   -1    0    0    0    0 -0.00000000000E+00 -0.00000000000E+00  0.00000000000E+00  0.93800000000E+00  0.93800000000E+00 0. -1.
         11    1    1    2    0    0 -0.78773298187E-01 -0.26193587218E-01  0.16106507479E+01  0.16127887119E+01  0.51100000000E-03 0. -1.
    9000002    1    1    2    0    0  0.27467703480E+00  0.12645595193E+00  0.62004793034E-01  0.98748527867E+00  0.93800000000E+00 0. -1.
         22    1    1    2    0    0 -0.19590373661E+00 -0.10026236471E+00  0.23273444264E+01  0.23377260094E+01  0.00000000000E+00 0.  1.
</event>
<event>
 5    1  0.3428566E+002  0.1564224E+01  0.7818608E-02  0.3393133E+00
         11   -1    0    0    0    0  0.00000000000E+00  0.00000000000E+00  0.39999999674E+01  0.40000000000E+01  0.51100000000E-03 0.  1.
    9000002   -1    0    0    0    0 -0.00000000000E+00 -0.00000000000E+00  0.00000000000E+00  0.93800000000E+00  0.93800000000E+00 0.  1.
         11    1    1    2    0    0 -0.12041042550E+00 -0.78394195086E-01  0.38043488195E+00  0.40666359674E+00  0.51100000000E-03 0.  1.
    9000002    1    1    2    0    0  0.31375859300E+00 -0.25402516489E+00  0.14017611026E+00  0.10307601957E+01  0.93800000000E+00 0.  1.
         22    1    1    2    0    0 -0.19334816750E+00  0.33241935998E+00  0.34793889751E+01  0.35005762076E+01  0.00000000000E+00 0.  1.
</event>
<event>
 5    1  0.3428566E+002  0.1599468E+01  0.7818608E-02  0.3353942E+00
         11   -1    0    0    0    0  0.00000000000E+00  0.00000000000E+00  0.39999999674E+01  0.40000000000E+01  0.51100000000E-03 0. -1.
    9000002   -1    0    0    0    0 -0.00000000000E+00 -0.00000000000E+00  0.00000000000E+00  0.93800000000E+00  0.93800000000E+00 0. -1.
         11    1    1    2    0    0 -0.10265686038E+00 -0.19088217277E-01  0.12345378801E+01  0.12389458542E+01  0.51100000000E-03 0. -1.
    9000002    1    1    2    0    0  0.34598738741E+00  0.10749311094E+00  0.88304384759E-01  0.10094076013E+01  0.93800000000E+00 0. -1.
         22    1    1    2    0    0 -0.24333052703E+00 -0.88404893667E-01  0.26771577025E+01  0.26896465446E+01  0.00000000000E+00 0. -1.
</event>
<event>
 5    1  0.3428566E+002  0.1596136E+01  0.7818608E-02  0.3357568E+00
         11   -1    0    0    0    0  0.00000000000E+00  0.00000000000E+00  0.39999999674E+01  0.40000000000E+01  0.51100000000E-03 0.  1.
    9000002   -1    0    0    0    0 -0.00000000000E+00 -0.00000000000E+00  0.00000000000E+00  0.93800000000E+00  0.93800000000E+00 0.  1.
         11    1    1    2    0    0 -0.61689032073E-01 -0.27763815640E-02  0.33099781790E+00  0.33670916464E+00  0.51100000000E-03 0.  1.
    9000002    1    1    2    0    0  0.25971612736E+00  0.50227759136E-01  0.49265741811E-01  0.97583113699E+00  0.93800000000E+00 0.  1.
         22    1    1    2    0    0 -0.19802709529E+00 -0.47451377572E-01  0.36197364076E+01  0.36254596984E+01  0.00000000000E+00 0.  1.
</event>
<event>
 5    1  0.3428566E+002  0.1599588E+01  0.7818608E-02  0.3353811E+00
         11   -1    0    0    0    0  0.00000000000E+00  0.00000000000E+00  0.39999999674E+01  0.40000000000E+01  0.51100000000E-03 0. -1.
    9000002   -1    0    0    0    0 -0.00000000000E+00 -0.00000000000E+00  0.00000000000E+00  0.93800000000E+00  0.93800000000E+00 0.  1.
         11    1    1    2    0    0 -0.13859186510E+00 -0.13923799217E+00  0.17032396167E+01  0.17145321159E+01  0.51100000000E-03 0. -1.
    9000002    1    1    2    0    0  0.30517869741E+00  0.29344142590E+00  0.12135340505E+00  0.10362492734E+01  0.93800000000E+00 0.  1.
         22    1    1    2    0    0 -0.16658683230E+00 -0.15420343373E+00  0.21754069456E+01  0.21872186106E+01  0.00000000000E+00 0. -1.
</event>
<event>
 5    1  0.3428566E+002  0.1599676E+01  0.7818608E-02  0.3353715E+00
         11   -1    0    0    0    0  0.00000000000E+00  0.00000000000E+00  0.39999999674E+01  0.40000000000E+01  0.51100000000E-03 0. -1.
    9000002   -1    0    0    0    0 -0.00000000000E+00 -0.00000000000E+00  0.00000000000E+00  0.93800000000E+00  0.93800000000E+00 0. -1.
         11    1    1    2    0    0 -0.16108657092E-01  0.30051560238E-01  0.50169481111E+00  0.50285239357E+00  0.51100000000E-03 0. -1.
    9000002    1    1    2    0    0  0.13042133176E+00 -0.23770015326E+00  0.48915767266E-01  0.97762356709E+00  0.93800000000E+00 0. -1.
         22    1    1    2    0    0 -0.11431267467E+00  0.20764859302E+00  0.34493893890E+01  0.34575240393E+01  0.00000000000E+00 0. -1.
</event>
<event>
 5    1  0.3428566E+002  0.1599270E+01  0.7818608E-02  0.3354156E+00
         11   -1    0    0    0    0  0.00000000000E+00  0.00000000000E+00  0.39999999674E+01  0.40000000000E+01  0.51100000000E-03 0. -1.
    9000002   -1    0    0    0    0 -0.00000000000E+00 -0.00000000000E+00  0.00000000000E+00  0.93800000000E+00  0.93800000000E+00 0. -1.
         11    1    1    2    0    0  0.32831811801E-01 -0.86550534324E-02  0.29131714425E+00  0.29328957954E+00  0.51100000000E-03 0. -1.
    9000002    1    1    2    0    0 -0.27173963536E+00  0.11813754540E+00  0.58869797538E-01  0.98544840663E+00  0.93800000000E+00 0. -1.
         22    1    1    2    0    0  0.23890782356E+00 -0.10948249196E+00  0.36498130256E+01  0.36592620138E+01  0.00000000000E+00 0. -1.
</event>
<event>
 5    1  0.3428566E+002  0.1599669E+01  0.7818608E-02  0.3353722E+00
         11   -1    0    0    0    0  0.00000000000E+00  0.00000000000E+00  0.39999999674E+01  0.40000000000E+01  0.51100000000E-03 0. -1.
    9000002   -1    0    0    0    0 -0.00000000000E+00 -0.00000000000E+00  0.00000000000E+00  0.93800000000E+00  0.93800000000E+00 0.  1.
         11    1    1    2    0    0 -0.89557000259E-01 -0.27249997864E-01  0.11128919453E+01  0.11168221710E+01  0.51100000000E-03 0. -1.
    9000002    1    1    2    0    0  0.30584798434E+00  0.95700631920E-01  0.68654997551E-01  0.99360913299E+00  0.93800000000E+00 0.  1.
         22    1    1    2    0    0 -0.21629098408E+00 -0.68450634056E-01  0.28184530245E+01  0.28275686960E+01  0.00000000000E+00 0. -1.
</event>
<event>
 5    1  0.3428566E+002  0.1599673E+01  0.7818608E-02  0.3353718E+00
         11   -1    0    0    0    0  0.00000000000E+00  0.00000000000E+00  0.39999999674E+01  0.40000000000E+01  0.51100000000E-03 0. -1.
    9000002   -1    0    0    0    0 -0.00000000000E+00 -0.00000000000E+00  0.00000000000E+00  0.93800000000E+00  0.93800000000E+00 0. -1.
         11    1    1    2    0    0 -0.17697151471E-01  0.23722324594E-01  0.42491102804E+00  0.42594081833E+00  0.51100000000E-03 0. -1.
    9000002    1    1    2    0    0  0.16770161392E+00 -0.23255997938E+00  0.54778649683E-01  0.98237094612E+00  0.93800000000E+00 0. -1.
         22    1    1    2    0    0 -0.15000446245E+00  0.20883765479E+00  0.35203102896E+01  0.35296882355E+01  0.00000000000E+00 0. -1.
</event>
<event>
 5    1  0.3428566E+002  0.1599676E+01  0.7818608E-02  0.3353715E+00
         11   -1    0    0    0    0  0.00000000000E+00  0.00000000000E+00  0.39999999674E+01  0.40000000000E+01  0.51100000000E-03 0. -1.
    9000002   -1    0    0    0    0 -0.00000000000E+00 -0.00000000000E+00  0.00000000000E+00  0.93800000000E+00  0.93800000000E+00 0.  1.
         11    1    1    2    0    0  0.12306091169E-01  0.42220224917E-01  0.55675053303E+00  0.55848491871E+00  0.51100000000E-03 0. -1.
    9000002    1    1    2    0    0 -0.81644513555E-01 -0.29878742789E+00  0.64062449502E-01  0.98989279778E+00  0.93800000000E+00 0.  1.
         22    1    1    2    0    0  0.69338422386E-01  0.25656720298E+00  0.33791869848E+01  0.33896222835E+01  0.00000000000E+00 0. -1.
</event>
<event>
 5    1  0.3428566E+002  0.1599653E+01  0.7818608E-02  0.3353740E+00
         11   -1    0    0    0    0  0.00000000000E+00  0.00000000000E+00  0.39999999674E+01  0.40000000000E+01  0.51100000000E-03 0. -1.
    9000002   -1    0    0    0    0 -0.00000000000E+00 -0.00000000000E+00  0.00000000000E+00  0.93800000000E+00  0.93800000000E+00 0.  1.
         11    1    1    2    0    0 -0.11764636415E+00 -0.13705871149E+00  0.18015141404E+01  0.18105466624E+01  0.51100000000E-03 0. -1.
    9000002    1    1    2    0    0  0.26103721774E+00  0.28571474724E+00  0.10087949486E+00  0.10197029069E+01  0.93800000000E+00 0.  1.
         22    1    1    2    0    0 -0.14339085359E+00 -0.14865603576E+00  0.20976063321E+01  0.21077504307E+01  0.00000000000E+00 0.  1.
</event>
<event>
 5    1  0.3428566E+002  0.1596207E+01  0.7818608E-02  0.3357490E+00
         11   -1    0    0    0    0  0.00000000000E+00  0.00000000000E+00  0.39999999674E+01  0.40000000000E+01  0.51100000000E-03 0.  1.
    9000002   -1    0    0    0    0 -0.00000000000E+00 -0.00000000000E+00  0.00000000000E+00  0.93800000000E+00  0.93800000000E+00 0. -1.
         11    1    1    2    0    0  0.48243610499E-02 -0.25057205624E-01  0.13742012588E+01  0.13744382485E+01  0.51100000000E-03 0.  1.
    9000002    1    1    2    0    0 -0.12567933526E+00  0.23108815290E+00  0.48685954657E-01  0.97540317403E+00  0.93800000000E+00 0. -1.
         22    1    1    2    0    0  0.12085497421E+00 -0.20603094728E+00  0.25771127539E+01  0.25881585775E+01  0.00000000000E+00 0.  1.
</event>
<event>
 5    1  0.3428566E+002  0.1599677E+01  0.7818608E-02  0.3353714E+00
         11   -1    0    0    0    0  0.00000000000E+00  0.00000000000E+00  0.39999999674E+01  0.40000000000E+01  0.51100000000E-03 0.  1.
    9000002   -1    0    0    0    0 -0.00000000000E+00 -0.00000000000E+00  0.00000000000E+00  0.93800000000E+00  0.93800000000E+00 0.  1.
         11    1    1    2    0    0 -0.16446580062E-01  0.13743674470E+00  0.13688944304E+01  0.13758748385E+01  0.51100000000E-03 0.  1.
    9000002    1    1    2    0    0  0.44864487669E-01 -0.39093357306E+00  0.10435795284E+00  0.10225343335E+01  0.93800000000E+00 0.  1.
         22    1    1    2    0    0 -0.28417907608E-01  0.25349682836E+00  0.25267475842E+01  0.25395908280E+01  0.00000000000E+00 0.  1.
</event>
<event>
 5    1  0.3428566E+002  0.1599662E+01  0.7818608E-02  0.3353730E+00
         11   -1    0    0    0    0  0.00000000000E+00  0.00000000000E+00  0.39999999674E+01  0.40000000000E+01  0.51100000000E-03 0. -1.
    9000002   -1    0    0    0    0 -0.00000000000E+00 -0.00000000000E+00  0.00000000000E+00  0.93800000000E+00  0.93800000000E+00 0. -1.
         11    1    1    2    0    0  0.41994991179E-02  0.35069108540E-02  0.91505475856E-01  0.91670319348E-01  0.51100000000E-03 0. -1.
    9000002    1    1    2    0    0 -0.13080102788E+00 -0.17488364731E+00  0.31621679010E-01  0.96360631462E+00  0.93800000000E+00 0. -1.
         22    1    1    2    0    0  0.12660152876E+00  0.17137673646E+00  0.38768728125E+01  0.38827233660E+01  0.00000000000E+00 0. -1.
</event>
<event>
 5    1  0.3428566E+002  0.1592385E+01  0.7818608E-02  0.3361671E+00
         11   -1    0    0    0    0  0.00000000000E+00  0.00000000000E+00  0.39999999674E+01  0.40000000000E+01  0.51100000000E-03 0.  1.
    9000002   -1    0    0    0    0 -0.00000000000E+00 -0.00000000000E+00  0.00000000000E+00  0.93800000000E+00  0.93800000000E+00 0. -1.
         11    1    1    2    0    0 -0.54128412096E-01 -0.48352192269E-01  0.32643135435E+00  0.33440321428E+00  0.51100000000E-03 0.  1.
    9000002    1    1    2    0    0  0.45551980084E+00 -0.82671708898E-01  0.15224677207E+00  0.10570506043E+01  0.93800000000E+00 0. -1.
         22    1    1    2    0    0 -0.40139138875E+00  0.13102390117E+00  0.35213218409E+01  0.35465461814E+01  0.00000000000E+00 0.  1.
</event>
<event>
 5    1  0.3428566E+002  0.1589723E+01  0.7818608E-02  0.3364594E+00
         11   -1    0    0    0    0  0.00000000000E+00  0.00000000000E+00  0.39999999674E+01  0.40000000000E+01  0.51100000000E-03 0. -1.
    9000002   -1    0    0    0    0 -0.00000000000E+00 -0.00000000000E+00  0.00000000000E+00  0.93800000000E+00  0.93800000000E+00 0.  1.
         11    1    1    2    0    0  0.20153918421E-01  0.54671514548E-01  0.29506770590E+00  0.30076629984E+00  0.51100000000E-03 0. -1.
    9000002    1    1    2    0    0 -0.24838662854E+00  0.11545492107E+00  0.57664791994E-01  0.97887434550E+00  0.93800000000E+00 0.  1.
         22    1    1    2    0    0  0.22823271012E+00 -0.17012643562E+00  0.36472674695E+01  0.36583593547E+01  0.00000000000E+00 0. -1.
</event>
<event>
 5    1  0.3428566E+002  0.1594151E+01  0.7818608E-02  0.3359736E+00
         11   -1    0    0    0    0  0.00000000000E+00  0.00000000000E+00  0.39999999674E+01  0.40000000000E+01  0.51100000000E-03 0.  1.
    9000002   -1    0    0    0    0 -0.00000000000E+00 -0.00000000000E+00  0.00000000000E+00  0.93800000000E+00  0.93800000000E+00 0. -1.
         11    1    1    2    0    0 -0.21675885799E-01  0.60682685087E-03  0.37395365810E+00  0.37458218296E+00  0.51100000000E-03 0.  1.
    9000002    1    1    2    0    0 -0.31901081267E+00 -0.78949232719E-01  0.76657564226E-01  0.99685568770E+00  0.93800000000E+00 0. -1.
         22    1    1    2    0    0  0.34068669847E+00  0.78342405868E-01  0.35493887450E+01  0.35665621293E+01  0.00000000000E+00 0.  1.
</event>
<event>
 5    1  0.3428566E+002  0.1547458E+01  0.7818608E-02  0.3412443E+00
         11   -1    0    0    0    0  0.00000000000E+00  0.00000000000E+00  0.39999999674E+01  0.40000000000E+01  0.51100000000E-03 0.  1.
    9000002   -1    0    0    0    0 -0.00000000000E+00 -0.00000000000E+00  0.00000000000E+00  0.93800000000E+00  0.93800000000E+00 0. -1.
         11    1    1    2    0    0  0.17651168277E+00 -0.91123485441E-01  0.75877116221E+00  0.78434291064E+00  0.51100000000E-03 0.  1.
    9000002    1    1    2    0    0  0.13446337488E+00  0.60211651018E-01  0.53882622986E-01  0.95102743344E+00  0.93800000000E+00 0. -1.
         22    1    1    2    0    0 -0.31097505764E+00  0.30911834423E-01  0.31873461822E+01  0.32026296559E+01  0.00000000000E+00 0.  1.
</event>
<event>
 5    1  0.3428566E+002  0.1597515E+01  0.7818608E-02  0.3356065E+00
         11   -1    0    0    0    0  0.00000000000E+00  0.00000000000E+00  0.39999999674E+01  0.40000000000E+01  0.51100000000E-03 0.  1.
    9000002   -1    0    0    0    0 -0.00000000000E+00 -0.00000000000E+00  0.00000000000E+00  0.93800000000E+00  0.93800000000E+00 0.  1.
         11    1    1    2    0    0 -0.81978621497E-01 -0.29589192952E-01  0.80291004043E+00  0.80762665191E+00  0.51100000000E-03 0.  1.
    9000002    1    1    2    0    0  0.19002282819E+00  0.20730825952E+00  0.54347570153E-01  0.98075636530E+00  0.93800000000E+00 0.  1.
         22    1    1    2    0    0 -0.10804420670E+00 -0.17771906656E+00  0.31427423568E+01  0.31496169828E+01  0.00000000000E+00 0.  1.
</event>
<event>
 5    1  0.3428566E+002  0.1599677E+01  0.7818608E-02  0.3353714E+00
         11   -1    0    0    0    0  0.00000000000E+00  0.00000000000E+00  0.39999999674E+01  0.40000000000E+01  0.51100000000E-03 0.  1.
    9000002   -1    0    0    0    0 -0.00000000000E+00 -0.00000000000E+00  0.00000000000E+00  0.93800000000E+00  0.93800000000E+00 0. -1.
         11    1    1    2    0    0  0.95894433139E-01  0.26320362159E+00  0.16105656229E+01  0.16347457832E+01  0.51100000000E-03 0.  1.
    9000002    1    1    2    0    0 -0.21989961432E+00 -0.60608660935E+00  0.29296870370E+00  0.11753176080E+01  0.93800000000E+00 0. -1.
         22    1    1    2    0    0  0.12400518119E+00  0.34288298776E+00  0.20964656407E+01  0.21279366088E+01  0.00000000000E+00 0.  1.
</event>
<event>
 5    1  0.3428566E+002  0.1574114E+01  0.7818608E-02  0.3381948E+00
         11   -1    0    0    0    0  0.00000000000E+00  0.00000000000E+00  0.39999999674E+01  0.40000000000E+01  0.51100000000E-03 0.  1.
    9000002   -1    0    0    0    0 -0.00000000000E+00 -0.00000000000E+00  0.00000000000E+00  0.93800000000E+00  0.93800000000E+00 0. -1.
         11    1    1    2    0    0 -0.14113001701E+00 -0.11873462632E+00  0.19444535697E+01  0.19531808771E+01  0.51100000000E-03 0.  1.
    9000002    1    1    2    0    0 -0.72700554815E-01  0.87447744495E-01  0.27476696835E-01  0.94526792369E+00  0.93800000000E+00 0. -1.
         22    1    1    2    0    0  0.21383057183E+00  0.31286881825E-01  0.20280697009E+01  0.20395511992E+01  0.00000000000E+00 0.  1.
</event>
<event>
 5    1  0.3428566E+002  0.1599669E+01  0.7818608E-02  0.3353723E+00
         11   -1    0    0    0    0  0.00000000000E+00  0.00000000000E+00  0.39999999674E+01  0.40000000000E+01  0.51100000000E-03 0.  1.
    9000002   -1    0    0    0    0 -0.00000000000E+00 -0.00000000000E+00  0.00000000000E+00  0.93800000000E+00  0.93800000000E+00 0. -1.
         11    1    1    2    0    0 -0.27404118326E+00  0.41779925966E-01  0.15643319339E+01  0.15887034943E+01  0.51100000000E-03 0.  1.
    9000002    1    1    2    0    0  0.65392226658E+00 -0.95514990873E-01  0.30900582285E+00  0.11883038512E+01  0.93800000000E+00 0. -1.
         22    1    1    2    0    0 -0.37988108332E+00  0.53735064907E-01  0.21266622107E+01  0.21609926545E+01  0.00000000000E+00 0.  1.
</event>
<event>
 5    1  0.3428566E+002  0.1599667E+01  0.7818608E-02  0.3353724E+00
         11   -1    0    0    0    0  0.00000000000E+00  0.00000000000E+00  0.39999999674E+01  0.40000000000E+01  0.51100000000E-03 0. -1.
    9000002   -1    0    0    0    0 -0.00000000000E+00 -0.00000000000E+00  0.00000000000E+00  0.93800000000E+00  0.93800000000E+00 0. -1.
         11    1    1    2    0    0 -0.89445090845E-02 -0.27810309965E-01  0.26756003582E+00  0.26915061113E+00  0.51100000000E-03 0. -1.
    9000002    1    1    2    0    0  0.15530586540E+00  0.39605048218E+00  0.12249365395E+00  0.10372196448E+01  0.93800000000E+00 0. -1.
         22    1    1    2    0    0 -0.14636135631E+00 -0.36824017222E+00  0.36099462776E+01  0.36316297441E+01  0.00000000000E+00 0. -1.
</event>
<event>
 5    1  0.3428566E+002  0.1599672E+01  0.7818608E-02  0.3353719E+00
         11   -1    0    0    0    0  0.00000000000E+00  0.00000000000E+00  0.39999999674E+01  0.40000000000E+01  0.51100000000E-03 0.  1.
    9000002   -1    0    0    0    0 -0.00000000000E+00 -0.00000000000E+00  0.00000000000E+00  0.93800000000E+00  0.93800000000E+00 0. -1.
         11    1    1    2    0    0  0.23530120941E+00 -0.16535445567E+00  0.21883886599E+01  0.22072050070E+01  0.51100000000E-03 0.  1.
    9000002    1    1    2    0    0 -0.41121245661E+00  0.28465411042E+00  0.17123168066E+00  0.10767023430E+01  0.93800000000E+00 0. -1.
         22    1    1    2    0    0  0.17591124720E+00 -0.11929965475E+00  0.16403796268E+01  0.16540926500E+01  0.00000000000E+00 0.  1.
</event>
<event>
 5    1  0.3428566E+002  0.1599667E+01  0.7818608E-02  0.3353725E+00
         11   -1    0    0    0    0  0.00000000000E+00  0.00000000000E+00  0.39999999674E+01  0.40000000000E+01  0.51100000000E-03 0.  1.
    9000002   -1    0    0    0    0 -0.00000000000E+00 -0.00000000000E+00  0.00000000000E+00  0.93800000000E+00  0.93800000000E+00 0.  1.
         11    1    1    2    0    0 -0.92658570409E+00 -0.58026151861E+00  0.15790300251E+01  0.19205729818E+01  0.51100000000E-03 0.  1.
    9000002    1    1    2    0    0  0.10983113371E+01  0.68579289808E+00  0.21247819077E+01  0.26591618693E+01  0.93800000000E+00 0.  1.
         22    1    1    2    0    0 -0.17172563298E+00 -0.10553137948E+00  0.29618803456E+00  0.35826514886E+00  0.00000000000E+00 0. -1.
</event>
<event>
 5    1  0.3428566E+002  0.1590690E+01  0.7818608E-02  0.3363531E+00
         11   -1    0    0    0    0  0.00000000000E+00  0.00000000000E+00  0.39999999674E+01  0.40000000000E+01  0.51100000000E-03 0.  1.
    9000002   -1    0    0    0    0 -0.00000000000E+00 -0.00000000000E+00  0.00000000000E+00  0.93800000000E+00  0.93800000000E+00 0.  1.
         11    1    1    2    0    0 -0.60133725572E-01 -0.85618346059E-01  0.12231798829E+01  0.12276464692E+01  0.51100000000E-03 0.  1.
    9000002    1    1    2    0    0  0.27034047292E+00 -0.55477215211E-01  0.57682434981E-01  0.97945543850E+00  0.93800000000E+00 0.  1.
         22    1    1    2    0    0 -0.21020674735E+00  0.14109556127E+00  0.27191376495E+01  0.27308980923E+01  0.00000000000E+00 0.  1.
</event>
<event>
 5    1  0.3428566E+002  0.1599676E+01  0.7818608E-02  0.3353715E+00
         11   -1    0    0    0    0  0.00000000000E+00  0.00000000000E+00  0.39999999674E+01  0.40000000000E+01  0.51100000000E-03 0. -1.
    9000002   -1    0    0    0    0 -0.00000000000E+00 -0.00000000000E+00  0.00000000000E+00  0.93800000000E+00  0.93800000000E+00 0. -1.
         11    1    1    2    0    0  0.85299229935E-02 -0.27900913520E-01  0.49446099293E+00  0.49532126465E+00  0.51100000000E-03 0. -1.
    9000002    1    1    2    0    0 -0.71373050758E-01  0.22855936345E+00  0.38056805239E-01  0.96882703070E+00  0.93800000000E+00 0. -1.
         22    1    1    2    0    0  0.62843127765E-01 -0.20065844993E+00  0.34674821692E+01  0.34738517047E+01  0.00000000000E+00 0. -1.
</event>
<event>
 5    1  0.3428566E+002  0.1591364E+01  0.7818608E-02  0.3362791E+00
         11   -1    0    0    0    0  0.00000000000E+00  0.00000000000E+00  0.39999999674E+01  0.40000000000E+01  0.51100000000E-03 0.  1.
    9000002   -1    0    0    0    0 -0.00000000000E+00 -0.00000000000E+00  0.00000000000E+00  0.93800000000E+00  0.93800000000E+00 0. -1.
         11    1    1    2    0    0  0.96825399200E-02  0.53247011230E-01  0.13576016283E+01  0.13586800352E+01  0.51100000000E-03 0.  1.
    9000002    1    1    2    0    0 -0.10101862608E+00  0.14001244604E+00  0.25903909113E-01  0.95410862084E+00  0.93800000000E+00 0. -1.
         22    1    1    2    0    0  0.91336086156E-01 -0.19325945727E+00  0.26164944299E+01  0.26252113439E+01  0.00000000000E+00 0. -1.
</event>
<event>
 5    1  0.3428566E+002  0.1599494E+01  0.7818608E-02  0.3353913E+00
         11   -1    0    0    0    0  0.00000000000E+00  0.00000000000E+00  0.39999999674E+01  0.40000000000E+01  0.51100000000E-03 0.  1.
    9000002   -1    0    0    0    0 -0.00000000000E+00 -0.00000000000E+00  0.00000000000E+00  0.93800000000E+00  0.93800000000E+00 0.  1.
         11    1    1    2    0    0 -0.30773128140E-01 -0.60348710829E-01  0.11929148583E+01  0.11948368393E+01  0.51100000000E-03 0.  1.
    9000002    1    1    2    0    0  0.11525604870E+00  0.24760007249E+00  0.49782668035E-01  0.97821882352E+00  0.93800000000E+00 0.  1.
         22    1    1    2    0    0 -0.84482920556E-01 -0.18725136166E+00  0.27573024411E+01  0.27649443372E+01  0.00000000000E+00 0.  1.
</event>
<event>
 5    1  0.3428566E+002  0.1597328E+01  0.7818608E-02  0.3356269E+00
         11   -1    0    0    0    0  0.00000000000E+00  0.00000000000E+00  0.39999999674E+01  0.40000000000E+01  0.51100000000E-03 0.  1.
    9000002   -1    0    0    0    0 -0.00000000000E+00 -0.00000000000E+00  0.00000000000E+00  0.93800000000E+00  0.93800000000E+00 0. -1.
         11    1    1    2    0    0 -0.34543736980E-01  0.45227897382E-01  0.10367755408E+01  0.10383364655E+01  0.51100000000E-03 0.  1.
    9000002    1    1    2    0    0 -0.47581121845E-01 -0.25089439037E+00  0.45139450033E-01  0.97318730377E+00  0.93800000000E+00 0. -1.
         22    1    1    2    0    0  0.82124858825E-01  0.20566649299E+00  0.29180849765E+01  0.29264762307E+01  0.00000000000E+00 0.  1.
</event>
<event>
 5    1  0.3428566E+002  0.1599673E+01  0.7818608E-02  0.3353718E+00
         11   -1    0    0    0    0  0.00000000000E+00  0.00000000000E+00  0.39999999674E+01  0.40000000000E+01  0.51100000000E-03 0.  1.
    9000002   -1    0    0    0    0 -0.00000000000E+00 -0.00000000000E+00  0.00000000000E+00  0.93800000000E+00  0.93800000000E+00 0. -1.
         11    1    1    2    0    0  0.21085384501E+00 -0.66303866671E+00  0.23702418436E+01  0.24702482215E+01  0.51100000000E-03 0.  1.
    9000002    1    1    2    0    0 -0.28994360297E+00  0.91750903297E+00  0.72978642783E+00  0.15291573983E+01  0.93800000000E+00 0. -1.
         22    1    1    2    0    0  0.79089757960E-01 -0.25447036626E+00  0.89997169596E+00  0.93859438026E+00  0.00000000000E+00 0. -1.
</event>
<event>
 5    1  0.3428566E+002  0.1576335E+01  0.7818608E-02  0.3379456E+00
         11   -1    0    0    0    0  0.00000000000E+00  0.00000000000E+00  0.39999999674E+01  0.40000000000E+01  0.51100000000E-03 0.  1.
    9000002   -1    0    0    0    0 -0.00000000000E+00 -0.00000000000E+00  0.00000000000E+00  0.93800000000E+00  0.93800000000E+00 0.  1.
         11    1    1    2    0    0 -0.33871155633E+00  0.15366559757E+00  0.26176437947E+01  0.26439360679E+01  0.51100000000E-03 0.  1.
    9000002    1    1    2    0    0  0.48309013777E+00  0.24830835353E-01  0.18078439771E+00  0.10707565783E+01  0.93800000000E+00 0.  1.
         22    1    1    2    0    0 -0.14437858144E+00 -0.17849643292E+00  0.12015717750E+01  0.12233073538E+01  0.00000000000E+00 0.  1.
</event>
<event>
 5    1  0.3428566E+002  0.1596025E+01  0.7818608E-02  0.3357689E+00
         11   -1    0    0    0    0  0.00000000000E+00  0.00000000000E+00  0.39999999674E+01  0.40000000000E+01  0.51100000000E-03 0. -1.
    9000002   -1    0    0    0    0 -0.00000000000E+00 -0.00000000000E+00  0.00000000000E+00  0.93800000000E+00  0.93800000000E+00 0. -1.
         11    1    1    2    0    0 -0.10763251785E+00  0.42230026910E-02  0.18499375115E+01  0.18530708703E+01  0.51100000000E-03 0. -1.
    9000002    1    1    2    0    0  0.27775719135E+00 -0.15537937594E+00  0.70583736682E-01  0.99303467799E+00  0.93800000000E+00 0. -1.
         22    1    1    2    0    0 -0.17012467350E+00  0.15115637325E+00  0.20794787191E+01  0.20918944517E+01  0.00000000000E+00 0. -1.
</event>
<event>
 5    1  0.3428566E+002  0.1599211E+01  0.7818608E-02  0.3354220E+00
         11   -1    0    0    0    0  0.00000000000E+00  0.00000000000E+00  0.39999999674E+01  0.40000000000E+01  0.51100000000E-03 0.  1.
    9000002   -1    0    0    0    0 -0.00000000000E+00 -0.00000000000E+00  0.00000000000E+00  0.93800000000E+00  0.93800000000E+00 0. -1.
         11    1    1    2    0    0  0.15008194799E-01  0.45480645043E-01  0.37695426127E+00  0.37998488285E+00  0.51100000000E-03 0.  1.
    9000002    1    1    2    0    0 -0.23279796218E+00 -0.33092177315E+00  0.11087621146E+00  0.10275415541E+01  0.93800000000E+00 0. -1.
         22    1    1    2    0    0  0.21778976738E+00  0.28544112811E+00  0.35121694946E+01  0.35304735630E+01  0.00000000000E+00 0.  1.
</event>
<event>
 5    1  0.3428566E+002  0.1585372E+01  0.7818608E-02  0.3369395E+00
         11   -1    0    0    0    0  0.00000000000E+00  0.00000000000E+00  0.39999999674E+01  0.40000000000E+01  0.51100000000E-03 0. -1.
    9000002   -1    0    0    0    0 -0.00000000000E+00 -0.00000000000E+00  0.00000000000E+00  0.93800000000E+00  0.93800000000E+00 0.  1.
         11    1    1    2    0    0 -0.90307988817E-01  0.33103909731E-01  0.26588965289E+00  0.28275248950E+00  0.51100000000E-03 0. -1.
    9000002    1    1    2    0    0  0.48770594618E+00  0.23318887668E+00  0.21499391068E+00  0.11037665169E+01  0.93800000000E+00 0.  1.
         22    1    1    2    0    0 -0.39739795737E+00 -0.26629278641E+00  0.35191164038E+01  0.35514809936E+01  0.00000000000E+00 0. -1.
</event>
<event>
 5    1  0.3428566E+002  0.1599676E+01  0.7818608E-02  0.3353715E+00
         11   -1    0    0    0    0  0.00000000000E+00  0.00000000000E+00  0.39999999674E+01  0.40000000000E+01  0.51100000000E-03 0. -1.
    9000002   -1    0    0    0    0 -0.00000000000E+00 -0.00000000000E+00  0.00000000000E+00  0.93800000000E+00  0.93800000000E+00 0.  1.
         11    1    1    2    0    0  0.45668750487E+00 -0.11683017858E+00  0.24967868063E+01  0.25408969646E+01  0.51100000000E-03 0. -1.
    9000002    1    1    2    0    0 -0.66809391045E+00  0.17259098508E+00  0.33938326524E+00  0.12129147217E+01  0.93800000000E+00 0.  1.
         22    1    1    2    0    0  0.21140640558E+00 -0.55760806501E-01  0.11638298958E+01  0.11841883137E+01  0.00000000000E+00 0. -1.
</event>
<event>
 5    1  0.3428566E+002  0.1599669E+01  0.7818608E-02  0.3353723E+00
         11   -1    0    0    0    0  0.00000000000E+00  0.00000000000E+00  0.39999999674E+01  0.40000000000E+01  0.51100000000E-03 0. -1.
    9000002   -1    0    0    0    0 -0.00000000000E+00 -0.00000000000E+00  0.00000000000E+00  0.93800000000E+00  0.93800000000E+00 0. -1.
         11    1    1    2    0    0 -0.10630000355E-01  0.17387584847E-02  0.17600003570E+00  0.17633007082E+00  0.51100000000E-03 0. -1.
    9000002    1    1    2    0    0  0.21238182432E+00 -0.52288166560E-01  0.31714872995E-01  0.96368559439E+00  0.93800000000E+00 0. -1.
         22    1    1    2    0    0 -0.20175182397E+00  0.50549408075E-01  0.37922850587E+01  0.37979843348E+01  0.00000000000E+00 0. -1.
</event>
<event>
 5    1  0.3428566E+002  0.1599627E+01  0.7818608E-02  0.3353769E+00
         11   -1    0    0    0    0  0.00000000000E+00  0.00000000000E+00  0.39999999674E+01  0.40000000000E+01  0.51100000000E-03 0.  1.
    9000002   -1    0    0    0    0 -0.00000000000E+00 -0.00000000000E+00  0.00000000000E+00  0.93800000000E+00  0.93800000000E+00 0.  1.
         11    1    1    2    0    0  0.17923095365E-01  0.31776518765E-01  0.37869553575E+00  0.38044914826E+00  0.51100000000E-03 0.  1.
    9000002    1    1    2    0    0 -0.18726496965E+00 -0.27723941849E+00  0.74965596250E-01  0.99869600212E+00  0.93800000000E+00 0.  1.
         22    1    1    2    0    0  0.16934187429E+00  0.24546289972E+00  0.35463388354E+01  0.35588548496E+01  0.00000000000E+00 0.  1.
</event>
<event>
 5    1  0.3428566E+002  0.1599671E+01  0.7818608E-02  0.3353720E+00
         11   -1    0    0    0    0  0.00000000000E+00  0.00000000000E+00  0.39999999674E+01  0.40000000000E+01  0.51100000000E-03 0. -1.
    9000002   -1    0    0    0    0 -0.00000000000E+00 -0.00000000000E+00  0.00000000000E+00  0.93800000000E+00  0.93800000000E+00 0. -1.
         11    1    1    2    0    0  0.15256958068E+00  0.68546242578E-01  0.16971638401E+01  0.17053860049E+01  0.51100000000E-03 0. -1.
    9000002    1    1    2    0    0 -0.34933740921E+00 -0.15123005908E+00  0.97511897320E-01  0.10169856077E+01  0.93800000000E+00 0. -1.
         22    1    1    2    0    0  0.19676782853E+00  0.82683816498E-01  0.22053242299E+01  0.22156283874E+01  0.00000000000E+00 0. -1.
</event>
<event>
 5    1  0.3428566E+002  0.1596899E+01  0.7818608E-02  0.3356736E+00
         11   -1    0    0    0    0  0.00000000000E+00  0.00000000000E+00  0.39999999674E+01  0.40000000000E+01  0.51100000000E-03 0. -1.
    9000002   -1    0    0    0    0 -0.00000000000E+00 -0.00000000000E+00  0.00000000000E+00  0.93800000000E+00  0.93800000000E+00 0.  1.
         11    1    1    2    0    0  0.28572140217E-01  0.54269602103E-02  0.44482043185E+00  0.44577045304E+00  0.51100000000E-03 0. -1.
    9000002    1    1    2    0    0  0.33092327733E-02  0.19801424658E+00  0.28044775341E-01  0.95908868323E+00  0.93800000000E+00 0.  1.
         22    1    1    2    0    0 -0.31881372991E-01 -0.20344120679E+00  0.35271347602E+01  0.35331408637E+01  0.00000000000E+00 0. -1.
</event>
<event>
 5    1  0.3428566E+002  0.1599650E+01  0.7818608E-02  0.3353744E+00
         11   -1    0    0    0    0  0.00000000000E+00  0.00000000000E+00  0.39999999674E+01  0.40000000000E+01  0.51100000000E-03 0.  1.
    9000002   -1    0    0    0    0 -0.00000000000E+00 -0.00000000000E+00  0.00000000000E+00  0.93800000000E+00  0.93800000000E+00 0. -1.
         11    1    1    2    0    0  0.21110481052E-02  0.40494386853E-02  0.44071863780E-01  0.44310774940E-01  0.51100000000E-03 0.  1.
    9000002    1    1    2    0    0 -0.83126556779E-01 -0.32970084900E+00  0.77457322778E-01  0.10007278906E+01  0.93800000000E+00 0. -1.
         22    1    1    2    0    0  0.81015508674E-01  0.32565141031E+00  0.38784707808E+01  0.38929613344E+01  0.00000000000E+00 0.  1.
</event>
<event>
 5    1  0.3428566E+002  0.1599062E+01  0.7818608E-02  0.3354382E+00
         11   -1    0    0    0    0  0.00000000000E+00  0.00000000000E+00  0.39999999674E+01  0.40000000000E+01  0.51100000000E-03 0. -1.
    9000002   -1    0    0    0    0 -0.00000000000E+00 -0.00000000000E+00  0.00000000000E+00  0.93800000000E+00  0.93800000000E+00 0. -1.
         11    1    1    2    0    0 -0.44708853460E-02  0.37432006244E-01  0.24398981689E+00  0.24688547096E+00  0.51100000000E-03 0. -1.
    9000002    1    1    2    0    0  0.22800073443E+00 -0.42250267970E+00  0.15781661727E+00  0.10654777961E+01  0.93800000000E+00 0. -1.
         22    1    1    2    0    0 -0.22352984908E+00  0.38507067345E+00  0.35981935332E+01  0.36256367330E+01  0.00000000000E+00 0. -1.
</event>
<event>
 5    1  0.3428566E+002  0.1569385E+01  0.7818608E-02  0.3387277E+00
         11   -1    0    0    0    0  0.00000000000E+00  0.00000000000E+00  0.39999999674E+01  0.40000000000E+01  0.51100000000E-03 0. -1.
    9000002   -1    0    0    0    0 -0.00000000000E+00 -0.00000000000E+00  0.00000000000E+00  0.93800000000E+00  0.93800000000E+00 0.  1.
         11    1    1    2    0    0 -0.19257245656E+00  0.33012674519E-01  0.20330645590E+01  0.20424313329E+01  0.51100000000E-03 0. -1.
    9000002    1    1    2    0    0 -0.25257633060E-01 -0.14220292871E+00  0.36436733037E-01  0.94975326084E+00  0.93800000000E+00 0.  1.
         22    1    1    2    0    0  0.21783008962E+00  0.10919025419E+00  0.19304986754E+01  0.19458154062E+01  0.00000000000E+00 0. -1.
</event>
<event>
 5    1  0.3428566E+002  0.1593022E+01  0.7818608E-02  0.3360972E+00
         11   -1    0    0    0    0  0.00000000000E+00  0.00000000000E+00  0.39999999674E+01  0.40000000000E+01  0.51100000000E-03 0.  1.
    9000002   -1    0    0    0    0 -0.00000000000E+00 -0.00000000000E+00  0.00000000000E+00  0.93800000000E+00  0.93800000000E+00 0.  1.
         11    1    1    2    0    0 -0.42575996878E-01 -0.20338778277E+00  0.19643039459E+01  0.19752644275E+01  0.51100000000E-03 0.  1.
    9000002    1    1    2    0    0  0.24173084537E+00  0.28864484117E+00  0.10080377314E+00  0.10157534379E+01  0.93800000000E+00 0.  1.
         22    1    1    2    0    0 -0.19915484849E+00 -0.85257058398E-01  0.19348922484E+01  0.19469821346E+01  0.00000000000E+00 0.  1.
</event>
<event>
 5    1  0.3428566E+002  0.1599613E+01  0.7818608E-02  0.3353783E+00
         11   -1    0    0    0    0  0.00000000000E+00  0.00000000000E+00  0.39999999674E+01  0.40000000000E+01  0.51100000000E-03 0.  1.
    9000002   -1    0    0    0    0 -0.00000000000E+00 -0.00000000000E+00  0.00000000000E+00  0.93800000000E+00  0.93800000000E+00 0.  1.
         11    1    1    2    0    0  0.18720228013E-01  0.14926491928E-01  0.38649824614E+00  0.38723946401E+00  0.51100000000E-03 0.  1.
    9000002    1    1    2    0    0 -0.13869704791E+00 -0.17638054230E+00  0.33431032270E-01  0.96504331546E+00  0.93800000000E+00 0.  1.
         22    1    1    2    0    0  0.11997681990E+00  0.16145405037E+00  0.35800706890E+01  0.35857172205E+01  0.00000000000E+00 0.  1.
</event>
<event>
 5    1  0.3428566E+002  0.1592260E+01  0.7818608E-02  0.3361807E+00
         11   -1    0    0    0    0  0.00000000000E+00  0.00000000000E+00  0.39999999674E+01  0.40000000000E+01  0.51100000000E-03 0. -1.
    9000002   -1    0    0    0    0 -0.00000000000E+00 -0.00000000000E+00  0.00000000000E+00  0.93800000000E+00  0.93800000000E+00 0. -1.
         11    1    1    2    0    0 -0.56149876692E-01  0.36313766541E-01  0.14039103101E+01  0.14055020164E+01  0.51100000000E-03 0. -1.
    9000002    1    1    2    0    0  0.13118523993E+00  0.17603443149E+00  0.37566300843E-01  0.96408138412E+00  0.93800000000E+00 0. -1.
         22    1    1    2    0    0 -0.75035363240E-01 -0.21234819803E+00  0.25585233564E+01  0.25684165995E+01  0.00000000000E+00 0. -1.
</event>
<event>
 5    1  0.3428566E+002  0.1599549E+01  0.7818608E-02  0.3353853E+00
         11   -1    0    0    0    0  0.00000000000E+00  0.00000000000E+00  0.39999999674E+01  0.40000000000E+01  0.51100000000E-03 0. -1.
    9000002   -1    0    0    0    0 -0.00000000000E+00 -0.00000000000E+00  0.00000000000E+00  0.93800000000E+00  0.93800000000E+00 0.  1.
         11    1    1    2    0    0  0.35338043936E-02  0.41883958165E-04  0.25726289495E-01  0.25972920897E-01  0.51100000000E-03 0. -1.
    9000002    1    1    2    0    0 -0.21626266249E+00 -0.26471918526E-01  0.31558342069E-01  0.96348857316E+00  0.93800000000E+00 0.  1.
         22    1    1    2    0    0  0.21272885809E+00  0.26430034568E-01  0.39427153358E+01  0.39485385059E+01  0.00000000000E+00 0. -1.
</event>
<event>
 5    1  0.3428566E+002  0.1544288E+01  0.7818608E-02  0.3416143E+00
         11   -1    0    0    0    0  0.00000000000E+00  0.00000000000E+00  0.39999999674E+01  0.40000000000E+01  0.51100000000E-03 0.  1.
    9000002   -1    0    0    0    0 -0.00000000000E+00 -0.00000000000E+00  0.00000000000E+00  0.93800000000E+00  0.93800000000E+00 0.  1.
         11    1    1    2    0    0 -0.12054747519E+00 -0.65510203699E-01  0.24683152076E+00  0.28239925872E+00  0.51100000000E-03 0.  1.
    9000002    1    1    2    0    0  0.44491443926E-02 -0.12995805988E+00  0.52997728003E-01  0.94845223991E+00  0.93800000000E+00 0.  1.
         22    1    1    2    0    0  0.11609833080E+00  0.19546826357E+00  0.37001707186E+01  0.37071485014E+01  0.00000000000E+00 0.  1.
</event>
<event>
 5    1  0.3428566E+002  0.1599672E+01  0.7818608E-02  0.3353719E+00
         11   -1    0    0    0    0  0.00000000000E+00  0.00000000000E+00  0.39999999674E+01  0.40000000000E+01  0.51100000000E-03 0.  1.
    9000002   -1    0    0    0    0 -0.00000000000E+00 -0.00000000000E+00  0.00000000000E+00  0.93800000000E+00  0.93800000000E+00 0. -1.
         11    1    1    2    0    0  0.25176362926E+00 -0.22589347379E-01  0.19861748794E+01  0.20021953242E+01  0.51100000000E-03 0.  1.
    9000002    1    1    2    0    0 -0.48188918355E+00  0.44977398154E-01  0.15993262976E+00  0.10675498104E+01  0.93800000000E+00 0. -1.
         22    1    1    2    0    0  0.23012555429E+00 -0.22388050775E-01  0.18538924582E+01  0.18682548654E+01  0.00000000000E+00 0.  1.
</event>
<event>
 5    1  0.3428566E+002  0.1554157E+01  0.7818608E-02  0.3404674E+00
         11   -1    0    0    0    0  0.00000000000E+00  0.00000000000E+00  0.39999999674E+01  0.40000000000E+01  0.51100000000E-03 0.  1.
    9000002   -1    0    0    0    0 -0.00000000000E+00 -0.00000000000E+00  0.00000000000E+00  0.93800000000E+00  0.93800000000E+00 0. -1.
         11    1    1    2    0    0 -0.57713136709E-01 -0.10415220433E+00  0.22819313919E+00  0.25739241968E+00  0.51100000000E-03 0.  1.
    9000002    1    1    2    0    0  0.68973818013E-01 -0.10783279428E+00  0.45003285030E-01  0.94776294228E+00  0.93800000000E+00 0. -1.
         22    1    1    2    0    0 -0.11260681303E-01  0.21198499861E+00  0.37268035431E+01  0.37328446380E+01  0.00000000000E+00 0.  1.
</event>
<event>
 5    1  0.3428566E+002  0.1585228E+01  0.7818608E-02  0.3369554E+00
         11   -1    0    0    0    0  0.00000000000E+00  0.00000000000E+00  0.39999999674E+01  0.40000000000E+01  0.51100000000E-03 0.  1.
    9000002   -1    0    0    0    0 -0.00000000000E+00 -0.00000000000E+00  0.00000000000E+00  0.93800000000E+00  0.93800000000E+00 0.  1.
         11    1    1    2    0    0 -0.32374916047E-01 -0.58366324451E-01  0.23283570164E+00  0.24221372401E+00  0.51100000000E-03 0.  1.
    9000002    1    1    2    0    0 -0.34241115807E+00  0.23102645131E+00  0.12751823548E+00  0.10328230840E+01  0.93800000000E+00 0.  1.
         22    1    1    2    0    0  0.37478607411E+00 -0.17266012686E+00  0.36396460302E+01  0.36629631920E+01  0.00000000000E+00 0.  1.
</event>
<event>
 5    1  0.3428566E+002  0.1599362E+01  0.7818608E-02  0.3354056E+00
         11   -1    0    0    0    0  0.00000000000E+00  0.00000000000E+00  0.39999999674E+01  0.40000000000E+01  0.51100000000E-03 0.  1.
    9000002   -1    0    0    0    0 -0.00000000000E+00 -0.00000000000E+00  0.00000000000E+00  0.93800000000E+00  0.93800000000E+00 0.  1.
         11    1    1    2    0    0 -0.34623525267E-01  0.54009725037E-01  0.67325509330E+00  0.67630505002E+00  0.51100000000E-03 0.  1.
    9000002    1    1    2    0    0  0.16504345182E+00 -0.23008126933E+00  0.53650048205E-01  0.98127420182E+00  0.93800000000E+00 0.  1.
         22    1    1    2    0    0 -0.13041992656E+00  0.17607154429E+00  0.32730948259E+01  0.32804207482E+01  0.00000000000E+00 0.  1.
</event>
<event>
 5    1  0.3428566E+002  0.1599555E+01  0.7818608E-02  0.3353846E+00
         11   -1    0    0    0    0  0.00000000000E+00  0.00000000000E+00  0.39999999674E+01  0.40000000000E+01  0.51100000000E-03 0.  1.
    9000002   -1    0    0    0    0 -0.00000000000E+00 -0.00000000000E+00  0.00000000000E+00  0.93800000000E+00  0.93800000000E+00 0. -1.
         11    1    1    2    0    0  0.94614509956E-01  0.68893374892E-01  0.12794076137E+01  0.12847499001E+01  0.51100000000E-03 0.  1.
    9000002    1    1    2    0    0 -0.26599012970E+00 -0.18224712417E+00  0.69603680345E-01  0.99431053282E+00  0.93800000000E+00 0. -1.
         22    1    1    2    0    0  0.17137561974E+00  0.11335374928E+00  0.26509886733E+01  0.26589395671E+01  0.00000000000E+00 0.  1.
</event>
<event>
 5    1  0.3428566E+002  0.1599677E+01  0.7818608E-02  0.3353714E+00
         11   -1    0    0    0    0  0.00000000000E+00  0.00000000000E+00  0.39999999674E+01  0.40000000000E+01  0.51100000000E-03 0.  1.
    9000002   -1    0    0    0    0 -0.00000000000E+00 -0.00000000000E+00  0.00000000000E+00  0.93800000000E+00  0.93800000000E+00 0. -1.
         11    1    1    2    0    0 -0.27523169088E-01 -0.14150333898E+00  0.14427388329E+01  0.14499228672E+01  0.51100000000E-03 0.  1.
    9000002    1    1    2    0    0  0.73361348661E-01  0.38315890030E+00  0.10252885420E+00  0.10210527882E+01  0.93800000000E+00 0. -1.
         22    1    1    2    0    0 -0.45838179573E-01 -0.24165556132E+00  0.24547322803E+01  0.24670243446E+01  0.00000000000E+00 0.  1.
</event>
<event>
 5    1  0.3428566E+002  0.1599509E+01  0.7818608E-02  0.3353897E+00
         11   -1    0    0    0    0  0.00000000000E+00  0.00000000000E+00  0.39999999674E+01  0.40000000000E+01  0.51100000000E-03 0. -1.
    9000002   -1    0    0    0    0 -0.00000000000E+00 -0.00000000000E+00  0.00000000000E+00  0.93800000000E+00  0.93800000000E+00 0.  1.
         11    1    1    2    0    0 -0.83682812074E-01 -0.41864989521E-01  0.11866451267E+01  0.11903286975E+01  0.51100000000E-03 0. -1.
    9000002    1    1    2    0    0  0.30182159691E+00  0.98026455757E-01  0.67426883362E-01  0.99251994791E+00  0.93800000000E+00 0.  1.
         22    1    1    2    0    0 -0.21813878484E+00 -0.56161466236E-01  0.27459279573E+01  0.27551513546E+01  0.00000000000E+00 0. -1.
</event>
<event>
 5    1  0.3428566E+002  0.1593564E+01  0.7818608E-02  0.3360378E+00
         11   -1    0    0    0    0  0.00000000000E+00  0.00000000000E+00  0.39999999674E+01  0.40000000000E+01  0.51100000000E-03 0. -1.
    9000002   -1    0    0    0    0 -0.00000000000E+00 -0.00000000000E+00  0.00000000000E+00  0.93800000000E+00  0.93800000000E+00 0. -1.
         11    1    1    2    0    0  0.86911348961E-02  0.38870878399E-01  0.97272334069E-01  0.10511255448E+00  0.51100000000E-03 0. -1.
    9000002    1    1    2    0    0 -0.33763240352E+00 -0.33552802100E+00  0.15991051054E+00  0.10639502170E+01  0.93800000000E+00 0. -1.
         22    1    1    2    0    0  0.32894126862E+00  0.29665714260E+00  0.37428171228E+01  0.37689372286E+01  0.00000000000E+00 0. -1.
</event>
<event>
 5    1  0.3428566E+002  0.1581796E+01  0.7818608E-02  0.3373361E+00
         11   -1    0    0    0    0  0.00000000000E+00  0.00000000000E+00  0.39999999674E+01  0.40000000000E+01  0.51100000000E-03 0.  1.
    9000002   -1    0    0    0    0 -0.00000000000E+00 -0.00000000000E+00  0.00000000000E+00  0.93800000000E+00  0.93800000000E+00 0. -1.
         11    1    1    2    0    0 -0.17717908450E+00  0.74459233134E-01  0.30115981635E+01  0.30177243686E+01  0.51100000000E-03 0.  1.
    9000002    1    1    2    0    0  0.39586158896E+00 -0.47743143917E-01  0.12223886537E+00  0.10265340450E+01  0.93800000000E+00 0. -1.
         22    1    1    2    0    0 -0.21868250446E+00 -0.26716089217E-01  0.86616293847E+00  0.89374158634E+00  0.00000000000E+00 0.  1.
</event>
<event>
 5    1  0.3428566E+002  0.1580525E+01  0.7818608E-02  0.3374776E+00
         11   -1    0    0    0    0  0.00000000000E+00  0.00000000000E+00  0.39999999674E+01  0.40000000000E+01  0.51100000000E-03 0.  1.
    9000002   -1    0    0    0    0 -0.00000000000E+00 -0.00000000000E+00  0.00000000000E+00  0.93800000000E+00  0.93800000000E+00 0.  1.
         11    1    1    2    0    0 -0.10377862221E+00  0.34809078726E-01  0.79775268995E+00  0.80522747707E+00  0.51100000000E-03 0.  1.
    9000002    1    1    2    0    0 -0.87864443004E-01  0.10266248242E+00  0.26267248016E-01  0.94804731631E+00  0.93800000000E+00 0.  1.
         22    1    1    2    0    0  0.19164306521E+00 -0.13747156115E+00  0.31759800294E+01  0.31847252066E+01  0.00000000000E+00 0.  1.
</event>
<event>
 5    1  0.3428566E+002  0.1598798E+01  0.7818608E-02  0.3354669E+00
         11   -1    0    0    0    0  0.00000000000E+00  0.00000000000E+00  0.39999999674E+01  0.40000000000E+01  0.51100000000E-03 0. -1.
    9000002   -1    0    0    0    0 -0.00000000000E+00 -0.00000000000E+00  0.00000000000E+00  0.93800000000E+00  0.93800000000E+00 0. -1.
         11    1    1    2    0    0  0.70107199571E-01 -0.58405868326E-01  0.78199035196E+00  0.78729628258E+00  0.51100000000E-03 0. -1.
    9000002    1    1    2    0    0 -0.47061385406E+00  0.22809264614E+00  0.18878199327E+00  0.10904064819E+01  0.93800000000E+00 0. -1.
         22    1    1    2    0    0  0.40050665449E+00 -0.16968677781E+00  0.30292276221E+01  0.30602972355E+01  0.00000000000E+00 0. -1.
</event>
<event>
 5    1  0.3428566E+002  0.1599628E+01  0.7818608E-02  0.3353768E+00
         11   -1    0    0    0    0  0.00000000000E+00  0.00000000000E+00  0.39999999674E+01  0.40000000000E+01  0.51100000000E-03 0.  1.
    9000002   -1    0    0    0    0 -0.00000000000E+00 -0.00000000000E+00  0.00000000000E+00  0.93800000000E+00  0.93800000000E+00 0.  1.
         11    1    1    2    0    0  0.67652713270E-01 -0.10652915259E+00  0.14946024006E+01  0.14999206469E+01  0.51100000000E-03 0.  1.
    9000002    1    1    2    0    0 -0.19767007570E+00  0.27179377195E+00  0.75656686547E-01  0.99925634725E+00  0.93800000000E+00 0.  1.
         22    1    1    2    0    0  0.13001736243E+00 -0.16526461937E+00  0.24297408802E+01  0.24388230059E+01  0.00000000000E+00 0.  1.
</event>
<event>
 5    1  0.3428566E+002  0.1599676E+01  0.7818608E-02  0.3353715E+00
         11   -1    0    0    0    0  0.00000000000E+00  0.00000000000E+00  0.39999999674E+01  0.40000000000E+01  0.51100000000E-03 0. -1.
    9000002   -1    0    0    0    0 -0.00000000000E+00 -0.00000000000E+00  0.00000000000E+00  0.93800000000E+00  0.93800000000E+00 0. -1.
         11    1    1    2    0    0 -0.19513792450E-01 -0.59342867400E-02  0.28824966104E+00  0.28897081525E+00  0.51100000000E-03 0.  1.
    9000002    1    1    2    0    0  0.26741017640E+00  0.85212180266E-01  0.52457270215E-01  0.98049226581E+00  0.93800000000E+00 0. -1.
         22    1    1    2    0    0 -0.24789638395E+00 -0.79277893526E-01  0.36592930361E+01  0.36685369189E+01  0.00000000000E+00 0. -1.
</event>
<event>
 5    1  0.3428566E+002  0.1569733E+01  0.7818608E-02  0.3386884E+00
         11   -1    0    0    0    0  0.00000000000E+00  0.00000000000E+00  0.39999999674E+01  0.40000000000E+01  0.51100000000E-03 0. -1.
    9000002   -1    0    0    0    0 -0.00000000000E+00 -0.00000000000E+00  0.00000000000E+00  0.93800000000E+00  0.93800000000E+00 0.  1.
         11    1    1    2    0    0  0.14619598441E+00 -0.71826559815E-01  0.15836104624E+01  0.15919656650E+01  0.51100000000E-03 0. -1.
    9000002    1    1    2    0    0  0.97110425265E-01 -0.35296830889E-01  0.29239143024E-01  0.94412670148E+00  0.93800000000E+00 0.  1.
         22    1    1    2    0    0 -0.24330640968E+00  0.10712339070E+00  0.23871503619E+01  0.24019076335E+01  0.00000000000E+00 0. -1.
</event>
<event>
 5    1  0.3428566E+002  0.1488813E+01  0.7818608E-02  0.3483651E+00
         11   -1    0    0    0    0  0.00000000000E+00  0.00000000000E+00  0.39999999674E+01  0.40000000000E+01  0.51100000000E-03 0. -1.
    9000002   -1    0    0    0    0 -0.00000000000E+00 -0.00000000000E+00  0.00000000000E+00  0.93800000000E+00  0.93800000000E+00 0.  1.
         11    1    1    2    0    0  0.24344256817E+00 -0.95729049478E-01  0.44515397800E+00  0.51632418127E+00  0.51100000000E-03 0. -1.
    9000002    1    1    2    0    0 -0.26302555294E-01 -0.70654016421E-01  0.89192120005E-01  0.94524232275E+00  0.93800000000E+00 0.  1.
         22    1    1    2    0    0 -0.21714001287E+00  0.16638306590E+00  0.34656538694E+01  0.34764334960E+01  0.00000000000E+00 0. -1.
</event>
<event>
 5    1  0.3428566E+002  0.1599601E+01  0.7818608E-02  0.3353796E+00
         11   -1    0    0    0    0  0.00000000000E+00  0.00000000000E+00  0.39999999674E+01  0.40000000000E+01  0.51100000000E-03 0. -1.
    9000002   -1    0    0    0    0 -0.00000000000E+00 -0.00000000000E+00  0.00000000000E+00  0.93800000000E+00  0.93800000000E+00 0. -1.
         11    1    1    2    0    0  0.10551021932E-01 -0.25473886277E-01  0.27067128774E+00  0.27207250885E+00  0.51100000000E-03 0. -1.
    9000002    1    1    2    0    0 -0.19297527590E+00  0.30326066953E+00  0.86787247254E-01  0.10082571681E+01  0.93800000000E+00 0. -1.
         22    1    1    2    0    0  0.18242425397E+00 -0.27778678326E+00  0.36425414324E+01  0.36576703230E+01  0.00000000000E+00 0. -1.
</event>
<event>
 5    1  0.3428566E+002  0.1599450E+01  0.7818608E-02  0.3353961E+00
         11   -1    0    0    0    0  0.00000000000E+00  0.00000000000E+00  0.39999999674E+01  0.40000000000E+01  0.51100000000E-03 0. -1.
    9000002   -1    0    0    0    0 -0.00000000000E+00 -0.00000000000E+00  0.00000000000E+00  0.93800000000E+00  0.93800000000E+00 0. -1.
         11    1    1    2    0    0  0.31068000847E-01  0.55012384832E-02  0.42067214329E+00  0.42185400029E+00  0.51100000000E-03 0. -1.
    9000002    1    1    2    0    0 -0.25672084449E+00  0.47312686163E-01  0.45481315179E-01  0.97470848580E+00  0.93800000000E+00 0. -1.
         22    1    1    2    0    0  0.22565284364E+00 -0.52813924646E-01  0.35338465089E+01  0.35414375139E+01  0.00000000000E+00 0. -1.
</event>
<event>
 5    1  0.3428566E+002  0.1599674E+01  0.7818608E-02  0.3353717E+00
         11   -1    0    0    0    0  0.00000000000E+00  0.00000000000E+00  0.39999999674E+01  0.40000000000E+01  0.51100000000E-03 0.  1.
    9000002   -1    0    0    0    0 -0.00000000000E+00 -0.00000000000E+00  0.00000000000E+00  0.93800000000E+00  0.93800000000E+00 0. -1.
         11    1    1    2    0    0 -0.60365798640E-01 -0.20902229514E-01  0.92797349529E+00  0.93016987800E+00  0.51100000000E-03 0.  1.
    9000002    1    1    2    0    0  0.26243354132E+00  0.84817328996E-01  0.50636883955E-01  0.97901656622E+00  0.93800000000E+00 0. -1.
         22    1    1    2    0    0 -0.20206774268E+00 -0.63915099483E-01  0.30213895881E+01  0.30288135558E+01  0.00000000000E+00 0.  1.
</event>
<event>
 5    1  0.3428566E+002  0.1596408E+01  0.7818608E-02  0.3357271E+00
         11   -1    0    0    0    0  0.00000000000E+00  0.00000000000E+00  0.39999999674E+01  0.40000000000E+01  0.51100000000E-03 0. -1.
    9000002   -1    0    0    0    0 -0.00000000000E+00 -0.00000000000E+00  0.00000000000E+00  0.93800000000E+00  0.93800000000E+00 0.  1.
         11    1    1    2    0    0 -0.10209219509E-01 -0.44235318189E-01  0.33258812937E+00  0.33567263287E+00  0.51100000000E-03 0. -1.
    9000002    1    1    2    0    0 -0.20256275894E+00  0.20603429562E+00  0.58184005538E-01  0.98321471754E+00  0.93800000000E+00 0.  1.
         22    1    1    2    0    0  0.21277197845E+00 -0.16179897743E+00  0.36092278325E+01  0.36191126496E+01  0.00000000000E+00 0. -1.
</event>
<event>
 5    1  0.3428566E+002  0.1599145E+01  0.7818608E-02  0.3354292E+00
         11   -1    0    0    0    0  0.00000000000E+00  0.00000000000E+00  0.39999999674E+01  0.40000000000E+01  0.51100000000E-03 0.  1.
    9000002   -1    0    0    0    0 -0.00000000000E+00 -0.00000000000E+00  0.00000000000E+00  0.93800000000E+00  0.93800000000E+00 0. -1.
         11    1    1    2    0    0  0.57519385166E-02 -0.44627894663E-01  0.28065752549E+00  0.28424222331E+00  0.51100000000E-03 0.  1.
    9000002    1    1    2    0    0 -0.15881920675E-01  0.42653145617E+00  0.12377673701E+00  0.10379527923E+01  0.93800000000E+00 0. -1.
         22    1    1    2    0    0  0.10129982159E-01 -0.38190356151E+00  0.35955657049E+01  0.36158049843E+01  0.00000000000E+00 0.  1.
</event>
<event>
 5    1  0.3428566E+002  0.1599264E+01  0.7818608E-02  0.3354163E+00
         11   -1    0    0    0    0  0.00000000000E+00  0.00000000000E+00  0.39999999674E+01  0.40000000000E+01  0.51100000000E-03 0. -1.
    9000002   -1    0    0    0    0 -0.00000000000E+00 -0.00000000000E+00  0.00000000000E+00  0.93800000000E+00  0.93800000000E+00 0. -1.
         11    1    1    2    0    0 -0.40028118191E-01  0.10906823284E+00  0.11928757050E+01  0.11985202703E+01  0.51100000000E-03 0. -1.
    9000002    1    1    2    0    0  0.14148319500E+00 -0.28576441723E+00  0.68281504775E-01  0.99306855781E+00  0.93800000000E+00 0. -1.
         22    1    1    2    0    0 -0.10145507681E+00  0.17669618439E+00  0.27388427576E+01  0.27464111718E+01  0.00000000000E+00 0. -1.
</event>
<event>
 5    1  0.3428566E+002  0.1599520E+01  0.7818608E-02  0.3353885E+00
         11   -1    0    0    0    0  0.00000000000E+00  0.00000000000E+00  0.39999999674E+01  0.40000000000E+01  0.51100000000E-03 0.  1.
    9000002   -1    0    0    0    0 -0.00000000000E+00 -0.00000000000E+00  0.00000000000E+00  0.93800000000E+00  0.93800000000E+00 0.  1.
         11    1    1    2    0    0 -0.41919793299E-01 -0.60601235508E-01  0.11255972820E+01  0.11280067736E+01  0.51100000000E-03 0.  1.
    9000002    1    1    2    0    0  0.14863025117E+00  0.25988482696E+00  0.59913499185E-01  0.98644042001E+00  0.93800000000E+00 0.  1.
         22    1    1    2    0    0 -0.10671045787E+00 -0.19928359145E+00  0.28144891862E+01  0.28235528064E+01  0.00000000000E+00 0.  1.
</event>
<event>
 5    1  0.3428566E+002  0.1599438E+01  0.7818608E-02  0.3353973E+00
         11   -1    0    0    0    0  0.00000000000E+00  0.00000000000E+00  0.39999999674E+01  0.40000000000E+01  0.51100000000E-03 0. -1.
    9000002   -1    0    0    0    0 -0.00000000000E+00 -0.00000000000E+00  0.00000000000E+00  0.93800000000E+00  0.93800000000E+00 0. -1.
         11    1    1    2    0    0  0.51750611640E-01 -0.33140810760E-01  0.90200552963E+00  0.90409660753E+00  0.51100000000E-03 0. -1.
    9000002    1    1    2    0    0 -0.28958881141E+00  0.12042460217E+00  0.65893411417E-01  0.99123645321E+00  0.93800000000E+00 0. -1.
         22    1    1    2    0    0  0.23783819977E+00 -0.87283791414E-01  0.30321010263E+01  0.30426669393E+01  0.00000000000E+00 0. -1.
</event>
<event>
 5    1  0.3428566E+002  0.1569581E+01  0.7818608E-02  0.3387056E+00
         11   -1    0    0    0    0  0.00000000000E+00  0.00000000000E+00  0.39999999674E+01  0.40000000000E+01  0.51100000000E-03 0.  1.
    9000002   -1    0    0    0    0 -0.00000000000E+00 -0.00000000000E+00  0.00000000000E+00  0.93800000000E+00  0.93800000000E+00 0.  1.
         11    1    1    2    0    0 -0.95612866853E-01  0.33101139379E-01  0.38036975219E+00  0.39359740248E+00  0.51100000000E-03 0.  1.
    9000002    1    1    2    0    0 -0.27663333530E+00 -0.13809035899E+00  0.87888350402E-01  0.99154592006E+00  0.93800000000E+00 0.  1.
         22    1    1    2    0    0  0.37224620215E+00  0.10498921961E+00  0.35317418648E+01  0.35528566775E+01  0.00000000000E+00 0.  1.
</event>
<event>
 5    1  0.3428566E+002  0.1599671E+01  0.7818608E-02  0.3353720E+00
         11   -1    0    0    0    0  0.00000000000E+00  0.00000000000E+00  0.39999999674E+01  0.40000000000E+01  0.51100000000E-03 0.  1.
    9000002   -1    0    0    0    0 -0.00000000000E+00 -0.00000000000E+00  0.00000000000E+00  0.93800000000E+00  0.93800000000E+00 0.  1.
         11    1    1    2    0    0  0.39140524104E-01  0.40653598797E-01  0.73002739212E+00  0.73220553814E+00  0.51100000000E-03 0.  1.
    9000002    1    1    2    0    0 -0.20392860564E+00 -0.22862473624E+00  0.62654454436E-01  0.98874957744E+00  0.93800000000E+00 0.  1.
         22    1    1    2    0    0  0.16478808154E+00  0.18797113744E+00  0.32073181208E+01  0.32170448844E+01  0.00000000000E+00 0.  1.
</event>
<event>
 5    1  0.3428566E+002  0.1599642E+01  0.7818608E-02  0.3353752E+00
         11   -1    0    0    0    0  0.00000000000E+00  0.00000000000E+00  0.39999999674E+01  0.40000000000E+01  0.51100000000E-03 0.  1.
    9000002   -1    0    0    0    0 -0.00000000000E+00 -0.00000000000E+00  0.00000000000E+00  0.93800000000E+00  0.93800000000E+00 0. -1.
         11    1    1    2    0    0  0.12360927556E-01 -0.50296371344E-02  0.15681269917E+00  0.15738034668E+00  0.51100000000E-03 0.  1.
    9000002    1    1    2    0    0 -0.36290603814E+00  0.16435747568E+00  0.10706271239E+00  0.10247051267E+01  0.93800000000E+00 0. -1.
         22    1    1    2    0    0  0.35054511059E+00 -0.15932783855E+00  0.37361245558E+01  0.37559145266E+01  0.00000000000E+00 0.  1.
</event>
<event>
 5    1  0.3428566E+002  0.1599676E+01  0.7818608E-02  0.3353715E+00
         11   -1    0    0    0    0  0.00000000000E+00  0.00000000000E+00  0.39999999674E+01  0.40000000000E+01  0.51100000000E-03 0.  1.
    9000002   -1    0    0    0    0 -0.00000000000E+00 -0.00000000000E+00  0.00000000000E+00  0.93800000000E+00  0.93800000000E+00 0. -1.
         11    1    1    2    0    0  0.50201009856E-01  0.61577504140E-01  0.10543637936E+01  0.10573529216E+01  0.51100000000E-03 0.  1.
    9000002    1    1    2    0    0 -0.18493515526E+00 -0.22785168288E+00  0.57416087302E-01  0.98450901881E+00  0.93800000000E+00 0. -1.
         22    1    1    2    0    0  0.13473414541E+00  0.16627417874E+00  0.28882200865E+01  0.28961380596E+01  0.00000000000E+00 0.  1.
</event>
<event>
 5    1  0.3428566E+002  0.1512689E+01  0.7818608E-02  0.3453944E+00
         11   -1    0    0    0    0  0.00000000000E+00  0.00000000000E+00  0.39999999674E+01  0.40000000000E+01  0.51100000000E-03 0. -1.
    9000002   -1    0    0    0    0 -0.00000000000E+00 -0.00000000000E+00  0.00000000000E+00  0.93800000000E+00  0.93800000000E+00 0. -1.
         11    1    1    2    0    0 -0.34804801394E+00  0.58603589642E-01  0.19986354366E+01  0.20295604623E+01  0.51100000000E-03 0. -1.
    9000002    1    1    2    0    0  0.11391683667E+00  0.28424263027E+00  0.13435150823E+00  0.99582390326E+00  0.93800000000E+00 0. -1.
         22    1    1    2    0    0  0.23413117727E+00 -0.34284621991E+00  0.18670130225E+01  0.19126156344E+01  0.00000000000E+00 0. -1.
</event>
<event>
 5    1  0.3428566E+002  0.1599651E+01  0.7818608E-02  0.3353743E+00
         11   -1    0    0    0    0  0.00000000000E+00  0.00000000000E+00  0.39999999674E+01  0.40000000000E+01  0.51100000000E-03 0. -1.
    9000002   -1    0    0    0    0 -0.00000000000E+00 -0.00000000000E+00  0.00000000000E+00  0.93800000000E+00  0.93800000000E+00 0. -1.
         11    1    1    2    0    0  0.31424521266E-01  0.44350560843E-02  0.47595831598E+00  0.47701546089E+00  0.51100000000E-03 0. -1.
    9000002    1    1    2    0    0 -0.24400539635E+00 -0.65263233804E-01  0.42408892708E-01  0.97233761488E+00  0.93800000000E+00 0. -1.
         22    1    1    2    0    0  0.21258087508E+00  0.60828177719E-01  0.34816327587E+01  0.34886469242E+01  0.00000000000E+00 0. -1.
</event>
<event>
 5    1  0.3428566E+002  0.1599676E+01  0.7818608E-02  0.3353715E+00
         11   -1    0    0    0    0  0.00000000000E+00  0.00000000000E+00  0.39999999674E+01  0.40000000000E+01  0.51100000000E-03 0. -1.
    9000002   -1    0    0    0    0 -0.00000000000E+00 -0.00000000000E+00  0.00000000000E+00  0.93800000000E+00  0.93800000000E+00 0. -1.
         11    1    1    2    0    0 -0.17814008899E-01  0.55318359378E-01  0.85500801466E+00  0.85698099515E+00  0.51100000000E-03 0. -1.
    9000002    1    1    2    0    0  0.77494675477E-01 -0.25739133133E+00  0.48071731830E-01  0.97693941141E+00  0.93800000000E+00 0. -1.
         22    1    1    2    0    0 -0.59680666578E-01  0.20207297195E+00  0.30969202209E+01  0.31040795934E+01  0.00000000000E+00 0. -1.
</event>
<event>
 5    1  0.3428566E+002  0.1599619E+01  0.7818608E-02  0.3353776E+00
         11   -1    0    0    0    0  0.00000000000E+00  0.00000000000E+00  0.39999999674E+01  0.40000000000E+01  0.51100000000E-03 0.  1.
    9000002   -1    0    0    0    0 -0.00000000000E+00 -0.00000000000E+00  0.00000000000E+00  0.93800000000E+00  0.93800000000E+00 0. -1.
         11    1    1    2    0    0  0.11264302269E+00 -0.96836015027E-01  0.15253662910E+01  0.15325822155E+01  0.51100000000E-03 0.  1.
    9000002    1    1    2    0    0 -0.28723263315E+00  0.22543268024E+00  0.89593803942E-01  0.10105412058E+01  0.93800000000E+00 0. -1.
         22    1    1    2    0    0  0.17458961047E+00 -0.12859666521E+00  0.23850398724E+01  0.23948765787E+01  0.00000000000E+00 0.  1.
</event>
<event>
 5    1  0.3428566E+002  0.1599677E+01  0.7818608E-02  0.3353714E+00
         11   -1    0    0    0    0  0.00000000000E+00  0.00000000000E+00  0.39999999674E+01  0.40000000000E+01  0.51100000000E-03 0.  1.
    9000002   -1    0    0    0    0 -0.00000000000E+00 -0.00000000000E+00  0.00000000000E+00  0.93800000000E+00  0.93800000000E+00 0.  1.
         11    1    1    2    0    0  0.38994318738E+00 -0.33363143377E+00  0.22294705648E+01  0.22877729091E+01  0.51100000000E-03 0.  1.
    9000002    1    1    2    0    0 -0.61551291359E+00  0.52546970251E+00  0.48400943932E+00  0.13300690555E+01  0.93800000000E+00 0.  1.
         22    1    1    2    0    0  0.22556972621E+00 -0.19183826873E+00  0.12865199632E+01  0.13201580354E+01  0.00000000000E+00 0. -1.
</event>
<event>
 5    1  0.3428566E+002  0.1574373E+01  0.7818608E-02  0.3381656E+00
         11   -1    0    0    0    0  0.00000000000E+00  0.00000000000E+00  0.39999999674E+01  0.40000000000E+01  0.51100000000E-03 0.  1.
    9000002   -1    0    0    0    0 -0.00000000000E+00 -0.00000000000E+00  0.00000000000E+00  0.93800000000E+00  0.93800000000E+00 0. -1.
         11    1    1    2    0    0  0.27416900678E+00 -0.90504279562E-01  0.16898815981E+01  0.17143686143E+01  0.51100000000E-03 0.  1.
    9000002    1    1    2    0    0 -0.24628944466E+00  0.41740913324E+00  0.18323512552E+00  0.10715913336E+01  0.93800000000E+00 0. -1.
         22    1    1    2    0    0 -0.27879562117E-01 -0.32690485368E+00  0.21268832437E+01  0.21520400521E+01  0.00000000000E+00 0.  1.
</event>
<event>
 5    1  0.3428566E+002  0.1598922E+01  0.7818608E-02  0.3354535E+00
         11   -1    0    0    0    0  0.00000000000E+00  0.00000000000E+00  0.39999999674E+01  0.40000000000E+01  0.51100000000E-03 0.  1.
    9000002   -1    0    0    0    0 -0.00000000000E+00 -0.00000000000E+00  0.00000000000E+00  0.93800000000E+00  0.93800000000E+00 0.  1.
         11    1    1    2    0    0 -0.38879761192E-01 -0.30859019484E-01  0.44674135227E+00  0.44949083624E+00  0.51100000000E-03 0.  1.
    9000002    1    1    2    0    0  0.22308704191E+00  0.13210244394E+00  0.45264908429E-01  0.97422368884E+00  0.93800000000E+00 0.  1.
         22    1    1    2    0    0 -0.18420728072E+00 -0.10124342445E+00  0.35079937067E+01  0.35142854749E+01  0.00000000000E+00 0.  1.
</event>
<event>
 5    1  0.3428566E+002  0.1529888E+01  0.7818608E-02  0.3433162E+00
         11   -1    0    0    0    0  0.00000000000E+00  0.00000000000E+00  0.39999999674E+01  0.40000000000E+01  0.51100000000E-03 0.  1.
    9000002   -1    0    0    0    0 -0.00000000000E+00 -0.00000000000E+00  0.00000000000E+00  0.93800000000E+00  0.93800000000E+00 0.  1.
         11    1    1    2    0    0  0.44312091074E+00  0.58119305571E-02  0.20827979484E+01  0.21294218640E+01  0.51100000000E-03 0.  1.
    9000002    1    1    2    0    0 -0.23637056241E+00  0.19423251141E-01  0.92392366066E-01  0.97192008662E+00  0.93800000000E+00 0.  1.
         22    1    1    2    0    0 -0.20675034832E+00 -0.25235181698E-01  0.18248096529E+01  0.18366580494E+01  0.00000000000E+00 0.  1.
</event>
<event>
 5    1  0.3428566E+002  0.1599224E+01  0.7818608E-02  0.3354207E+00
         11   -1    0    0    0    0  0.00000000000E+00  0.00000000000E+00  0.39999999674E+01  0.40000000000E+01  0.51100000000E-03 0.  1.
    9000002   -1    0    0    0    0 -0.00000000000E+00 -0.00000000000E+00  0.00000000000E+00  0.93800000000E+00  0.93800000000E+00 0. -1.
         11    1    1    2    0    0 -0.44700852816E-03  0.18471389161E+00  0.14041931954E+01  0.14162902996E+01  0.51100000000E-03 0.  1.
    9000002    1    1    2    0    0  0.68177891118E-01 -0.50832025474E+00  0.18087323109E+00  0.10842494325E+01  0.93800000000E+00 0. -1.
         22    1    1    2    0    0 -0.67730882590E-01  0.32360636312E+00  0.24149335409E+01  0.24374602679E+01  0.00000000000E+00 0.  1.
</event>
<event>
 5    1  0.3428566E+002  0.1599677E+01  0.7818608E-02  0.3353714E+00
         11   -1    0    0    0    0  0.00000000000E+00  0.00000000000E+00  0.39999999674E+01  0.40000000000E+01  0.51100000000E-03 0. -1.
    9000002   -1    0    0    0    0 -0.00000000000E+00 -0.00000000000E+00  0.00000000000E+00  0.93800000000E+00  0.93800000000E+00 0. -1.
         11    1    1    2    0    0 -0.15906472113E+00 -0.12164929467E+00  0.85909012448E+00  0.88212030898E+00  0.51100000000E-03 0. -1.
    9000002    1    1    2    0    0  0.64839891903E+00  0.49685654112E+00  0.49441558253E+00  0.13384985427E+01  0.93800000000E+00 0. -1.
         22    1    1    2    0    0 -0.48933419790E+00 -0.37520724646E+00  0.26464942603E+01  0.27173811483E+01  0.00000000000E+00 0. -1.
</event>
<event>
 5    1  0.3428566E+002  0.1598246E+01  0.7818608E-02  0.3355269E+00
         11   -1    0    0    0    0  0.00000000000E+00  0.00000000000E+00  0.39999999674E+01  0.40000000000E+01  0.51100000000E-03 0.  1.
    9000002   -1    0    0    0    0 -0.00000000000E+00 -0.00000000000E+00  0.00000000000E+00  0.93800000000E+00  0.93800000000E+00 0. -1.
         11    1    1    2    0    0  0.21821704523E-01  0.41192567133E-02  0.11445667704E+00  0.11659222575E+00  0.51100000000E-03 0.  1.
    9000002    1    1    2    0    0 -0.22319480545E+00 -0.13046767451E+00  0.45527468213E-01  0.97404028953E+00  0.93800000000E+00 0. -1.
         22    1    1    2    0    0  0.20137310093E+00  0.12634841780E+00  0.38400158221E+01  0.38473674847E+01  0.00000000000E+00 0.  1.
</event>
<event>
 5    1  0.3428566E+002  0.1593878E+01  0.7818608E-02  0.3360035E+00
         11   -1    0    0    0    0  0.00000000000E+00  0.00000000000E+00  0.39999999674E+01  0.40000000000E+01  0.51100000000E-03 0.  1.
    9000002   -1    0    0    0    0 -0.00000000000E+00 -0.00000000000E+00  0.00000000000E+00  0.93800000000E+00  0.93800000000E+00 0.  1.
         11    1    1    2    0    0  0.64717055028E-01  0.19578646976E+00  0.15873076879E+01  0.16006456810E+01  0.51100000000E-03 0.  1.
    9000002    1    1    2    0    0  0.47158438182E-01 -0.39921839369E+00  0.11387707649E+00  0.10268452818E+01  0.93800000000E+00 0.  1.
         22    1    1    2    0    0 -0.11187549321E+00  0.20343192393E+00  0.22988152029E+01  0.23105090372E+01  0.00000000000E+00 0.  1.
</event>
<event>
 5    1  0.3428566E+002  0.1599640E+01  0.7818608E-02  0.3353755E+00
         11   -1    0    0    0    0  0.00000000000E+00  0.00000000000E+00  0.39999999674E+01  0.40000000000E+01  0.51100000000E-03 0. -1.
    9000002   -1    0    0    0    0 -0.00000000000E+00 -0.00000000000E+00  0.00000000000E+00  0.93800000000E+00  0.93800000000E+00 0. -1.
         11    1    1    2    0    0 -0.21178660963E-01  0.27010532089E-01  0.44542490722E+00  0.44674569233E+00  0.51100000000E-03 0. -1.
    9000002    1    1    2    0    0  0.18389697309E+00 -0.27896347455E+00  0.74757036423E-01  0.99853459196E+00  0.93800000000E+00 0. -1.
         22    1    1    2    0    0 -0.16271831213E+00  0.25195294246E+00  0.34798180237E+01  0.34927197157E+01  0.00000000000E+00 0. -1.
</event>
<event>
 5    1  0.3428566E+002  0.1599675E+01  0.7818608E-02  0.3353716E+00
         11   -1    0    0    0    0  0.00000000000E+00  0.00000000000E+00  0.39999999674E+01  0.40000000000E+01  0.51100000000E-03 0. -1.
    9000002   -1    0    0    0    0 -0.00000000000E+00 -0.00000000000E+00  0.00000000000E+00  0.93800000000E+00  0.93800000000E+00 0. -1.
         11    1    1    2    0    0 -0.16413221878E-01  0.42886652575E-01  0.55225639527E+00  0.55416247262E+00  0.51100000000E-03 0. -1.
    9000002    1    1    2    0    0  0.11217283298E+00 -0.29954421732E+00  0.68384114581E-01  0.99339310936E+00  0.93800000000E+00 0. -1.
         22    1    1    2    0    0 -0.95759611105E-01  0.25665756475E+00  0.33793594575E+01  0.33904444180E+01  0.00000000000E+00 0. -1.
</event>
<event>
 5    1  0.3428566E+002  0.1574771E+01  0.7818608E-02  0.3381210E+00
         11   -1    0    0    0    0  0.00000000000E+00  0.00000000000E+00  0.39999999674E+01  0.40000000000E+01  0.51100000000E-03 0.  1.
    9000002   -1    0    0    0    0 -0.00000000000E+00 -0.00000000000E+00  0.00000000000E+00  0.93800000000E+00  0.93800000000E+00 0.  1.
         11    1    1    2    0    0  0.11627410875E+00  0.45279586632E-01  0.25405269668E+00  0.28304229921E+00  0.51100000000E-03 0.  1.
    9000002    1    1    2    0    0 -0.33142765312E+00 -0.29301379589E+00  0.15447346745E+00  0.10485263115E+01  0.93800000000E+00 0.  1.
         22    1    1    2    0    0  0.21515354437E+00  0.24773420926E+00  0.35914738032E+01  0.36064313893E+01  0.00000000000E+00 0.  1.
</event>
<event>
 5    1  0.3428566E+002  0.1599386E+01  0.7818608E-02  0.3354031E+00
         11   -1    0    0    0    0  0.00000000000E+00  0.00000000000E+00  0.39999999674E+01  0.40000000000E+01  0.51100000000E-03 0.  1.
    9000002   -1    0    0    0    0 -0.00000000000E+00 -0.00000000000E+00  0.00000000000E+00  0.93800000000E+00  0.93800000000E+00 0. -1.
         11    1    1    2    0    0  0.69413487869E-02  0.15508603454E-01  0.39647765228E+00  0.39684189419E+00  0.51100000000E-03 0.  1.
    9000002    1    1    2    0    0 -0.18534248257E+00 -0.11315405106E+00  0.31471586538E-01  0.96332244647E+00  0.93800000000E+00 0. -1.
         22    1    1    2    0    0  0.17840113378E+00  0.97645447606E-01  0.35720507285E+01  0.35778356593E+01  0.00000000000E+00 0.  1.
</event>
<event>
 5    1  0.3428566E+002  0.1599677E+01  0.7818608E-02  0.3353714E+00
         11   -1    0    0    0    0  0.00000000000E+00  0.00000000000E+00  0.39999999674E+01  0.40000000000E+01  0.51100000000E-03 0.  1.
    9000002   -1    0    0    0    0 -0.00000000000E+00 -0.00000000000E+00  0.00000000000E+00  0.93800000000E+00  0.93800000000E+00 0.  1.
         11    1    1    2    0    0  0.39808160031E-01  0.26278392841E+00  0.12969828355E+01  0.13239353532E+01  0.51100000000E-03 0.  1.
    9000002    1    1    2    0    0 -0.11008994143E+00 -0.73133583311E+00  0.39528745305E+00  0.12582003285E+01  0.93800000000E+00 0.  1.
         22    1    1    2    0    0  0.70281781402E-01  0.46855190469E+00  0.23077296788E+01  0.23558643184E+01  0.00000000000E+00 0.  1.
</event>
<event>
 5    1  0.3428566E+002  0.1561284E+01  0.7818608E-02  0.3396487E+00
         11   -1    0    0    0    0  0.00000000000E+00  0.00000000000E+00  0.39999999674E+01  0.40000000000E+01  0.51100000000E-03 0.  1.
    9000002   -1    0    0    0    0 -0.00000000000E+00 -0.00000000000E+00  0.00000000000E+00  0.93800000000E+00  0.93800000000E+00 0. -1.
         11    1    1    2    0    0 -0.63339357487E-01 -0.15192794546E+00  0.64290850592E+00  0.66364567574E+00  0.51100000000E-03 0.  1.
    9000002    1    1    2    0    0 -0.18199537591E+00  0.24158637967E-01  0.51473383569E-01  0.95718308900E+00  0.93800000000E+00 0. -1.
         22    1    1    2    0    0  0.24533473340E+00  0.12776930749E+00  0.33056180779E+01  0.33171712353E+01  0.00000000000E+00 0.  1.
</event>
<event>
 5    1  0.3428566E+002  0.1505836E+01  0.7818608E-02  0.3462367E+00
         11   -1    0    0    0    0  0.00000000000E+00  0.00000000000E+00  0.39999999674E+01  0.40000000000E+01  0.51100000000E-03 0.  1.
    9000002   -1    0    0    0    0 -0.00000000000E+00 -0.00000000000E+00  0.00000000000E+00  0.93800000000E+00  0.93800000000E+00 0. -1.
         11    1    1    2    0    0  0.23261671333E+00  0.15132522860E+00  0.34304753603E+00  0.44123886187E+00  0.51100000000E-03 0.  1.
    9000002    1    1    2    0    0 -0.55343789645E+00 -0.79994121582E-01  0.31203813537E+00  0.11357395664E+01  0.93800000000E+00 0. -1.
         22    1    1    2    0    0  0.32082118312E+00 -0.71331107022E-01  0.33449142960E+01  0.33610215717E+01  0.00000000000E+00 0.  1.
</event>
<event>
 5    1  0.3428566E+002  0.1593422E+01  0.7818608E-02  0.3360534E+00
         11   -1    0    0    0    0  0.00000000000E+00  0.00000000000E+00  0.39999999674E+01  0.40000000000E+01  0.51100000000E-03 0. -1.
    9000002   -1    0    0    0    0 -0.00000000000E+00 -0.00000000000E+00  0.00000000000E+00  0.93800000000E+00  0.93800000000E+00 0. -1.
         11    1    1    2    0    0 -0.38761746237E-01 -0.38105389143E-01  0.53016758325E+00  0.53294692147E+00  0.51100000000E-03 0. -1.
    9000002    1    1    2    0    0  0.37312301770E+00 -0.19107189571E+00  0.12412889558E+00  0.10348822341E+01  0.93800000000E+00 0. -1.
         22    1    1    2    0    0 -0.33436127146E+00  0.22917728485E+00  0.33457034885E+01  0.33701708445E+01  0.00000000000E+00 0. -1.
</event>
<event>
 5    1  0.3428566E+002  0.1599676E+01  0.7818608E-02  0.3353715E+00
         11   -1    0    0    0    0  0.00000000000E+00  0.00000000000E+00  0.39999999674E+01  0.40000000000E+01  0.51100000000E-03 0.  1.
    9000002   -1    0    0    0    0 -0.00000000000E+00 -0.00000000000E+00  0.00000000000E+00  0.93800000000E+00  0.93800000000E+00 0. -1.
         11    1    1    2    0    0  0.10529486927E-01 -0.40647548211E-01  0.53487540234E+00  0.53652124880E+00  0.51100000000E-03 0.  1.
    9000002    1    1    2    0    0 -0.83417050453E-01  0.29687397146E+00  0.63488613810E-01  0.98942779591E+00  0.93800000000E+00 0. -1.
         22    1    1    2    0    0  0.72887563525E-01 -0.25622642325E+00  0.34016359512E+01  0.34120509553E+01  0.00000000000E+00 0.  1.
</event>
<event>
 5    1  0.3428566E+002  0.1599668E+01  0.7818608E-02  0.3353724E+00
         11   -1    0    0    0    0  0.00000000000E+00  0.00000000000E+00  0.39999999674E+01  0.40000000000E+01  0.51100000000E-03 0. -1.
    9000002   -1    0    0    0    0 -0.00000000000E+00 -0.00000000000E+00  0.00000000000E+00  0.93800000000E+00  0.93800000000E+00 0. -1.
         11    1    1    2    0    0 -0.44176874193E-02 -0.15674001230E-01  0.15034711555E+00  0.15122733401E+00  0.51100000000E-03 0. -1.
    9000002    1    1    2    0    0  0.14473333879E+00  0.39087870050E+00  0.11745388693E+00  0.10331376062E+01  0.93800000000E+00 0. -1.
         22    1    1    2    0    0 -0.14031565137E+00 -0.37520469927E+00  0.37321989649E+01  0.37536350598E+01  0.00000000000E+00 0. -1.
</event>
<event>
 5    1  0.3428566E+002  0.1599659E+01  0.7818608E-02  0.3353733E+00
         11   -1    0    0    0    0  0.00000000000E+00  0.00000000000E+00  0.39999999674E+01  0.40000000000E+01  0.51100000000E-03 0.  1.
    9000002   -1    0    0    0    0 -0.00000000000E+00 -0.00000000000E+00  0.00000000000E+00  0.93800000000E+00  0.93800000000E+00 0.  1.
         11    1    1    2    0    0  0.13144531087E+00  0.13212355489E+00  0.18586065056E+01  0.18679274363E+01  0.51100000000E-03 0.  1.
    9000002    1    1    2    0    0 -0.28506143335E+00 -0.28067842177E+00  0.10796573057E+00  0.10254467301E+01  0.93800000000E+00 0.  1.
         22    1    1    2    0    0  0.15361612249E+00  0.14855486688E+00  0.20334277312E+01  0.20446258336E+01  0.00000000000E+00 0.  1.
</event>
<event>
 5    1  0.3428566E+002  0.1599676E+01  0.7818608E-02  0.3353715E+00
         11   -1    0    0    0    0  0.00000000000E+00  0.00000000000E+00  0.39999999674E+01  0.40000000000E+01  0.51100000000E-03 0.  1.
    9000002   -1    0    0    0    0 -0.00000000000E+00 -0.00000000000E+00  0.00000000000E+00  0.93800000000E+00  0.93800000000E+00 0. -1.
         11    1    1    2    0    0 -0.16189208977E+00 -0.16147307198E+00  0.17386848737E+01  0.17536555970E+01  0.51100000000E-03 0.  1.
    9000002    1    1    2    0    0  0.35825316456E+00  0.35513901361E+00  0.17432975953E+00  0.10792144893E+01  0.93800000000E+00 0. -1.
         22    1    1    2    0    0 -0.19636107479E+00 -0.19366594163E+00  0.20869853341E+01  0.21051299137E+01  0.00000000000E+00 0.  1.
</event>
<event>
 5    1  0.3428566E+002  0.1599064E+01  0.7818608E-02  0.3354380E+00
         11   -1    0    0    0    0  0.00000000000E+00  0.00000000000E+00  0.39999999674E+01  0.40000000000E+01  0.51100000000E-03 0.  1.
    9000002   -1    0    0    0    0 -0.00000000000E+00 -0.00000000000E+00  0.00000000000E+00  0.93800000000E+00  0.93800000000E+00 0. -1.
         11    1    1    2    0    0  0.63144918022E-01  0.87077757649E-02  0.90186310799E+00  0.90411306412E+00  0.51100000000E-03 0.  1.
    9000002    1    1    2    0    0 -0.23354849166E+00 -0.13886045537E+00  0.49601188054E-01  0.97781971849E+00  0.93800000000E+00 0. -1.
         22    1    1    2    0    0  0.17040357363E+00  0.13015267960E+00  0.30485356713E+01  0.30560672174E+01  0.00000000000E+00 0.  1.
</event>
<event>
 5    1  0.3428566E+002  0.1524445E+01  0.7818608E-02  0.3439685E+00
         11   -1    0    0    0    0  0.00000000000E+00  0.00000000000E+00  0.39999999674E+01  0.40000000000E+01  0.51100000000E-03 0. -1.
    9000002   -1    0    0    0    0 -0.00000000000E+00 -0.00000000000E+00  0.00000000000E+00  0.93800000000E+00  0.93800000000E+00 0.  1.
         11    1    1    2    0    0 -0.20422737603E+00  0.29394048677E+00  0.18843474810E+01  0.19180394994E+01  0.51100000000E-03 0. -1.
    9000002    1    1    2    0    0  0.15360433221E+00  0.18646554292E-01  0.73621487519E-01  0.95352299830E+00  0.93800000000E+00 0.  1.
         22    1    1    2    0    0  0.50623043820E-01 -0.31258704106E+00  0.20420309988E+01  0.20664375023E+01  0.00000000000E+00 0.  1.
</event>
<event>
 5    1  0.3428566E+002  0.1589857E+01  0.7818608E-02  0.3364447E+00
         11   -1    0    0    0    0  0.00000000000E+00  0.00000000000E+00  0.39999999674E+01  0.40000000000E+01  0.51100000000E-03 0. -1.
    9000002   -1    0    0    0    0 -0.00000000000E+00 -0.00000000000E+00  0.00000000000E+00  0.93800000000E+00  0.93800000000E+00 0.  1.
         11    1    1    2    0    0  0.10117943391E-01 -0.61720768198E-01  0.87867006651E+00  0.88089339475E+00  0.51100000000E-03 0. -1.
    9000002    1    1    2    0    0 -0.44025128522E+00  0.79736441810E-01  0.14442009813E+00  0.10492284113E+01  0.93800000000E+00 0.  1.
         22    1    1    2    0    0  0.43013334183E+00 -0.18015673612E-01  0.29769098027E+01  0.30078781940E+01  0.00000000000E+00 0. -1.
</event>
<event>
 5    1  0.3428566E+002  0.1391174E+01  0.7818608E-02  0.3621125E+00
         11   -1    0    0    0    0  0.00000000000E+00  0.00000000000E+00  0.39999999674E+01  0.40000000000E+01  0.51100000000E-03 0. -1.
    9000002   -1    0    0    0    0 -0.00000000000E+00 -0.00000000000E+00  0.00000000000E+00  0.93800000000E+00  0.93800000000E+00 0.  1.
         11    1    1    2    0    0 -0.13436305657E-01 -0.71213616938E+00  0.17367483641E+01  0.18771290844E+01  0.51100000000E-03 0. -1.
    9000002    1    1    2    0    0  0.18992260567E+00  0.35314270903E+00  0.30868903016E+00  0.10657923280E+01  0.93800000000E+00 0.  1.
         22    1    1    2    0    0 -0.17648630002E+00  0.35899346034E+00  0.19545625731E+01  0.19950785876E+01  0.00000000000E+00 0. -1.
</event>
<event>
 5    1  0.3428566E+002  0.1598088E+01  0.7818608E-02  0.3355441E+00
         11   -1    0    0    0    0  0.00000000000E+00  0.00000000000E+00  0.39999999674E+01  0.40000000000E+01  0.51100000000E-03 0.  1.
    9000002   -1    0    0    0    0 -0.00000000000E+00 -0.00000000000E+00  0.00000000000E+00  0.93800000000E+00  0.93800000000E+00 0. -1.
         11    1    1    2    0    0  0.19235464617E+00 -0.35559664703E+00  0.22437593046E+01  0.22798915245E+01  0.51100000000E-03 0.  1.
    9000002    1    1    2    0    0 -0.24226343065E+00  0.57653064636E+00  0.27600947263E+00  0.11606482607E+01  0.93800000000E+00 0. -1.
         22    1    1    2    0    0  0.49908784476E-01 -0.22093399933E+00  0.14802311902E+01  0.14974602149E+01  0.00000000000E+00 0.  1.
</event>
<event>
 5    1  0.3428566E+002  0.1599676E+01  0.7818608E-02  0.3353715E+00
         11   -1    0    0    0    0  0.00000000000E+00  0.00000000000E+00  0.39999999674E+01  0.40000000000E+01  0.51100000000E-03 0.  1.
    9000002   -1    0    0    0    0 -0.00000000000E+00 -0.00000000000E+00  0.00000000000E+00  0.93800000000E+00  0.93800000000E+00 0.  1.
         11    1    1    2    0    0  0.36046248358E-01 -0.32886485928E-01  0.58569519009E+00  0.58772439952E+00  0.51100000000E-03 0. -1.
    9000002    1    1    2    0    0 -0.24610235730E+00  0.21922334497E+00  0.72676477915E-01  0.99687066147E+00  0.93800000000E+00 0.  1.
         22    1    1    2    0    0  0.21005610894E+00 -0.18633685904E+00  0.33416282994E+01  0.33534049390E+01  0.00000000000E+00 0.  1.
</event>
<event>
 5    1  0.3428566E+002  0.1592170E+01  0.7818608E-02  0.3361905E+00
         11   -1    0    0    0    0  0.00000000000E+00  0.00000000000E+00  0.39999999674E+01  0.40000000000E+01  0.51100000000E-03 0. -1.
    9000002   -1    0    0    0    0 -0.00000000000E+00 -0.00000000000E+00  0.00000000000E+00  0.93800000000E+00  0.93800000000E+00 0. -1.
         11    1    1    2    0    0  0.10085542962E+00 -0.21532968001E-01  0.64797783919E+00  0.65613339162E+00  0.51100000000E-03 0. -1.
    9000002    1    1    2    0    0 -0.23264673916E+00 -0.14639782439E+00  0.56117003272E-01  0.97905564003E+00  0.93800000000E+00 0. -1.
         22    1    1    2    0    0  0.13179130954E+00  0.16793079239E+00  0.32959051249E+01  0.33028109683E+01  0.00000000000E+00 0. -1.
</event>
<event>
 5    1  0.3428566E+002  0.1569480E+01  0.7818608E-02  0.3387170E+00
         11   -1    0    0    0    0  0.00000000000E+00  0.00000000000E+00  0.39999999674E+01  0.40000000000E+01  0.51100000000E-03 0.  1.
    9000002   -1    0    0    0    0 -0.00000000000E+00 -0.00000000000E+00  0.00000000000E+00  0.93800000000E+00  0.93800000000E+00 0.  1.
         11    1    1    2    0    0  0.23930231569E-01 -0.18552019979E+00  0.18038042782E+01  0.18134774704E+01  0.51100000000E-03 0.  1.
    9000002    1    1    2    0    0 -0.15466597530E+00 -0.38386646637E-01  0.39460917110E-01  0.95225850615E+00  0.93800000000E+00 0.  1.
         22    1    1    2    0    0  0.13073574373E+00  0.22390684643E+00  0.21567347721E+01  0.21722640234E+01  0.00000000000E+00 0.  1.
</event>
<event>
 5    1  0.3428566E+002  0.1599666E+01  0.7818608E-02  0.3353726E+00
         11   -1    0    0    0    0  0.00000000000E+00  0.00000000000E+00  0.39999999674E+01  0.40000000000E+01  0.51100000000E-03 0.  1.
    9000002   -1    0    0    0    0 -0.00000000000E+00 -0.00000000000E+00  0.00000000000E+00  0.93800000000E+00  0.93800000000E+00 0.  1.
         11    1    1    2    0    0  0.25821033215E-01  0.21221817417E-01  0.26600190961E+00  0.26809395429E+00  0.51100000000E-03 0.  1.
    9000002    1    1    2    0    0 -0.38716388338E+00 -0.28244703863E+00  0.15670001373E+00  0.10649277424E+01  0.93800000000E+00 0.  1.
         22    1    1    2    0    0  0.36134285017E+00  0.26122522121E+00  0.35772980440E+01  0.36049783033E+01  0.00000000000E+00 0.  1.
</event>
<event>
 5    1  0.3428566E+002  0.1588498E+01  0.7818608E-02  0.3365942E+00
         11   -1    0    0    0    0  0.00000000000E+00  0.00000000000E+00  0.39999999674E+01  0.40000000000E+01  0.51100000000E-03 0.  1.
    9000002   -1    0    0    0    0 -0.00000000000E+00 -0.00000000000E+00  0.00000000000E+00  0.93800000000E+00  0.93800000000E+00 0.  1.
         11    1    1    2    0    0 -0.32398005212E+00 -0.17070276907E+00  0.29156633426E+01  0.29385703153E+01  0.51100000000E-03 0.  1.
    9000002    1    1    2    0    0  0.43248405419E+00  0.35936173141E+00  0.22966719325E+00  0.11174857184E+01  0.93800000000E+00 0.  1.
         22    1    1    2    0    0 -0.10850400208E+00 -0.18865896235E+00  0.85466943148E+00  0.88194396628E+00  0.00000000000E+00 0. -1.
</event>
<event>
 5    1  0.3428566E+002  0.1599676E+01  0.7818608E-02  0.3353715E+00
         11   -1    0    0    0    0  0.00000000000E+00  0.00000000000E+00  0.39999999674E+01  0.40000000000E+01  0.51100000000E-03 0. -1.
    9000002   -1    0    0    0    0 -0.00000000000E+00 -0.00000000000E+00  0.00000000000E+00  0.93800000000E+00  0.93800000000E+00 0.  1.
         11    1    1    2    0    0  0.10406462164E-01  0.21408123981E-01  0.32823101879E+00  0.32909339866E+00  0.51100000000E-03 0.  1.
    9000002    1    1    2    0    0 -0.12339137836E+00 -0.26122661628E+00  0.55624568912E-01  0.98305791791E+00  0.93800000000E+00 0.  1.
         22    1    1    2    0    0  0.11298491619E+00  0.23981849230E+00  0.36161443797E+01  0.36258486834E+01  0.00000000000E+00 0. -1.
</event>
<event>
 5    1  0.3428566E+002  0.1599671E+01  0.7818608E-02  0.3353720E+00
         11   -1    0    0    0    0  0.00000000000E+00  0.00000000000E+00  0.39999999674E+01  0.40000000000E+01  0.51100000000E-03 0. -1.
    9000002   -1    0    0    0    0 -0.00000000000E+00 -0.00000000000E+00  0.00000000000E+00  0.93800000000E+00  0.93800000000E+00 0.  1.
         11    1    1    2    0    0  0.15723107221E+00 -0.12680733521E+00  0.14904755661E+01  0.15041008559E+01  0.51100000000E-03 0. -1.
    9000002    1    1    2    0    0 -0.39575745946E+00  0.32379279985E+00  0.17933928682E+00  0.10832692757E+01  0.93800000000E+00 0.  1.
         22    1    1    2    0    0  0.23852638725E+00 -0.19698546463E+00  0.23301851144E+01  0.23506298684E+01  0.00000000000E+00 0. -1.
</event>
<event>
 5    1  0.3428566E+002  0.1599615E+01  0.7818608E-02  0.3353781E+00
         11   -1    0    0    0    0  0.00000000000E+00  0.00000000000E+00  0.39999999674E+01  0.40000000000E+01  0.51100000000E-03 0.  1.
    9000002   -1    0    0    0    0 -0.00000000000E+00 -0.00000000000E+00  0.00000000000E+00  0.93800000000E+00  0.93800000000E+00 0.  1.
         11    1    1    2    0    0 -0.47581728191E-01 -0.15458590390E+00  0.12362543713E+01  0.12467902607E+01  0.51100000000E-03 0.  1.
    9000002    1    1    2    0    0  0.15977650317E+00  0.45542820833E+00  0.15906370371E+00  0.10668123761E+01  0.93800000000E+00 0.  1.
         22    1    1    2    0    0 -0.11219477498E+00 -0.30084230444E+00  0.26046818923E+01  0.26243973632E+01  0.00000000000E+00 0.  1.
</event>
<event>
 5    1  0.3428566E+002  0.1597493E+01  0.7818608E-02  0.3356088E+00
         11   -1    0    0    0    0  0.00000000000E+00  0.00000000000E+00  0.39999999674E+01  0.40000000000E+01  0.51100000000E-03 0. -1.
    9000002   -1    0    0    0    0 -0.00000000000E+00 -0.00000000000E+00  0.00000000000E+00  0.93800000000E+00  0.93800000000E+00 0. -1.
         11    1    1    2    0    0  0.90419421059E-02 -0.24724881363E-02  0.10690668663E+00  0.10731808180E+00  0.51100000000E-03 0. -1.
    9000002    1    1    2    0    0  0.31553230886E+00  0.26794482765E+00  0.11763096112E+00  0.10320058680E+01  0.93800000000E+00 0. -1.
         22    1    1    2    0    0 -0.32457425096E+00 -0.26547233952E+00  0.37754623196E+01  0.37986760502E+01  0.00000000000E+00 0. -1.
</event>
<event>
 5    1  0.3428566E+002  0.1599305E+01  0.7818608E-02  0.3354118E+00
         11   -1    0    0    0    0  0.00000000000E+00  0.00000000000E+00  0.39999999674E+01  0.40000000000E+01  0.51100000000E-03 0. -1.
    9000002   -1    0    0    0    0 -0.00000000000E+00 -0.00000000000E+00  0.00000000000E+00  0.93800000000E+00  0.93800000000E+00 0. -1.
         11    1    1    2    0    0  0.16610852955E-02 -0.30459784743E-01  0.15838979406E+00  0.16130141250E+00  0.51100000000E-03 0. -1.
    9000002    1    1    2    0    0  0.14508930842E+00  0.79198654669E+00  0.47887475992E+00  0.13256917565E+01  0.93800000000E+00 0. -1.
         22    1    1    2    0    0 -0.14675039372E+00 -0.76152676195E+00  0.33627354134E+01  0.34510068310E+01  0.00000000000E+00 0. -1.
</event>
<event>
 5    1  0.3428566E+002  0.1599666E+01  0.7818608E-02  0.3353726E+00
         11   -1    0    0    0    0  0.00000000000E+00  0.00000000000E+00  0.39999999674E+01  0.40000000000E+01  0.51100000000E-03 0. -1.
    9000002   -1    0    0    0    0 -0.00000000000E+00 -0.00000000000E+00  0.00000000000E+00  0.93800000000E+00  0.93800000000E+00 0.  1.
         11    1    1    2    0    0  0.16957057626E-01 -0.59477613900E-02  0.20740505746E+00  0.20818270017E+00  0.51100000000E-03 0. -1.
    9000002    1    1    2    0    0 -0.34830936423E+00  0.12714649453E+00  0.92413138797E-01  0.10128523251E+01  0.93800000000E+00 0.  1.
         22    1    1    2    0    0  0.33135230661E+00 -0.12119873314E+00  0.37001817711E+01  0.37169649747E+01  0.00000000000E+00 0. -1.
</event>
<event>
 5    1  0.3428566E+002  0.1599565E+01  0.7818608E-02  0.3353836E+00
         11   -1    0    0    0    0  0.00000000000E+00  0.00000000000E+00  0.39999999674E+01  0.40000000000E+01  0.51100000000E-03 0.  1.
    9000002   -1    0    0    0    0 -0.00000000000E+00 -0.00000000000E+00  0.00000000000E+00  0.93800000000E+00  0.93800000000E+00 0. -1.
         11    1    1    2    0    0  0.32097795611E+00 -0.11123684415E+00  0.24095657334E+01  0.24333942895E+01  0.51100000000E-03 0.  1.
    9000002    1    1    2    0    0 -0.51307856168E+00  0.19279701200E+00  0.20753158317E+00  0.11060441475E+01  0.93800000000E+00 0. -1.
         22    1    1    2    0    0  0.19210060556E+00 -0.81560167851E-01  0.13829026508E+01  0.13985615629E+01  0.00000000000E+00 0. -1.
</event>
<event>
 5    1  0.3428566E+002  0.1599675E+01  0.7818608E-02  0.3353716E+00
         11   -1    0    0    0    0  0.00000000000E+00  0.00000000000E+00  0.39999999674E+01  0.40000000000E+01  0.51100000000E-03 0.  1.
    9000002   -1    0    0    0    0 -0.00000000000E+00 -0.00000000000E+00  0.00000000000E+00  0.93800000000E+00  0.93800000000E+00 0.  1.
         11    1    1    2    0    0 -0.79246361511E-01 -0.19124422024E+00  0.18284238719E+01  0.18401055551E+01  0.51100000000E-03 0.  1.
    9000002    1    1    2    0    0  0.16710364276E+00  0.40832667272E+00  0.13203847293E+00  0.10449557203E+01  0.93800000000E+00 0.  1.
         22    1    1    2    0    0 -0.87857281251E-01 -0.21708245248E+00  0.20395376226E+01  0.20529387246E+01  0.00000000000E+00 0.  1.
</event>
<event>
 5    1  0.3428566E+002  0.1599186E+01  0.7818608E-02  0.3354247E+00
         11   -1    0    0    0    0  0.00000000000E+00  0.00000000000E+00  0.39999999674E+01  0.40000000000E+01  0.51100000000E-03 0.  1.
    9000002   -1    0    0    0    0 -0.00000000000E+00 -0.00000000000E+00  0.00000000000E+00  0.93800000000E+00  0.93800000000E+00 0.  1.
         11    1    1    2    0    0  0.64693243619E-01  0.64578824489E-01  0.91172845424E+00  0.91629944654E+00  0.51100000000E-03 0.  1.
    9000002    1    1    2    0    0 -0.35638309681E+00 -0.22288845334E+00  0.11991522084E+00  0.10348487013E+01  0.93800000000E+00 0.  1.
         22    1    1    2    0    0  0.29168985319E+00  0.15830962885E+00  0.29683562923E+01  0.29868518522E+01  0.00000000000E+00 0.  1.
</event>
<event>
 5    1  0.3428566E+002  0.1599542E+01  0.7818608E-02  0.3353861E+00
         11   -1    0    0    0    0  0.00000000000E+00  0.00000000000E+00  0.39999999674E+01  0.40000000000E+01  0.51100000000E-03 0.  1.
    9000002   -1    0    0    0    0 -0.00000000000E+00 -0.00000000000E+00  0.00000000000E+00  0.93800000000E+00  0.93800000000E+00 0. -1.
         11    1    1    2    0    0 -0.16383527233E-01 -0.21621704115E-01  0.44341386373E+00  0.44424321460E+00  0.51100000000E-03 0.  1.
    9000002    1    1    2    0    0  0.22241208809E+00  0.17467165649E+00  0.53376053756E-01  0.98115764667E+00  0.93800000000E+00 0. -1.
         22    1    1    2    0    0 -0.20602856086E+00 -0.15304995237E+00  0.35032100499E+01  0.35125991387E+01  0.00000000000E+00 0.  1.
</event>
<event>
 5    1  0.3428566E+002  0.1503725E+01  0.7818608E-02  0.3464978E+00
         11   -1    0    0    0    0  0.00000000000E+00  0.00000000000E+00  0.39999999674E+01  0.40000000000E+01  0.51100000000E-03 0.  1.
    9000002   -1    0    0    0    0 -0.00000000000E+00 -0.00000000000E+00  0.00000000000E+00  0.93800000000E+00  0.93800000000E+00 0.  1.
         11    1    1    2    0    0 -0.12669857750E+00  0.49033051142E+00  0.28346829770E+01  0.28795667002E+01  0.51100000000E-03 0.  1.
    9000002    1    1    2    0    0  0.48323026393E-01 -0.23561121370E+00  0.11537241876E+00  0.97519359817E+00  0.93800000000E+00 0.  1.
         22    1    1    2    0    0  0.78375551110E-01 -0.25471929772E+00  0.10499445716E+01  0.10832397016E+01  0.00000000000E+00 0. -1.
</event>
<event>
 5    1  0.3428566E+002  0.1599656E+01  0.7818608E-02  0.3353736E+00
         11   -1    0    0    0    0  0.00000000000E+00  0.00000000000E+00  0.39999999674E+01  0.40000000000E+01  0.51100000000E-03 0.  1.
    9000002   -1    0    0    0    0 -0.00000000000E+00 -0.00000000000E+00  0.00000000000E+00  0.93800000000E+00  0.93800000000E+00 0. -1.
         11    1    1    2    0    0 -0.34286824252E+00 -0.36565359377E+00  0.19495223363E+01  0.20129328809E+01  0.51100000000E-03 0.  1.
    9000002    1    1    2    0    0  0.59913477912E+00  0.63322945072E+00  0.57487456885E+00  0.14036619218E+01  0.93800000000E+00 0. -1.
         22    1    1    2    0    0 -0.25626653660E+00 -0.26757585694E+00  0.14756030622E+01  0.15214051973E+01  0.00000000000E+00 0.  1.
</event>
<event>
 5    1  0.3428566E+002  0.1535886E+01  0.7818608E-02  0.3426032E+00
         11   -1    0    0    0    0  0.00000000000E+00  0.00000000000E+00  0.39999999674E+01  0.40000000000E+01  0.51100000000E-03 0. -1.
    9000002   -1    0    0    0    0 -0.00000000000E+00 -0.00000000000E+00  0.00000000000E+00  0.93800000000E+00  0.93800000000E+00 0.  1.
         11    1    1    2    0    0 -0.22409033597E+00  0.79333878421E-02  0.31966589985E+01  0.32045137589E+01  0.51100000000E-03 0. -1.
    9000002    1    1    2    0    0  0.27865771034E+00  0.26981924121E+00  0.15598637504E+00  0.10269509685E+01  0.93800000000E+00 0.  1.
         22    1    1    2    0    0 -0.54567374370E-01 -0.27775262905E+00  0.64735459386E+00  0.70653527264E+00  0.00000000000E+00 0. -1.
</event>
<event>
 5    1  0.3428566E+002  0.1599677E+01  0.7818608E-02  0.3353714E+00
         11   -1    0    0    0    0  0.00000000000E+00  0.00000000000E+00  0.39999999674E+01  0.40000000000E+01  0.51100000000E-03 0. -1.
    9000002   -1    0    0    0    0 -0.00000000000E+00 -0.00000000000E+00  0.00000000000E+00  0.93800000000E+00  0.93800000000E+00 0.  1.
         11    1    1    2    0    0 -0.13195263600E-01 -0.14403951585E+00  0.10622284066E+01  0.10720312244E+01  0.51100000000E-03 0. -1.
    9000002    1    1    2    0    0  0.45882333054E-01  0.51792078999E+00  0.18570462052E+00  0.10884288398E+01  0.93800000000E+00 0.  1.
         22    1    1    2    0    0 -0.32687069454E-01 -0.37388127414E+00  0.27520669402E+01  0.27775399359E+01  0.00000000000E+00 0. -1.
</event>
<event>
 5    1  0.3428566E+002  0.1599113E+01  0.7818608E-02  0.3354327E+00
         11   -1    0    0    0    0  0.00000000000E+00  0.00000000000E+00  0.39999999674E+01  0.40000000000E+01  0.51100000000E-03 0.  1.
    9000002   -1    0    0    0    0 -0.00000000000E+00 -0.00000000000E+00  0.00000000000E+00  0.93800000000E+00  0.93800000000E+00 0.  1.
         11    1    1    2    0    0  0.39434906465E-01  0.37540337988E-01  0.67536188278E+00  0.67755318807E+00  0.51100000000E-03 0.  1.
    9000002    1    1    2    0    0 -0.12396612539E+00 -0.28635870894E+00  0.65475019571E-01  0.99070676217E+00  0.93800000000E+00 0.  1.
         22    1    1    2    0    0  0.84531218928E-01  0.24881837095E+00  0.32591630650E+01  0.32697400498E+01  0.00000000000E+00 0.  1.
</event>
<event>
 5    1  0.3428566E+002  0.1579600E+01  0.7818608E-02  0.3375807E+00
         11   -1    0    0    0    0  0.00000000000E+00  0.00000000000E+00  0.39999999674E+01  0.40000000000E+01  0.51100000000E-03 0. -1.
    9000002   -1    0    0    0    0 -0.00000000000E+00 -0.00000000000E+00  0.00000000000E+00  0.93800000000E+00  0.93800000000E+00 0. -1.
         11    1    1    2    0    0 -0.88811929964E-01 -0.10851800510E+00  0.14538783711E+01  0.14606253098E+01  0.51100000000E-03 0. -1.
    9000002    1    1    2    0    0  0.28346726291E+00  0.68160053677E+00  0.41776650722E+00  0.12646366417E+01  0.93800000000E+00 0. -1.
         22    1    1    2    0    0 -0.19465533294E+00 -0.57308253168E+00  0.21283550890E+01  0.22127380486E+01  0.00000000000E+00 0. -1.
</event>
<event>
 5    1  0.3428566E+002  0.1599676E+01  0.7818608E-02  0.3353715E+00
         11   -1    0    0    0    0  0.00000000000E+00  0.00000000000E+00  0.39999999674E+01  0.40000000000E+01  0.51100000000E-03 0.  1.
    9000002   -1    0    0    0    0 -0.00000000000E+00 -0.00000000000E+00  0.00000000000E+00  0.93800000000E+00  0.93800000000E+00 0.  1.
         11    1    1    2    0    0 -0.90204230448E-01  0.16203977485E+00  0.15418058462E+01  0.15529195795E+01  0.51100000000E-03 0.  1.
    9000002    1    1    2    0    0  0.22246971543E+00 -0.40588472864E+00  0.14578703982E+00  0.10560932952E+01  0.93800000000E+00 0.  1.
         22    1    1    2    0    0 -0.13226548498E+00  0.24384495379E+00  0.23124070813E+01  0.23289871253E+01  0.00000000000E+00 0.  1.
</event>
<event>
 5    1  0.3428566E+002  0.1599677E+01  0.7818608E-02  0.3353714E+00
         11   -1    0    0    0    0  0.00000000000E+00  0.00000000000E+00  0.39999999674E+01  0.40000000000E+01  0.51100000000E-03 0.  1.
    9000002   -1    0    0    0    0 -0.00000000000E+00 -0.00000000000E+00  0.00000000000E+00  0.93800000000E+00  0.93800000000E+00 0. -1.
         11    1    1    2    0    0 -0.13362285254E+00 -0.15869656669E-01  0.12758699655E+01  0.12829463523E+01  0.51100000000E-03 0.  1.
    9000002    1    1    2    0    0  0.40535202146E+00  0.49513488116E-01  0.11260683611E+00  0.10292162777E+01  0.93800000000E+00 0. -1.
         22    1    1    2    0    0 -0.27172916892E+00 -0.33643831447E-01  0.26115231657E+01  0.26258373700E+01  0.00000000000E+00 0.  1.
</event>
<event>
 5    1  0.3428566E+002  0.1594783E+01  0.7818608E-02  0.3359046E+00
         11   -1    0    0    0    0  0.00000000000E+00  0.00000000000E+00  0.39999999674E+01  0.40000000000E+01  0.51100000000E-03 0. -1.
    9000002   -1    0    0    0    0 -0.00000000000E+00 -0.00000000000E+00  0.00000000000E+00  0.93800000000E+00  0.93800000000E+00 0.  1.
         11    1    1    2    0    0 -0.17529358205E-01  0.11741404763E+00  0.70092021054E+00  0.71090276384E+00  0.51100000000E-03 0. -1.
    9000002    1    1    2    0    0 -0.60791145840E-01 -0.33055361127E+00  0.79546733062E-01  0.99956637402E+00  0.93800000000E+00 0.  1.
         22    1    1    2    0    0  0.78320504045E-01  0.21313956364E+00  0.32195330238E+01  0.32275308621E+01  0.00000000000E+00 0. -1.
</event>
<event>
 5    1  0.3428566E+002  0.1599675E+01  0.7818608E-02  0.3353716E+00
         11   -1    0    0    0    0  0.00000000000E+00  0.00000000000E+00  0.39999999674E+01  0.40000000000E+01  0.51100000000E-03 0.  1.
    9000002   -1    0    0    0    0 -0.00000000000E+00 -0.00000000000E+00  0.00000000000E+00  0.93800000000E+00  0.93800000000E+00 0.  1.
         11    1    1    2    0    0  0.10299552839E+00  0.10295132999E+00  0.15060263123E+01  0.15130507492E+01  0.51100000000E-03 0.  1.
    9000002    1    1    2    0    0 -0.26674434470E+00 -0.26324614367E+00  0.94443025619E-01  0.10145021255E+01  0.93800000000E+00 0.  1.
         22    1    1    2    0    0  0.16374881631E+00  0.16029481368E+00  0.23995306295E+01  0.24104471253E+01  0.00000000000E+00 0.  1.
</event>
<event>
 5    1  0.3428566E+002  0.1539466E+01  0.7818608E-02  0.3421805E+00
         11   -1    0    0    0    0  0.00000000000E+00  0.00000000000E+00  0.39999999674E+01  0.40000000000E+01  0.51100000000E-03 0.  1.
    9000002   -1    0    0    0    0 -0.00000000000E+00 -0.00000000000E+00  0.00000000000E+00  0.93800000000E+00  0.93800000000E+00 0.  1.
         11    1    1    2    0    0 -0.15316269945E+00 -0.11006670955E+00  0.49653214513E+00  0.53114774341E+00  0.51100000000E-03 0.  1.
    9000002    1    1    2    0    0 -0.13663171628E+00  0.71627864101E-01  0.61603049860E-01  0.95259525118E+00  0.93800000000E+00 0.  1.
         22    1    1    2    0    0  0.28979441573E+00  0.38438845448E-01  0.34418647724E+01  0.34542570054E+01  0.00000000000E+00 0.  1.
</event>
<event>
 5    1  0.3428566E+002  0.1599673E+01  0.7818608E-02  0.3353719E+00
         11   -1    0    0    0    0  0.00000000000E+00  0.00000000000E+00  0.39999999674E+01  0.40000000000E+01  0.51100000000E-03 0. -1.
    9000002   -1    0    0    0    0 -0.00000000000E+00 -0.00000000000E+00  0.00000000000E+00  0.93800000000E+00  0.93800000000E+00 0. -1.
         11    1    1    2    0    0 -0.62681445620E-01  0.36956139205E-01  0.72659303365E+00  0.73022764774E+00  0.51100000000E-03 0. -1.
    9000002    1    1    2    0    0  0.32639185425E+00 -0.19607012370E+00  0.97557710197E-01  0.10170234229E+01  0.93800000000E+00 0. -1.
         22    1    1    2    0    0 -0.26371040863E+00  0.15911398449E+00  0.31758492235E+01  0.31907489294E+01  0.00000000000E+00 0. -1.
</event>
<event>
 5    1  0.3428566E+002  0.1516162E+01  0.7818608E-02  0.3449707E+00
         11   -1    0    0    0    0  0.00000000000E+00  0.00000000000E+00  0.39999999674E+01  0.40000000000E+01  0.51100000000E-03 0.  1.
    9000002   -1    0    0    0    0 -0.00000000000E+00 -0.00000000000E+00  0.00000000000E+00  0.93800000000E+00  0.93800000000E+00 0.  1.
         11    1    1    2    0    0 -0.33088090262E+00  0.25836681191E-01  0.28954553438E+01  0.29144144549E+01  0.51100000000E-03 0.  1.
    9000002    1    1    2    0    0  0.22411869039E+00  0.30326952290E+00  0.16755091789E+00  0.10247530927E+01  0.93800000000E+00 0.  1.
         22    1    1    2    0    0  0.10676221223E+00 -0.32910620409E+00  0.93699370569E+00  0.99883245243E+00  0.00000000000E+00 0.  1.
</event>
<event>
 5    1  0.3428566E+002  0.1599677E+01  0.7818608E-02  0.3353714E+00
         11   -1    0    0    0    0  0.00000000000E+00  0.00000000000E+00  0.39999999674E+01  0.40000000000E+01  0.51100000000E-03 0. -1.
    9000002   -1    0    0    0    0 -0.00000000000E+00 -0.00000000000E+00  0.00000000000E+00  0.93800000000E+00  0.93800000000E+00 0. -1.
         11    1    1    2    0    0  0.14933746988E+00  0.20877697583E+00  0.18975570199E+01  0.19148400482E+01  0.51100000000E-03 0. -1.
    9000002    1    1    2    0    0 -0.30020447048E+00 -0.42017520031E+00  0.18306434066E+00  0.10862902356E+01  0.93800000000E+00 0. -1.
         22    1    1    2    0    0  0.15086700060E+00  0.21139822448E+00  0.19193786068E+01  0.19368697162E+01  0.00000000000E+00 0. -1.
</event>
<event>
 5    1  0.3428566E+002  0.1599403E+01  0.7818608E-02  0.3354012E+00
         11   -1    0    0    0    0  0.00000000000E+00  0.00000000000E+00  0.39999999674E+01  0.40000000000E+01  0.51100000000E-03 0. -1.
    9000002   -1    0    0    0    0 -0.00000000000E+00 -0.00000000000E+00  0.00000000000E+00  0.93800000000E+00  0.93800000000E+00 0.  1.
         11    1    1    2    0    0  0.16486713802E+00  0.92163742529E-01  0.15347762929E+01  0.15463550236E+01  0.51100000000E-03 0. -1.
    9000002    1    1    2    0    0 -0.40164514917E+00 -0.27810350701E+00  0.16331108607E+00  0.10701284490E+01  0.93800000000E+00 0.  1.
         22    1    1    2    0    0  0.23677801115E+00  0.18593976448E+00  0.23019125884E+01  0.23215165274E+01  0.00000000000E+00 0.  1.
</event>
<event>
 5    1  0.3428566E+002  0.1599657E+01  0.7818608E-02  0.3353736E+00
         11   -1    0    0    0    0  0.00000000000E+00  0.00000000000E+00  0.39999999674E+01  0.40000000000E+01  0.51100000000E-03 0.  1.
    9000002   -1    0    0    0    0 -0.00000000000E+00 -0.00000000000E+00  0.00000000000E+00  0.93800000000E+00  0.93800000000E+00 0. -1.
         11    1    1    2    0    0  0.16039602169E-01 -0.67852779821E-01  0.91905652163E+00  0.92169757494E+00  0.51100000000E-03 0.  1.
    9000002    1    1    2    0    0 -0.62661410598E-01  0.27285244017E+00  0.52206496940E-01  0.98027772841E+00  0.93800000000E+00 0. -1.
         22    1    1    2    0    0  0.46621808429E-01 -0.20499966035E+00  0.30287369488E+01  0.30360246967E+01  0.00000000000E+00 0.  1.
</event>
<event>
 5    1  0.3428566E+002  0.1599676E+01  0.7818608E-02  0.3353715E+00
         11   -1    0    0    0    0  0.00000000000E+00  0.00000000000E+00  0.39999999674E+01  0.40000000000E+01  0.51100000000E-03 0.  1.
    9000002   -1    0    0    0    0 -0.00000000000E+00 -0.00000000000E+00  0.00000000000E+00  0.93800000000E+00  0.93800000000E+00 0. -1.
         11    1    1    2    0    0 -0.28923943896E+00  0.76816515359E-01  0.19893987632E+01  0.20117822770E+01  0.51100000000E-03 0.  1.
    9000002    1    1    2    0    0  0.55046242619E+00 -0.14480426868E+00  0.22460773524E+00  0.11199418706E+01  0.93800000000E+00 0. -1.
         22    1    1    2    0    0 -0.26122298722E+00  0.67987753326E-01  0.17859934689E+01  0.18062758523E+01  0.00000000000E+00 0.  1.
</event>
<event>
 5    1  0.3428566E+002  0.1572357E+01  0.7818608E-02  0.3383923E+00
         11   -1    0    0    0    0  0.00000000000E+00  0.00000000000E+00  0.39999999674E+01  0.40000000000E+01  0.51100000000E-03 0.  1.
    9000002   -1    0    0    0    0 -0.00000000000E+00 -0.00000000000E+00  0.00000000000E+00  0.93800000000E+00  0.93800000000E+00 0.  1.
         11    1    1    2    0    0  0.11188039975E+00  0.33497282328E-01  0.49405963444E+00  0.50767556104E+00  0.51100000000E-03 0.  1.
    9000002    1    1    2    0    0  0.16290861549E+00 -0.26536406623E+00  0.86584851357E-01  0.99211805806E+00  0.93800000000E+00 0.  1.
         22    1    1    2    0    0 -0.27478901524E+00  0.23186678390E+00  0.34193554816E+01  0.34382063809E+01  0.00000000000E+00 0.  1.
</event>
<event>
 5    1  0.3428566E+002  0.1599531E+01  0.7818608E-02  0.3353872E+00
         11   -1    0    0    0    0  0.00000000000E+00  0.00000000000E+00  0.39999999674E+01  0.40000000000E+01  0.51100000000E-03 0.  1.
    9000002   -1    0    0    0    0 -0.00000000000E+00 -0.00000000000E+00  0.00000000000E+00  0.93800000000E+00  0.93800000000E+00 0.  1.
         11    1    1    2    0    0 -0.12315260238E-01 -0.61726807043E-01  0.51945300871E+00  0.52325285830E+00  0.51100000000E-03 0.  1.
    9000002    1    1    2    0    0  0.25172580589E-01  0.48845440917E+00  0.16359515406E+00  0.10704339041E+01  0.93800000000E+00 0.  1.
         22    1    1    2    0    0 -0.12857320351E-01 -0.42672760213E+00  0.33169518046E+01  0.33443132376E+01  0.00000000000E+00 0.  1.
</event>
<event>
 5    1  0.3428566E+002  0.1599649E+01  0.7818608E-02  0.3353744E+00
         11   -1    0    0    0    0  0.00000000000E+00  0.00000000000E+00  0.39999999674E+01  0.40000000000E+01  0.51100000000E-03 0.  1.
    9000002   -1    0    0    0    0 -0.00000000000E+00 -0.00000000000E+00  0.00000000000E+00  0.93800000000E+00  0.93800000000E+00 0.  1.
         11    1    1    2    0    0 -0.39868962421E-01 -0.14560189769E-01  0.42202293873E+00  0.42415227835E+00  0.51100000000E-03 0.  1.
    9000002    1    1    2    0    0  0.34084230595E+00  0.11296337188E+00  0.86561894485E-01  0.10081027539E+01  0.93800000000E+00 0.  1.
         22    1    1    2    0    0 -0.30097334353E+00 -0.98403182114E-01  0.34914151341E+01  0.35057449677E+01  0.00000000000E+00 0.  1.
</event>
<event>
 5    1  0.3428566E+002  0.1599651E+01  0.7818608E-02  0.3353742E+00
         11   -1    0    0    0    0  0.00000000000E+00  0.00000000000E+00  0.39999999674E+01  0.40000000000E+01  0.51100000000E-03 0.  1.
    9000002   -1    0    0    0    0 -0.00000000000E+00 -0.00000000000E+00  0.00000000000E+00  0.93800000000E+00  0.93800000000E+00 0.  1.
         11    1    1    2    0    0 -0.67334890381E-01 -0.29443847768E-01  0.79758044416E+00  0.80095927091E+00  0.51100000000E-03 0.  1.
    9000002    1    1    2    0    0  0.30996937064E+00  0.15711628294E+00  0.80974106668E-01  0.10035772731E+01  0.93800000000E+00 0.  1.
         22    1    1    2    0    0 -0.24263448026E+00 -0.12767243517E+00  0.31214454165E+01  0.31334634560E+01  0.00000000000E+00 0.  1.
</event>
<event>
 5    1  0.3428566E+002  0.1599673E+01  0.7818608E-02  0.3353719E+00
         11   -1    0    0    0    0  0.00000000000E+00  0.00000000000E+00  0.39999999674E+01  0.40000000000E+01  0.51100000000E-03 0. -1.
    9000002   -1    0    0    0    0 -0.00000000000E+00 -0.00000000000E+00  0.00000000000E+00  0.93800000000E+00  0.93800000000E+00 0. -1.
         11    1    1    2    0    0  0.22799173846E+00 -0.28823328285E+00  0.16917508410E+01  0.17312076211E+01  0.51100000000E-03 0. -1.
    9000002    1    1    2    0    0 -0.48407171723E+00  0.60885751605E+00  0.44243495683E+00  0.12963894451E+01  0.93800000000E+00 0. -1.
         22    1    1    2    0    0  0.25607997876E+00 -0.32062423319E+00  0.18658141695E+01  0.19104029338E+01  0.00000000000E+00 0.  1.
</event>
<event>
 5    1  0.3428566E+002  0.1560720E+01  0.7818608E-02  0.3397132E+00
         11   -1    0    0    0    0  0.00000000000E+00  0.00000000000E+00  0.39999999674E+01  0.40000000000E+01  0.51100000000E-03 0.  1.
    9000002   -1    0    0    0    0 -0.00000000000E+00 -0.00000000000E+00  0.00000000000E+00  0.93800000000E+00  0.93800000000E+00 0.  1.
         11    1    1    2    0    0  0.11704367607E+00 -0.16533900701E+00  0.19683378865E+01  0.19787345719E+01  0.51100000000E-03 0.  1.
    9000002    1    1    2    0    0  0.15060573653E+00  0.51216619599E-01  0.46112641243E-01  0.95251016041E+00  0.93800000000E+00 0.  1.
         22    1    1    2    0    0 -0.26764941260E+00  0.11412238742E+00  0.19855494396E+01  0.20067552677E+01  0.00000000000E+00 0. -1.
</event>
<event>
 5    1  0.3428566E+002  0.1599673E+01  0.7818608E-02  0.3353719E+00
         11   -1    0    0    0    0  0.00000000000E+00  0.00000000000E+00  0.39999999674E+01  0.40000000000E+01  0.51100000000E-03 0. -1.
    9000002   -1    0    0    0    0 -0.00000000000E+00 -0.00000000000E+00  0.00000000000E+00  0.93800000000E+00  0.93800000000E+00 0.  1.
         11    1    1    2    0    0  0.94376085939E-01  0.48968202314E+00  0.16582054100E+01  0.17315717635E+01  0.51100000000E-03 0. -1.
    9000002    1    1    2    0    0 -0.18038480587E+00 -0.95708749643E+00  0.75222634124E+00  0.15473343603E+01  0.93800000000E+00 0.  1.
         22    1    1    2    0    0  0.86008719929E-01  0.46740547329E+00  0.15895682161E+01  0.16590938762E+01  0.00000000000E+00 0.  1.
</event>
<event>
 5    1  0.3428566E+002  0.1578481E+01  0.7818608E-02  0.3377056E+00
         11   -1    0    0    0    0  0.00000000000E+00  0.00000000000E+00  0.39999999674E+01  0.40000000000E+01  0.51100000000E-03 0.  1.
    9000002   -1    0    0    0    0 -0.00000000000E+00 -0.00000000000E+00  0.00000000000E+00  0.93800000000E+00  0.93800000000E+00 0.  1.
         11    1    1    2    0    0  0.10438109296E+00  0.11433640516E+00  0.86045654539E+00  0.87427338615E+00  0.51100000000E-03 0.  1.
    9000002    1    1    2    0    0 -0.20713352509E+00  0.82072519367E-01  0.49103307930E-01  0.96534725902E+00  0.93800000000E+00 0.  1.
         22    1    1    2    0    0  0.10275243213E+00 -0.19640892452E+00  0.30904401140E+01  0.30983793548E+01  0.00000000000E+00 0.  1.
</event>
<event>
 5    1  0.3428566E+002  0.1599675E+01  0.7818608E-02  0.3353716E+00
         11   -1    0    0    0    0  0.00000000000E+00  0.00000000000E+00  0.39999999674E+01  0.40000000000E+01  0.51100000000E-03 0.  1.
    9000002   -1    0    0    0    0 -0.00000000000E+00 -0.00000000000E+00  0.00000000000E+00  0.93800000000E+00  0.93800000000E+00 0.  1.
         11    1    1    2    0    0  0.58099187147E-01  0.60660820300E-01  0.10201323238E+01  0.10235846179E+01  0.51100000000E-03 0.  1.
    9000002    1    1    2    0    0 -0.21935126014E+00 -0.23639719290E+00  0.69531415439E-01  0.99432249591E+00  0.93800000000E+00 0.  1.
         22    1    1    2    0    0  0.16125207300E+00  0.17573637260E+00  0.29103362281E+01  0.29200928862E+01  0.00000000000E+00 0.  1.
</event>
<event>
 5    1  0.3428566E+002  0.1545258E+01  0.7818608E-02  0.3415010E+00
         11   -1    0    0    0    0  0.00000000000E+00  0.00000000000E+00  0.39999999674E+01  0.40000000000E+01  0.51100000000E-03 0.  1.
    9000002   -1    0    0    0    0 -0.00000000000E+00 -0.00000000000E+00  0.00000000000E+00  0.93800000000E+00  0.93800000000E+00 0.  1.
         11    1    1    2    0    0  0.18984126370E+00 -0.27209627258E+00  0.17142539310E+01  0.17460649725E+01  0.51100000000E-03 0.  1.
    9000002    1    1    2    0    0 -0.21962899019E+00  0.22275626985E-01  0.74587609777E-01  0.96650939386E+00  0.93800000000E+00 0.  1.
         22    1    1    2    0    0  0.29787726483E-01  0.24982064560E+00  0.22111584266E+01  0.22254256337E+01  0.00000000000E+00 0.  1.
</event>
<event>
 5    1  0.3428566E+002  0.1574163E+01  0.7818608E-02  0.3381893E+00
         11   -1    0    0    0    0  0.00000000000E+00  0.00000000000E+00  0.39999999674E+01  0.40000000000E+01  0.51100000000E-03 0. -1.
    9000002   -1    0    0    0    0 -0.00000000000E+00 -0.00000000000E+00  0.00000000000E+00  0.93800000000E+00  0.93800000000E+00 0.  1.
         11    1    1    2    0    0 -0.11614659362E+00  0.91299466672E-01  0.13424761194E+01  0.13505806218E+01  0.51100000000E-03 0. -1.
    9000002    1    1    2    0    0 -0.70677879379E-01  0.73006702968E-01  0.25675236329E-01  0.94383714648E+00  0.93800000000E+00 0.  1.
         22    1    1    2    0    0  0.18682447300E+00 -0.16430616964E+00  0.26318486117E+01  0.26435822317E+01  0.00000000000E+00 0. -1.
</event>
<event>
 5    1  0.3428566E+002  0.1599599E+01  0.7818608E-02  0.3353799E+00
         11   -1    0    0    0    0  0.00000000000E+00  0.00000000000E+00  0.39999999674E+01  0.40000000000E+01  0.51100000000E-03 0. -1.
    9000002   -1    0    0    0    0 -0.00000000000E+00 -0.00000000000E+00  0.00000000000E+00  0.93800000000E+00  0.93800000000E+00 0.  1.
         11    1    1    2    0    0 -0.87057374669E-01 -0.51585313602E-01  0.79045835073E+00  0.79690946564E+00  0.51100000000E-03 0. -1.
    9000002    1    1    2    0    0  0.46150747894E+00  0.24758270232E+00  0.18860804883E+00  0.10907352308E+01  0.93800000000E+00 0.  1.
         22    1    1    2    0    0 -0.37445010427E+00 -0.19599738872E+00  0.30209335678E+01  0.30503553036E+01  0.00000000000E+00 0. -1.
</event>
<event>
 5    1  0.3428566E+002  0.1571002E+01  0.7818608E-02  0.3385451E+00
         11   -1    0    0    0    0  0.00000000000E+00  0.00000000000E+00  0.39999999674E+01  0.40000000000E+01  0.51100000000E-03 0. -1.
    9000002   -1    0    0    0    0 -0.00000000000E+00 -0.00000000000E+00  0.00000000000E+00  0.93800000000E+00  0.93800000000E+00 0. -1.
         11    1    1    2    0    0 -0.20994529467E+00 -0.35444949071E-01  0.23558884065E+01  0.23654901852E+01  0.51100000000E-03 0. -1.
    9000002    1    1    2    0    0  0.37071331047E-01  0.17511276112E+00  0.42836902762E-01  0.95588585246E+00  0.93800000000E+00 0. -1.
         22    1    1    2    0    0  0.17287396362E+00 -0.13966781205E+00  0.16012746581E+01  0.16166239623E+01  0.00000000000E+00 0.  1.
</event>
<event>
 5    1  0.3428566E+002  0.1598876E+01  0.7818608E-02  0.3354584E+00
         11   -1    0    0    0    0  0.00000000000E+00  0.00000000000E+00  0.39999999674E+01  0.40000000000E+01  0.51100000000E-03 0.  1.
    9000002   -1    0    0    0    0 -0.00000000000E+00 -0.00000000000E+00  0.00000000000E+00  0.93800000000E+00  0.93800000000E+00 0.  1.
         11    1    1    2    0    0  0.14196746021E+00 -0.75704364761E-01  0.18983768143E+01  0.19051825899E+01  0.51100000000E-03 0.  1.
    9000002    1    1    2    0    0 -0.33045000664E+00  0.21351464869E+00  0.10498244457E+00  0.10225707925E+01  0.93800000000E+00 0.  1.
         22    1    1    2    0    0  0.18848254643E+00 -0.13781028393E+00  0.19966407085E+01  0.20102466176E+01  0.00000000000E+00 0.  1.
</event>
<event>
 5    1  0.3428566E+002  0.1596400E+01  0.7818608E-02  0.3357280E+00
         11   -1    0    0    0    0  0.00000000000E+00  0.00000000000E+00  0.39999999674E+01  0.40000000000E+01  0.51100000000E-03 0. -1.
    9000002   -1    0    0    0    0 -0.00000000000E+00 -0.00000000000E+00  0.00000000000E+00  0.93800000000E+00  0.93800000000E+00 0.  1.
         11    1    1    2    0    0 -0.10792874870E+00  0.49954840567E-01  0.31064730624E+00  0.33263510171E+00  0.51100000000E-03 0. -1.
    9000002    1    1    2    0    0  0.76453043280E+00 -0.77938829977E+00  0.10278914859E+01  0.17687164304E+01  0.93800000000E+00 0.  1.
         22    1    1    2    0    0 -0.65660168410E+00  0.72943345921E+00  0.26614611752E+01  0.28366484679E+01  0.00000000000E+00 0. -1.
</event>
<event>
 5    1  0.3428566E+002  0.1590944E+01  0.7818608E-02  0.3363251E+00
         11   -1    0    0    0    0  0.00000000000E+00  0.00000000000E+00  0.39999999674E+01  0.40000000000E+01  0.51100000000E-03 0. -1.
    9000002   -1    0    0    0    0 -0.00000000000E+00 -0.00000000000E+00  0.00000000000E+00  0.93800000000E+00  0.93800000000E+00 0. -1.
         11    1    1    2    0    0 -0.20594797641E-02  0.31927733488E-01  0.26436769767E+00  0.26629713163E+00  0.51100000000E-03 0. -1.
    9000002    1    1    2    0    0 -0.47660904475E+00  0.18953903510E+00  0.18849209966E+00  0.10855664415E+01  0.93800000000E+00 0. -1.
         22    1    1    2    0    0  0.47866852452E+00 -0.22146676859E+00  0.35471401700E+01  0.35861364268E+01  0.00000000000E+00 0. -1.
</event>
<event>
 5    1  0.3428566E+002  0.1599610E+01  0.7818608E-02  0.3353787E+00
         11   -1    0    0    0    0  0.00000000000E+00  0.00000000000E+00  0.39999999674E+01  0.40000000000E+01  0.51100000000E-03 0. -1.
    9000002   -1    0    0    0    0 -0.00000000000E+00 -0.00000000000E+00  0.00000000000E+00  0.93800000000E+00  0.93800000000E+00 0.  1.
         11    1    1    2    0    0 -0.48633499983E-01 -0.83487047491E-01  0.13750004136E+01  0.13783909834E+01  0.51100000000E-03 0. -1.
    9000002    1    1    2    0    0  0.15322443849E+00  0.26220686923E+00  0.61601628007E-01  0.98786078543E+00  0.93800000000E+00 0.  1.
         22    1    1    2    0    0 -0.10459093850E+00 -0.17871982174E+00  0.25633979257E+01  0.25717482312E+01  0.00000000000E+00 0.  1.
</event>
<event>
 5    1  0.3428566E+002  0.1598016E+01  0.7818608E-02  0.3355520E+00
         11   -1    0    0    0    0  0.00000000000E+00  0.00000000000E+00  0.39999999674E+01  0.40000000000E+01  0.51100000000E-03 0. -1.
    9000002   -1    0    0    0    0 -0.00000000000E+00 -0.00000000000E+00  0.00000000000E+00  0.93800000000E+00  0.93800000000E+00 0.  1.
         11    1    1    2    0    0  0.51235632511E-02  0.23457644425E-01  0.23756846845E+00  0.23877929204E+00  0.51100000000E-03 0. -1.
    9000002    1    1    2    0    0 -0.24700751570E+00 -0.37782654162E-01  0.42748752289E-01  0.97165410388E+00  0.93800000000E+00 0.  1.
         22    1    1    2    0    0  0.24188395245E+00  0.14325009738E-01  0.37196827466E+01  0.37275666041E+01  0.00000000000E+00 0. -1.
</event>
<event>
 5    1  0.3428566E+002  0.1599675E+01  0.7818608E-02  0.3353717E+00
         11   -1    0    0    0    0  0.00000000000E+00  0.00000000000E+00  0.39999999674E+01  0.40000000000E+01  0.51100000000E-03 0.  1.
    9000002   -1    0    0    0    0 -0.00000000000E+00 -0.00000000000E+00  0.00000000000E+00  0.93800000000E+00  0.93800000000E+00 0. -1.
         11    1    1    2    0    0  0.37460764923E-01 -0.96986301767E-01  0.12665376419E+01  0.12707979820E+01  0.51100000000E-03 0.  1.
    9000002    1    1    2    0    0 -0.12018943886E+00  0.30435991371E+00  0.71626840874E-01  0.99601950916E+00  0.93800000000E+00 0. -1.
         22    1    1    2    0    0  0.82728673941E-01 -0.20737361195E+00  0.26618354846E+01  0.26711825088E+01  0.00000000000E+00 0.  1.
</event>
<event>
 5    1  0.3428566E+002  0.1599657E+01  0.7818608E-02  0.3353736E+00
         11   -1    0    0    0    0  0.00000000000E+00  0.00000000000E+00  0.39999999674E+01  0.40000000000E+01  0.51100000000E-03 0.  1.
    9000002   -1    0    0    0    0 -0.00000000000E+00 -0.00000000000E+00  0.00000000000E+00  0.93800000000E+00  0.93800000000E+00 0.  1.
         11    1    1    2    0    0 -0.60089819979E-02  0.13321636331E+00  0.13109451798E+01  0.13177102234E+01  0.51100000000E-03 0.  1.
    9000002    1    1    2    0    0  0.25216713976E-01 -0.38290483696E+00  0.99138959039E-01  0.10182949131E+01  0.93800000000E+00 0.  1.
         22    1    1    2    0    0 -0.19207731978E-01  0.24968847365E+00  0.25899158285E+01  0.26019948635E+01  0.00000000000E+00 0.  1.
</event>
<event>
 5    1  0.3428566E+002  0.1599676E+01  0.7818608E-02  0.3353715E+00
         11   -1    0    0    0    0  0.00000000000E+00  0.00000000000E+00  0.39999999674E+01  0.40000000000E+01  0.51100000000E-03 0.  1.
    9000002   -1    0    0    0    0 -0.00000000000E+00 -0.00000000000E+00  0.00000000000E+00  0.93800000000E+00  0.93800000000E+00 0.  1.
         11    1    1    2    0    0  0.19600084933E-01 -0.11438789316E+00  0.12614225404E+01  0.12667501096E+01  0.51100000000E-03 0. -1.
    9000002    1    1    2    0    0 -0.58296896418E-01  0.35637751058E+00  0.87546619919E-01  0.10089161852E+01  0.93800000000E+00 0.  1.
         22    1    1    2    0    0  0.38696811486E-01 -0.24198961742E+00  0.26510308070E+01  0.26623337052E+01  0.00000000000E+00 0.  1.
</event>
<event>
 5    1  0.3428566E+002  0.1599676E+01  0.7818608E-02  0.3353715E+00
         11   -1    0    0    0    0  0.00000000000E+00  0.00000000000E+00  0.39999999674E+01  0.40000000000E+01  0.51100000000E-03 0. -1.
    9000002   -1    0    0    0    0 -0.00000000000E+00 -0.00000000000E+00  0.00000000000E+00  0.93800000000E+00  0.93800000000E+00 0.  1.
         11    1    1    2    0    0 -0.11833963082E+00 -0.11634025818E-01  0.12967971491E+01  0.13022375843E+01  0.51100000000E-03 0. -1.
    9000002    1    1    2    0    0  0.35430647312E+00  0.34773840140E-01  0.85039518533E-01  0.10068853046E+01  0.93800000000E+00 0.  1.
         22    1    1    2    0    0 -0.23596684230E+00 -0.23139814323E-01  0.26181632997E+01  0.26288771111E+01  0.00000000000E+00 0. -1.
</event>
<event>
 5    1  0.3428566E+002  0.1599668E+01  0.7818608E-02  0.3353724E+00
         11   -1    0    0    0    0  0.00000000000E+00  0.00000000000E+00  0.39999999674E+01  0.40000000000E+01  0.51100000000E-03 0. -1.
    9000002   -1    0    0    0    0 -0.00000000000E+00 -0.00000000000E+00  0.00000000000E+00  0.93800000000E+00  0.93800000000E+00 0.  1.
         11    1    1    2    0    0 -0.34631646824E-02 -0.33445271209E-02  0.65152123868E-01  0.65331766674E-01  0.51100000000E-03 0. -1.
    9000002    1    1    2    0    0  0.17543262308E+00  0.17224580860E+00  0.40147339677E-01  0.97051585907E+00  0.93800000000E+00 0.  1.
         22    1    1    2    0    0 -0.17196945840E+00 -0.16890128148E+00  0.38947005038E+01  0.39021523743E+01  0.00000000000E+00 0. -1.
</event>
<event>
 5    1  0.3428566E+002  0.1599281E+01  0.7818608E-02  0.3354144E+00
         11   -1    0    0    0    0  0.00000000000E+00  0.00000000000E+00  0.39999999674E+01  0.40000000000E+01  0.51100000000E-03 0. -1.
    9000002   -1    0    0    0    0 -0.00000000000E+00 -0.00000000000E+00  0.00000000000E+00  0.93800000000E+00  0.93800000000E+00 0. -1.
         11    1    1    2    0    0  0.17989179876E-01  0.60012754583E-02  0.25800055372E+00  0.25869706751E+00  0.51100000000E-03 0. -1.
    9000002    1    1    2    0    0 -0.22710760026E+00  0.82411856086E-01  0.39051420438E-01  0.96940114997E+00  0.93800000000E+00 0. -1.
         22    1    1    2    0    0  0.20911842038E+00 -0.88413131545E-01  0.37029479932E+01  0.37099017825E+01  0.00000000000E+00 0. -1.
</event>
<event>
 5    1  0.3428566E+002  0.1599670E+01  0.7818608E-02  0.3353721E+00
         11   -1    0    0    0    0  0.00000000000E+00  0.00000000000E+00  0.39999999674E+01  0.40000000000E+01  0.51100000000E-03 0. -1.
    9000002   -1    0    0    0    0 -0.00000000000E+00 -0.00000000000E+00  0.00000000000E+00  0.93800000000E+00  0.93800000000E+00 0.  1.
         11    1    1    2    0    0 -0.37076905196E-02  0.11981684148E-01  0.19639743291E+00  0.19679817199E+00  0.51100000000E-03 0.  1.
    9000002    1    1    2    0    0  0.58514478953E-01 -0.22222220670E+00  0.35032058634E-01  0.96637358125E+00  0.93800000000E+00 0.  1.
         22    1    1    2    0    0 -0.54806788434E-01  0.21024052255E+00  0.37685704758E+01  0.37748282468E+01  0.00000000000E+00 0. -1.
</event>
<event>
 5    1  0.3428566E+002  0.1551512E+01  0.7818608E-02  0.3407733E+00
         11   -1    0    0    0    0  0.00000000000E+00  0.00000000000E+00  0.39999999674E+01  0.40000000000E+01  0.51100000000E-03 0.  1.
    9000002   -1    0    0    0    0 -0.00000000000E+00 -0.00000000000E+00  0.00000000000E+00  0.93800000000E+00  0.93800000000E+00 0.  1.
         11    1    1    2    0    0 -0.13182947782E+00  0.17811765038E+00  0.32973931177E+01  0.33048307887E+01  0.51100000000E-03 0.  1.
    9000002    1    1    2    0    0  0.25737826208E+00 -0.28905649730E-02  0.81922838498E-01  0.97611847469E+00  0.93800000000E+00 0.  1.
         22    1    1    2    0    0 -0.12554878426E+00 -0.17522708541E+00  0.62068401118E+00  0.65705073657E+00  0.00000000000E+00 0.  1.
</event>
<event>
 5    1  0.3428566E+002  0.1523910E+01  0.7818608E-02  0.3440328E+00
         11   -1    0    0    0    0  0.00000000000E+00  0.00000000000E+00  0.39999999674E+01  0.40000000000E+01  0.51100000000E-03 0.  1.
    9000002   -1    0    0    0    0 -0.00000000000E+00 -0.00000000000E+00  0.00000000000E+00  0.93800000000E+00  0.93800000000E+00 0. -1.
         11    1    1    2    0    0 -0.18067926250E+00  0.81450995104E-01  0.40482855350E+00  0.45073903686E+00  0.51100000000E-03 0.  1.
    9000002    1    1    2    0    0 -0.17718047069E-01  0.12068986424E+00  0.67571847772E-01  0.94830898295E+00  0.93800000000E+00 0. -1.
         22    1    1    2    0    0  0.19839730957E+00 -0.20214085935E+00  0.35275995661E+01  0.35389519802E+01  0.00000000000E+00 0.  1.
</event>
<event>
 5    1  0.3428566E+002  0.1599674E+01  0.7818608E-02  0.3353717E+00
         11   -1    0    0    0    0  0.00000000000E+00  0.00000000000E+00  0.39999999674E+01  0.40000000000E+01  0.51100000000E-03 0. -1.
    9000002   -1    0    0    0    0 -0.00000000000E+00 -0.00000000000E+00  0.00000000000E+00  0.93800000000E+00  0.93800000000E+00 0. -1.
         11    1    1    2    0    0  0.17622072368E-01 -0.62175868262E-01  0.92547011574E+00  0.92772386640E+00  0.51100000000E-03 0. -1.
    9000002    1    1    2    0    0 -0.82315205037E-01  0.26751511989E+00  0.52169805155E-01  0.98025803793E+00  0.93800000000E+00 0. -1.
         22    1    1    2    0    0  0.64693132669E-01 -0.20533925163E+00  0.30223600465E+01  0.30300180957E+01  0.00000000000E+00 0. -1.
</event>
<event>
 5    1  0.3428566E+002  0.1599671E+01  0.7818608E-02  0.3353720E+00
         11   -1    0    0    0    0  0.00000000000E+00  0.00000000000E+00  0.39999999674E+01  0.40000000000E+01  0.51100000000E-03 0.  1.
    9000002   -1    0    0    0    0 -0.00000000000E+00 -0.00000000000E+00  0.00000000000E+00  0.93800000000E+00  0.93800000000E+00 0.  1.
         11    1    1    2    0    0  0.22215868489E+00 -0.28550241945E+00  0.21014358753E+01  0.21323459175E+01  0.51100000000E-03 0.  1.
    9000002    1    1    2    0    0 -0.39151026012E+00  0.49992426193E+00  0.28352109530E+00  0.11676612364E+01  0.93800000000E+00 0.  1.
         22    1    1    2    0    0  0.16935157524E+00 -0.21442184248E+00  0.16150429968E+01  0.16379928461E+01  0.00000000000E+00 0.  1.
</event>
<event>
 5    1  0.3428566E+002  0.1598759E+01  0.7818608E-02  0.3354711E+00
         11   -1    0    0    0    0  0.00000000000E+00  0.00000000000E+00  0.39999999674E+01  0.40000000000E+01  0.51100000000E-03 0. -1.
    9000002   -1    0    0    0    0 -0.00000000000E+00 -0.00000000000E+00  0.00000000000E+00  0.93800000000E+00  0.93800000000E+00 0.  1.
         11    1    1    2    0    0  0.91125324741E-01 -0.19596010214E+00  0.19264530848E+01  0.19385370606E+01  0.51100000000E-03 0. -1.
    9000002    1    1    2    0    0 -0.23598116489E+00  0.34333695334E+00  0.11810377667E+00  0.10331311029E+01  0.93800000000E+00 0.  1.
         22    1    1    2    0    0  0.14485584015E+00 -0.14737685120E+00  0.19554431059E+01  0.19663318365E+01  0.00000000000E+00 0. -1.
</event>
<event>
 5    1  0.3428566E+002  0.1599665E+01  0.7818608E-02  0.3353727E+00
         11   -1    0    0    0    0  0.00000000000E+00  0.00000000000E+00  0.39999999674E+01  0.40000000000E+01  0.51100000000E-03 0. -1.
    9000002   -1    0    0    0    0 -0.00000000000E+00 -0.00000000000E+00  0.00000000000E+00  0.93800000000E+00  0.93800000000E+00 0. -1.
         11    1    1    2    0    0 -0.38541305066E-02  0.44876649363E-02  0.53259586225E-01  0.53589533534E-01  0.51100000000E-03 0. -1.
    9000002    1    1    2    0    0  0.29316648179E+00 -0.26914438477E+00  0.10681615138E+00  0.10245188998E+01  0.93800000000E+00 0. -1.
         22    1    1    2    0    0 -0.28931235129E+00  0.26465671983E+00  0.38399242298E+01  0.38598915666E+01  0.00000000000E+00 0. -1.
</event>
<event>
 5    1  0.3428566E+002  0.1597913E+01  0.7818608E-02  0.3355632E+00
         11   -1    0    0    0    0  0.00000000000E+00  0.00000000000E+00  0.39999999674E+01  0.40000000000E+01  0.51100000000E-03 0.  1.
    9000002   -1    0    0    0    0 -0.00000000000E+00 -0.00000000000E+00  0.00000000000E+00  0.93800000000E+00  0.93800000000E+00 0.  1.
         11    1    1    2    0    0 -0.10094956737E+00 -0.12955262623E+00  0.11813571468E+01  0.11927194421E+01  0.51100000000E-03 0.  1.
    9000002    1    1    2    0    0  0.26763066783E+00  0.28750259237E+00  0.10543424044E+00  0.10223718961E+01  0.93800000000E+00 0.  1.
         22    1    1    2    0    0 -0.16668110046E+00 -0.15794996614E+00  0.27132085801E+01  0.27229086617E+01  0.00000000000E+00 0.  1.
</event>
<event>
 5    1  0.3428566E+002  0.1596556E+01  0.7818608E-02  0.3357110E+00
         11   -1    0    0    0    0  0.00000000000E+00  0.00000000000E+00  0.39999999674E+01  0.40000000000E+01  0.51100000000E-03 0.  1.
    9000002   -1    0    0    0    0 -0.00000000000E+00 -0.00000000000E+00  0.00000000000E+00  0.93800000000E+00  0.93800000000E+00 0. -1.
         11    1    1    2    0    0 -0.45378974149E+00 -0.40204557774E+00  0.17456281034E+01  0.18479132860E+01  0.51100000000E-03 0.  1.
    9000002    1    1    2    0    0  0.85259221243E+00  0.72616687866E+00  0.11070559713E+01  0.18329344614E+01  0.93800000000E+00 0. -1.
         22    1    1    2    0    0 -0.39880247094E+00 -0.32412130092E+00  0.11473158927E+01  0.12571522525E+01  0.00000000000E+00 0. -1.
</event>
<event>
 5    1  0.3428566E+002  0.1599031E+01  0.7818608E-02  0.3354416E+00
         11   -1    0    0    0    0  0.00000000000E+00  0.00000000000E+00  0.39999999674E+01  0.40000000000E+01  0.51100000000E-03 0. -1.
    9000002   -1    0    0    0    0 -0.00000000000E+00 -0.00000000000E+00  0.00000000000E+00  0.93800000000E+00  0.93800000000E+00 0.  1.
         11    1    1    2    0    0  0.35812494227E+00 -0.37891866854E-01  0.19148203907E+01  0.19483907867E+01  0.51100000000E-03 0. -1.
    9000002    1    1    2    0    0 -0.64516648883E+00  0.11047507981E+00  0.30334775639E+00  0.11833462734E+01  0.93800000000E+00 0.  1.
         22    1    1    2    0    0  0.28704154655E+00 -0.72583212952E-01  0.17818318202E+01  0.18062629398E+01  0.00000000000E+00 0. -1.
</event>
<event>
 5    1  0.3428566E+002  0.1599003E+01  0.7818608E-02  0.3354446E+00
         11   -1    0    0    0    0  0.00000000000E+00  0.00000000000E+00  0.39999999674E+01  0.40000000000E+01  0.51100000000E-03 0. -1.
    9000002   -1    0    0    0    0 -0.00000000000E+00 -0.00000000000E+00  0.00000000000E+00  0.93800000000E+00  0.93800000000E+00 0.  1.
         11    1    1    2    0    0 -0.35629997029E-01 -0.47231988424E-01  0.66450254195E+00  0.66713135648E+00  0.51100000000E-03 0. -1.
    9000002    1    1    2    0    0  0.72637699687E-01  0.28413174016E+00  0.57866667280E-01  0.98447937122E+00  0.93800000000E+00 0.  1.
         22    1    1    2    0    0 -0.37007702658E-01 -0.23689975174E+00  0.32776307581E+01  0.32863892723E+01  0.00000000000E+00 0. -1.
</event>
<event>
 5    1  0.3428566E+002  0.1579617E+01  0.7818608E-02  0.3375788E+00
         11   -1    0    0    0    0  0.00000000000E+00  0.00000000000E+00  0.39999999674E+01  0.40000000000E+01  0.51100000000E-03 0. -1.
    9000002   -1    0    0    0    0 -0.00000000000E+00 -0.00000000000E+00  0.00000000000E+00  0.93800000000E+00  0.93800000000E+00 0.  1.
         11    1    1    2    0    0 -0.35549336095E-01 -0.75438484795E-01  0.63901601272E+00  0.64443498192E+00  0.51100000000E-03 0. -1.
    9000002    1    1    2    0    0 -0.18045996404E+00 -0.19858619980E+00  0.63520363656E-01  0.97769172747E+00  0.93800000000E+00 0.  1.
         22    1    1    2    0    0  0.21600930013E+00  0.27402468460E+00  0.32974635910E+01  0.33158732906E+01  0.00000000000E+00 0. -1.
</event>
<event>
 5    1  0.3428566E+002  0.1599310E+01  0.7818608E-02  0.3354113E+00
         11   -1    0    0    0    0  0.00000000000E+00  0.00000000000E+00  0.39999999674E+01  0.40000000000E+01  0.51100000000E-03 0.  1.
    9000002   -1    0    0    0    0 -0.00000000000E+00 -0.00000000000E+00  0.00000000000E+00  0.93800000000E+00  0.93800000000E+00 0. -1.
         11    1    1    2    0    0  0.26031135696E-02  0.83261653044E-02  0.92022972589E-01  0.92436950588E-01  0.51100000000E-03 0.  1.
    9000002    1    1    2    0    0  0.14058713481E+00 -0.19937947433E+00  0.39798483184E-01  0.97002311134E+00  0.93800000000E+00 0. -1.
         22    1    1    2    0    0 -0.14319024838E+00  0.19105330903E+00  0.38681785116E+01  0.38755399381E+01  0.00000000000E+00 0.  1.
</event>
<event>
 5    1  0.3428566E+002  0.1599665E+01  0.7818608E-02  0.3353727E+00
         11   -1    0    0    0    0  0.00000000000E+00  0.00000000000E+00  0.39999999674E+01  0.40000000000E+01  0.51100000000E-03 0. -1.
    9000002   -1    0    0    0    0 -0.00000000000E+00 -0.00000000000E+00  0.00000000000E+00  0.93800000000E+00  0.93800000000E+00 0.  1.
         11    1    1    2    0    0  0.10447323359E+00  0.67880461917E-02  0.12508399213E+01  0.12552137284E+01  0.51100000000E-03 0. -1.
    9000002    1    1    2    0    0 -0.32616352767E+00 -0.33516135724E-01  0.71924179956E-01  0.99625451858E+00  0.93800000000E+00 0.  1.
         22    1    1    2    0    0  0.22169029407E+00  0.26728089532E-01  0.26772358661E+01  0.26865317530E+01  0.00000000000E+00 0. -1.
</event>
<event>
 5    1  0.3428566E+002  0.1599632E+01  0.7818608E-02  0.3353763E+00
         11   -1    0    0    0    0  0.00000000000E+00  0.00000000000E+00  0.39999999674E+01  0.40000000000E+01  0.51100000000E-03 0. -1.
    9000002   -1    0    0    0    0 -0.00000000000E+00 -0.00000000000E+00  0.00000000000E+00  0.93800000000E+00  0.93800000000E+00 0.  1.
         11    1    1    2    0    0  0.45076907653E-02  0.18155860757E-01  0.31778414043E+00  0.31833469114E+00  0.51100000000E-03 0. -1.
    9000002    1    1    2    0    0 -0.27690620892E-02 -0.23680876440E+00  0.37255137417E-01  0.96815184959E+00  0.93800000000E+00 0.  1.
         22    1    1    2    0    0 -0.17386286761E-02  0.21865290364E+00  0.36449606895E+01  0.36515134593E+01  0.00000000000E+00 0. -1.
</event>
<event>
 5    1  0.3428566E+002  0.1599677E+01  0.7818608E-02  0.3353714E+00
         11   -1    0    0    0    0  0.00000000000E+00  0.00000000000E+00  0.39999999674E+01  0.40000000000E+01  0.51100000000E-03 0. -1.
    9000002   -1    0    0    0    0 -0.00000000000E+00 -0.00000000000E+00  0.00000000000E+00  0.93800000000E+00  0.93800000000E+00 0.  1.
         11    1    1    2    0    0  0.29254644848E-02  0.48112694965E-01  0.71270618661E+00  0.71433448700E+00  0.51100000000E-03 0. -1.
    9000002    1    1    2    0    0 -0.17391496010E-01 -0.26833572468E+00  0.48105080362E-01  0.97696705371E+00  0.93800000000E+00 0.  1.
         22    1    1    2    0    0  0.14466031525E-01  0.22022302971E+00  0.32391887004E+01  0.32466984593E+01  0.00000000000E+00 0. -1.
</event>
<event>
 5    1  0.3428566E+002  0.1599624E+01  0.7818608E-02  0.3353771E+00
         11   -1    0    0    0    0  0.00000000000E+00  0.00000000000E+00  0.39999999674E+01  0.40000000000E+01  0.51100000000E-03 0.  1.
    9000002   -1    0    0    0    0 -0.00000000000E+00 -0.00000000000E+00  0.00000000000E+00  0.93800000000E+00  0.93800000000E+00 0.  1.
         11    1    1    2    0    0  0.17835861448E+00 -0.27758976971E-01  0.18827503420E+01  0.18913834798E+01  0.51100000000E-03 0.  1.
    9000002    1    1    2    0    0 -0.38347581924E+00  0.68721223245E-01  0.10228495898E+00  0.10208244331E+01  0.93800000000E+00 0.  1.
         22    1    1    2    0    0  0.20511720477E+00 -0.40962246274E-01  0.20149646664E+01  0.20257920871E+01  0.00000000000E+00 0.  1.
</event>
<event>
 5    1  0.3428566E+002  0.1599570E+01  0.7818608E-02  0.3353831E+00
         11   -1    0    0    0    0  0.00000000000E+00  0.00000000000E+00  0.39999999674E+01  0.40000000000E+01  0.51100000000E-03 0. -1.
    9000002   -1    0    0    0    0 -0.00000000000E+00 -0.00000000000E+00  0.00000000000E+00  0.93800000000E+00  0.93800000000E+00 0. -1.
         11    1    1    2    0    0  0.84063528355E-02  0.57187179499E-02  0.30989108262E+00  0.31005824406E+00  0.51100000000E-03 0. -1.
    9000002    1    1    2    0    0 -0.19171441495E+00 -0.89570525955E-01  0.29745602796E-01  0.96203227436E+00  0.93800000000E+00 0. -1.
         22    1    1    2    0    0  0.18330806211E+00  0.83851808006E-01  0.36603632819E+01  0.36659094816E+01  0.00000000000E+00 0. -1.
</event>
<event>
 5    1  0.3428566E+002  0.1599673E+01  0.7818608E-02  0.3353719E+00
         11   -1    0    0    0    0  0.00000000000E+00  0.00000000000E+00  0.39999999674E+01  0.40000000000E+01  0.51100000000E-03 0. -1.
    9000002   -1    0    0    0    0 -0.00000000000E+00 -0.00000000000E+00  0.00000000000E+00  0.93800000000E+00  0.93800000000E+00 0.  1.
         11    1    1    2    0    0  0.26397781339E-01 -0.14743799211E+00  0.13640361427E+01  0.13722352801E+01  0.51100000000E-03 0. -1.
    9000002    1    1    2    0    0 -0.79460196603E-01  0.41418112222E+00  0.12031949165E+00  0.10354615903E+01  0.93800000000E+00 0.  1.
         22    1    1    2    0    0  0.53062415264E-01 -0.26674313011E+00  0.25156443330E+01  0.25303031296E+01  0.00000000000E+00 0. -1.
</event>
<event>
 5    1  0.3428566E+002  0.1599623E+01  0.7818608E-02  0.3353773E+00
         11   -1    0    0    0    0  0.00000000000E+00  0.00000000000E+00  0.39999999674E+01  0.40000000000E+01  0.51100000000E-03 0. -1.
    9000002   -1    0    0    0    0 -0.00000000000E+00 -0.00000000000E+00  0.00000000000E+00  0.93800000000E+00  0.93800000000E+00 0. -1.
         11    1    1    2    0    0  0.16134072767E+00 -0.10290493179E-01  0.17799609065E+01  0.17872878376E+01  0.51100000000E-03 0. -1.
    9000002    1    1    2    0    0 -0.36322693031E+00  0.52580457558E-02  0.88657835079E-01  0.10097849581E+01  0.93800000000E+00 0. -1.
         22    1    1    2    0    0  0.20188620265E+00  0.50324474228E-02  0.21313812258E+01  0.21409272042E+01  0.00000000000E+00 0. -1.
</event>
<event>
 5    1  0.3428566E+002  0.1599672E+01  0.7818608E-02  0.3353720E+00
         11   -1    0    0    0    0  0.00000000000E+00  0.00000000000E+00  0.39999999674E+01  0.40000000000E+01  0.51100000000E-03 0.  1.
    9000002   -1    0    0    0    0 -0.00000000000E+00 -0.00000000000E+00  0.00000000000E+00  0.93800000000E+00  0.93800000000E+00 0.  1.
         11    1    1    2    0    0 -0.13702562692E+00  0.21878059425E-01  0.12182648212E+01  0.12261419606E+01  0.51100000000E-03 0.  1.
    9000002    1    1    2    0    0  0.44053284739E+00 -0.63865736539E-01  0.13448754426E+00  0.10469378785E+01  0.93800000000E+00 0.  1.
         22    1    1    2    0    0 -0.30350722047E+00  0.41987677113E-01  0.26472476019E+01  0.26649201608E+01  0.00000000000E+00 0.  1.
</event>
<event>
 5    1  0.3428566E+002  0.1599677E+01  0.7818608E-02  0.3353714E+00
         11   -1    0    0    0    0  0.00000000000E+00  0.00000000000E+00  0.39999999674E+01  0.40000000000E+01  0.51100000000E-03 0.  1.
    9000002   -1    0    0    0    0 -0.00000000000E+00 -0.00000000000E+00  0.00000000000E+00  0.93800000000E+00  0.93800000000E+00 0.  1.
         11    1    1    2    0    0  0.59774553366E-01  0.97853994049E-02  0.91443192741E+00  0.91643590188E+00  0.51100000000E-03 0. -1.
    9000002    1    1    2    0    0 -0.25875715196E+00 -0.42597192305E-01  0.45727103059E-01  0.97504089783E+00  0.93800000000E+00 0.  1.
         22    1    1    2    0    0  0.19898259860E+00  0.32811792900E-01  0.30398409369E+01  0.30465232003E+01  0.00000000000E+00 0.  1.
</event>
<event>
 5    1  0.3428566E+002  0.1599577E+01  0.7818608E-02  0.3353823E+00
         11   -1    0    0    0    0  0.00000000000E+00  0.00000000000E+00  0.39999999674E+01  0.40000000000E+01  0.51100000000E-03 0. -1.
    9000002   -1    0    0    0    0 -0.00000000000E+00 -0.00000000000E+00  0.00000000000E+00  0.93800000000E+00  0.93800000000E+00 0. -1.
         11    1    1    2    0    0  0.50792784102E-01  0.39989173457E-01  0.95332134166E+00  0.95551079664E+00  0.51100000000E-03 0. -1.
    9000002    1    1    2    0    0 -0.24940592152E+00 -0.14869614358E+00  0.56275358018E-01  0.98352670158E+00  0.93800000000E+00 0. -1.
         22    1    1    2    0    0  0.19861313742E+00  0.10870697013E+00  0.29904032677E+01  0.29989625018E+01  0.00000000000E+00 0. -1.
</event>
<event>
 5    1  0.3428566E+002  0.1599677E+01  0.7818608E-02  0.3353714E+00
         11   -1    0    0    0    0  0.00000000000E+00  0.00000000000E+00  0.39999999674E+01  0.40000000000E+01  0.51100000000E-03 0.  1.
    9000002   -1    0    0    0    0 -0.00000000000E+00 -0.00000000000E+00  0.00000000000E+00  0.93800000000E+00  0.93800000000E+00 0.  1.
         11    1    1    2    0    0 -0.15238365863E+00  0.70105127469E-01  0.87027223056E+00  0.88628975213E+00  0.51100000000E-03 0. -1.
    9000002    1    1    2    0    0  0.63629830030E+00 -0.29400741324E+00  0.35122034267E+00  0.12225038303E+01  0.93800000000E+00 0.  1.
         22    1    1    2    0    0 -0.48391464166E+00  0.22390228578E+00  0.27785073941E+01  0.28292064176E+01  0.00000000000E+00 0.  1.
</event>
<event>
 5    1  0.3428566E+002  0.1599415E+01  0.7818608E-02  0.3353999E+00
         11   -1    0    0    0    0  0.00000000000E+00  0.00000000000E+00  0.39999999674E+01  0.40000000000E+01  0.51100000000E-03 0. -1.
    9000002   -1    0    0    0    0 -0.00000000000E+00 -0.00000000000E+00  0.00000000000E+00  0.93800000000E+00  0.93800000000E+00 0. -1.
         11    1    1    2    0    0 -0.10504752335E-01 -0.17486761031E-01  0.47794383587E+00  0.47837925122E+00  0.51100000000E-03 0. -1.
    9000002    1    1    2    0    0  0.19197982661E+00  0.13576634498E+00  0.36886620773E-01  0.96772587908E+00  0.93800000000E+00 0. -1.
         22    1    1    2    0    0 -0.18147507428E+00 -0.11827958395E+00  0.34851695107E+01  0.34918948697E+01  0.00000000000E+00 0. -1.
</event>
<event>
 5    1  0.3428566E+002  0.1599665E+01  0.7818608E-02  0.3353727E+00
         11   -1    0    0    0    0  0.00000000000E+00  0.00000000000E+00  0.39999999674E+01  0.40000000000E+01  0.51100000000E-03 0.  1.
    9000002   -1    0    0    0    0 -0.00000000000E+00 -0.00000000000E+00  0.00000000000E+00  0.93800000000E+00  0.93800000000E+00 0.  1.
         11    1    1    2    0    0  0.14525136423E-01  0.42172290551E+00  0.24179031262E+01  0.24544484060E+01  0.51100000000E-03 0.  1.
    9000002    1    1    2    0    0 -0.28271205515E-01 -0.64641481797E+00  0.29522359170E+00  0.11771373527E+01  0.93800000000E+00 0.  1.
         22    1    1    2    0    0  0.13746069092E-01  0.22469191245E+00  0.12868732494E+01  0.13064142414E+01  0.00000000000E+00 0.  1.
</event>
<event>
 5    1  0.3428566E+002  0.1599594E+01  0.7818608E-02  0.3353804E+00
         11   -1    0    0    0    0  0.00000000000E+00  0.00000000000E+00  0.39999999674E+01  0.40000000000E+01  0.51100000000E-03 0. -1.
    9000002   -1    0    0    0    0 -0.00000000000E+00 -0.00000000000E+00  0.00000000000E+00  0.93800000000E+00  0.93800000000E+00 0.  1.
         11    1    1    2    0    0 -0.17837558429E+00  0.24799023683E-01  0.17070081919E+01  0.17164818872E+01  0.51100000000E-03 0. -1.
    9000002    1    1    2    0    0  0.38448971218E+00 -0.46754903443E-01  0.10109736655E+00  0.10198446143E+01  0.93800000000E+00 0.  1.
         22    1    1    2    0    0 -0.20611412789E+00  0.21955879759E-01  0.21918944089E+01  0.22016734985E+01  0.00000000000E+00 0. -1.
</event>
<event>
 5    1  0.3428566E+002  0.1599675E+01  0.7818608E-02  0.3353716E+00
         11   -1    0    0    0    0  0.00000000000E+00  0.00000000000E+00  0.39999999674E+01  0.40000000000E+01  0.51100000000E-03 0.  1.
    9000002   -1    0    0    0    0 -0.00000000000E+00 -0.00000000000E+00  0.00000000000E+00  0.93800000000E+00  0.93800000000E+00 0.  1.
         11    1    1    2    0    0  0.17263624026E-01 -0.57479712807E-01  0.47587685869E+00  0.47964674070E+00  0.51100000000E-03 0.  1.
    9000002    1    1    2    0    0 -0.14065039777E+00  0.47088853750E+00  0.16509979784E+00  0.10717371377E+01  0.93800000000E+00 0.  1.
         22    1    1    2    0    0  0.12338677375E+00 -0.41340882469E+00  0.33590233108E+01  0.33866161216E+01  0.00000000000E+00 0.  1.
</event>
<event>
 5    1  0.3428566E+002  0.1599675E+01  0.7818608E-02  0.3353717E+00
         11   -1    0    0    0    0  0.00000000000E+00  0.00000000000E+00  0.39999999674E+01  0.40000000000E+01  0.51100000000E-03 0. -1.
    9000002   -1    0    0    0    0 -0.00000000000E+00 -0.00000000000E+00  0.00000000000E+00  0.93800000000E+00  0.93800000000E+00 0. -1.
         11    1    1    2    0    0  0.80316896781E-01 -0.23223674288E-01  0.11521849008E+01  0.11552144605E+01  0.51100000000E-03 0. -1.
    9000002    1    1    2    0    0 -0.27639369679E+00  0.73968957725E-01  0.54546131470E-01  0.98218336516E+00  0.93800000000E+00 0. -1.
         22    1    1    2    0    0  0.19607680001E+00 -0.50745283437E-01  0.27932689351E+01  0.28006021744E+01  0.00000000000E+00 0. -1.
</event>
<event>
 5    1  0.3428566E+002  0.1599667E+01  0.7818608E-02  0.3353725E+00
         11   -1    0    0    0    0  0.00000000000E+00  0.00000000000E+00  0.39999999674E+01  0.40000000000E+01  0.51100000000E-03 0. -1.
    9000002   -1    0    0    0    0 -0.00000000000E+00 -0.00000000000E+00  0.00000000000E+00  0.93800000000E+00  0.93800000000E+00 0.  1.
         11    1    1    2    0    0 -0.26968495275E-01 -0.23212467963E-01  0.26160884602E+00  0.26401812029E+00  0.51100000000E-03 0. -1.
    9000002    1    1    2    0    0  0.41872927195E+00  0.34269807300E+00  0.20189213243E+00  0.11015355671E+01  0.93800000000E+00 0.  1.
         22    1    1    2    0    0 -0.39176077667E+00 -0.31948560503E+00  0.35364989889E+01  0.35724463126E+01  0.00000000000E+00 0. -1.
</event>
<event>
 5    1  0.3428566E+002  0.1599676E+01  0.7818608E-02  0.3353716E+00
         11   -1    0    0    0    0  0.00000000000E+00  0.00000000000E+00  0.39999999674E+01  0.40000000000E+01  0.51100000000E-03 0.  1.
    9000002   -1    0    0    0    0 -0.00000000000E+00 -0.00000000000E+00  0.00000000000E+00  0.93800000000E+00  0.93800000000E+00 0. -1.
         11    1    1    2    0    0 -0.48181456176E-02 -0.87891120455E-01  0.10343015276E+01  0.10380404495E+01  0.51100000000E-03 0.  1.
    9000002    1    1    2    0    0  0.13605760789E-01  0.33315926054E+00  0.74416128217E-01  0.99827950482E+00  0.93800000000E+00 0. -1.
         22    1    1    2    0    0 -0.87876151714E-02 -0.24526814008E+00  0.28912823115E+01  0.29016800457E+01  0.00000000000E+00 0. -1.
</event>
<event>
 5    1  0.3428566E+002  0.1497756E+01  0.7818608E-02  0.3472404E+00
         11   -1    0    0    0    0  0.00000000000E+00  0.00000000000E+00  0.39999999674E+01  0.40000000000E+01  0.51100000000E-03 0.  1.
    9000002   -1    0    0    0    0 -0.00000000000E+00 -0.00000000000E+00  0.00000000000E+00  0.93800000000E+00  0.93800000000E+00 0. -1.
         11    1    1    2    0    0 -0.80399085000E-01 -0.52717528387E+00  0.22987929260E+01  0.23598362168E+01  0.51100000000E-03 0.  1.
    9000002    1    1    2    0    0  0.39313171733E-01  0.25941687041E+00  0.12867333453E+00  0.98246804790E+00  0.93800000000E+00 0. -1.
         22    1    1    2    0    0  0.41085913267E-01  0.26775841347E+00  0.15725337069E+01  0.15956957353E+01  0.00000000000E+00 0.  1.
</event>
<event>
 5    1  0.3428566E+002  0.1594918E+01  0.7818608E-02  0.3358898E+00
         11   -1    0    0    0    0  0.00000000000E+00  0.00000000000E+00  0.39999999674E+01  0.40000000000E+01  0.51100000000E-03 0. -1.
    9000002   -1    0    0    0    0 -0.00000000000E+00 -0.00000000000E+00  0.00000000000E+00  0.93800000000E+00  0.93800000000E+00 0. -1.
         11    1    1    2    0    0 -0.71079504159E-01 -0.10461311606E-01  0.31706410777E+00  0.32510251385E+00  0.51100000000E-03 0. -1.
    9000002    1    1    2    0    0  0.32251538874E+00  0.31721537611E-01  0.74009268066E-01  0.99516018996E+00  0.93800000000E+00 0. -1.
         22    1    1    2    0    0 -0.25143588458E+00 -0.21260226005E-01  0.36089265915E+01  0.36177372962E+01  0.00000000000E+00 0. -1.
</event>
<event>
 5    1  0.3428566E+002  0.1599613E+01  0.7818608E-02  0.3353783E+00
         11   -1    0    0    0    0  0.00000000000E+00  0.00000000000E+00  0.39999999674E+01  0.40000000000E+01  0.51100000000E-03 0.  1.
    9000002   -1    0    0    0    0 -0.00000000000E+00 -0.00000000000E+00  0.00000000000E+00  0.93800000000E+00  0.93800000000E+00 0.  1.
         11    1    1    2    0    0  0.23299092502E-01 -0.40561733926E-01  0.63328120648E+00  0.63500665317E+00  0.51100000000E-03 0.  1.
    9000002    1    1    2    0    0 -0.10274457058E+00  0.24262695792E+00  0.46215966456E-01  0.97539950946E+00  0.93800000000E+00 0.  1.
         22    1    1    2    0    0  0.79445478079E-01 -0.20206522400E+00  0.33205027944E+01  0.33275938374E+01  0.00000000000E+00 0.  1.
</event>
<event>
 5    1  0.3428566E+002  0.1599553E+01  0.7818608E-02  0.3353849E+00
         11   -1    0    0    0    0  0.00000000000E+00  0.00000000000E+00  0.39999999674E+01  0.40000000000E+01  0.51100000000E-03 0.  1.
    9000002   -1    0    0    0    0 -0.00000000000E+00 -0.00000000000E+00  0.00000000000E+00  0.93800000000E+00  0.93800000000E+00 0.  1.
         11    1    1    2    0    0 -0.12522192401E+00 -0.16304054932E-01  0.15145974650E+01  0.15198526555E+01  0.51100000000E-03 0.  1.
    9000002    1    1    2    0    0  0.34806483257E+00  0.18406395718E-01  0.81545892225E-01  0.10039828961E+01  0.93800000000E+00 0.  1.
         22    1    1    2    0    0 -0.22284290856E+00 -0.21023407857E-02  0.24038566102E+01  0.24141644484E+01  0.00000000000E+00 0.  1.
</event>
<event>
 5    1  0.3428566E+002  0.1508060E+01  0.7818608E-02  0.3459625E+00
         11   -1    0    0    0    0  0.00000000000E+00  0.00000000000E+00  0.39999999674E+01  0.40000000000E+01  0.51100000000E-03 0.  1.
    9000002   -1    0    0    0    0 -0.00000000000E+00 -0.00000000000E+00  0.00000000000E+00  0.93800000000E+00  0.93800000000E+00 0.  1.
         11    1    1    2    0    0  0.31353681368E+00  0.26894599287E+00  0.27142023079E+01  0.27454565576E+01  0.51100000000E-03 0.  1.
    9000002    1    1    2    0    0 -0.12781375497E+00 -0.27095541460E-01  0.81857583989E-01  0.95058676005E+00  0.93800000000E+00 0.  1.
         22    1    1    2    0    0 -0.18572305872E+00 -0.24185045140E+00  0.12039400755E+01  0.12419566823E+01  0.00000000000E+00 0. -1.
</event>
<event>
 5    1  0.3428566E+002  0.1573920E+01  0.7818608E-02  0.3382165E+00
         11   -1    0    0    0    0  0.00000000000E+00  0.00000000000E+00  0.39999999674E+01  0.40000000000E+01  0.51100000000E-03 0. -1.
    9000002   -1    0    0    0    0 -0.00000000000E+00 -0.00000000000E+00  0.00000000000E+00  0.93800000000E+00  0.93800000000E+00 0. -1.
         11    1    1    2    0    0 -0.11737987077E-01 -0.16460044429E+00  0.95384474330E+00  0.96801401955E+00  0.51100000000E-03 0. -1.
    9000002    1    1    2    0    0  0.16873398938E+00  0.74270652785E-02  0.38211908782E-01  0.95385033965E+00  0.93800000000E+00 0. -1.
         22    1    1    2    0    0 -0.15699600231E+00  0.15717337901E+00  0.30079433153E+01  0.30161356408E+01  0.00000000000E+00 0. -1.
</event>
<event>
 5    1  0.3428566E+002  0.1599512E+01  0.7818608E-02  0.3353893E+00
         11   -1    0    0    0    0  0.00000000000E+00  0.00000000000E+00  0.39999999674E+01  0.40000000000E+01  0.51100000000E-03 0. -1.
    9000002   -1    0    0    0    0 -0.00000000000E+00 -0.00000000000E+00  0.00000000000E+00  0.93800000000E+00  0.93800000000E+00 0.  1.
         11    1    1    2    0    0 -0.61532839858E-02  0.61406303416E-01  0.78252753652E+00  0.78495745333E+00  0.51100000000E-03 0. -1.
    9000002    1    1    2    0    0 -0.24030203470E-01 -0.33673684073E+00  0.76447123526E-01  0.99982864196E+00  0.93800000000E+00 0.  1.
         22    1    1    2    0    0  0.30183487456E-01  0.27533053732E+00  0.31410253073E+01  0.31532139047E+01  0.00000000000E+00 0. -1.
</event>
<event>
 5    1  0.3428566E+002  0.1599674E+01  0.7818608E-02  0.3353717E+00
         11   -1    0    0    0    0  0.00000000000E+00  0.00000000000E+00  0.39999999674E+01  0.40000000000E+01  0.51100000000E-03 0. -1.
    9000002   -1    0    0    0    0 -0.00000000000E+00 -0.00000000000E+00  0.00000000000E+00  0.93800000000E+00  0.93800000000E+00 0. -1.
         11    1    1    2    0    0 -0.33013440027E-01 -0.65030157955E-02  0.42551456949E+00  0.42684316371E+00  0.51100000000E-03 0. -1.
    9000002    1    1    2    0    0  0.29581117361E+00  0.64636852537E-01  0.61180365339E-01  0.98755719340E+00  0.93800000000E+00 0. -1.
         22    1    1    2    0    0 -0.26279773358E+00 -0.58133836742E-01  0.35133050325E+01  0.35235996429E+01  0.00000000000E+00 0. -1.
</event>
<event>
 5    1  0.3428566E+002  0.1588228E+01  0.7818608E-02  0.3366240E+00
         11   -1    0    0    0    0  0.00000000000E+00  0.00000000000E+00  0.39999999674E+01  0.40000000000E+01  0.51100000000E-03 0.  1.
    9000002   -1    0    0    0    0 -0.00000000000E+00 -0.00000000000E+00  0.00000000000E+00  0.93800000000E+00  0.93800000000E+00 0.  1.
         11    1    1    2    0    0 -0.62823257443E-01  0.20523337351E-01  0.20756128078E+00  0.21783001504E+00  0.51100000000E-03 0.  1.
    9000002    1    1    2    0    0  0.89140488858E-01 -0.29340628865E+00  0.71817148462E-01  0.98946196480E+00  0.93800000000E+00 0.  1.
         22    1    1    2    0    0 -0.26317231415E-01  0.27288295130E+00  0.37206215381E+01  0.37307080202E+01  0.00000000000E+00 0.  1.
</event>
<event>
 5    1  0.3428566E+002  0.1599664E+01  0.7818608E-02  0.3353728E+00
         11   -1    0    0    0    0  0.00000000000E+00  0.00000000000E+00  0.39999999674E+01  0.40000000000E+01  0.51100000000E-03 0. -1.
    9000002   -1    0    0    0    0 -0.00000000000E+00 -0.00000000000E+00  0.00000000000E+00  0.93800000000E+00  0.93800000000E+00 0. -1.
         11    1    1    2    0    0 -0.28408784673E-01  0.37373747206E-01  0.59431914519E+00  0.59617058254E+00  0.51100000000E-03 0. -1.
    9000002    1    1    2    0    0  0.19164971917E+00 -0.26683213008E+00  0.72212224423E-01  0.99648763457E+00  0.93800000000E+00 0. -1.
         22    1    1    2    0    0 -0.16324093450E+00  0.22945838287E+00  0.33334685977E+01  0.33453417829E+01  0.00000000000E+00 0. -1.
</event>
<event>
 5    1  0.3428566E+002  0.1594867E+01  0.7818608E-02  0.3358953E+00
         11   -1    0    0    0    0  0.00000000000E+00  0.00000000000E+00  0.39999999674E+01  0.40000000000E+01  0.51100000000E-03 0.  1.
    9000002   -1    0    0    0    0 -0.00000000000E+00 -0.00000000000E+00  0.00000000000E+00  0.93800000000E+00  0.93800000000E+00 0. -1.
         11    1    1    2    0    0  0.21792716870E+00 -0.89004399480E-01  0.26741245995E+01  0.26844658069E+01  0.51100000000E-03 0.  1.
    9000002    1    1    2    0    0 -0.41631164671E+00  0.17478892390E+00  0.14266448351E+00  0.10507443599E+01  0.93800000000E+00 0. -1.
         22    1    1    2    0    0  0.19838447801E+00 -0.85784524418E-01  0.11832108844E+01  0.12027898331E+01  0.00000000000E+00 0.  1.
</event>
<event>
 5    1  0.3428566E+002  0.1599677E+01  0.7818608E-02  0.3353714E+00
         11   -1    0    0    0    0  0.00000000000E+00  0.00000000000E+00  0.39999999674E+01  0.40000000000E+01  0.51100000000E-03 0. -1.
    9000002   -1    0    0    0    0 -0.00000000000E+00 -0.00000000000E+00  0.00000000000E+00  0.93800000000E+00  0.93800000000E+00 0.  1.
         11    1    1    2    0    0 -0.82881811147E-01  0.46427578176E+00  0.18379915578E+01  0.18975338268E+01  0.51100000000E-03 0. -1.
    9000002    1    1    2    0    0  0.15480083413E+00 -0.86274091388E+00  0.58228203409E+00  0.14096742709E+01  0.93800000000E+00 0.  1.
         22    1    1    2    0    0 -0.71919022986E-01  0.39846513212E+00  0.15797263754E+01  0.16307919023E+01  0.00000000000E+00 0.  1.
</event>
<event>
 5    1  0.3428566E+002  0.1599618E+01  0.7818608E-02  0.3353778E+00
         11   -1    0    0    0    0  0.00000000000E+00  0.00000000000E+00  0.39999999674E+01  0.40000000000E+01  0.51100000000E-03 0. -1.
    9000002   -1    0    0    0    0 -0.00000000000E+00 -0.00000000000E+00  0.00000000000E+00  0.93800000000E+00  0.93800000000E+00 0.  1.
         11    1    1    2    0    0 -0.77759765714E-01 -0.96269850356E-01  0.15141243821E+01  0.15191732524E+01  0.51100000000E-03 0. -1.
    9000002    1    1    2    0    0  0.22299940100E+00  0.24004560045E+00  0.71855717865E-01  0.99617160536E+00  0.93800000000E+00 0.  1.
         22    1    1    2    0    0 -0.14523963529E+00 -0.14377575009E+00  0.24140198674E+01  0.24226551422E+01  0.00000000000E+00 0.  1.
</event>
<event>
 5    1  0.3428566E+002  0.1599660E+01  0.7818608E-02  0.3353733E+00
         11   -1    0    0    0    0  0.00000000000E+00  0.00000000000E+00  0.39999999674E+01  0.40000000000E+01  0.51100000000E-03 0. -1.
    9000002   -1    0    0    0    0 -0.00000000000E+00 -0.00000000000E+00  0.00000000000E+00  0.93800000000E+00  0.93800000000E+00 0.  1.
         11    1    1    2    0    0 -0.60189660641E-01  0.72792922114E-01  0.75284360019E+00  0.75874590755E+00  0.51100000000E-03 0. -1.
    9000002    1    1    2    0    0  0.30473498353E+00 -0.39071906117E+00  0.16796492740E+00  0.10740488871E+01  0.93800000000E+00 0.  1.
         22    1    1    2    0    0 -0.24454532289E+00  0.31792613905E+00  0.30791914398E+01  0.31052052054E+01  0.00000000000E+00 0. -1.
</event>
<event>
 5    1  0.3428566E+002  0.1588549E+01  0.7818608E-02  0.3365886E+00
         11   -1    0    0    0    0  0.00000000000E+00  0.00000000000E+00  0.39999999674E+01  0.40000000000E+01  0.51100000000E-03 0. -1.
    9000002   -1    0    0    0    0 -0.00000000000E+00 -0.00000000000E+00  0.00000000000E+00  0.93800000000E+00  0.93800000000E+00 0.  1.
         11    1    1    2    0    0 -0.10434529109E+00 -0.22176254827E+00  0.14432946429E+01  0.14639556875E+01  0.51100000000E-03 0. -1.
    9000002    1    1    2    0    0  0.38730177077E+00  0.28103500420E+00  0.16610763274E+00  0.10660295872E+01  0.93800000000E+00 0.  1.
         22    1    1    2    0    0 -0.28295647968E+00 -0.59272455926E-01  0.23905976917E+01  0.24080147253E+01  0.00000000000E+00 0.  1.
</event>
<event>
 5    1  0.3428566E+002  0.1599289E+01  0.7818608E-02  0.3354135E+00
         11   -1    0    0    0    0  0.00000000000E+00  0.00000000000E+00  0.39999999674E+01  0.40000000000E+01  0.51100000000E-03 0.  1.
    9000002   -1    0    0    0    0 -0.00000000000E+00 -0.00000000000E+00  0.00000000000E+00  0.93800000000E+00  0.93800000000E+00 0. -1.
         11    1    1    2    0    0 -0.90925957294E-01 -0.11713955657E-01  0.94143459835E+00  0.94588800106E+00  0.51100000000E-03 0.  1.
    9000002    1    1    2    0    0  0.30541830249E+00  0.91853121751E-02  0.62621792433E-01  0.98849896224E+00  0.93800000000E+00 0. -1.
         22    1    1    2    0    0 -0.21449234520E+00  0.25286434816E-02  0.29959435766E+01  0.30036130367E+01  0.00000000000E+00 0.  1.
</event>
<event>
 5    1  0.3428566E+002  0.1599675E+01  0.7818608E-02  0.3353717E+00
         11   -1    0    0    0    0  0.00000000000E+00  0.00000000000E+00  0.39999999674E+01  0.40000000000E+01  0.51100000000E-03 0.  1.
    9000002   -1    0    0    0    0 -0.00000000000E+00 -0.00000000000E+00  0.00000000000E+00  0.93800000000E+00  0.93800000000E+00 0. -1.
         11    1    1    2    0    0 -0.55555772528E-02  0.51448245880E-01  0.43639112088E+00  0.43944881152E+00  0.51100000000E-03 0.  1.
    9000002    1    1    2    0    0  0.50876722510E-01 -0.44580164033E+00  0.13671427060E+00  0.10487432170E+01  0.93800000000E+00 0. -1.
         22    1    1    2    0    0 -0.45321145257E-01  0.39435339445E+00  0.34268945759E+01  0.34498079715E+01  0.00000000000E+00 0.  1.
</event>
<event>
 5    1  0.3428566E+002  0.1599674E+01  0.7818608E-02  0.3353717E+00
         11   -1    0    0    0    0  0.00000000000E+00  0.00000000000E+00  0.39999999674E+01  0.40000000000E+01  0.51100000000E-03 0. -1.
    9000002   -1    0    0    0    0 -0.00000000000E+00 -0.00000000000E+00  0.00000000000E+00  0.93800000000E+00  0.93800000000E+00 0. -1.
         11    1    1    2    0    0 -0.12041374758E+00  0.19308232117E+00  0.16629067976E+01  0.16784038644E+01  0.51100000000E-03 0. -1.
    9000002    1    1    2    0    0  0.28064770010E+00 -0.44182598630E+00  0.18831392075E+00  0.10905409055E+01  0.93800000000E+00 0. -1.
         22    1    1    2    0    0 -0.16023395253E+00  0.24874366513E+00  0.21487792490E+01  0.21690552301E+01  0.00000000000E+00 0. -1.
</event>
<event>
 5    1  0.3428566E+002  0.1561363E+01  0.7818608E-02  0.3396397E+00
         11   -1    0    0    0    0  0.00000000000E+00  0.00000000000E+00  0.39999999674E+01  0.40000000000E+01  0.51100000000E-03 0. -1.
    9000002   -1    0    0    0    0 -0.00000000000E+00 -0.00000000000E+00  0.00000000000E+00  0.93800000000E+00  0.93800000000E+00 0. -1.
         11    1    1    2    0    0  0.23298100706E+00  0.15778193126E+00  0.11276014817E+01  0.11621792677E+01  0.51100000000E-03 0. -1.
    9000002    1    1    2    0    0 -0.97128476327E-01 -0.32155280489E+00  0.10678821731E+00  0.10020368609E+01  0.93800000000E+00 0. -1.
         22    1    1    2    0    0 -0.13585253074E+00  0.16377087363E+00  0.27656102683E+01  0.27737838714E+01  0.00000000000E+00 0. -1.
</event>
<event>
 5    1  0.3428566E+002  0.1537965E+01  0.7818608E-02  0.3423575E+00
         11   -1    0    0    0    0  0.00000000000E+00  0.00000000000E+00  0.39999999674E+01  0.40000000000E+01  0.51100000000E-03 0. -1.
    9000002   -1    0    0    0    0 -0.00000000000E+00 -0.00000000000E+00  0.00000000000E+00  0.93800000000E+00  0.93800000000E+00 0. -1.
         11    1    1    2    0    0 -0.62681854043E+00  0.46283400620E+00  0.57899187258E+00  0.97074643937E+00  0.51100000000E-03 0. -1.
    9000002    1    1    2    0    0  0.10676518211E+01 -0.28477812861E+00  0.30017458812E+01  0.33333618659E+01  0.93800000000E+00 0. -1.
         22    1    1    2    0    0 -0.44083328071E+00 -0.17805587759E+00  0.41926221358E+00  0.63389169474E+00  0.00000000000E+00 0. -1.
</event>
<event>
 5    1  0.3428566E+002  0.1599657E+01  0.7818608E-02  0.3353736E+00
         11   -1    0    0    0    0  0.00000000000E+00  0.00000000000E+00  0.39999999674E+01  0.40000000000E+01  0.51100000000E-03 0. -1.
    9000002   -1    0    0    0    0 -0.00000000000E+00 -0.00000000000E+00  0.00000000000E+00  0.93800000000E+00  0.93800000000E+00 0.  1.
         11    1    1    2    0    0  0.37361008880E-01  0.66071016414E-01  0.98249858803E+00  0.98542628379E+00  0.51100000000E-03 0. -1.
    9000002    1    1    2    0    0 -0.14942138579E+00 -0.24659997870E+00  0.55419163139E-01  0.98288024890E+00  0.93800000000E+00 0.  1.
         22    1    1    2    0    0  0.11206037691E+00  0.18052896229E+00  0.29620822162E+01  0.29696934673E+01  0.00000000000E+00 0. -1.
</event>
<event>
 5    1  0.3428566E+002  0.1530215E+01  0.7818608E-02  0.3432772E+00
         11   -1    0    0    0    0  0.00000000000E+00  0.00000000000E+00  0.39999999674E+01  0.40000000000E+01  0.51100000000E-03 0. -1.
    9000002   -1    0    0    0    0 -0.00000000000E+00 -0.00000000000E+00  0.00000000000E+00  0.93800000000E+00  0.93800000000E+00 0.  1.
         11    1    1    2    0    0 -0.36699815818E-01 -0.14891641057E+00  0.26540637873E+00  0.30653512166E+00  0.51100000000E-03 0. -1.
    9000002    1    1    2    0    0 -0.10871614422E+00 -0.12696458475E+00  0.71864136041E-01  0.95548294587E+00  0.93800000000E+00 0.  1.
         22    1    1    2    0    0  0.14541596004E+00  0.27588099532E+00  0.36627294526E+01  0.36759819325E+01  0.00000000000E+00 0. -1.
</event>
<event>
 5    1  0.3428566E+002  0.1599502E+01  0.7818608E-02  0.3353904E+00
         11   -1    0    0    0    0  0.00000000000E+00  0.00000000000E+00  0.39999999674E+01  0.40000000000E+01  0.51100000000E-03 0.  1.
    9000002   -1    0    0    0    0 -0.00000000000E+00 -0.00000000000E+00  0.00000000000E+00  0.93800000000E+00  0.93800000000E+00 0. -1.
         11    1    1    2    0    0  0.26276778249E-01 -0.88818893842E-02  0.66752269892E+00  0.66809892361E+00  0.51100000000E-03 0.  1.
    9000002    1    1    2    0    0 -0.22654573034E+00  0.45713099359E-01  0.35565081572E-01  0.96670653790E+00  0.93800000000E+00 0. -1.
         22    1    1    2    0    0  0.20026895209E+00 -0.36831209975E-01  0.32969121869E+01  0.33031945385E+01  0.00000000000E+00 0.  1.
</event>
<event>
 5    1  0.3428566E+002  0.1598581E+01  0.7818608E-02  0.3354905E+00
         11   -1    0    0    0    0  0.00000000000E+00  0.00000000000E+00  0.39999999674E+01  0.40000000000E+01  0.51100000000E-03 0. -1.
    9000002   -1    0    0    0    0 -0.00000000000E+00 -0.00000000000E+00  0.00000000000E+00  0.93800000000E+00  0.93800000000E+00 0. -1.
         11    1    1    2    0    0  0.35080564023E-01  0.74375933128E-01  0.14209945594E+01  0.14233721314E+01  0.51100000000E-03 0. -1.
    9000002    1    1    2    0    0 -0.85454515153E-01 -0.31115737858E+00  0.70482431540E-01  0.99445118611E+00  0.93800000000E+00 0. -1.
         22    1    1    2    0    0  0.50373951131E-01  0.23678144546E+00  0.25085229764E+01  0.25201766825E+01  0.00000000000E+00 0. -1.
</event>
<event>
 5    1  0.3428566E+002  0.1545139E+01  0.7818608E-02  0.3415149E+00
         11   -1    0    0    0    0  0.00000000000E+00  0.00000000000E+00  0.39999999674E+01  0.40000000000E+01  0.51100000000E-03 0.  1.
    9000002   -1    0    0    0    0 -0.00000000000E+00 -0.00000000000E+00  0.00000000000E+00  0.93800000000E+00  0.93800000000E+00 0. -1.
         11    1    1    2    0    0  0.29335385360E+00 -0.20175584936E-01  0.31869705753E+01  0.32005070296E+01  0.51100000000E-03 0.  1.
    9000002    1    1    2    0    0 -0.48559504078E+00  0.22412503777E+00  0.24964231733E+00  0.11082417890E+01  0.93800000000E+00 0. -1.
         22    1    1    2    0    0  0.19224118718E+00 -0.20394945284E+00  0.56338707476E+00  0.62925118146E+00  0.00000000000E+00 0.  1.
</event>
<event>
 5    1  0.3428566E+002  0.1599617E+01  0.7818608E-02  0.3353779E+00
         11   -1    0    0    0    0  0.00000000000E+00  0.00000000000E+00  0.39999999674E+01  0.40000000000E+01  0.51100000000E-03 0. -1.
    9000002   -1    0    0    0    0 -0.00000000000E+00 -0.00000000000E+00  0.00000000000E+00  0.93800000000E+00  0.93800000000E+00 0. -1.
         11    1    1    2    0    0  0.12130591737E-01 -0.76936339181E-01  0.61969641525E+00  0.62457206128E+00  0.51100000000E-03 0. -1.
    9000002    1    1    2    0    0 -0.52503130151E-01  0.51046457711E+00  0.18072473324E+00  0.10843597615E+01  0.93800000000E+00 0. -1.
         22    1    1    2    0    0  0.40372538414E-01 -0.43352823793E+00  0.31995788189E+01  0.32290681772E+01  0.00000000000E+00 0. -1.
</event>
<event>
 5    1  0.3428566E+002  0.1599058E+01  0.7818608E-02  0.3354387E+00
         11   -1    0    0    0    0  0.00000000000E+00  0.00000000000E+00  0.39999999674E+01  0.40000000000E+01  0.51100000000E-03 0.  1.
    9000002   -1    0    0    0    0 -0.00000000000E+00 -0.00000000000E+00  0.00000000000E+00  0.93800000000E+00  0.93800000000E+00 0. -1.
         11    1    1    2    0    0 -0.21810365675E+00 -0.11402526182E+00  0.20775975641E+01  0.20921240080E+01  0.51100000000E-03 0.  1.
    9000002    1    1    2    0    0  0.45085434677E+00  0.18313527235E+00  0.16230255520E+00  0.10691091101E+01  0.93800000000E+00 0. -1.
         22    1    1    2    0    0 -0.23275069002E+00 -0.69110010524E-01  0.17600998481E+01  0.17767668819E+01  0.00000000000E+00 0.  1.
</event>
<event>
 5    1  0.3428566E+002  0.1599656E+01  0.7818608E-02  0.3353737E+00
         11   -1    0    0    0    0  0.00000000000E+00  0.00000000000E+00  0.39999999674E+01  0.40000000000E+01  0.51100000000E-03 0. -1.
    9000002   -1    0    0    0    0 -0.00000000000E+00 -0.00000000000E+00  0.00000000000E+00  0.93800000000E+00  0.93800000000E+00 0. -1.
         11    1    1    2    0    0  0.16607114226E-01 -0.29512344785E-03  0.32603317789E+00  0.32645639455E+00  0.51100000000E-03 0. -1.
    9000002    1    1    2    0    0 -0.23746066482E+00 -0.43145768176E-02  0.37451109920E-01  0.96832472268E+00  0.93800000000E+00 0. -1.
         22    1    1    2    0    0  0.22085355059E+00  0.46097002654E-02  0.36365156796E+01  0.36432188828E+01  0.00000000000E+00 0. -1.
</event>
<event>
 5    1  0.3428566E+002  0.1599624E+01  0.7818608E-02  0.3353771E+00
         11   -1    0    0    0    0  0.00000000000E+00  0.00000000000E+00  0.39999999674E+01  0.40000000000E+01  0.51100000000E-03 0.  1.
    9000002   -1    0    0    0    0 -0.00000000000E+00 -0.00000000000E+00  0.00000000000E+00  0.93800000000E+00  0.93800000000E+00 0.  1.
         11    1    1    2    0    0  0.46194696743E+00 -0.22024278476E+00  0.24778516910E+01  0.25301484440E+01  0.51100000000E-03 0.  1.
    9000002    1    1    2    0    0 -0.66298733023E+00  0.32806846990E+00  0.39551744941E+00  0.12583557421E+01  0.93800000000E+00 0.  1.
         22    1    1    2    0    0  0.20104036280E+00 -0.10782568514E+00  0.11266308269E+01  0.11494958138E+01  0.00000000000E+00 0. -1.
</event>
<event>
 5    1  0.3428566E+002  0.1599675E+01  0.7818608E-02  0.3353716E+00
         11   -1    0    0    0    0  0.00000000000E+00  0.00000000000E+00  0.39999999674E+01  0.40000000000E+01  0.51100000000E-03 0.  1.
    9000002   -1    0    0    0    0 -0.00000000000E+00 -0.00000000000E+00  0.00000000000E+00  0.93800000000E+00  0.93800000000E+00 0.  1.
         11    1    1    2    0    0  0.23518917049E-01 -0.57705980016E-01  0.91641882611E+00  0.91853516294E+00  0.51100000000E-03 0.  1.
    9000002    1    1    2    0    0 -0.10763549268E+00  0.25015699813E+00  0.49356391350E-01  0.97797953781E+00  0.93800000000E+00 0.  1.
         22    1    1    2    0    0  0.84116575629E-01 -0.19245101812E+00  0.30342247499E+01  0.30414852993E+01  0.00000000000E+00 0.  1.
</event>
<event>
 5    1  0.3428566E+002  0.1599676E+01  0.7818608E-02  0.3353715E+00
         11   -1    0    0    0    0  0.00000000000E+00  0.00000000000E+00  0.39999999674E+01  0.40000000000E+01  0.51100000000E-03 0.  1.
    9000002   -1    0    0    0    0 -0.00000000000E+00 -0.00000000000E+00  0.00000000000E+00  0.93800000000E+00  0.93800000000E+00 0.  1.
         11    1    1    2    0    0 -0.19345651930E-01  0.21656551948E-02  0.31160738552E+00  0.31221525931E+00  0.51100000000E-03 0.  1.
    9000002    1    1    2    0    0  0.23903426414E+00 -0.24630198545E-01  0.38331859310E-01  0.96904971882E+00  0.93800000000E+00 0.  1.
         22    1    1    2    0    0 -0.21968861221E+00  0.22464543350E-01  0.36500607225E+01  0.36567350219E+01  0.00000000000E+00 0.  1.
</event>
<event>
 5    1  0.3428566E+002  0.1555930E+01  0.7818608E-02  0.3402630E+00
         11   -1    0    0    0    0  0.00000000000E+00  0.00000000000E+00  0.39999999674E+01  0.40000000000E+01  0.51100000000E-03 0.  1.
    9000002   -1    0    0    0    0 -0.00000000000E+00 -0.00000000000E+00  0.00000000000E+00  0.93800000000E+00  0.93800000000E+00 0. -1.
         11    1    1    2    0    0 -0.12395346952E+00 -0.36292644371E-01  0.31556699775E+00  0.34097567337E+00  0.51100000000E-03 0.  1.
    9000002    1    1    2    0    0 -0.99589802544E-01 -0.63182626614E-01  0.41932451208E-01  0.94631522419E+00  0.93800000000E+00 0. -1.
         22    1    1    2    0    0  0.22354327207E+00  0.99475270984E-01  0.36425005184E+01  0.36507091024E+01  0.00000000000E+00 0.  1.
</event>
<event>
 5    1  0.3428566E+002  0.1599676E+01  0.7818608E-02  0.3353715E+00
         11   -1    0    0    0    0  0.00000000000E+00  0.00000000000E+00  0.39999999674E+01  0.40000000000E+01  0.51100000000E-03 0. -1.
    9000002   -1    0    0    0    0 -0.00000000000E+00 -0.00000000000E+00  0.00000000000E+00  0.93800000000E+00  0.93800000000E+00 0.  1.
         11    1    1    2    0    0  0.26572117231E+00  0.72727829175E-01  0.20100152507E+01  0.20288071982E+01  0.51100000000E-03 0. -1.
    9000002    1    1    2    0    0 -0.50284708162E+00 -0.13966185662E+00  0.18715220019E+00  0.10896011049E+01  0.93800000000E+00 0.  1.
         22    1    1    2    0    0  0.23712590930E+00  0.66934027444E-01  0.18028325165E+01  0.18195916969E+01  0.00000000000E+00 0. -1.
</event>
<event>
 5    1  0.3428566E+002  0.1599673E+01  0.7818608E-02  0.3353718E+00
         11   -1    0    0    0    0  0.00000000000E+00  0.00000000000E+00  0.39999999674E+01  0.40000000000E+01  0.51100000000E-03 0. -1.
    9000002   -1    0    0    0    0 -0.00000000000E+00 -0.00000000000E+00  0.00000000000E+00  0.93800000000E+00  0.93800000000E+00 0.  1.
         11    1    1    2    0    0  0.45348667370E-02  0.41446982325E-02  0.11656127350E+00  0.11672418405E+00  0.51100000000E-03 0.  1.
    9000002    1    1    2    0    0 -0.17198792939E+00 -0.15146364159E+00  0.34838822350E-01  0.96621882931E+00  0.93800000000E+00 0.  1.
         22    1    1    2    0    0  0.16745306265E+00  0.14731894336E+00  0.38485998715E+01  0.38550569866E+01  0.00000000000E+00 0. -1.
</event>
<event>
 5    1  0.3428566E+002  0.1599610E+01  0.7818608E-02  0.3353787E+00
         11   -1    0    0    0    0  0.00000000000E+00  0.00000000000E+00  0.39999999674E+01  0.40000000000E+01  0.51100000000E-03 0.  1.
    9000002   -1    0    0    0    0 -0.00000000000E+00 -0.00000000000E+00  0.00000000000E+00  0.93800000000E+00  0.93800000000E+00 0. -1.
         11    1    1    2    0    0 -0.24127579321E+00 -0.40255593485E-01  0.18065489904E+01  0.18230342939E+01  0.51100000000E-03 0.  1.
    9000002    1    1    2    0    0  0.50358055256E+00  0.65527243340E-01  0.17683358619E+00  0.10812036393E+01  0.93800000000E+00 0. -1.
         22    1    1    2    0    0 -0.26230475936E+00 -0.25271649855E-01  0.20166173908E+01  0.20337620667E+01  0.00000000000E+00 0.  1.
</event>
<event>
 5    1  0.3428566E+002  0.1599663E+01  0.7818608E-02  0.3353729E+00
         11   -1    0    0    0    0  0.00000000000E+00  0.00000000000E+00  0.39999999674E+01  0.40000000000E+01  0.51100000000E-03 0. -1.
    9000002   -1    0    0    0    0 -0.00000000000E+00 -0.00000000000E+00  0.00000000000E+00  0.93800000000E+00  0.93800000000E+00 0. -1.
         11    1    1    2    0    0 -0.11575643204E+00 -0.11684014835E-01  0.99985569810E+00  0.10066020792E+01  0.51100000000E-03 0. -1.
    9000002    1    1    2    0    0  0.45200511632E+00  0.30696170099E-01  0.13947828778E+00  0.10509752960E+01  0.93800000000E+00 0. -1.
         22    1    1    2    0    0 -0.33624868428E+00 -0.19012155264E-01  0.28606659815E+01  0.28804226248E+01  0.00000000000E+00 0. -1.
</event>
<event>
 5    1  0.3428566E+002  0.1599658E+01  0.7818608E-02  0.3353735E+00
         11   -1    0    0    0    0  0.00000000000E+00  0.00000000000E+00  0.39999999674E+01  0.40000000000E+01  0.51100000000E-03 0. -1.
    9000002   -1    0    0    0    0 -0.00000000000E+00 -0.00000000000E+00  0.00000000000E+00  0.93800000000E+00  0.93800000000E+00 0.  1.
         11    1    1    2    0    0 -0.19504461742E-02  0.57374418083E-03  0.55672797248E-01  0.55712250870E-01  0.51100000000E-03 0. -1.
    9000002    1    1    2    0    0  0.20186202931E+00 -0.93153604886E-01  0.32782368829E-01  0.96454370388E+00  0.93800000000E+00 0.  1.
         22    1    1    2    0    0 -0.19991158314E+00  0.92579860705E-01  0.39115448013E+01  0.39177440453E+01  0.00000000000E+00 0. -1.
</event>
<event>
 5    1  0.3428566E+002  0.1599676E+01  0.7818608E-02  0.3353715E+00
         11   -1    0    0    0    0  0.00000000000E+00  0.00000000000E+00  0.39999999674E+01  0.40000000000E+01  0.51100000000E-03 0. -1.
    9000002   -1    0    0    0    0 -0.00000000000E+00 -0.00000000000E+00  0.00000000000E+00  0.93800000000E+00  0.93800000000E+00 0. -1.
         11    1    1    2    0    0  0.12875588358E+00  0.18771261230E+00  0.12632474974E+01  0.12835920704E+01  0.51100000000E-03 0. -1.
    9000002    1    1    2    0    0 -0.37480731553E+00 -0.55087756276E+00  0.31452172337E+00  0.11927759754E+01  0.93800000000E+00 0. -1.
         22    1    1    2    0    0  0.24605143196E+00  0.36316495047E+00  0.24222307466E+01  0.24616319542E+01  0.00000000000E+00 0. -1.
</event>
<event>
 5    1  0.3428566E+002  0.1599644E+01  0.7818608E-02  0.3353750E+00
         11   -1    0    0    0    0  0.00000000000E+00  0.00000000000E+00  0.39999999674E+01  0.40000000000E+01  0.51100000000E-03 0. -1.
    9000002   -1    0    0    0    0 -0.00000000000E+00 -0.00000000000E+00  0.00000000000E+00  0.93800000000E+00  0.93800000000E+00 0.  1.
         11    1    1    2    0    0 -0.41050586231E-01 -0.38790253019E-01  0.48040832145E+00  0.48371711857E+00  0.51100000000E-03 0. -1.
    9000002    1    1    2    0    0  0.30829799099E+00  0.34097612496E+00  0.14375645657E+00  0.10544298402E+01  0.93800000000E+00 0.  1.
         22    1    1    2    0    0 -0.26724740476E+00 -0.30218587194E+00  0.33758351893E+01  0.33998530413E+01  0.00000000000E+00 0. -1.
</event>
<event>
 5    1  0.3428566E+002  0.1569555E+01  0.7818608E-02  0.3387085E+00
         11   -1    0    0    0    0  0.00000000000E+00  0.00000000000E+00  0.39999999674E+01  0.40000000000E+01  0.51100000000E-03 0.  1.
    9000002   -1    0    0    0    0 -0.00000000000E+00 -0.00000000000E+00  0.00000000000E+00  0.93800000000E+00  0.93800000000E+00 0.  1.
         11    1    1    2    0    0 -0.10138307245E+00  0.88519569928E-01  0.22928358562E+01  0.22967826989E+01  0.51100000000E-03 0.  1.
    9000002    1    1    2    0    0  0.31196143609E+00  0.17069265399E+00  0.10959499033E+00  0.10091139587E+01  0.93800000000E+00 0.  1.
         22    1    1    2    0    0 -0.21057836364E+00 -0.25921222391E+00  0.15975691208E+01  0.16321033424E+01  0.00000000000E+00 0. -1.
</event>
<event>
 5    1  0.3428566E+002  0.1599677E+01  0.7818608E-02  0.3353714E+00
         11   -1    0    0    0    0  0.00000000000E+00  0.00000000000E+00  0.39999999674E+01  0.40000000000E+01  0.51100000000E-03 0.  1.
    9000002   -1    0    0    0    0 -0.00000000000E+00 -0.00000000000E+00  0.00000000000E+00  0.93800000000E+00  0.93800000000E+00 0.  1.
         11    1    1    2    0    0 -0.38707343405E-01 -0.97274423661E-01  0.97351489514E+00  0.97912822659E+00  0.51100000000E-03 0.  1.
    9000002    1    1    2    0    0  0.15338141116E+00  0.38766871854E+00  0.11750137819E+00  0.10331812360E+01  0.93800000000E+00 0.  1.
         22    1    1    2    0    0 -0.11467406775E+00 -0.29039429488E+00  0.29089836940E+01  0.29256905374E+01  0.00000000000E+00 0.  1.
</event>
<event>
 5    1  0.3428566E+002  0.1599677E+01  0.7818608E-02  0.3353714E+00
         11   -1    0    0    0    0  0.00000000000E+00  0.00000000000E+00  0.39999999674E+01  0.40000000000E+01  0.51100000000E-03 0. -1.
    9000002   -1    0    0    0    0 -0.00000000000E+00 -0.00000000000E+00  0.00000000000E+00  0.93800000000E+00  0.93800000000E+00 0.  1.
         11    1    1    2    0    0  0.98674888258E-01 -0.55848422110E-01  0.97360461237E+00  0.98018466738E+00  0.51100000000E-03 0.  1.
    9000002    1    1    2    0    0 -0.39138217750E+00  0.22036375818E+00  0.13700182670E+00  0.10489774522E+01  0.93800000000E+00 0.  1.
         22    1    1    2    0    0  0.29270728925E+00 -0.16451533607E+00  0.28893935283E+01  0.29088378804E+01  0.00000000000E+00 0. -1.
</event>
<event>
 5    1  0.3428566E+002  0.1599677E+01  0.7818608E-02  0.3353714E+00
         11   -1    0    0    0    0  0.00000000000E+00  0.00000000000E+00  0.39999999674E+01  0.40000000000E+01  0.51100000000E-03 0.  1.
    9000002   -1    0    0    0    0 -0.00000000000E+00 -0.00000000000E+00  0.00000000000E+00  0.93800000000E+00  0.93800000000E+00 0. -1.
         11    1    1    2    0    0 -0.20579461761E-02  0.28840336802E+00  0.22415557344E+01  0.22600338735E+01  0.51100000000E-03 0.  1.
    9000002    1    1    2    0    0  0.32960014494E-02 -0.49388258554E+00  0.16681465332E+00  0.10731272061E+01  0.93800000000E+00 0. -1.
         22    1    1    2    0    0 -0.12380552733E-02  0.20547921752E+00  0.15916295796E+01  0.16048389203E+01  0.00000000000E+00 0.  1.
</event>
<event>
 5    1  0.3428566E+002  0.1598228E+01  0.7818608E-02  0.3355289E+00
         11   -1    0    0    0    0  0.00000000000E+00  0.00000000000E+00  0.39999999674E+01  0.40000000000E+01  0.51100000000E-03 0.  1.
    9000002   -1    0    0    0    0 -0.00000000000E+00 -0.00000000000E+00  0.00000000000E+00  0.93800000000E+00  0.93800000000E+00 0.  1.
         11    1    1    2    0    0  0.39560764032E-01 -0.51261196554E-01  0.15491940634E+01  0.15505467653E+01  0.51100000000E-03 0.  1.
    9000002    1    1    2    0    0 -0.15276799860E+00  0.23232893260E+00  0.52599154898E-01  0.97975786060E+00  0.93800000000E+00 0.  1.
         22    1    1    2    0    0  0.11320723456E+00 -0.18106773604E+00  0.23982067491E+01  0.24076953741E+01  0.00000000000E+00 0.  1.
</event>
<event>
 5    1  0.3428566E+002  0.1596690E+01  0.7818608E-02  0.3356964E+00
         11   -1    0    0    0    0  0.00000000000E+00  0.00000000000E+00  0.39999999674E+01  0.40000000000E+01  0.51100000000E-03 0.  1.
    9000002   -1    0    0    0    0 -0.00000000000E+00 -0.00000000000E+00  0.00000000000E+00  0.93800000000E+00  0.93800000000E+00 0. -1.
         11    1    1    2    0    0 -0.12872407760E-01  0.79769535986E-02  0.30587650681E+00  0.30625157830E+00  0.51100000000E-03 0.  1.
    9000002    1    1    2    0    0  0.51762763233E-01  0.33561684455E+00  0.79628705822E-01  0.10007511083E+01  0.93800000000E+00 0. -1.
         22    1    1    2    0    0 -0.38890355474E-01 -0.34359379815E+00  0.36144947547E+01  0.36309973134E+01  0.00000000000E+00 0.  1.
</event>
<event>
 5    1  0.3428566E+002  0.1599661E+01  0.7818608E-02  0.3353732E+00
         11   -1    0    0    0    0  0.00000000000E+00  0.00000000000E+00  0.39999999674E+01  0.40000000000E+01  0.51100000000E-03 0. -1.
    9000002   -1    0    0    0    0 -0.00000000000E+00 -0.00000000000E+00  0.00000000000E+00  0.93800000000E+00  0.93800000000E+00 0. -1.
         11    1    1    2    0    0  0.18550607390E+00  0.10051859124E+00  0.13952344127E+01  0.14110973809E+01  0.51100000000E-03 0. -1.
    9000002    1    1    2    0    0 -0.50227414993E+00 -0.25948278262E+00  0.22142690734E+00  0.11173560361E+01  0.93800000000E+00 0. -1.
         22    1    1    2    0    0  0.31676807603E+00  0.15896419138E+00  0.23833386473E+01  0.24095465830E+01  0.00000000000E+00 0. -1.
</event>
<event>
 5    1  0.3428566E+002  0.1599677E+01  0.7818608E-02  0.3353714E+00
         11   -1    0    0    0    0  0.00000000000E+00  0.00000000000E+00  0.39999999674E+01  0.40000000000E+01  0.51100000000E-03 0. -1.
    9000002   -1    0    0    0    0 -0.00000000000E+00 -0.00000000000E+00  0.00000000000E+00  0.93800000000E+00  0.93800000000E+00 0.  1.
         11    1    1    2    0    0 -0.32171918142E+00  0.11189277701E+00  0.23576617313E+01  0.23821402826E+01  0.51100000000E-03 0. -1.
    9000002    1    1    2    0    0  0.51828265495E+00 -0.17968812482E+00  0.20777812022E+00  0.11063093961E+01  0.93800000000E+00 0.  1.
         22    1    1    2    0    0 -0.19656347352E+00  0.67795347809E-01  0.14345601158E+01  0.14495503214E+01  0.00000000000E+00 0. -1.
</event>
<event>
 5    1  0.3428566E+002  0.1599676E+01  0.7818608E-02  0.3353715E+00
         11   -1    0    0    0    0  0.00000000000E+00  0.00000000000E+00  0.39999999674E+01  0.40000000000E+01  0.51100000000E-03 0. -1.
    9000002   -1    0    0    0    0 -0.00000000000E+00 -0.00000000000E+00  0.00000000000E+00  0.93800000000E+00  0.93800000000E+00 0. -1.
         11    1    1    2    0    0 -0.62244591189E-01  0.15376945207E-01  0.56396290157E+00  0.56759603156E+00  0.51100000000E-03 0. -1.
    9000002    1    1    2    0    0  0.42538033927E+00 -0.10253165179E+00  0.12980350907E+00  0.10431462619E+01  0.93800000000E+00 0. -1.
         22    1    1    2    0    0 -0.36313574808E+00  0.87154706586E-01  0.33062335567E+01  0.33272577066E+01  0.00000000000E+00 0. -1.
</event>
<event>
 5    1  0.3428566E+002  0.1599061E+01  0.7818608E-02  0.3354383E+00
         11   -1    0    0    0    0  0.00000000000E+00  0.00000000000E+00  0.39999999674E+01  0.40000000000E+01  0.51100000000E-03 0. -1.
    9000002   -1    0    0    0    0 -0.00000000000E+00 -0.00000000000E+00  0.00000000000E+00  0.93800000000E+00  0.93800000000E+00 0.  1.
         11    1    1    2    0    0  0.23469142449E-01 -0.21567576452E-01  0.38367173280E+00  0.38499379303E+00  0.51100000000E-03 0. -1.
    9000002    1    1    2    0    0 -0.24620742243E+00  0.40240905404E-01  0.41812708986E-01  0.97150899531E+00  0.93800000000E+00 0.  1.
         22    1    1    2    0    0  0.22273827998E+00 -0.18673328952E-01  0.35745155256E+01  0.35814972117E+01  0.00000000000E+00 0. -1.
</event>
<event>
 5    1  0.3428566E+002  0.1596483E+01  0.7818608E-02  0.3357190E+00
         11   -1    0    0    0    0  0.00000000000E+00  0.00000000000E+00  0.39999999674E+01  0.40000000000E+01  0.51100000000E-03 0.  1.
    9000002   -1    0    0    0    0 -0.00000000000E+00 -0.00000000000E+00  0.00000000000E+00  0.93800000000E+00  0.93800000000E+00 0. -1.
         11    1    1    2    0    0 -0.16762208103E+00  0.26109096193E-01  0.11745090510E+01  0.11866973578E+01  0.51100000000E-03 0.  1.
    9000002    1    1    2    0    0  0.55713558376E+00  0.11763000734E+00  0.22787799972E+00  0.11207181894E+01  0.93800000000E+00 0. -1.
         22    1    1    2    0    0 -0.38951350274E+00 -0.14373910353E+00  0.25976129166E+01  0.26305844528E+01  0.00000000000E+00 0.  1.
</event>
<event>
 5    1  0.3428566E+002  0.1528456E+01  0.7818608E-02  0.3434874E+00
         11   -1    0    0    0    0  0.00000000000E+00  0.00000000000E+00  0.39999999674E+01  0.40000000000E+01  0.51100000000E-03 0. -1.
    9000002   -1    0    0    0    0 -0.00000000000E+00 -0.00000000000E+00  0.00000000000E+00  0.93800000000E+00  0.93800000000E+00 0. -1.
         11    1    1    2    0    0 -0.24460396074E+00  0.19083877083E+00  0.77778630248E+00  0.83737824637E+00  0.51100000000E-03 0. -1.
    9000002    1    1    2    0    0 -0.11403628262E-01 -0.48444962883E+00  0.22664452212E+00  0.10798301834E+01  0.93800000000E+00 0. -1.
         22    1    1    2    0    0  0.25600758900E+00  0.29361085800E+00  0.29955691428E+01  0.30207915702E+01  0.00000000000E+00 0. -1.
</event>
<event>
 5    1  0.3428566E+002  0.1480464E+01  0.7818608E-02  0.3494282E+00
         11   -1    0    0    0    0  0.00000000000E+00  0.00000000000E+00  0.39999999674E+01  0.40000000000E+01  0.51100000000E-03 0. -1.
    9000002   -1    0    0    0    0 -0.00000000000E+00 -0.00000000000E+00  0.00000000000E+00  0.93800000000E+00  0.93800000000E+00 0.  1.
         11    1    1    2    0    0 -0.27215179753E+00  0.18347800027E+00  0.74473712530E+00  0.81385774212E+00  0.51100000000E-03 0. -1.
    9000002    1    1    2    0    0  0.18650580044E+00  0.26166437892E+00  0.17027381220E+00  0.10060267551E+01  0.93800000000E+00 0.  1.
         22    1    1    2    0    0  0.85645997090E-01 -0.44514237918E+00  0.30849890299E+01  0.31181155028E+01  0.00000000000E+00 0. -1.
</event>
<event>
 5    1  0.3428566E+002  0.1599676E+01  0.7818608E-02  0.3353715E+00
         11   -1    0    0    0    0  0.00000000000E+00  0.00000000000E+00  0.39999999674E+01  0.40000000000E+01  0.51100000000E-03 0. -1.
    9000002   -1    0    0    0    0 -0.00000000000E+00 -0.00000000000E+00  0.00000000000E+00  0.93800000000E+00  0.93800000000E+00 0. -1.
         11    1    1    2    0    0 -0.94250637992E-01 -0.98780273727E-02  0.98426485647E+00  0.98881662961E+00  0.51100000000E-03 0. -1.
    9000002    1    1    2    0    0  0.37544155918E+00  0.42956252901E-01  0.96059069867E-01  0.10158114731E+01  0.93800000000E+00 0. -1.
         22    1    1    2    0    0 -0.28119092119E+00 -0.33078225528E-01  0.29196760410E+01  0.29333718973E+01  0.00000000000E+00 0. -1.
</event>
<event>
 5    1  0.3428566E+002  0.1593491E+01  0.7818608E-02  0.3360458E+00
         11   -1    0    0    0    0  0.00000000000E+00  0.00000000000E+00  0.39999999674E+01  0.40000000000E+01  0.51100000000E-03 0. -1.
    9000002   -1    0    0    0    0 -0.00000000000E+00 -0.00000000000E+00  0.00000000000E+00  0.93800000000E+00  0.93800000000E+00 0.  1.
         11    1    1    2    0    0 -0.18284076322E+00 -0.25564908834E+00  0.18704943123E+01  0.18967172785E+01  0.51100000000E-03 0. -1.
    9000002    1    1    2    0    0  0.38454408773E+00  0.32849777749E+00  0.18089104314E+00  0.10809026389E+01  0.93800000000E+00 0.  1.
         22    1    1    2    0    0 -0.20170332451E+00 -0.72848689152E-01  0.19486146119E+01  0.19603800827E+01  0.00000000000E+00 0. -1.
</event>
<event>
 5    1  0.3428566E+002  0.1599675E+01  0.7818608E-02  0.3353716E+00
         11   -1    0    0    0    0  0.00000000000E+00  0.00000000000E+00  0.39999999674E+01  0.40000000000E+01  0.51100000000E-03 0. -1.
    9000002   -1    0    0    0    0 -0.00000000000E+00 -0.00000000000E+00  0.00000000000E+00  0.93800000000E+00  0.93800000000E+00 0. -1.
         11    1    1    2    0    0 -0.79527843168E-01 -0.76820217735E-01  0.10102979381E+01  0.10163307574E+01  0.51100000000E-03 0. -1.
    9000002    1    1    2    0    0  0.30135144372E+00  0.29792284780E+00  0.12150813059E+00  0.10364260425E+01  0.93800000000E+00 0. -1.
         22    1    1    2    0    0 -0.22182360055E+00 -0.22110263007E+00  0.28681938987E+01  0.28852432000E+01  0.00000000000E+00 0. -1.
</event>
<event>
 5    1  0.3428566E+002  0.1599677E+01  0.7818608E-02  0.3353714E+00
         11   -1    0    0    0    0  0.00000000000E+00  0.00000000000E+00  0.39999999674E+01  0.40000000000E+01  0.51100000000E-03 0.  1.
    9000002   -1    0    0    0    0 -0.00000000000E+00 -0.00000000000E+00  0.00000000000E+00  0.93800000000E+00  0.93800000000E+00 0.  1.
         11    1    1    2    0    0  0.31743957590E-01 -0.15244095557E+00  0.15802756317E+01  0.15879286058E+01  0.51100000000E-03 0.  1.
    9000002    1    1    2    0    0 -0.76740231778E-01  0.37661276605E+00  0.99449110045E-01  0.10185579827E+01  0.93800000000E+00 0.  1.
         22    1    1    2    0    0  0.44996274188E-01 -0.22417181048E+00  0.23202752256E+01  0.23315134115E+01  0.00000000000E+00 0.  1.
</event>
<event>
 5    1  0.3428566E+002  0.1599677E+01  0.7818608E-02  0.3353714E+00
         11   -1    0    0    0    0  0.00000000000E+00  0.00000000000E+00  0.39999999674E+01  0.40000000000E+01  0.51100000000E-03 0. -1.
    9000002   -1    0    0    0    0 -0.00000000000E+00 -0.00000000000E+00  0.00000000000E+00  0.93800000000E+00  0.93800000000E+00 0.  1.
         11    1    1    2    0    0 -0.30052534655E-01 -0.22133284444E-01  0.54352064809E+00  0.54480087476E+00  0.51100000000E-03 0.  1.
    9000002    1    1    2    0    0  0.21654558835E+00  0.16277082678E+00  0.48831683860E-01  0.97755555711E+00  0.93800000000E+00 0.  1.
         22    1    1    2    0    0 -0.18649305370E+00 -0.14063754233E+00  0.34076476354E+01  0.34156435681E+01  0.00000000000E+00 0. -1.
</event>
<event>
 5    1  0.3428566E+002  0.1599677E+01  0.7818608E-02  0.3353715E+00
         11   -1    0    0    0    0  0.00000000000E+00  0.00000000000E+00  0.39999999674E+01  0.40000000000E+01  0.51100000000E-03 0. -1.
    9000002   -1    0    0    0    0 -0.00000000000E+00 -0.00000000000E+00  0.00000000000E+00  0.93800000000E+00  0.93800000000E+00 0.  1.
         11    1    1    2    0    0 -0.40197887251E-01  0.46517794909E-02  0.38819933665E+00  0.39030308132E+00  0.51100000000E-03 0. -1.
    9000002    1    1    2    0    0  0.40252297041E+00 -0.43687930749E-01  0.11064662862E+00  0.10276283635E+01  0.93800000000E+00 0.  1.
         22    1    1    2    0    0 -0.36232508315E+00  0.39036151258E-01  0.35011540021E+01  0.35200685552E+01  0.00000000000E+00 0. -1.
</event>
<event>
 5    1  0.3428566E+002  0.1534856E+01  0.7818608E-02  0.3427252E+00
         11   -1    0    0    0    0  0.00000000000E+00  0.00000000000E+00  0.39999999674E+01  0.40000000000E+01  0.51100000000E-03 0.  1.
    9000002   -1    0    0    0    0 -0.00000000000E+00 -0.00000000000E+00  0.00000000000E+00  0.93800000000E+00  0.93800000000E+00 0.  1.
         11    1    1    2    0    0 -0.28183026818E-01  0.46650485822E+00  0.22500898766E+01  0.22981135263E+01  0.51100000000E-03 0.  1.
    9000002    1    1    2    0    0 -0.40592475656E+00 -0.61737872488E+00  0.47569540093E+00  0.12853254500E+01  0.93800000000E+00 0.  1.
         22    1    1    2    0    0  0.43410778338E+00  0.15087386666E+00  0.12742146898E+01  0.13545610237E+01  0.00000000000E+00 0.  1.
</event>
<event>
 5    1  0.3428566E+002  0.1599588E+01  0.7818608E-02  0.3353810E+00
         11   -1    0    0    0    0  0.00000000000E+00  0.00000000000E+00  0.39999999674E+01  0.40000000000E+01  0.51100000000E-03 0. -1.
    9000002   -1    0    0    0    0 -0.00000000000E+00 -0.00000000000E+00  0.00000000000E+00  0.93800000000E+00  0.93800000000E+00 0. -1.
         11    1    1    2    0    0  0.31386083030E-01  0.22702816989E-01  0.67276217102E+00  0.67387662371E+00  0.51100000000E-03 0. -1.
    9000002    1    1    2    0    0 -0.22587738425E+00 -0.16099318632E+00  0.51292188335E-01  0.97949695627E+00  0.93800000000E+00 0. -1.
         22    1    1    2    0    0  0.19449130122E+00  0.13829036933E+00  0.32759456080E+01  0.32846264200E+01  0.00000000000E+00 0. -1.
</event>
<event>
 5    1  0.3732039E+002  0.1598807E+01  0.7818608E-02  0.3354659E+00
         11   -1    0    0    0    0  0.00000000000E+00  0.00000000000E+00  0.39999999674E+01  0.40000000000E+01  0.51100000000E-03 0.  1.
    9000002   -1    0    0    0    0 -0.00000000000E+00 -0.00000000000E+00  0.00000000000E+00  0.93800000000E+00  0.93800000000E+00 0. -1.
         11    1    1    2    0    0  0.17142418150E+00 -0.90902081404E-01  0.22555903998E+01  0.22639208801E+01  0.51100000000E-03 0.  1.
    9000002    1    1    2    0    0 -0.35008461643E+00  0.18456188401E+00  0.10630952631E+00  0.10236054138E+01  0.93800000000E+00 0. -1.
         22    1    1    2    0    0  0.17866043493E+00 -0.93659802608E-01  0.16381000412E+01  0.16504737061E+01  0.00000000000E+00 0.  1.
</event>
<event>
 5    1  0.3428566E+002  0.1599676E+01  0.7818608E-02  0.3353715E+00
         11   -1    0    0    0    0  0.00000000000E+00  0.00000000000E+00  0.39999999674E+01  0.40000000000E+01  0.51100000000E-03 0. -1.
    9000002   -1    0    0    0    0 -0.00000000000E+00 -0.00000000000E+00  0.00000000000E+00  0.93800000000E+00  0.93800000000E+00 0. -1.
         11    1    1    2    0    0  0.74762472003E-01  0.90305781366E-01  0.14100348417E+01  0.14149003772E+01  0.51100000000E-03 0. -1.
    9000002    1    1    2    0    0 -0.20489211913E+00 -0.25075578098E+00  0.70115869007E-01  0.99479619886E+00  0.93800000000E+00 0. -1.
         22    1    1    2    0    0  0.13012964713E+00  0.16044999962E+00  0.25198492566E+01  0.25283034240E+01  0.00000000000E+00 0. -1.
</event>
<event>
 5    1  0.3428566E+002  0.1599394E+01  0.7818608E-02  0.3354021E+00
         11   -1    0    0    0    0  0.00000000000E+00  0.00000000000E+00  0.39999999674E+01  0.40000000000E+01  0.51100000000E-03 0.  1.
    9000002   -1    0    0    0    0 -0.00000000000E+00 -0.00000000000E+00  0.00000000000E+00  0.93800000000E+00  0.93800000000E+00 0.  1.
         11    1    1    2    0    0 -0.64934630149E-01 -0.25008833470E-01  0.74097728273E+00  0.74423755790E+00  0.51100000000E-03 0.  1.
    9000002    1    1    2    0    0  0.26628737864E+00  0.10476269736E+00  0.54776918963E-01  0.98220603828E+00  0.93800000000E+00 0.  1.
         22    1    1    2    0    0 -0.20135274849E+00 -0.79753863893E-01  0.32042457657E+01  0.32115564038E+01  0.00000000000E+00 0.  1.
</event>
<event>
 5    1  0.3428566E+002  0.1598283E+01  0.7818608E-02  0.3355229E+00
         11   -1    0    0    0    0  0.00000000000E+00  0.00000000000E+00  0.39999999674E+01  0.40000000000E+01  0.51100000000E-03 0.  1.
    9000002   -1    0    0    0    0 -0.00000000000E+00 -0.00000000000E+00  0.00000000000E+00  0.93800000000E+00  0.93800000000E+00 0. -1.
         11    1    1    2    0    0  0.18641159479E-01  0.44186198105E-01  0.76985290107E+00  0.77134535931E+00  0.51100000000E-03 0.  1.
    9000002    1    1    2    0    0  0.79541602208E-01 -0.27791431634E+00  0.56776407476E-01  0.98317383720E+00  0.93800000000E+00 0. -1.
         22    1    1    2    0    0 -0.98182761687E-01  0.23372811823E+00  0.31733706588E+01  0.31834808035E+01  0.00000000000E+00 0.  1.
</event>
<event>
 5    1  0.3428566E+002  0.1598971E+01  0.7818608E-02  0.3354481E+00
         11   -1    0    0    0    0  0.00000000000E+00  0.00000000000E+00  0.39999999674E+01  0.40000000000E+01  0.51100000000E-03 0. -1.
    9000002   -1    0    0    0    0 -0.00000000000E+00 -0.00000000000E+00  0.00000000000E+00  0.93800000000E+00  0.93800000000E+00 0.  1.
         11    1    1    2    0    0  0.53516834758E-01 -0.10206567557E+00  0.13635998536E+01  0.13684612803E+01  0.51100000000E-03 0. -1.
    9000002    1    1    2    0    0 -0.22381347042E+00  0.34144593745E+00  0.11313932451E+00  0.10292338434E+01  0.93800000000E+00 0.  1.
         22    1    1    2    0    0  0.17029663566E+00 -0.23938026188E+00  0.25232607892E+01  0.25403048762E+01  0.00000000000E+00 0. -1.
</event>
<event>
 5    1  0.3428566E+002  0.1599667E+01  0.7818608E-02  0.3353725E+00
         11   -1    0    0    0    0  0.00000000000E+00  0.00000000000E+00  0.39999999674E+01  0.40000000000E+01  0.51100000000E-03 0.  1.
    9000002   -1    0    0    0    0 -0.00000000000E+00 -0.00000000000E+00  0.00000000000E+00  0.93800000000E+00  0.93800000000E+00 0.  1.
         11    1    1    2    0    0 -0.15832258105E-01 -0.50971545164E-01  0.39640621730E+00  0.39998363597E+00  0.51100000000E-03 0.  1.
    9000002    1    1    2    0    0  0.14304230869E+00  0.50944362776E+00  0.19265580478E+00  0.10940540074E+01  0.93800000000E+00 0.  1.
         22    1    1    2    0    0 -0.12721005058E+00 -0.45847208259E+00  0.34109379453E+01  0.34439623567E+01  0.00000000000E+00 0.  1.
</event>
<event>
 5    1  0.3428566E+002  0.1578207E+01  0.7818608E-02  0.3377361E+00
         11   -1    0    0    0    0  0.00000000000E+00  0.00000000000E+00  0.39999999674E+01  0.40000000000E+01  0.51100000000E-03 0. -1.
    9000002   -1    0    0    0    0 -0.00000000000E+00 -0.00000000000E+00  0.00000000000E+00  0.93800000000E+00  0.93800000000E+00 0.  1.
         11    1    1    2    0    0 -0.95522069894E-01  0.53310115988E-01  0.11547128286E+01  0.11598829303E+01  0.51100000000E-03 0. -1.
    9000002    1    1    2    0    0  0.12080627997E-01 -0.60891378861E+00  0.28118464458E+00  0.11531828770E+01  0.93800000000E+00 0.  1.
         22    1    1    2    0    0  0.83441441898E-01  0.55560367263E+00  0.25641024942E+01  0.26249341927E+01  0.00000000000E+00 0. -1.
</event>
<event>
 5    1  0.3428566E+002  0.1599674E+01  0.7818608E-02  0.3353718E+00
         11   -1    0    0    0    0  0.00000000000E+00  0.00000000000E+00  0.39999999674E+01  0.40000000000E+01  0.51100000000E-03 0.  1.
    9000002   -1    0    0    0    0 -0.00000000000E+00 -0.00000000000E+00  0.00000000000E+00  0.93800000000E+00  0.93800000000E+00 0.  1.
         11    1    1    2    0    0 -0.39399849176E-01 -0.13248256335E+00  0.93339222956E+00  0.94357050242E+00  0.51100000000E-03 0.  1.
    9000002    1    1    2    0    0  0.16194926581E+00  0.53016000490E+00  0.21242967481E+00  0.11100754759E+01  0.93800000000E+00 0.  1.
         22    1    1    2    0    0 -0.12254941664E+00 -0.39767744155E+00  0.28541780630E+01  0.28843540217E+01  0.00000000000E+00 0.  1.
</event>
<event>
 5    1  0.3428566E+002  0.1598362E+01  0.7818608E-02  0.3355143E+00
         11   -1    0    0    0    0  0.00000000000E+00  0.00000000000E+00  0.39999999674E+01  0.40000000000E+01  0.51100000000E-03 0. -1.
    9000002   -1    0    0    0    0 -0.00000000000E+00 -0.00000000000E+00  0.00000000000E+00  0.93800000000E+00  0.93800000000E+00 0.  1.
         11    1    1    2    0    0  0.88771976242E-01 -0.58132819827E-01  0.17424818191E+01  0.17457098956E+01  0.51100000000E-03 0. -1.
    9000002    1    1    2    0    0 -0.29524398051E+00  0.10642995049E+00  0.66832705636E-01  0.99136620526E+00  0.93800000000E+00 0.  1.
         22    1    1    2    0    0  0.20647200427E+00 -0.48297130664E-01  0.21906854427E+01  0.22009238992E+01  0.00000000000E+00 0. -1.
</event>
<event>
 5    1  0.3428566E+002  0.1593825E+01  0.7818608E-02  0.3360092E+00
         11   -1    0    0    0    0  0.00000000000E+00  0.00000000000E+00  0.39999999674E+01  0.40000000000E+01  0.51100000000E-03 0.  1.
    9000002   -1    0    0    0    0 -0.00000000000E+00 -0.00000000000E+00  0.00000000000E+00  0.93800000000E+00  0.93800000000E+00 0. -1.
         11    1    1    2    0    0 -0.17135711364E+00 -0.12614436409E+00  0.11345715944E+01  0.11543520368E+01  0.51100000000E-03 0.  1.
    9000002    1    1    2    0    0  0.34793177923E+00  0.26426333160E+00  0.13442432227E+00  0.10434584466E+01  0.93800000000E+00 0. -1.
         22    1    1    2    0    0 -0.17657466559E+00 -0.13811896751E+00  0.27310040507E+01  0.27401895165E+01  0.00000000000E+00 0.  1.
</event>
<event>
 5    1  0.3428566E+002  0.1585590E+01  0.7818608E-02  0.3369153E+00
         11   -1    0    0    0    0  0.00000000000E+00  0.00000000000E+00  0.39999999674E+01  0.40000000000E+01  0.51100000000E-03 0. -1.
    9000002   -1    0    0    0    0 -0.00000000000E+00 -0.00000000000E+00  0.00000000000E+00  0.93800000000E+00  0.93800000000E+00 0.  1.
         11    1    1    2    0    0  0.20990716752E-01  0.60970460467E-01  0.25488103407E+01  0.25496259375E+01  0.51100000000E-03 0. -1.
    9000002    1    1    2    0    0  0.18001550342E+00 -0.78816778806E-01  0.36179138096E-01  0.95904671217E+00  0.93800000000E+00 0.  1.
         22    1    1    2    0    0 -0.20100622017E+00  0.17846318339E-01  0.14150104886E+01  0.14293273504E+01  0.00000000000E+00 0. -1.
</event>
<event>
 5    1  0.3428566E+002  0.1598138E+01  0.7818608E-02  0.3355387E+00
         11   -1    0    0    0    0  0.00000000000E+00  0.00000000000E+00  0.39999999674E+01  0.40000000000E+01  0.51100000000E-03 0. -1.
    9000002   -1    0    0    0    0 -0.00000000000E+00 -0.00000000000E+00  0.00000000000E+00  0.93800000000E+00  0.93800000000E+00 0. -1.
         11    1    1    2    0    0  0.17677752661E-02 -0.31224707825E-02  0.37237751677E+00  0.37239515433E+00  0.51100000000E-03 0. -1.
    9000002    1    1    2    0    0 -0.30469836059E+00  0.92557607094E-01  0.68988585869E-01  0.99298108066E+00  0.93800000000E+00 0. -1.
         22    1    1    2    0    0  0.30293058532E+00 -0.89435136312E-01  0.35586338647E+01  0.35726237650E+01  0.00000000000E+00 0. -1.
</event>
<event>
 5    1  0.3428566E+002  0.1596982E+01  0.7818608E-02  0.3356646E+00
         11   -1    0    0    0    0  0.00000000000E+00  0.00000000000E+00  0.39999999674E+01  0.40000000000E+01  0.51100000000E-03 0. -1.
    9000002   -1    0    0    0    0 -0.00000000000E+00 -0.00000000000E+00  0.00000000000E+00  0.93800000000E+00  0.93800000000E+00 0. -1.
         11    1    1    2    0    0 -0.83011973962E-01  0.18808489417E-01  0.13107209577E+01  0.13134817993E+01  0.51100000000E-03 0. -1.
    9000002    1    1    2    0    0  0.17199319661E+00 -0.21576344068E+00  0.52769073044E-01  0.97916499993E+00  0.93800000000E+00 0. -1.
         22    1    1    2    0    0 -0.88981222646E-01  0.19695495126E+00  0.26365099367E+01  0.26453532008E+01  0.00000000000E+00 0. -1.
</event>
<event>
 5    1  0.3428566E+002  0.1599352E+01  0.7818608E-02  0.3354067E+00
         11   -1    0    0    0    0  0.00000000000E+00  0.00000000000E+00  0.39999999674E+01  0.40000000000E+01  0.51100000000E-03 0.  1.
    9000002   -1    0    0    0    0 -0.00000000000E+00 -0.00000000000E+00  0.00000000000E+00  0.93800000000E+00  0.93800000000E+00 0. -1.
         11    1    1    2    0    0 -0.21183574415E-02 -0.19621104219E+00  0.15314191159E+01  0.15439391278E+01  0.51100000000E-03 0.  1.
    9000002    1    1    2    0    0 -0.19970385577E-01  0.53414755579E+00  0.19707584859E+00  0.10974494602E+01  0.93800000000E+00 0. -1.
         22    1    1    2    0    0  0.22088743018E-01 -0.33793651360E+00  0.22715050029E+01  0.22966114120E+01  0.00000000000E+00 0.  1.
</event>
<event>
 5    1  0.3428566E+002  0.1598599E+01  0.7818608E-02  0.3354886E+00
         11   -1    0    0    0    0  0.00000000000E+00  0.00000000000E+00  0.39999999674E+01  0.40000000000E+01  0.51100000000E-03 0.  1.
    9000002   -1    0    0    0    0 -0.00000000000E+00 -0.00000000000E+00  0.00000000000E+00  0.93800000000E+00  0.93800000000E+00 0. -1.
         11    1    1    2    0    0  0.69968094917E-01  0.35907854745E+00  0.20435881108E+01  0.20760745568E+01  0.51100000000E-03 0.  1.
    9000002    1    1    2    0    0 -0.78878171290E-01 -0.60369492462E+00  0.26019181857E+00  0.11481346221E+01  0.93800000000E+00 0. -1.
         22    1    1    2    0    0  0.89100763729E-02  0.24461637718E+00  0.16962200380E+01  0.17137908212E+01  0.00000000000E+00 0.  1.
</event>
<event>
 5    1  0.3428566E+002  0.1552901E+01  0.7818608E-02  0.3406125E+00
         11   -1    0    0    0    0  0.00000000000E+00  0.00000000000E+00  0.39999999674E+01  0.40000000000E+01  0.51100000000E-03 0.  1.
    9000002   -1    0    0    0    0 -0.00000000000E+00 -0.00000000000E+00  0.00000000000E+00  0.93800000000E+00  0.93800000000E+00 0. -1.
         11    1    1    2    0    0  0.36692302530E-01  0.17113563709E+00  0.11134547388E+01  0.11271270770E+01  0.51100000000E-03 0.  1.
    9000002    1    1    2    0    0  0.98762301620E-01  0.19164586635E+00  0.66922207865E-01  0.96478220973E+00  0.93800000000E+00 0.  1.
         22    1    1    2    0    0 -0.13545460415E+00 -0.36278150344E+00  0.28196230207E+01  0.28460907132E+01  0.00000000000E+00 0.  1.
</event>
<event>
 5    1  0.3428566E+002  0.1586550E+01  0.7818608E-02  0.3368092E+00
         11   -1    0    0    0    0  0.00000000000E+00  0.00000000000E+00  0.39999999674E+01  0.40000000000E+01  0.51100000000E-03 0. -1.
    9000002   -1    0    0    0    0 -0.00000000000E+00 -0.00000000000E+00  0.00000000000E+00  0.93800000000E+00  0.93800000000E+00 0.  1.
         11    1    1    2    0    0 -0.95650735964E-01 -0.97829102902E-01  0.53683082347E+00  0.55399204941E+00  0.51100000000E-03 0. -1.
    9000002    1    1    2    0    0  0.36596788357E+00  0.95297077672E-01  0.10704434451E+00  0.10170135282E+01  0.93800000000E+00 0.  1.
         22    1    1    2    0    0 -0.27031714761E+00  0.25320252306E-02  0.33561247994E+01  0.33669944224E+01  0.00000000000E+00 0. -1.
</event>
<event>
 5    1  0.3428566E+002  0.1599677E+01  0.7818608E-02  0.3353714E+00
         11   -1    0    0    0    0  0.00000000000E+00  0.00000000000E+00  0.39999999674E+01  0.40000000000E+01  0.51100000000E-03 0.  1.
    9000002   -1    0    0    0    0 -0.00000000000E+00 -0.00000000000E+00  0.00000000000E+00  0.93800000000E+00  0.93800000000E+00 0.  1.
         11    1    1    2    0    0 -0.16271528593E+00  0.16482515724E-01  0.11124415198E+01  0.11243995436E+01  0.51100000000E-03 0.  1.
    9000002    1    1    2    0    0  0.55184744837E+00 -0.55184405640E-01  0.21263344103E+00  0.11102422732E+01  0.93800000000E+00 0.  1.
         22    1    1    2    0    0 -0.38913216244E+00  0.38701889916E-01  0.26749250065E+01  0.27033581832E+01  0.00000000000E+00 0. -1.
</event>
<event>
 5    1  0.3428566E+002  0.1599543E+01  0.7818608E-02  0.3353860E+00
         11   -1    0    0    0    0  0.00000000000E+00  0.00000000000E+00  0.39999999674E+01  0.40000000000E+01  0.51100000000E-03 0.  1.
    9000002   -1    0    0    0    0 -0.00000000000E+00 -0.00000000000E+00  0.00000000000E+00  0.93800000000E+00  0.93800000000E+00 0.  1.
         11    1    1    2    0    0  0.23385145859E+00 -0.53512756059E+00  0.24461843535E+01  0.25149286597E+01  0.51100000000E-03 0.  1.
    9000002    1    1    2    0    0 -0.34596811985E+00  0.76975120137E+00  0.53311648620E+00  0.13697693382E+01  0.93800000000E+00 0.  1.
         22    1    1    2    0    0  0.11211666126E+00 -0.23462364077E+00  0.10206991276E+01  0.10533020021E+01  0.00000000000E+00 0.  1.
</event>
<event>
 5    1  0.3484057E+002  0.1593373E+01  0.7818608E-02  0.3360588E+00
         11   -1    0    0    0    0  0.00000000000E+00  0.00000000000E+00  0.39999999674E+01  0.40000000000E+01  0.51100000000E-03 0. -1.
    9000002   -1    0    0    0    0 -0.00000000000E+00 -0.00000000000E+00  0.00000000000E+00  0.93800000000E+00  0.93800000000E+00 0. -1.
         11    1    1    2    0    0  0.25494468010E-01 -0.27472244771E-01  0.29415213524E+00  0.29653065933E+00  0.51100000000E-03 0. -1.
    9000002    1    1    2    0    0  0.12660666125E+00 -0.11390714552E+00  0.23863642353E-01  0.95363386994E+00  0.93800000000E+00 0. -1.
         22    1    1    2    0    0 -0.15210112926E+00  0.14137939029E+00  0.36819841898E+01  0.36878354707E+01  0.00000000000E+00 0. -1.
</event>
<event>
 5    1  0.3428566E+002  0.1598105E+01  0.7818608E-02  0.3355423E+00
         11   -1    0    0    0    0  0.00000000000E+00  0.00000000000E+00  0.39999999674E+01  0.40000000000E+01  0.51100000000E-03 0.  1.
    9000002   -1    0    0    0    0 -0.00000000000E+00 -0.00000000000E+00  0.00000000000E+00  0.93800000000E+00  0.93800000000E+00 0. -1.
         11    1    1    2    0    0  0.71158821412E-02  0.20004998759E-02  0.46570361566E-01  0.47156096910E-01  0.51100000000E-03 0.  1.
    9000002    1    1    2    0    0  0.24875851293E+00  0.19760909491E-01  0.42566845946E-01  0.97155917353E+00  0.93800000000E+00 0. -1.
         22    1    1    2    0    0 -0.25587439507E+00 -0.21761409367E-01  0.39108627598E+01  0.39192847296E+01  0.00000000000E+00 0.  1.
</event>
<event>
 5    1  0.3428566E+002  0.1599667E+01  0.7818608E-02  0.3353725E+00
         11   -1    0    0    0    0  0.00000000000E+00  0.00000000000E+00  0.39999999674E+01  0.40000000000E+01  0.51100000000E-03 0. -1.
    9000002   -1    0    0    0    0 -0.00000000000E+00 -0.00000000000E+00  0.00000000000E+00  0.93800000000E+00  0.93800000000E+00 0. -1.
         11    1    1    2    0    0 -0.15612739824E-01 -0.69979051437E-01  0.49204374238E+00  0.49724051607E+00  0.51100000000E-03 0. -1.
    9000002    1    1    2    0    0  0.11404846672E+00  0.52235097320E+00  0.19688755744E+00  0.10974818004E+01  0.93800000000E+00 0. -1.
         22    1    1    2    0    0 -0.98435726894E-01 -0.45237192176E+00  0.33110686675E+01  0.33432776835E+01  0.00000000000E+00 0. -1.
</event>
<event>
 5    1  0.3428566E+002  0.1599676E+01  0.7818608E-02  0.3353715E+00
         11   -1    0    0    0    0  0.00000000000E+00  0.00000000000E+00  0.39999999674E+01  0.40000000000E+01  0.51100000000E-03 0. -1.
    9000002   -1    0    0    0    0 -0.00000000000E+00 -0.00000000000E+00  0.00000000000E+00  0.93800000000E+00  0.93800000000E+00 0.  1.
         11    1    1    2    0    0 -0.46257926991E-01  0.12644657105E-01  0.55187873151E+00  0.55395855312E+00  0.51100000000E-03 0. -1.
    9000002    1    1    2    0    0  0.33300212294E+00 -0.89736809391E-01  0.79708538338E-01  0.10025669853E+01  0.93800000000E+00 0.  1.
         22    1    1    2    0    0 -0.28674419594E+00  0.77092152286E-01  0.33684126975E+01  0.33814744616E+01  0.00000000000E+00 0. -1.
</event>
<event>
 5    1  0.3428566E+002  0.1599676E+01  0.7818608E-02  0.3353716E+00
         11   -1    0    0    0    0  0.00000000000E+00  0.00000000000E+00  0.39999999674E+01  0.40000000000E+01  0.51100000000E-03 0.  1.
    9000002   -1    0    0    0    0 -0.00000000000E+00 -0.00000000000E+00  0.00000000000E+00  0.93800000000E+00  0.93800000000E+00 0.  1.
         11    1    1    2    0    0  0.59121757485E-01 -0.47881981965E-01  0.10801111226E+01  0.10827873128E+01  0.51100000000E-03 0.  1.
    9000002    1    1    2    0    0 -0.22075395291E+00  0.17507020597E+00  0.52870806541E-01  0.98082679762E+00  0.93800000000E+00 0.  1.
         22    1    1    2    0    0  0.16163219543E+00 -0.12718822401E+00  0.28670180382E+01  0.28743858896E+01  0.00000000000E+00 0.  1.
</event>
<event>
 5    1  0.3428566E+002  0.1599634E+01  0.7818608E-02  0.3353761E+00
         11   -1    0    0    0    0  0.00000000000E+00  0.00000000000E+00  0.39999999674E+01  0.40000000000E+01  0.51100000000E-03 0.  1.
    9000002   -1    0    0    0    0 -0.00000000000E+00 -0.00000000000E+00  0.00000000000E+00  0.93800000000E+00  0.93800000000E+00 0.  1.
         11    1    1    2    0    0  0.15405563069E-01  0.29668694803E-01  0.45332845958E+00  0.45455969489E+00  0.51100000000E-03 0.  1.
    9000002    1    1    2    0    0 -0.13865485241E+00 -0.21515773750E+00  0.43576329039E-01  0.97327330003E+00  0.93800000000E+00 0.  1.
         22    1    1    2    0    0  0.12324928934E+00  0.18548904269E+00  0.35030951787E+01  0.35101670051E+01  0.00000000000E+00 0.  1.
</event>
<event>
 5    1  0.3428566E+002  0.1599677E+01  0.7818608E-02  0.3353714E+00
         11   -1    0    0    0    0  0.00000000000E+00  0.00000000000E+00  0.39999999674E+01  0.40000000000E+01  0.51100000000E-03 0. -1.
    9000002   -1    0    0    0    0 -0.00000000000E+00 -0.00000000000E+00  0.00000000000E+00  0.93800000000E+00  0.93800000000E+00 0.  1.
         11    1    1    2    0    0 -0.35914483862E+00 -0.15543575447E+00  0.23158286126E+01  0.23486608339E+01  0.51100000000E-03 0. -1.
    9000002    1    1    2    0    0  0.57647678730E+00  0.25023580577E+00  0.27728900772E+00  0.11626162904E+01  0.93800000000E+00 0.  1.
         22    1    1    2    0    0 -0.21733194868E+00 -0.94800051294E-01  0.14068823471E+01  0.14267228757E+01  0.00000000000E+00 0.  1.
</event>
<event>
 5    1  0.3428566E+002  0.1596785E+01  0.7818608E-02  0.3356860E+00
         11   -1    0    0    0    0  0.00000000000E+00  0.00000000000E+00  0.39999999674E+01  0.40000000000E+01  0.51100000000E-03 0.  1.
    9000002   -1    0    0    0    0 -0.00000000000E+00 -0.00000000000E+00  0.00000000000E+00  0.93800000000E+00  0.93800000000E+00 0.  1.
         11    1    1    2    0    0  0.18642886018E+00  0.60253824255E-02  0.20037976807E+01  0.20124605416E+01  0.51100000000E-03 0.  1.
    9000002    1    1    2    0    0 -0.34350639210E+00 -0.13627170039E+00  0.94133889122E-01  0.10125570635E+01  0.93800000000E+00 0.  1.
         22    1    1    2    0    0  0.15707753192E+00  0.13024631796E+00  0.19020683975E+01  0.19129823949E+01  0.00000000000E+00 0.  1.
</event>
<event>
 5    1  0.3428566E+002  0.1596165E+01  0.7818608E-02  0.3357537E+00
         11   -1    0    0    0    0  0.00000000000E+00  0.00000000000E+00  0.39999999674E+01  0.40000000000E+01  0.51100000000E-03 0. -1.
    9000002   -1    0    0    0    0 -0.00000000000E+00 -0.00000000000E+00  0.00000000000E+00  0.93800000000E+00  0.93800000000E+00 0.  1.
         11    1    1    2    0    0 -0.35208532683E-01  0.34715317121E-01  0.15584525290E+01  0.15592367814E+01  0.51100000000E-03 0. -1.
    9000002    1    1    2    0    0  0.12516772840E-01 -0.24768459886E+00  0.43536965154E-01  0.97120739157E+00  0.93800000000E+00 0.  1.
         22    1    1    2    0    0  0.22691759843E-01  0.21296928174E+00  0.23980104732E+01  0.24075558271E+01  0.00000000000E+00 0. -1.
</event>
<event>
 5    1  0.3428566E+002  0.1599677E+01  0.7818608E-02  0.3353714E+00
         11   -1    0    0    0    0  0.00000000000E+00  0.00000000000E+00  0.39999999674E+01  0.40000000000E+01  0.51100000000E-03 0. -1.
    9000002   -1    0    0    0    0 -0.00000000000E+00 -0.00000000000E+00  0.00000000000E+00  0.93800000000E+00  0.93800000000E+00 0. -1.
         11    1    1    2    0    0  0.15365169416E+00 -0.14166040893E+00  0.19791748270E+01  0.19901783266E+01  0.51100000000E-03 0. -1.
    9000002    1    1    2    0    0 -0.30184420884E+00  0.27751685804E+00  0.11355231292E+00  0.10299823594E+01  0.93800000000E+00 0. -1.
         22    1    1    2    0    0  0.14819251468E+00 -0.13585644911E+00  0.19072728274E+01  0.19178393140E+01  0.00000000000E+00 0. -1.
</event>
<event>
 5    1  0.3428566E+002  0.1599675E+01  0.7818608E-02  0.3353716E+00
         11   -1    0    0    0    0  0.00000000000E+00  0.00000000000E+00  0.39999999674E+01  0.40000000000E+01  0.51100000000E-03 0.  1.
    9000002   -1    0    0    0    0 -0.00000000000E+00 -0.00000000000E+00  0.00000000000E+00  0.93800000000E+00  0.93800000000E+00 0. -1.
         11    1    1    2    0    0 -0.96381022814E-01 -0.14632014562E-01  0.10862293332E+01  0.10905951691E+01  0.51100000000E-03 0.  1.
    9000002    1    1    2    0    0  0.34980751533E+00  0.57407246054E-01  0.84300421980E-01  0.10062859687E+01  0.93800000000E+00 0. -1.
         22    1    1    2    0    0 -0.25342649252E+00 -0.42775231492E-01  0.28294702122E+01  0.28411188622E+01  0.00000000000E+00 0.  1.
</event>
<event>
 5    1  0.3428566E+002  0.1599632E+01  0.7818608E-02  0.3353763E+00
         11   -1    0    0    0    0  0.00000000000E+00  0.00000000000E+00  0.39999999674E+01  0.40000000000E+01  0.51100000000E-03 0.  1.
    9000002   -1    0    0    0    0 -0.00000000000E+00 -0.00000000000E+00  0.00000000000E+00  0.93800000000E+00  0.93800000000E+00 0. -1.
         11    1    1    2    0    0  0.12946706503E-01  0.31551410323E-01  0.33095194231E+00  0.33270491121E+00  0.51100000000E-03 0.  1.
    9000002    1    1    2    0    0 -0.14117964805E+00 -0.42059552956E+00  0.13360042934E+00  0.10461956639E+01  0.93800000000E+00 0. -1.
         22    1    1    2    0    0  0.12823294155E+00  0.38904411923E+00  0.35354475957E+01  0.35590994249E+01  0.00000000000E+00 0.  1.
</event>
<event>
 5    1  0.3428566E+002  0.1599648E+01  0.7818608E-02  0.3353746E+00
         11   -1    0    0    0    0  0.00000000000E+00  0.00000000000E+00  0.39999999674E+01  0.40000000000E+01  0.51100000000E-03 0. -1.
    9000002   -1    0    0    0    0 -0.00000000000E+00 -0.00000000000E+00  0.00000000000E+00  0.93800000000E+00  0.93800000000E+00 0.  1.
         11    1    1    2    0    0  0.55964845428E-03 -0.41309691230E-03  0.31172189660E-01  0.31184136747E-01  0.51100000000E-03 0.  1.
    9000002    1    1    2    0    0 -0.16848265644E+00  0.14218519260E+00  0.32240364582E-01  0.96409878935E+00  0.93800000000E+00 0.  1.
         22    1    1    2    0    0  0.16792300799E+00 -0.14177209569E+00  0.39365874131E+01  0.39427170739E+01  0.00000000000E+00 0. -1.
</event>
<event>
 5    1  0.3428566E+002  0.1599677E+01  0.7818608E-02  0.3353714E+00
         11   -1    0    0    0    0  0.00000000000E+00  0.00000000000E+00  0.39999999674E+01  0.40000000000E+01  0.51100000000E-03 0.  1.
    9000002   -1    0    0    0    0 -0.00000000000E+00 -0.00000000000E+00  0.00000000000E+00  0.93800000000E+00  0.93800000000E+00 0.  1.
         11    1    1    2    0    0  0.44974093073E-01  0.71402016313E-01  0.11440449669E+01  0.11471530257E+01  0.51100000000E-03 0.  1.
    9000002    1    1    2    0    0 -0.15681407022E+00 -0.24549896812E+00  0.56566545562E-01  0.98382120837E+00  0.93800000000E+00 0.  1.
         22    1    1    2    0    0  0.11183997715E+00  0.17409695181E+00  0.27993884549E+01  0.28070257660E+01  0.00000000000E+00 0.  1.
</event>
<event>
 5    1  0.3428566E+002  0.1599668E+01  0.7818608E-02  0.3353724E+00
         11   -1    0    0    0    0  0.00000000000E+00  0.00000000000E+00  0.39999999674E+01  0.40000000000E+01  0.51100000000E-03 0.  1.
    9000002   -1    0    0    0    0 -0.00000000000E+00 -0.00000000000E+00  0.00000000000E+00  0.93800000000E+00  0.93800000000E+00 0. -1.
         11    1    1    2    0    0 -0.35309574241E-01 -0.10304918800E+00  0.83366488912E+00  0.84075163375E+00  0.51100000000E-03 0.  1.
    9000002    1    1    2    0    0  0.14886125812E+00  0.47046749624E+00  0.16651581409E+00  0.10728797023E+01  0.93800000000E+00 0. -1.
         22    1    1    2    0    0 -0.11355168388E+00 -0.36741830824E+00  0.29998192642E+01  0.30243686640E+01  0.00000000000E+00 0.  1.
</event>
<event>
 5    1  0.3428566E+002  0.1599580E+01  0.7818608E-02  0.3353819E+00
         11   -1    0    0    0    0  0.00000000000E+00  0.00000000000E+00  0.39999999674E+01  0.40000000000E+01  0.51100000000E-03 0.  1.
    9000002   -1    0    0    0    0 -0.00000000000E+00 -0.00000000000E+00  0.00000000000E+00  0.93800000000E+00  0.93800000000E+00 0.  1.
         11    1    1    2    0    0 -0.96219166451E-01 -0.22680609022E-01  0.11628403347E+01  0.11670348937E+01  0.51100000000E-03 0.  1.
    9000002    1    1    2    0    0  0.31866150312E+00  0.40756509509E-01  0.69068330411E-01  0.99389168470E+00  0.93800000000E+00 0.  1.
         22    1    1    2    0    0 -0.22244233667E+00 -0.18075900487E-01  0.27680913023E+01  0.27770734216E+01  0.00000000000E+00 0.  1.
</event>
<event>
 5    1  0.3428566E+002  0.1599676E+01  0.7818608E-02  0.3353715E+00
         11   -1    0    0    0    0  0.00000000000E+00  0.00000000000E+00  0.39999999674E+01  0.40000000000E+01  0.51100000000E-03 0.  1.
    9000002   -1    0    0    0    0 -0.00000000000E+00 -0.00000000000E+00  0.00000000000E+00  0.93800000000E+00  0.93800000000E+00 0.  1.
         11    1    1    2    0    0 -0.15988123201E+00  0.24158653737E+00  0.18537233669E+01  0.18762240392E+01  0.51100000000E-03 0.  1.
    9000002    1    1    2    0    0  0.32287490202E+00 -0.48845785243E+00  0.23847288890E+00  0.11311731055E+01  0.93800000000E+00 0.  1.
         22    1    1    2    0    0 -0.16299367001E+00  0.24687131507E+00  0.19078037116E+01  0.19306028552E+01  0.00000000000E+00 0.  1.
</event>
<event>
 5    1  0.3428566E+002  0.1599677E+01  0.7818608E-02  0.3353715E+00
         11   -1    0    0    0    0  0.00000000000E+00  0.00000000000E+00  0.39999999674E+01  0.40000000000E+01  0.51100000000E-03 0.  1.
    9000002   -1    0    0    0    0 -0.00000000000E+00 -0.00000000000E+00  0.00000000000E+00  0.93800000000E+00  0.93800000000E+00 0. -1.
         11    1    1    2    0    0  0.50230334606E-01 -0.59181727109E-01  0.10399268139E+01  0.10428200241E+01  0.51100000000E-03 0.  1.
    9000002    1    1    2    0    0 -0.18813466328E+00  0.22331494472E+00  0.56839408275E-01  0.98404214056E+00  0.93800000000E+00 0. -1.
         22    1    1    2    0    0  0.13790432868E+00 -0.16413321761E+00  0.29032337452E+01  0.29111378353E+01  0.00000000000E+00 0.  1.
</event>
<event>
 5    1  0.3428566E+002  0.1599608E+01  0.7818608E-02  0.3353789E+00
         11   -1    0    0    0    0  0.00000000000E+00  0.00000000000E+00  0.39999999674E+01  0.40000000000E+01  0.51100000000E-03 0. -1.
    9000002   -1    0    0    0    0 -0.00000000000E+00 -0.00000000000E+00  0.00000000000E+00  0.93800000000E+00  0.93800000000E+00 0. -1.
         11    1    1    2    0    0 -0.16628795239E-01 -0.23845233225E+00  0.21516480540E+01  0.21648846715E+01  0.51100000000E-03 0. -1.
    9000002    1    1    2    0    0  0.15884716356E-01  0.43996075552E+00  0.13151079262E+00  0.10444888124E+01  0.93800000000E+00 0. -1.
         22    1    1    2    0    0  0.74407888276E-03 -0.20150842327E+00  0.17168411207E+01  0.17286265161E+01  0.00000000000E+00 0.  1.
</event>
<event>
 5    1  0.3428566E+002  0.1599676E+01  0.7818608E-02  0.3353715E+00
         11   -1    0    0    0    0  0.00000000000E+00  0.00000000000E+00  0.39999999674E+01  0.40000000000E+01  0.51100000000E-03 0. -1.
    9000002   -1    0    0    0    0 -0.00000000000E+00 -0.00000000000E+00  0.00000000000E+00  0.93800000000E+00  0.93800000000E+00 0. -1.
         11    1    1    2    0    0 -0.87556114874E-03  0.10230314721E-01  0.17353862459E+00  0.17384286379E+00  0.51100000000E-03 0.  1.
    9000002    1    1    2    0    0  0.22337603238E-01 -0.23126612608E+00  0.35814469318E-01  0.96701068547E+00  0.93800000000E+00 0. -1.
         22    1    1    2    0    0 -0.21462042090E-01  0.22103581136E+00  0.37906468735E+01  0.37971464507E+01  0.00000000000E+00 0. -1.
</event>
<event>
 5    1  0.3428566E+002  0.1598838E+01  0.7818608E-02  0.3354626E+00
         11   -1    0    0    0    0  0.00000000000E+00  0.00000000000E+00  0.39999999674E+01  0.40000000000E+01  0.51100000000E-03 0.  1.
    9000002   -1    0    0    0    0 -0.00000000000E+00 -0.00000000000E+00  0.00000000000E+00  0.93800000000E+00  0.93800000000E+00 0.  1.
         11    1    1    2    0    0  0.47085894470E-01  0.36605754309E-02  0.94509874848E+00  0.94627817621E+00  0.51100000000E-03 0.  1.
    9000002    1    1    2    0    0 -0.25799988165E+00  0.92985041112E-01  0.50707786091E-01  0.97858338243E+00  0.93800000000E+00 0.  1.
         22    1    1    2    0    0  0.21091398718E+00 -0.96645616543E-01  0.30041934328E+01  0.30131384414E+01  0.00000000000E+00 0.  1.
</event>
<event>
 5    1  0.3428566E+002  0.1560612E+01  0.7818608E-02  0.3397255E+00
         11   -1    0    0    0    0  0.00000000000E+00  0.00000000000E+00  0.39999999674E+01  0.40000000000E+01  0.51100000000E-03 0.  1.
    9000002   -1    0    0    0    0 -0.00000000000E+00 -0.00000000000E+00  0.00000000000E+00  0.93800000000E+00  0.93800000000E+00 0.  1.
         11    1    1    2    0    0 -0.14622443318E+00  0.16264422276E+00  0.93687799453E+00  0.96206827502E+00  0.51100000000E-03 0.  1.
    9000002    1    1    2    0    0 -0.13789708735E+00 -0.27519290766E+00  0.94616701475E-01  0.99173739635E+00  0.93800000000E+00 0.  1.
         22    1    1    2    0    0  0.28412152054E+00  0.11254868490E+00  0.29685052714E+01  0.29841943286E+01  0.00000000000E+00 0.  1.
</event>
<event>
 5    1  0.3721081E+002  0.1594312E+01  0.7818608E-02  0.3359560E+00
         11   -1    0    0    0    0  0.00000000000E+00  0.00000000000E+00  0.39999999674E+01  0.40000000000E+01  0.51100000000E-03 0.  1.
    9000002   -1    0    0    0    0 -0.00000000000E+00 -0.00000000000E+00  0.00000000000E+00  0.93800000000E+00  0.93800000000E+00 0. -1.
         11    1    1    2    0    0  0.37427374135E-01 -0.85951836118E-02  0.60605469138E+00  0.60727031509E+00  0.51100000000E-03 0.  1.
    9000002    1    1    2    0    0  0.15118090069E+00 -0.67572260258E-01  0.22106783433E-01  0.95276145229E+00  0.93800000000E+00 0. -1.
         22    1    1    2    0    0 -0.18860827483E+00  0.76167443870E-01  0.33718384925E+01  0.33779682326E+01  0.00000000000E+00 0.  1.
</event>
<event>
 5    1  0.3428566E+002  0.1596939E+01  0.7818608E-02  0.3356692E+00
         11   -1    0    0    0    0  0.00000000000E+00  0.00000000000E+00  0.39999999674E+01  0.40000000000E+01  0.51100000000E-03 0.  1.
    9000002   -1    0    0    0    0 -0.00000000000E+00 -0.00000000000E+00  0.00000000000E+00  0.93800000000E+00  0.93800000000E+00 0.  1.
         11    1    1    2    0    0 -0.13427508875E+00 -0.28004499297E+00  0.19984254631E+01  0.20224142974E+01  0.51100000000E-03 0.  1.
    9000002    1    1    2    0    0  0.14489571722E+00  0.48970138315E+00  0.18135222651E+00  0.10832981324E+01  0.93800000000E+00 0.  1.
         22    1    1    2    0    0 -0.10620628461E-01 -0.20965639018E+00  0.18202222778E+01  0.18322875703E+01  0.00000000000E+00 0.  1.
</event>
<event>
 5    1  0.3428566E+002  0.1599677E+01  0.7818608E-02  0.3353714E+00
         11   -1    0    0    0    0  0.00000000000E+00  0.00000000000E+00  0.39999999674E+01  0.40000000000E+01  0.51100000000E-03 0. -1.
    9000002   -1    0    0    0    0 -0.00000000000E+00 -0.00000000000E+00  0.00000000000E+00  0.93800000000E+00  0.93800000000E+00 0.  1.
         11    1    1    2    0    0  0.40958080084E-01  0.80927071628E-01  0.10840860753E+01  0.10878739058E+01  0.51100000000E-03 0.  1.
    9000002    1    1    2    0    0 -0.14963743550E+00 -0.29314324329E+00  0.72471198906E-01  0.99670476966E+00  0.93800000000E+00 0.  1.
         22    1    1    2    0    0  0.10867935542E+00  0.21221617166E+00  0.28434426932E+01  0.28534213245E+01  0.00000000000E+00 0. -1.
</event>
<event>
 5    1  0.3428566E+002  0.1593039E+01  0.7818608E-02  0.3360954E+00
         11   -1    0    0    0    0  0.00000000000E+00  0.00000000000E+00  0.39999999674E+01  0.40000000000E+01  0.51100000000E-03 0. -1.
    9000002   -1    0    0    0    0 -0.00000000000E+00 -0.00000000000E+00  0.00000000000E+00  0.93800000000E+00  0.93800000000E+00 0. -1.
         11    1    1    2    0    0 -0.15070974480E-01  0.20363410041E+00  0.21165421752E+01  0.21263689759E+01  0.51100000000E-03 0. -1.
    9000002    1    1    2    0    0  0.20168762838E+00 -0.32927234783E+00  0.10588549621E+00  0.10198793638E+01  0.93800000000E+00 0. -1.
         22    1    1    2    0    0 -0.18661665390E+00  0.12563824741E+00  0.17775722959E+01  0.17917516603E+01  0.00000000000E+00 0. -1.
</event>
<event>
 5    1  0.3428566E+002  0.1555222E+01  0.7818608E-02  0.3403446E+00
         11   -1    0    0    0    0  0.00000000000E+00  0.00000000000E+00  0.39999999674E+01  0.40000000000E+01  0.51100000000E-03 0. -1.
    9000002   -1    0    0    0    0 -0.00000000000E+00 -0.00000000000E+00  0.00000000000E+00  0.93800000000E+00  0.93800000000E+00 0. -1.
         11    1    1    2    0    0  0.19435992820E+00  0.14361384604E+00  0.22969759142E+01  0.23096535086E+01  0.51100000000E-03 0. -1.
    9000002    1    1    2    0    0  0.60991149046E-01 -0.75343053356E-01  0.39360651982E-01  0.94381659070E+00  0.93800000000E+00 0. -1.
         22    1    1    2    0    0 -0.25535107725E+00 -0.68270792686E-01  0.16636634012E+01  0.16845299007E+01  0.00000000000E+00 0.  1.
</event>
<event>
 5    1  0.3428566E+002  0.1599442E+01  0.7818608E-02  0.3353969E+00
         11   -1    0    0    0    0  0.00000000000E+00  0.00000000000E+00  0.39999999674E+01  0.40000000000E+01  0.51100000000E-03 0.  1.
    9000002   -1    0    0    0    0 -0.00000000000E+00 -0.00000000000E+00  0.00000000000E+00  0.93800000000E+00  0.93800000000E+00 0. -1.
         11    1    1    2    0    0 -0.21529004089E+00 -0.17446637559E+00  0.21481178492E+01  0.21659175592E+01  0.51100000000E-03 0.  1.
    9000002    1    1    2    0    0  0.36427550030E+00  0.33723072705E+00  0.16879907755E+00  0.10745968230E+01  0.93800000000E+00 0. -1.
         22    1    1    2    0    0 -0.14898545941E+00 -0.16276435146E+00  0.16830830406E+01  0.16974856179E+01  0.00000000000E+00 0.  1.
</event>
<event>
 5    1  0.3428566E+002  0.1599677E+01  0.7818608E-02  0.3353714E+00
         11   -1    0    0    0    0  0.00000000000E+00  0.00000000000E+00  0.39999999674E+01  0.40000000000E+01  0.51100000000E-03 0.  1.
    9000002   -1    0    0    0    0 -0.00000000000E+00 -0.00000000000E+00  0.00000000000E+00  0.93800000000E+00  0.93800000000E+00 0. -1.
         11    1    1    2    0    0 -0.22786805291E+00 -0.20069608503E-01  0.19209391728E+01  0.19345113608E+01  0.51100000000E-03 0.  1.
    9000002    1    1    2    0    0  0.45689762520E+00  0.40211317171E-01  0.14306644277E+00  0.10538901257E+01  0.93800000000E+00 0. -1.
         22    1    1    2    0    0 -0.22902957229E+00 -0.20141708668E-01  0.19359943518E+01  0.19495985135E+01  0.00000000000E+00 0.  1.
</event>
<event>
 5    1  0.3428566E+002  0.1583522E+01  0.7818608E-02  0.3371444E+00
         11   -1    0    0    0    0  0.00000000000E+00  0.00000000000E+00  0.39999999674E+01  0.40000000000E+01  0.51100000000E-03 0.  1.
    9000002   -1    0    0    0    0 -0.00000000000E+00 -0.00000000000E+00  0.00000000000E+00  0.93800000000E+00  0.93800000000E+00 0.  1.
         11    1    1    2    0    0  0.90945694339E-01 -0.58839691673E-01  0.81096869837E+00  0.81817095982E+00  0.51100000000E-03 0.  1.
    9000002    1    1    2    0    0 -0.16908275729E-01 -0.13762042327E+00  0.24672947555E-01  0.94851358716E+00  0.93800000000E+00 0.  1.
         22    1    1    2    0    0 -0.74037418610E-01  0.19646011495E+00  0.31643583214E+01  0.31713154530E+01  0.00000000000E+00 0.  1.
</event>
<event>
 5    1  0.3428566E+002  0.1599549E+01  0.7818608E-02  0.3353853E+00
         11   -1    0    0    0    0  0.00000000000E+00  0.00000000000E+00  0.39999999674E+01  0.40000000000E+01  0.51100000000E-03 0.  1.
    9000002   -1    0    0    0    0 -0.00000000000E+00 -0.00000000000E+00  0.00000000000E+00  0.93800000000E+00  0.93800000000E+00 0. -1.
         11    1    1    2    0    0  0.22660538804E-01  0.18539451139E+00  0.14485960614E+01  0.14605873596E+01  0.51100000000E-03 0.  1.
    9000002    1    1    2    0    0 -0.93718335822E-01 -0.49779879844E+00  0.17595872928E+00  0.10804592748E+01  0.93800000000E+00 0. -1.
         22    1    1    2    0    0  0.71057797019E-01  0.31240428705E+00  0.23754451767E+01  0.23969533656E+01  0.00000000000E+00 0.  1.
</event>
<event>
 5    1  0.3428566E+002  0.1599658E+01  0.7818608E-02  0.3353734E+00
         11   -1    0    0    0    0  0.00000000000E+00  0.00000000000E+00  0.39999999674E+01  0.40000000000E+01  0.51100000000E-03 0. -1.
    9000002   -1    0    0    0    0 -0.00000000000E+00 -0.00000000000E+00  0.00000000000E+00  0.93800000000E+00  0.93800000000E+00 0.  1.
         11    1    1    2    0    0 -0.42796640596E-01 -0.25617951343E-01  0.66756035712E+00  0.66942133473E+00  0.51100000000E-03 0. -1.
    9000002    1    1    2    0    0  0.25334983906E+00  0.17403484691E+00  0.63083436584E-01  0.98908937355E+00  0.93800000000E+00 0.  1.
         22    1    1    2    0    0 -0.21055319847E+00 -0.14841689557E+00  0.32693561737E+01  0.32794892917E+01  0.00000000000E+00 0.  1.
</event>
<event>
 5    1  0.3428566E+002  0.1469123E+01  0.7818608E-02  0.3508935E+00
         11   -1    0    0    0    0  0.00000000000E+00  0.00000000000E+00  0.39999999674E+01  0.40000000000E+01  0.51100000000E-03 0. -1.
    9000002   -1    0    0    0    0 -0.00000000000E+00 -0.00000000000E+00  0.00000000000E+00  0.93800000000E+00  0.93800000000E+00 0.  1.
         11    1    1    2    0    0  0.33627664817E+00  0.22105860818E+00  0.10250239264E+01  0.11011917195E+01  0.51100000000E-03 0. -1.
    9000002    1    1    2    0    0  0.41880632989E-01 -0.19177952320E+00  0.13051018590E+00  0.96716610857E+00  0.93800000000E+00 0.  1.
         22    1    1    2    0    0 -0.37815728116E+00 -0.29279084981E-01  0.28444658551E+01  0.28696421719E+01  0.00000000000E+00 0. -1.
</event>
<event>
 5    1  0.3428566E+002  0.1575858E+01  0.7818608E-02  0.3379991E+00
         11   -1    0    0    0    0  0.00000000000E+00  0.00000000000E+00  0.39999999674E+01  0.40000000000E+01  0.51100000000E-03 0. -1.
    9000002   -1    0    0    0    0 -0.00000000000E+00 -0.00000000000E+00  0.00000000000E+00  0.93800000000E+00  0.93800000000E+00 0. -1.
         11    1    1    2    0    0  0.19796801463E+00  0.13219964801E+00  0.26700533167E+01  0.26806441496E+01  0.51100000000E-03 0. -1.
    9000002    1    1    2    0    0 -0.51709872204E-01 -0.28237758472E+00  0.73669196642E-01  0.98370837232E+00  0.93800000000E+00 0. -1.
         22    1    1    2    0    0 -0.14625814243E+00  0.15017793670E+00  0.12562774540E+01  0.12736474780E+01  0.00000000000E+00 0. -1.
</event>
<event>
 5    1  0.3428566E+002  0.1599280E+01  0.7818608E-02  0.3354146E+00
         11   -1    0    0    0    0  0.00000000000E+00  0.00000000000E+00  0.39999999674E+01  0.40000000000E+01  0.51100000000E-03 0. -1.
    9000002   -1    0    0    0    0 -0.00000000000E+00 -0.00000000000E+00  0.00000000000E+00  0.93800000000E+00  0.93800000000E+00 0.  1.
         11    1    1    2    0    0  0.62125012339E-01 -0.12343507969E-01  0.80646398397E+00  0.80894764844E+00  0.51100000000E-03 0. -1.
    9000002    1    1    2    0    0 -0.23452848781E+00  0.12444719474E+00  0.47189603932E-01  0.97599260991E+00  0.93800000000E+00 0.  1.
         22    1    1    2    0    0  0.17240347547E+00 -0.11210368677E+00  0.31463463795E+01  0.31530597417E+01  0.00000000000E+00 0. -1.
</event>
<event>
 5    1  0.3428566E+002  0.1599676E+01  0.7818608E-02  0.3353715E+00
         11   -1    0    0    0    0  0.00000000000E+00  0.00000000000E+00  0.39999999674E+01  0.40000000000E+01  0.51100000000E-03 0.  1.
    9000002   -1    0    0    0    0 -0.00000000000E+00 -0.00000000000E+00  0.00000000000E+00  0.93800000000E+00  0.93800000000E+00 0.  1.
         11    1    1    2    0    0 -0.31666767396E+00  0.58878756866E-01  0.22436071180E+01  0.22666094248E+01  0.51100000000E-03 0.  1.
    9000002    1    1    2    0    0  0.53591911500E+00 -0.98045307540E-01  0.20481537702E+00  0.11039091986E+01  0.93800000000E+00 0.  1.
         22    1    1    2    0    0 -0.21925144104E+00  0.39166550674E-01  0.15515774723E+01  0.15674813765E+01  0.00000000000E+00 0.  1.
</event>
<event>
 5    1  0.3428566E+002  0.1599249E+01  0.7818608E-02  0.3354179E+00
         11   -1    0    0    0    0  0.00000000000E+00  0.00000000000E+00  0.39999999674E+01  0.40000000000E+01  0.51100000000E-03 0. -1.
    9000002   -1    0    0    0    0 -0.00000000000E+00 -0.00000000000E+00  0.00000000000E+00  0.93800000000E+00  0.93800000000E+00 0. -1.
         11    1    1    2    0    0  0.16836490119E-01 -0.30443618809E-01  0.43658308567E+00  0.43796727406E+00  0.51100000000E-03 0. -1.
    9000002    1    1    2    0    0 -0.84489679805E-01  0.39520364222E+00  0.11058152893E+00  0.10273250213E+01  0.93800000000E+00 0. -1.
         22    1    1    2    0    0  0.67653189685E-01 -0.36476002341E+00  0.34528353528E+01  0.34727077047E+01  0.00000000000E+00 0. -1.
</event>
<event>
 5    1  0.3428566E+002  0.1599676E+01  0.7818608E-02  0.3353715E+00
         11   -1    0    0    0    0  0.00000000000E+00  0.00000000000E+00  0.39999999674E+01  0.40000000000E+01  0.51100000000E-03 0. -1.
    9000002   -1    0    0    0    0 -0.00000000000E+00 -0.00000000000E+00  0.00000000000E+00  0.93800000000E+00  0.93800000000E+00 0.  1.
         11    1    1    2    0    0  0.16061018611E-01  0.22413154963E-01  0.34286383733E+00  0.34397118761E+00  0.51100000000E-03 0. -1.
    9000002    1    1    2    0    0 -0.18264092657E+00 -0.25233273355E+00  0.64800964777E-01  0.99049113147E+00  0.93800000000E+00 0.  1.
         22    1    1    2    0    0  0.16657990796E+00  0.22991957858E+00  0.35923351653E+01  0.36035376809E+01  0.00000000000E+00 0. -1.
</event>
<event>
 5    1  0.3428566E+002  0.1583092E+01  0.7818608E-02  0.3371922E+00
         11   -1    0    0    0    0  0.00000000000E+00  0.00000000000E+00  0.39999999674E+01  0.40000000000E+01  0.51100000000E-03 0. -1.
    9000002   -1    0    0    0    0 -0.00000000000E+00 -0.00000000000E+00  0.00000000000E+00  0.93800000000E+00  0.93800000000E+00 0.  1.
         11    1    1    2    0    0  0.12188377203E+00  0.47788924162E-01  0.18480038581E+01  0.18526354082E+01  0.51100000000E-03 0. -1.
    9000002    1    1    2    0    0 -0.30677757562E-01  0.13590376884E+00  0.25119938875E-01  0.94862319734E+00  0.93800000000E+00 0.  1.
         22    1    1    2    0    0 -0.91206014471E-01 -0.18369269300E+00  0.21268761704E+01  0.21367413945E+01  0.00000000000E+00 0.  1.
</event>
<event>
 5    1  0.3428566E+002  0.1599664E+01  0.7818608E-02  0.3353728E+00
         11   -1    0    0    0    0  0.00000000000E+00  0.00000000000E+00  0.39999999674E+01  0.40000000000E+01  0.51100000000E-03 0. -1.
    9000002   -1    0    0    0    0 -0.00000000000E+00 -0.00000000000E+00  0.00000000000E+00  0.93800000000E+00  0.93800000000E+00 0. -1.
         11    1    1    2    0    0  0.49917271909E-01 -0.12388307600E-01  0.83014380168E+00  0.83173565319E+00  0.51100000000E-03 0. -1.
    9000002    1    1    2    0    0 -0.25214486568E+00  0.50624959122E-01  0.43970307556E-01  0.97361044968E+00  0.93800000000E+00 0. -1.
         22    1    1    2    0    0  0.20222759377E+00 -0.38236651522E-01  0.31258858581E+01  0.31326538971E+01  0.00000000000E+00 0. -1.
</event>
<event>
 5    1  0.3428566E+002  0.1599674E+01  0.7818608E-02  0.3353717E+00
         11   -1    0    0    0    0  0.00000000000E+00  0.00000000000E+00  0.39999999674E+01  0.40000000000E+01  0.51100000000E-03 0. -1.
    9000002   -1    0    0    0    0 -0.00000000000E+00 -0.00000000000E+00  0.00000000000E+00  0.93800000000E+00  0.93800000000E+00 0. -1.
         11    1    1    2    0    0  0.54156701423E-01 -0.10399842651E+00  0.99638987319E+00  0.10032654990E+01  0.51100000000E-03 0. -1.
    9000002    1    1    2    0    0 -0.21549260811E+00  0.39951146642E+00  0.14002726314E+00  0.10514267023E+01  0.93800000000E+00 0. -1.
         22    1    1    2    0    0  0.16133590669E+00 -0.29551303990E+00  0.28635828310E+01  0.28833077986E+01  0.00000000000E+00 0. -1.
</event>
<event>
 5    1  0.3428566E+002  0.1599672E+01  0.7818608E-02  0.3353719E+00
         11   -1    0    0    0    0  0.00000000000E+00  0.00000000000E+00  0.39999999674E+01  0.40000000000E+01  0.51100000000E-03 0.  1.
    9000002   -1    0    0    0    0 -0.00000000000E+00 -0.00000000000E+00  0.00000000000E+00  0.93800000000E+00  0.93800000000E+00 0. -1.
         11    1    1    2    0    0  0.32798607339E-01  0.20848643693E-01  0.56214467249E+00  0.56348674210E+00  0.51100000000E-03 0.  1.
    9000002    1    1    2    0    0 -0.24300843686E+00 -0.14847517508E+00  0.54030798976E-01  0.98176438377E+00  0.93800000000E+00 0. -1.
         22    1    1    2    0    0  0.21020982952E+00  0.12762653139E+00  0.33838244959E+01  0.33927488741E+01  0.00000000000E+00 0.  1.
</event>
<event>
 5    1  0.3428566E+002  0.1599675E+01  0.7818608E-02  0.3353716E+00
         11   -1    0    0    0    0  0.00000000000E+00  0.00000000000E+00  0.39999999674E+01  0.40000000000E+01  0.51100000000E-03 0. -1.
    9000002   -1    0    0    0    0 -0.00000000000E+00 -0.00000000000E+00  0.00000000000E+00  0.93800000000E+00  0.93800000000E+00 0. -1.
         11    1    1    2    0    0 -0.11701841933E+00  0.10732829092E+00  0.16985108445E+01  0.17059167689E+01  0.51100000000E-03 0. -1.
    9000002    1    1    2    0    0  0.26863798725E+00 -0.24321463029E+00  0.88175688019E-01  0.10094249237E+01  0.93800000000E+00 0. -1.
         22    1    1    2    0    0 -0.15161956791E+00  0.13588633937E+00  0.22133134348E+01  0.22226583074E+01  0.00000000000E+00 0. -1.
</event>
<event>
 5    1  0.3428566E+002  0.1596572E+01  0.7818608E-02  0.3357093E+00
         11   -1    0    0    0    0  0.00000000000E+00  0.00000000000E+00  0.39999999674E+01  0.40000000000E+01  0.51100000000E-03 0. -1.
    9000002   -1    0    0    0    0 -0.00000000000E+00 -0.00000000000E+00  0.00000000000E+00  0.93800000000E+00  0.93800000000E+00 0. -1.
         11    1    1    2    0    0  0.24431906494E-01 -0.11418631667E-01  0.87617099443E+00  0.87658609150E+00  0.51100000000E-03 0. -1.
    9000002    1    1    2    0    0  0.73180116867E-01  0.22380439241E+00  0.39153391540E-01  0.96789499618E+00  0.93800000000E+00 0. -1.
         22    1    1    2    0    0 -0.97612023361E-01 -0.21238576074E+00  0.30846755814E+01  0.30935189123E+01  0.00000000000E+00 0. -1.
</event>
<event>
 5    1  0.3428566E+002  0.1597483E+01  0.7818608E-02  0.3356099E+00
         11   -1    0    0    0    0  0.00000000000E+00  0.00000000000E+00  0.39999999674E+01  0.40000000000E+01  0.51100000000E-03 0. -1.
    9000002   -1    0    0    0    0 -0.00000000000E+00 -0.00000000000E+00  0.00000000000E+00  0.93800000000E+00  0.93800000000E+00 0. -1.
         11    1    1    2    0    0  0.27768554916E+00  0.29725163943E+00  0.21879312685E+01  0.22254238469E+01  0.51100000000E-03 0. -1.
    9000002    1    1    2    0    0 -0.46356035522E+00 -0.41180957029E+00  0.27166057558E+00  0.11567708474E+01  0.93800000000E+00 0. -1.
         22    1    1    2    0    0  0.18587480605E+00  0.11455793086E+00  0.15404081233E+01  0.15558053057E+01  0.00000000000E+00 0. -1.
</event>
<event>
 5    1  0.3428566E+002  0.1599624E+01  0.7818608E-02  0.3353771E+00
         11   -1    0    0    0    0  0.00000000000E+00  0.00000000000E+00  0.39999999674E+01  0.40000000000E+01  0.51100000000E-03 0. -1.
    9000002   -1    0    0    0    0 -0.00000000000E+00 -0.00000000000E+00  0.00000000000E+00  0.93800000000E+00  0.93800000000E+00 0. -1.
         11    1    1    2    0    0  0.44467800573E-01  0.21041829470E-01  0.66930525445E+00  0.67111096596E+00  0.51100000000E-03 0. -1.
    9000002    1    1    2    0    0 -0.22678098923E+00 -0.11067626721E+00  0.42349038959E-01  0.97227377538E+00  0.93800000000E+00 0. -1.
         22    1    1    2    0    0  0.18231318865E+00  0.89634437739E-01  0.32883456740E+01  0.32946152587E+01  0.00000000000E+00 0. -1.
</event>
<event>
 5    1  0.3428566E+002  0.1599041E+01  0.7818608E-02  0.3354405E+00
         11   -1    0    0    0    0  0.00000000000E+00  0.00000000000E+00  0.39999999674E+01  0.40000000000E+01  0.51100000000E-03 0. -1.
    9000002   -1    0    0    0    0 -0.00000000000E+00 -0.00000000000E+00  0.00000000000E+00  0.93800000000E+00  0.93800000000E+00 0. -1.
         11    1    1    2    0    0 -0.48173243770E-01  0.21667726581E-01  0.58803805253E+00  0.59040593166E+00  0.51100000000E-03 0. -1.
    9000002    1    1    2    0    0  0.32380502129E+00 -0.28625129950E+00  0.12708147462E+00  0.10405686904E+01  0.93800000000E+00 0. -1.
         22    1    1    2    0    0 -0.27563177752E+00  0.26458357291E+00  0.32848804402E+01  0.33070253779E+01  0.00000000000E+00 0. -1.
</event>
<event>
 5    1  0.3428566E+002  0.1599669E+01  0.7818608E-02  0.3353723E+00
         11   -1    0    0    0    0  0.00000000000E+00  0.00000000000E+00  0.39999999674E+01  0.40000000000E+01  0.51100000000E-03 0. -1.
    9000002   -1    0    0    0    0 -0.00000000000E+00 -0.00000000000E+00  0.00000000000E+00  0.93800000000E+00  0.93800000000E+00 0. -1.
         11    1    1    2    0    0 -0.18928166661E+00 -0.13429114240E+00  0.20335777489E+01  0.20467780491E+01  0.51100000000E-03 0. -1.
    9000002    1    1    2    0    0  0.35379667485E+00  0.25454119576E+00  0.12876318944E+00  0.10422990293E+01  0.93800000000E+00 0. -1.
         22    1    1    2    0    0 -0.16451500823E+00 -0.12025005337E+00  0.18376590290E+01  0.18489229216E+01  0.00000000000E+00 0. -1.
</event>
<event>
 5    1  0.3428566E+002  0.1599582E+01  0.7818608E-02  0.3353817E+00
         11   -1    0    0    0    0  0.00000000000E+00  0.00000000000E+00  0.39999999674E+01  0.40000000000E+01  0.51100000000E-03 0. -1.
    9000002   -1    0    0    0    0 -0.00000000000E+00 -0.00000000000E+00  0.00000000000E+00  0.93800000000E+00  0.93800000000E+00 0. -1.
         11    1    1    2    0    0 -0.22817323309E+00  0.57781403625E-01  0.21110530213E+01  0.21241343731E+01  0.51100000000E-03 0. -1.
    9000002    1    1    2    0    0  0.43459138043E+00 -0.92438452808E-01  0.13405082698E+00  0.10465314901E+01  0.93800000000E+00 0. -1.
         22    1    1    2    0    0 -0.20641814734E+00  0.34657049183E-01  0.17548961190E+01  0.17673341368E+01  0.00000000000E+00 0. -1.
</event>
<event>
 5    1  0.3428566E+002  0.1598094E+01  0.7818608E-02  0.3355434E+00
         11   -1    0    0    0    0  0.00000000000E+00  0.00000000000E+00  0.39999999674E+01  0.40000000000E+01  0.51100000000E-03 0.  1.
    9000002   -1    0    0    0    0 -0.00000000000E+00 -0.00000000000E+00  0.00000000000E+00  0.93800000000E+00  0.93800000000E+00 0. -1.
         11    1    1    2    0    0  0.18419574876E-01 -0.18008490435E-01  0.84591535642E+00  0.84630764963E+00  0.51100000000E-03 0.  1.
    9000002    1    1    2    0    0 -0.24521882878E+00  0.17435665312E+00  0.61640650146E-01  0.98700358977E+00  0.93800000000E+00 0. -1.
         22    1    1    2    0    0  0.22679925391E+00 -0.15634816268E+00  0.30924439608E+01  0.31046887606E+01  0.00000000000E+00 0.  1.
</event>
<event>
 5    1  0.3428566E+002  0.1599663E+01  0.7818608E-02  0.3353729E+00
         11   -1    0    0    0    0  0.00000000000E+00  0.00000000000E+00  0.39999999674E+01  0.40000000000E+01  0.51100000000E-03 0.  1.
    9000002   -1    0    0    0    0 -0.00000000000E+00 -0.00000000000E+00  0.00000000000E+00  0.93800000000E+00  0.93800000000E+00 0. -1.
         11    1    1    2    0    0  0.10989877076E+00  0.63628285822E-01  0.12808101607E+01  0.12870902173E+01  0.51100000000E-03 0.  1.
    9000002    1    1    2    0    0 -0.32729164217E+00 -0.18374851229E+00  0.94750320784E-01  0.10147437894E+01  0.93800000000E+00 0. -1.
         22    1    1    2    0    0  0.21739287141E+00  0.12012022647E+00  0.26244394858E+01  0.26361659933E+01  0.00000000000E+00 0.  1.
</event>
<event>
 5    1  0.3428566E+002  0.1599676E+01  0.7818608E-02  0.3353715E+00
         11   -1    0    0    0    0  0.00000000000E+00  0.00000000000E+00  0.39999999674E+01  0.40000000000E+01  0.51100000000E-03 0.  1.
    9000002   -1    0    0    0    0 -0.00000000000E+00 -0.00000000000E+00  0.00000000000E+00  0.93800000000E+00  0.93800000000E+00 0.  1.
         11    1    1    2    0    0 -0.21397054083E-01  0.16702394882E+00  0.17049343120E+01  0.17132297286E+01  0.51100000000E-03 0.  1.
    9000002    1    1    2    0    0  0.47147852225E-01 -0.38124233792E+00  0.99340693390E-01  0.10184700357E+01  0.93800000000E+00 0.  1.
         22    1    1    2    0    0 -0.25750798142E-01  0.21421838910E+00  0.21957249620E+01  0.22063002358E+01  0.00000000000E+00 0.  1.
</event>
<event>
 5    1  0.3428566E+002  0.1599644E+01  0.7818608E-02  0.3353750E+00
         11   -1    0    0    0    0  0.00000000000E+00  0.00000000000E+00  0.39999999674E+01  0.40000000000E+01  0.51100000000E-03 0.  1.
    9000002   -1    0    0    0    0 -0.00000000000E+00 -0.00000000000E+00  0.00000000000E+00  0.93800000000E+00  0.93800000000E+00 0.  1.
         11    1    1    2    0    0 -0.63331962146E+00  0.58367222708E-01  0.24811378713E+01  0.25613562566E+01  0.51100000000E-03 0.  1.
    9000002    1    1    2    0    0  0.86715601111E+00 -0.76297896250E-01  0.57297158055E+00  0.14021131726E+01  0.93800000000E+00 0.  1.
         22    1    1    2    0    0 -0.23383638965E+00  0.17930673542E-01  0.94589051546E+00  0.97453057080E+00  0.00000000000E+00 0.  1.
</event>
<event>
 5    1  0.3428566E+002  0.1599604E+01  0.7818608E-02  0.3353793E+00
         11   -1    0    0    0    0  0.00000000000E+00  0.00000000000E+00  0.39999999674E+01  0.40000000000E+01  0.51100000000E-03 0. -1.
    9000002   -1    0    0    0    0 -0.00000000000E+00 -0.00000000000E+00  0.00000000000E+00  0.93800000000E+00  0.93800000000E+00 0. -1.
         11    1    1    2    0    0  0.51009317185E-02  0.29016666218E-02  0.47369560074E-01  0.47734426949E-01  0.51100000000E-03 0. -1.
    9000002    1    1    2    0    0 -0.30854888568E+00 -0.99318316578E-01  0.70313516751E-01  0.99491433476E+00  0.93800000000E+00 0. -1.
         22    1    1    2    0    0  0.30344795397E+00  0.96416649956E-01  0.38823168905E+01  0.38953512383E+01  0.00000000000E+00 0. -1.
</event>
<event>
 5    1  0.3428566E+002  0.1599644E+01  0.7818608E-02  0.3353750E+00
         11   -1    0    0    0    0  0.00000000000E+00  0.00000000000E+00  0.39999999674E+01  0.40000000000E+01  0.51100000000E-03 0.  1.
    9000002   -1    0    0    0    0 -0.00000000000E+00 -0.00000000000E+00  0.00000000000E+00  0.93800000000E+00  0.93800000000E+00 0.  1.
         11    1    1    2    0    0  0.68788607880E-01  0.19066837833E+00  0.10182635094E+01  0.10382423315E+01  0.51100000000E-03 0.  1.
    9000002    1    1    2    0    0 -0.22443637123E+00 -0.68728861406E+00  0.37600697590E+00  0.12425629037E+01  0.93800000000E+00 0.  1.
         22    1    1    2    0    0  0.15564776335E+00  0.49662023573E+00  0.26057294820E+01  0.26571947648E+01  0.00000000000E+00 0.  1.
</event>
<event>
 5    1  0.3428566E+002  0.1599673E+01  0.7818608E-02  0.3353719E+00
         11   -1    0    0    0    0  0.00000000000E+00  0.00000000000E+00  0.39999999674E+01  0.40000000000E+01  0.51100000000E-03 0.  1.
    9000002   -1    0    0    0    0 -0.00000000000E+00 -0.00000000000E+00  0.00000000000E+00  0.93800000000E+00  0.93800000000E+00 0. -1.
         11    1    1    2    0    0 -0.40691945234E-02 -0.65588059225E-01  0.66499751519E+00  0.66823671568E+00  0.51100000000E-03 0.  1.
    9000002    1    1    2    0    0  0.21214837529E-01  0.39445795701E+00  0.10519368118E+00  0.10232090987E+01  0.93800000000E+00 0. -1.
         22    1    1    2    0    0 -0.17145643005E-01 -0.32886989779E+00  0.32298087710E+01  0.32465541856E+01  0.00000000000E+00 0.  1.
</event>
<event>
 5    1  0.3428566E+002  0.1599461E+01  0.7818608E-02  0.3353949E+00
         11   -1    0    0    0    0  0.00000000000E+00  0.00000000000E+00  0.39999999674E+01  0.40000000000E+01  0.51100000000E-03 0.  1.
    9000002   -1    0    0    0    0 -0.00000000000E+00 -0.00000000000E+00  0.00000000000E+00  0.93800000000E+00  0.93800000000E+00 0. -1.
         11    1    1    2    0    0 -0.10051921475E+00  0.77262726716E-01  0.14644875365E+01  0.14699651857E+01  0.51100000000E-03 0.  1.
    9000002    1    1    2    0    0  0.28863277597E+00 -0.16544834978E+00  0.74248035662E-01  0.99801743803E+00  0.93800000000E+00 0. -1.
         22    1    1    2    0    0 -0.18811356122E+00  0.88185623066E-01  0.24612643952E+01  0.24700173763E+01  0.00000000000E+00 0.  1.
</event>
<event>
 5    1  0.3428566E+002  0.1599671E+01  0.7818608E-02  0.3353720E+00
         11   -1    0    0    0    0  0.00000000000E+00  0.00000000000E+00  0.39999999674E+01  0.40000000000E+01  0.51100000000E-03 0. -1.
    9000002   -1    0    0    0    0 -0.00000000000E+00 -0.00000000000E+00  0.00000000000E+00  0.93800000000E+00  0.93800000000E+00 0.  1.
         11    1    1    2    0    0 -0.46196310788E+00 -0.25174224047E-01  0.25463706821E+01  0.25880586481E+01  0.51100000000E-03 0. -1.
    9000002    1    1    2    0    0  0.67110016973E+00  0.34831817240E-01  0.32039916121E+00  0.11975342650E+01  0.93800000000E+00 0.  1.
         22    1    1    2    0    0 -0.20913706185E+00 -0.96575931930E-02  0.11332301241E+01  0.11524070869E+01  0.00000000000E+00 0. -1.
</event>
<event>
 5    1  0.3428566E+002  0.1544890E+01  0.7818608E-02  0.3415439E+00
         11   -1    0    0    0    0  0.00000000000E+00  0.00000000000E+00  0.39999999674E+01  0.40000000000E+01  0.51100000000E-03 0. -1.
    9000002   -1    0    0    0    0 -0.00000000000E+00 -0.00000000000E+00  0.00000000000E+00  0.93800000000E+00  0.93800000000E+00 0. -1.
         11    1    1    2    0    0  0.20544123927E-01 -0.35287829339E+00  0.20605168300E+01  0.20906159424E+01  0.51100000000E-03 0. -1.
    9000002    1    1    2    0    0  0.13694653951E-01  0.13936047672E+00  0.54416621291E-01  0.94995476455E+00  0.93800000000E+00 0. -1.
         22    1    1    2    0    0 -0.34238777878E-01  0.21351781667E+00  0.18850665161E+01  0.18974292930E+01  0.00000000000E+00 0. -1.
</event>
<event>
 5    1  0.3428566E+002  0.1599677E+01  0.7818608E-02  0.3353714E+00
         11   -1    0    0    0    0  0.00000000000E+00  0.00000000000E+00  0.39999999674E+01  0.40000000000E+01  0.51100000000E-03 0.  1.
    9000002   -1    0    0    0    0 -0.00000000000E+00 -0.00000000000E+00  0.00000000000E+00  0.93800000000E+00  0.93800000000E+00 0. -1.
         11    1    1    2    0    0 -0.73462003291E-01 -0.39246841615E-02  0.10314585701E+01  0.10340788713E+01  0.51100000000E-03 0.  1.
    9000002    1    1    2    0    0  0.28030619846E+00  0.15707783447E-01  0.52489832986E-01  0.98051898601E+00  0.93800000000E+00 0. -1.
         22    1    1    2    0    0 -0.20684419517E+00 -0.11783099286E-01  0.29160515642E+01  0.29234021427E+01  0.00000000000E+00 0.  1.
</event>
<event>
 5    1  0.3428566E+002  0.1599667E+01  0.7818608E-02  0.3353725E+00
         11   -1    0    0    0    0  0.00000000000E+00  0.00000000000E+00  0.39999999674E+01  0.40000000000E+01  0.51100000000E-03 0.  1.
    9000002   -1    0    0    0    0 -0.00000000000E+00 -0.00000000000E+00  0.00000000000E+00  0.93800000000E+00  0.93800000000E+00 0.  1.
         11    1    1    2    0    0 -0.27186811092E-03 -0.10258362325E-01  0.89471625933E-01  0.90059651776E-01  0.51100000000E-03 0.  1.
    9000002    1    1    2    0    0  0.22769171521E-01  0.48297767003E+00  0.15961492242E+00  0.10672894586E+01  0.93800000000E+00 0.  1.
         22    1    1    2    0    0 -0.22497303410E-01 -0.47271930770E+00  0.37509134190E+01  0.37806508897E+01  0.00000000000E+00 0.  1.
</event>
<event>
 5    1  0.3428566E+002  0.1594008E+01  0.7818608E-02  0.3359892E+00
         11   -1    0    0    0    0  0.00000000000E+00  0.00000000000E+00  0.39999999674E+01  0.40000000000E+01  0.51100000000E-03 0. -1.
    9000002   -1    0    0    0    0 -0.00000000000E+00 -0.00000000000E+00  0.00000000000E+00  0.93800000000E+00  0.93800000000E+00 0. -1.
         11    1    1    2    0    0 -0.15536250295E-01  0.58062772522E-02  0.36189856128E-01  0.39812745903E-01  0.51100000000E-03 0. -1.
    9000002    1    1    2    0    0 -0.15813102976E+00 -0.13742041064E+00  0.33347619696E-01  0.96168906387E+00  0.93800000000E+00 0. -1.
         22    1    1    2    0    0  0.17366728005E+00  0.13161413338E+00  0.39304624915E+01  0.39364981902E+01  0.00000000000E+00 0. -1.
</event>
<event>
 5    1  0.3428566E+002  0.1599473E+01  0.7818608E-02  0.3353936E+00
         11   -1    0    0    0    0  0.00000000000E+00  0.00000000000E+00  0.39999999674E+01  0.40000000000E+01  0.51100000000E-03 0. -1.
    9000002   -1    0    0    0    0 -0.00000000000E+00 -0.00000000000E+00  0.00000000000E+00  0.93800000000E+00  0.93800000000E+00 0. -1.
         11    1    1    2    0    0 -0.17798799518E-01 -0.52063967278E-02  0.23406193939E+00  0.23479598894E+00  0.51100000000E-03 0. -1.
    9000002    1    1    2    0    0  0.36526499757E+00 -0.31104812605E-01  0.90442957400E-01  0.10111428961E+01  0.93800000000E+00 0. -1.
         22    1    1    2    0    0 -0.34746619805E+00  0.36311209333E-01  0.36754950706E+01  0.36920611149E+01  0.00000000000E+00 0. -1.
</event>
<event>
 5    1  0.3428566E+002  0.1599499E+01  0.7818608E-02  0.3353908E+00
         11   -1    0    0    0    0  0.00000000000E+00  0.00000000000E+00  0.39999999674E+01  0.40000000000E+01  0.51100000000E-03 0.  1.
    9000002   -1    0    0    0    0 -0.00000000000E+00 -0.00000000000E+00  0.00000000000E+00  0.93800000000E+00  0.93800000000E+00 0. -1.
         11    1    1    2    0    0  0.51301674692E-01 -0.27732347690E-03  0.53709065175E+00  0.53953551139E+00  0.51100000000E-03 0.  1.
    9000002    1    1    2    0    0 -0.30011707933E+00 -0.25762925673E-01  0.60676282198E-01  0.98704589603E+00  0.93800000000E+00 0. -1.
         22    1    1    2    0    0  0.24881540464E+00  0.26040249150E-01  0.34022330334E+01  0.34114185926E+01  0.00000000000E+00 0.  1.
</event>
<event>
 5    1  0.3428566E+002  0.1536643E+01  0.7818608E-02  0.3425136E+00
         11   -1    0    0    0    0  0.00000000000E+00  0.00000000000E+00  0.39999999674E+01  0.40000000000E+01  0.51100000000E-03 0.  1.
    9000002   -1    0    0    0    0 -0.00000000000E+00 -0.00000000000E+00  0.00000000000E+00  0.93800000000E+00  0.93800000000E+00 0.  1.
         11    1    1    2    0    0  0.94005416872E-01 -0.11767604278E+00  0.27345481239E+00  0.31218979001E+00  0.51100000000E-03 0.  1.
    9000002    1    1    2    0    0  0.17466834703E-01 -0.11248679101E+00  0.56184651971E-01  0.94655115212E+00  0.93800000000E+00 0.  1.
         22    1    1    2    0    0 -0.11147225158E+00  0.23016283379E+00  0.36703605030E+01  0.36792590579E+01  0.00000000000E+00 0.  1.
</event>
<event>
 5    1  0.3428566E+002  0.1527637E+01  0.7818608E-02  0.3435854E+00
         11   -1    0    0    0    0  0.00000000000E+00  0.00000000000E+00  0.39999999674E+01  0.40000000000E+01  0.51100000000E-03 0.  1.
    9000002   -1    0    0    0    0 -0.00000000000E+00 -0.00000000000E+00  0.00000000000E+00  0.93800000000E+00  0.93800000000E+00 0. -1.
         11    1    1    2    0    0  0.91294904105E-01  0.13002275341E+00  0.30440984060E+00  0.34337485070E+00  0.51100000000E-03 0.  1.
    9000002    1    1    2    0    0  0.22747852253E+00  0.11400906108E+00  0.10037915659E+00  0.97706935235E+00  0.93800000000E+00 0. -1.
         22    1    1    2    0    0 -0.31877342663E+00 -0.24403181448E+00  0.35952109702E+01  0.36175557970E+01  0.00000000000E+00 0.  1.
</event>
<event>
 5    1  0.3428566E+002  0.1567402E+01  0.7818608E-02  0.3389523E+00
         11   -1    0    0    0    0  0.00000000000E+00  0.00000000000E+00  0.39999999674E+01  0.40000000000E+01  0.51100000000E-03 0.  1.
    9000002   -1    0    0    0    0 -0.00000000000E+00 -0.00000000000E+00  0.00000000000E+00  0.93800000000E+00  0.93800000000E+00 0. -1.
         11    1    1    2    0    0  0.65367604446E-01 -0.48996451169E-01  0.14340979332E+00  0.16504607199E+00  0.51100000000E-03 0.  1.
    9000002    1    1    2    0    0  0.12908837325E+00  0.10338746731E+00  0.42388754316E-01  0.95341154965E+00  0.93800000000E+00 0. -1.
         22    1    1    2    0    0 -0.19445597770E+00 -0.54391016137E-01  0.38142014197E+01  0.38195423784E+01  0.00000000000E+00 0.  1.
</event>
<event>
 5    1  0.3428566E+002  0.1599560E+01  0.7818608E-02  0.3353841E+00
         11   -1    0    0    0    0  0.00000000000E+00  0.00000000000E+00  0.39999999674E+01  0.40000000000E+01  0.51100000000E-03 0.  1.
    9000002   -1    0    0    0    0 -0.00000000000E+00 -0.00000000000E+00  0.00000000000E+00  0.93800000000E+00  0.93800000000E+00 0. -1.
         11    1    1    2    0    0 -0.32045143487E-01  0.51205722392E-02  0.39094369078E+00  0.39228859525E+00  0.51100000000E-03 0.  1.
    9000002    1    1    2    0    0  0.27115366123E+00 -0.11032350409E+00  0.57221746368E-01  0.98428345095E+00  0.93800000000E+00 0. -1.
         22    1    1    2    0    0 -0.23910851774E+00  0.10520293185E+00  0.35518345302E+01  0.35614279538E+01  0.00000000000E+00 0.  1.
</event>
<event>
 5    1  0.3428566E+002  0.1574648E+01  0.7818608E-02  0.3381348E+00
         11   -1    0    0    0    0  0.00000000000E+00  0.00000000000E+00  0.39999999674E+01  0.40000000000E+01  0.51100000000E-03 0. -1.
    9000002   -1    0    0    0    0 -0.00000000000E+00 -0.00000000000E+00  0.00000000000E+00  0.93800000000E+00  0.93800000000E+00 0.  1.
         11    1    1    2    0    0  0.51367294312E-01 -0.69017263583E-01  0.15238611642E+01  0.15262880103E+01  0.51100000000E-03 0. -1.
    9000002    1    1    2    0    0  0.33061352391E+00  0.60789278005E-01  0.95918359611E-01  0.10010219629E+01  0.93800000000E+00 0.  1.
         22    1    1    2    0    0 -0.38198081823E+00  0.82279855787E-02  0.23802204435E+01  0.24106900267E+01  0.00000000000E+00 0. -1.
</event>
<event>
 5    1  0.3428566E+002  0.1598904E+01  0.7818608E-02  0.3354553E+00
         11   -1    0    0    0    0  0.00000000000E+00  0.00000000000E+00  0.39999999674E+01  0.40000000000E+01  0.51100000000E-03 0. -1.
    9000002   -1    0    0    0    0 -0.00000000000E+00 -0.00000000000E+00  0.00000000000E+00  0.93800000000E+00  0.93800000000E+00 0. -1.
         11    1    1    2    0    0  0.27041737541E-01  0.51009115164E-01  0.10744880832E+01  0.10760381440E+01  0.51100000000E-03 0. -1.
    9000002    1    1    2    0    0 -0.86636676821E-01 -0.29552988504E+00  0.63926642929E-01  0.98933029995E+00  0.93800000000E+00 0. -1.
         22    1    1    2    0    0  0.59594939280E-01  0.24452076987E+00  0.28615852412E+01  0.28726315560E+01  0.00000000000E+00 0. -1.
</event>
<event>
 5    1  0.3428566E+002  0.1592466E+01  0.7818608E-02  0.3361581E+00
         11   -1    0    0    0    0  0.00000000000E+00  0.00000000000E+00  0.39999999674E+01  0.40000000000E+01  0.51100000000E-03 0.  1.
    9000002   -1    0    0    0    0 -0.00000000000E+00 -0.00000000000E+00  0.00000000000E+00  0.93800000000E+00  0.93800000000E+00 0.  1.
         11    1    1    2    0    0  0.35774447491E+00  0.18108210378E+00  0.22937490871E+01  0.23285310763E+01  0.51100000000E-03 0.  1.
    9000002    1    1    2    0    0 -0.58440258969E+00 -0.43960215525E+00  0.39402020311E+00  0.12529454746E+01  0.93800000000E+00 0.  1.
         22    1    1    2    0    0  0.22665811478E+00  0.25852005147E+00  0.13122306772E+01  0.13565234492E+01  0.00000000000E+00 0.  1.
</event>
<event>
 5    1  0.3428566E+002  0.1599272E+01  0.7818608E-02  0.3354154E+00
         11   -1    0    0    0    0  0.00000000000E+00  0.00000000000E+00  0.39999999674E+01  0.40000000000E+01  0.51100000000E-03 0. -1.
    9000002   -1    0    0    0    0 -0.00000000000E+00 -0.00000000000E+00  0.00000000000E+00  0.93800000000E+00  0.93800000000E+00 0.  1.
         11    1    1    2    0    0  0.10183153589E+00  0.71902300555E-01  0.13063404134E+01  0.13122747957E+01  0.51100000000E-03 0. -1.
    9000002    1    1    2    0    0 -0.27193922868E+00 -0.27486806921E+00  0.10100756200E+00  0.10195832125E+01  0.93800000000E+00 0.  1.
         22    1    1    2    0    0  0.17010769279E+00  0.20296576865E+00  0.25926519920E+01  0.26061419919E+01  0.00000000000E+00 0. -1.
</event>
<event>
 5    1  0.3428566E+002  0.1589143E+01  0.7818608E-02  0.3365232E+00
         11   -1    0    0    0    0  0.00000000000E+00  0.00000000000E+00  0.39999999674E+01  0.40000000000E+01  0.51100000000E-03 0.  1.
    9000002   -1    0    0    0    0 -0.00000000000E+00 -0.00000000000E+00  0.00000000000E+00  0.93800000000E+00  0.93800000000E+00 0. -1.
         11    1    1    2    0    0  0.22832484677E-01 -0.62875871504E-01  0.49477993251E+00  0.49928162425E+00  0.51100000000E-03 0.  1.
    9000002    1    1    2    0    0  0.13559112117E+00 -0.67430253271E-01  0.22960683890E-01  0.95042252930E+00  0.93800000000E+00 0. -1.
         22    1    1    2    0    0 -0.15842360584E+00  0.13030612478E+00  0.34822593510E+01  0.34882958465E+01  0.00000000000E+00 0.  1.
</event>
<event>
 5    1  0.3428566E+002  0.1599633E+01  0.7818608E-02  0.3353762E+00
         11   -1    0    0    0    0  0.00000000000E+00  0.00000000000E+00  0.39999999674E+01  0.40000000000E+01  0.51100000000E-03 0. -1.
    9000002   -1    0    0    0    0 -0.00000000000E+00 -0.00000000000E+00  0.00000000000E+00  0.93800000000E+00  0.93800000000E+00 0. -1.
         11    1    1    2    0    0  0.19413759951E-02 -0.68479553372E-02  0.18198404609E+00  0.18212390723E+00  0.51100000000E-03 0. -1.
    9000002    1    1    2    0    0 -0.97105641497E-01  0.19599693733E+00  0.31744507208E-01  0.96368875618E+00  0.93800000000E+00 0. -1.
         22    1    1    2    0    0  0.95164265502E-01 -0.18914898200E+00  0.37862714141E+01  0.37921873366E+01  0.00000000000E+00 0. -1.
</event>
<event>
 5    1  0.3428566E+002  0.1573939E+01  0.7818608E-02  0.3382144E+00
         11   -1    0    0    0    0  0.00000000000E+00  0.00000000000E+00  0.39999999674E+01  0.40000000000E+01  0.51100000000E-03 0. -1.
    9000002   -1    0    0    0    0 -0.00000000000E+00 -0.00000000000E+00  0.00000000000E+00  0.93800000000E+00  0.93800000000E+00 0.  1.
         11    1    1    2    0    0 -0.41710962422E-01  0.10627631024E+00  0.31496408868E+00  0.33501805442E+00  0.51100000000E-03 0. -1.
    9000002    1    1    2    0    0  0.35754276595E+00 -0.46596890726E-02  0.10692526543E+00  0.10095224389E+01  0.93800000000E+00 0.  1.
         22    1    1    2    0    0 -0.31583180353E+00 -0.10161662117E+00  0.35781106132E+01  0.35934595067E+01  0.00000000000E+00 0. -1.
</event>
<event>
 5    1  0.3428566E+002  0.1599677E+01  0.7818608E-02  0.3353715E+00
         11   -1    0    0    0    0  0.00000000000E+00  0.00000000000E+00  0.39999999674E+01  0.40000000000E+01  0.51100000000E-03 0.  1.
    9000002   -1    0    0    0    0 -0.00000000000E+00 -0.00000000000E+00  0.00000000000E+00  0.93800000000E+00  0.93800000000E+00 0. -1.
         11    1    1    2    0    0  0.25501884054E+00  0.40131005492E+00  0.23241555876E+01  0.23722950545E+01  0.51100000000E-03 0.  1.
    9000002    1    1    2    0    0 -0.39496671584E+00 -0.62201521406E+00  0.39202891193E+00  0.12555605525E+01  0.93800000000E+00 0. -1.
         22    1    1    2    0    0  0.13994787531E+00  0.22070515914E+00  0.12838154678E+01  0.13101443930E+01  0.00000000000E+00 0.  1.
</event>
<event>
 5    1  0.3428566E+002  0.1582646E+01  0.7818608E-02  0.3372417E+00
         11   -1    0    0    0    0  0.00000000000E+00  0.00000000000E+00  0.39999999674E+01  0.40000000000E+01  0.51100000000E-03 0. -1.
    9000002   -1    0    0    0    0 -0.00000000000E+00 -0.00000000000E+00  0.00000000000E+00  0.93800000000E+00  0.93800000000E+00 0. -1.
         11    1    1    2    0    0 -0.46082576222E-01  0.19524956018E+00  0.66628384922E+00  0.69583074338E+00  0.51100000000E-03 0. -1.
    9000002    1    1    2    0    0  0.16730866168E+00 -0.43425437008E+00  0.16247862647E+00  0.10596284020E+01  0.93800000000E+00 0. -1.
         22    1    1    2    0    0 -0.12122608546E+00  0.23900480990E+00  0.31712374917E+01  0.31825408546E+01  0.00000000000E+00 0. -1.
</event>
<event>
 5    1  0.3428566E+002  0.1599669E+01  0.7818608E-02  0.3353723E+00
         11   -1    0    0    0    0  0.00000000000E+00  0.00000000000E+00  0.39999999674E+01  0.40000000000E+01  0.51100000000E-03 0.  1.
    9000002   -1    0    0    0    0 -0.00000000000E+00 -0.00000000000E+00  0.00000000000E+00  0.93800000000E+00  0.93800000000E+00 0. -1.
         11    1    1    2    0    0 -0.14493531573E-01  0.24954882212E-02  0.23630089482E+00  0.23675866179E+00  0.51100000000E-03 0.  1.
    9000002    1    1    2    0    0  0.22193257294E+00 -0.27103065143E-01  0.33149627425E-01  0.96484793666E+00  0.93800000000E+00 0. -1.
         22    1    1    2    0    0 -0.20743904136E+00  0.24607576922E-01  0.37305494451E+01  0.37363934016E+01  0.00000000000E+00 0.  1.
</event>
<event>
 5    1  0.3428566E+002  0.1599677E+01  0.7818608E-02  0.3353714E+00
         11   -1    0    0    0    0  0.00000000000E+00  0.00000000000E+00  0.39999999674E+01  0.40000000000E+01  0.51100000000E-03 0. -1.
    9000002   -1    0    0    0    0 -0.00000000000E+00 -0.00000000000E+00  0.00000000000E+00  0.93800000000E+00  0.93800000000E+00 0.  1.
         11    1    1    2    0    0  0.22911655943E-01  0.64730898105E-01  0.92091387773E+00  0.92347044591E+00  0.51100000000E-03 0. -1.
    9000002    1    1    2    0    0 -0.96719851807E-01 -0.27927591055E+00  0.58248467963E-01  0.98518356055E+00  0.93800000000E+00 0.  1.
         22    1    1    2    0    0  0.73808195864E-01  0.21454501245E+00  0.30208376217E+01  0.30293459935E+01  0.00000000000E+00 0. -1.
</event>
<event>
 5    1  0.3428566E+002  0.1599666E+01  0.7818608E-02  0.3353726E+00
         11   -1    0    0    0    0  0.00000000000E+00  0.00000000000E+00  0.39999999674E+01  0.40000000000E+01  0.51100000000E-03 0.  1.
    9000002   -1    0    0    0    0 -0.00000000000E+00 -0.00000000000E+00  0.00000000000E+00  0.93800000000E+00  0.93800000000E+00 0.  1.
         11    1    1    2    0    0 -0.37643231275E+00 -0.91179860429E-01  0.23274609040E+01  0.23594680701E+01  0.51100000000E-03 0.  1.
    9000002    1    1    2    0    0  0.59783551841E+00  0.14796877407E+00  0.26556629171E+00  0.11531138367E+01  0.93800000000E+00 0.  1.
         22    1    1    2    0    0 -0.22140320566E+00 -0.56788913637E-01  0.14069727717E+01  0.14254180932E+01  0.00000000000E+00 0. -1.
</event>
<event>
 5    1  0.3428566E+002  0.1576344E+01  0.7818608E-02  0.3379446E+00
         11   -1    0    0    0    0  0.00000000000E+00  0.00000000000E+00  0.39999999674E+01  0.40000000000E+01  0.51100000000E-03 0.  1.
    9000002   -1    0    0    0    0 -0.00000000000E+00 -0.00000000000E+00  0.00000000000E+00  0.93800000000E+00  0.93800000000E+00 0. -1.
         11    1    1    2    0    0 -0.40609835519E+00 -0.17210864856E+00  0.30127323510E+01  0.30448470801E+01  0.51100000000E-03 0.  1.
    9000002    1    1    2    0    0  0.61588707082E+00  0.75849255060E-01  0.29400798015E+00  0.11624778217E+01  0.93800000000E+00 0. -1.
         22    1    1    2    0    0 -0.20978871563E+00  0.96259393498E-01  0.69325963618E+00  0.73067509825E+00  0.00000000000E+00 0.  1.
</event>
<event>
 5    1  0.3428566E+002  0.1455094E+01  0.7818608E-02  0.3527403E+00
         11   -1    0    0    0    0  0.00000000000E+00  0.00000000000E+00  0.39999999674E+01  0.40000000000E+01  0.51100000000E-03 0. -1.
    9000002   -1    0    0    0    0 -0.00000000000E+00 -0.00000000000E+00  0.00000000000E+00  0.93800000000E+00  0.93800000000E+00 0.  1.
         11    1    1    2    0    0  0.10533897901E+00  0.15291188771E+00  0.13788652884E+00  0.23128186669E+00  0.51100000000E-03 0. -1.
    9000002    1    1    2    0    0  0.11944666990E+00  0.12838580873E+00  0.13675731999E+00  0.96400051214E+00  0.93800000000E+00 0.  1.
         22    1    1    2    0    0 -0.22478564891E+00 -0.28129769644E+00  0.37253561185E+01  0.37427176212E+01  0.00000000000E+00 0. -1.
</event>
<event>
 5    1  0.3428566E+002  0.1598209E+01  0.7818608E-02  0.3355310E+00
         11   -1    0    0    0    0  0.00000000000E+00  0.00000000000E+00  0.39999999674E+01  0.40000000000E+01  0.51100000000E-03 0.  1.
    9000002   -1    0    0    0    0 -0.00000000000E+00 -0.00000000000E+00  0.00000000000E+00  0.93800000000E+00  0.93800000000E+00 0.  1.
         11    1    1    2    0    0  0.37157472301E-01  0.15540276211E+00  0.11595110015E+01  0.11704685899E+01  0.51100000000E-03 0.  1.
    9000002    1    1    2    0    0  0.74055662556E-02 -0.55919281829E+00  0.21780108535E+00  0.11135675836E+01  0.93800000000E+00 0.  1.
         22    1    1    2    0    0 -0.44563038557E-01  0.40379005618E+00  0.26226878805E+01  0.26539638265E+01  0.00000000000E+00 0.  1.
</event>
<event>
 5    1  0.3428566E+002  0.1599670E+01  0.7818608E-02  0.3353721E+00
         11   -1    0    0    0    0  0.00000000000E+00  0.00000000000E+00  0.39999999674E+01  0.40000000000E+01  0.51100000000E-03 0.  1.
    9000002   -1    0    0    0    0 -0.00000000000E+00 -0.00000000000E+00  0.00000000000E+00  0.93800000000E+00  0.93800000000E+00 0.  1.
         11    1    1    2    0    0  0.18989368846E+00  0.55751683794E-01  0.17654953673E+01  0.17765534094E+01  0.51100000000E-03 0.  1.
    9000002    1    1    2    0    0 -0.41042338552E+00 -0.12466341478E+00  0.12459084167E+00  0.10389202088E+01  0.93800000000E+00 0.  1.
         22    1    1    2    0    0  0.22052969706E+00  0.68911730986E-01  0.21099137584E+01  0.21225263819E+01  0.00000000000E+00 0. -1.
</event>
<event>
 5    1  0.3428566E+002  0.1599623E+01  0.7818608E-02  0.3353773E+00
         11   -1    0    0    0    0  0.00000000000E+00  0.00000000000E+00  0.39999999674E+01  0.40000000000E+01  0.51100000000E-03 0. -1.
    9000002   -1    0    0    0    0 -0.00000000000E+00 -0.00000000000E+00  0.00000000000E+00  0.93800000000E+00  0.93800000000E+00 0.  1.
         11    1    1    2    0    0  0.57125367902E-01  0.43374844008E-01  0.85050332087E+00  0.85352260935E+00  0.51100000000E-03 0. -1.
    9000002    1    1    2    0    0 -0.23501015025E+00 -0.21754201110E+00  0.68591809561E-01  0.99353064052E+00  0.93800000000E+00 0.  1.
         22    1    1    2    0    0  0.17788478235E+00  0.17416716709E+00  0.30809048369E+01  0.30909467501E+01  0.00000000000E+00 0. -1.
</event>
<event>
 5    1  0.3428566E+002  0.1599668E+01  0.7818608E-02  0.3353724E+00
         11   -1    0    0    0    0  0.00000000000E+00  0.00000000000E+00  0.39999999674E+01  0.40000000000E+01  0.51100000000E-03 0. -1.
    9000002   -1    0    0    0    0 -0.00000000000E+00 -0.00000000000E+00  0.00000000000E+00  0.93800000000E+00  0.93800000000E+00 0. -1.
         11    1    1    2    0    0 -0.13665716584E+00 -0.58582497823E-01  0.14152719993E+01  0.14230608501E+01  0.51100000000E-03 0. -1.
    9000002    1    1    2    0    0  0.38413036610E+00  0.16286001428E+00  0.11769405628E+00  0.10333321892E+01  0.93800000000E+00 0. -1.
         22    1    1    2    0    0 -0.24747320026E+00 -0.10427751645E+00  0.24670339117E+01  0.24816069606E+01  0.00000000000E+00 0. -1.
</event>
<event>
 5    1  0.3428566E+002  0.1599153E+01  0.7818608E-02  0.3354284E+00
         11   -1    0    0    0    0  0.00000000000E+00  0.00000000000E+00  0.39999999674E+01  0.40000000000E+01  0.51100000000E-03 0. -1.
    9000002   -1    0    0    0    0 -0.00000000000E+00 -0.00000000000E+00  0.00000000000E+00  0.93800000000E+00  0.93800000000E+00 0. -1.
         11    1    1    2    0    0  0.15868521480E-01  0.69839701747E-01  0.63181870546E+00  0.63586518351E+00  0.51100000000E-03 0. -1.
    9000002    1    1    2    0    0 -0.53678672107E-02 -0.50748151488E+00  0.17701881405E+00  0.10810855482E+01  0.93800000000E+00 0. -1.
         22    1    1    2    0    0 -0.10500654269E-01  0.43764181314E+00  0.31911624478E+01  0.32210492683E+01  0.00000000000E+00 0. -1.
</event>
<event>
 5    1  0.3428566E+002  0.1596827E+01  0.7818608E-02  0.3356815E+00
         11   -1    0    0    0    0  0.00000000000E+00  0.00000000000E+00  0.39999999674E+01  0.40000000000E+01  0.51100000000E-03 0.  1.
    9000002   -1    0    0    0    0 -0.00000000000E+00 -0.00000000000E+00  0.00000000000E+00  0.93800000000E+00  0.93800000000E+00 0. -1.
         11    1    1    2    0    0 -0.38070346943E-02  0.12765748297E-01  0.30600464418E-01  0.33378247203E-01  0.51100000000E-03 0.  1.
    9000002    1    1    2    0    0  0.15280433190E+00 -0.19460912853E+00  0.42840037790E-01  0.97103097046E+00  0.93800000000E+00 0. -1.
         22    1    1    2    0    0 -0.14899729721E+00  0.18184338023E+00  0.39265594652E+01  0.39335907823E+01  0.00000000000E+00 0.  1.
</event>
<event>
 5    1  0.3428566E+002  0.1578906E+01  0.7818608E-02  0.3376581E+00
         11   -1    0    0    0    0  0.00000000000E+00  0.00000000000E+00  0.39999999674E+01  0.40000000000E+01  0.51100000000E-03 0. -1.
    9000002   -1    0    0    0    0 -0.00000000000E+00 -0.00000000000E+00  0.00000000000E+00  0.93800000000E+00  0.93800000000E+00 0. -1.
         11    1    1    2    0    0 -0.34736035338E+00  0.43654847319E+00  0.18155359908E+01  0.18993169771E+01  0.51100000000E-03 0. -1.
    9000002    1    1    2    0    0  0.66197799347E+00 -0.49883754478E+00  0.54005513477E+00  0.13632891507E+01  0.93800000000E+00 0. -1.
         22    1    1    2    0    0 -0.31461764009E+00  0.62289071596E-01  0.16444088418E+01  0.16753938721E+01  0.00000000000E+00 0. -1.
</event>
<event>
 5    1  0.3428566E+002  0.1599677E+01  0.7818608E-02  0.3353714E+00
         11   -1    0    0    0    0  0.00000000000E+00  0.00000000000E+00  0.39999999674E+01  0.40000000000E+01  0.51100000000E-03 0. -1.
    9000002   -1    0    0    0    0 -0.00000000000E+00 -0.00000000000E+00  0.00000000000E+00  0.93800000000E+00  0.93800000000E+00 0. -1.
         11    1    1    2    0    0  0.19002948137E+00 -0.12470910117E+00  0.20459810605E+01  0.20585680277E+01  0.51100000000E-03 0. -1.
    9000002    1    1    2    0    0 -0.36018428083E+00  0.23624286284E+00  0.12566995284E+00  0.10397982225E+01  0.93800000000E+00 0. -1.
         22    1    1    2    0    0  0.17015479946E+00 -0.11153376167E+00  0.18283489540E+01  0.18396337498E+01  0.00000000000E+00 0. -1.
</event>
<event>
 5    1  0.3428566E+002  0.1586525E+01  0.7818608E-02  0.3368119E+00
         11   -1    0    0    0    0  0.00000000000E+00  0.00000000000E+00  0.39999999674E+01  0.40000000000E+01  0.51100000000E-03 0. -1.
    9000002   -1    0    0    0    0 -0.00000000000E+00 -0.00000000000E+00  0.00000000000E+00  0.93800000000E+00  0.93800000000E+00 0. -1.
         11    1    1    2    0    0  0.62109709127E-01 -0.41482044817E-02  0.43834857646E+00  0.44274660831E+00  0.51100000000E-03 0. -1.
    9000002    1    1    2    0    0  0.21573145471E+00 -0.58011437241E-01  0.43095788443E-01  0.96519771777E+00  0.93800000000E+00 0. -1.
         22    1    1    2    0    0 -0.27784116384E+00  0.62159641723E-01  0.35185556025E+01  0.35300556739E+01  0.00000000000E+00 0. -1.
</event>
<event>
 5    1  0.3428566E+002  0.1599676E+01  0.7818608E-02  0.3353715E+00
         11   -1    0    0    0    0  0.00000000000E+00  0.00000000000E+00  0.39999999674E+01  0.40000000000E+01  0.51100000000E-03 0. -1.
    9000002   -1    0    0    0    0 -0.00000000000E+00 -0.00000000000E+00  0.00000000000E+00  0.93800000000E+00  0.93800000000E+00 0. -1.
         11    1    1    2    0    0  0.32285474115E-01 -0.28576387235E-01  0.44163346779E+00  0.44373341404E+00  0.51100000000E-03 0. -1.
    9000002    1    1    2    0    0 -0.28892404428E+00  0.25068113556E+00  0.98479345807E-01  0.10177722322E+01  0.93800000000E+00 0. -1.
         22    1    1    2    0    0  0.25663857016E+00 -0.22210474832E+00  0.34598871538E+01  0.34764943538E+01  0.00000000000E+00 0. -1.
</event>
<event>
 5    1  0.3428566E+002  0.1581678E+01  0.7818608E-02  0.3373493E+00
         11   -1    0    0    0    0  0.00000000000E+00  0.00000000000E+00  0.39999999674E+01  0.40000000000E+01  0.51100000000E-03 0.  1.
    9000002   -1    0    0    0    0 -0.00000000000E+00 -0.00000000000E+00  0.00000000000E+00  0.93800000000E+00  0.93800000000E+00 0.  1.
         11    1    1    2    0    0 -0.24415359774E-02 -0.71236987288E-01  0.29942610373E+00  0.30779363569E+00  0.51100000000E-03 0.  1.
    9000002    1    1    2    0    0  0.32539832203E-02 -0.18993728354E+00  0.37441216304E-01  0.95777481944E+00  0.93800000000E+00 0.  1.
         22    1    1    2    0    0 -0.81244724296E-03  0.26117427082E+00  0.36631326473E+01  0.36724315449E+01  0.00000000000E+00 0.  1.
</event>
<event>
 5    1  0.3428566E+002  0.1599649E+01  0.7818608E-02  0.3353745E+00
         11   -1    0    0    0    0  0.00000000000E+00  0.00000000000E+00  0.39999999674E+01  0.40000000000E+01  0.51100000000E-03 0. -1.
    9000002   -1    0    0    0    0 -0.00000000000E+00 -0.00000000000E+00  0.00000000000E+00  0.93800000000E+00  0.93800000000E+00 0.  1.
         11    1    1    2    0    0  0.28776113311E-01 -0.29298962354E-01  0.63032308888E+00  0.63165968004E+00  0.51100000000E-03 0. -1.
    9000002    1    1    2    0    0 -0.16177210567E+00  0.20638613950E+00  0.45745929503E-01  0.97503955962E+00  0.93800000000E+00 0.  1.
         22    1    1    2    0    0  0.13299599236E+00 -0.17708717715E+00  0.33239309490E+01  0.33313007603E+01  0.00000000000E+00 0. -1.
</event>
<event>
 5    1  0.3428566E+002  0.1599674E+01  0.7818608E-02  0.3353718E+00
         11   -1    0    0    0    0  0.00000000000E+00  0.00000000000E+00  0.39999999674E+01  0.40000000000E+01  0.51100000000E-03 0. -1.
    9000002   -1    0    0    0    0 -0.00000000000E+00 -0.00000000000E+00  0.00000000000E+00  0.93800000000E+00  0.93800000000E+00 0. -1.
         11    1    1    2    0    0  0.15693820365E+00 -0.82880445377E-01  0.13826695301E+01  0.13940136508E+01  0.51100000000E-03 0. -1.
    9000002    1    1    2    0    0 -0.43789978872E+00  0.22461257013E+00  0.16559096688E+00  0.10721340401E+01  0.93800000000E+00 0. -1.
         22    1    1    2    0    0  0.28096158508E+00 -0.14173212475E+00  0.24517394703E+01  0.24718523091E+01  0.00000000000E+00 0. -1.
</event>
<event>
 5    1  0.3428566E+002  0.1599387E+01  0.7818608E-02  0.3354029E+00
         11   -1    0    0    0    0  0.00000000000E+00  0.00000000000E+00  0.39999999674E+01  0.40000000000E+01  0.51100000000E-03 0.  1.
    9000002   -1    0    0    0    0 -0.00000000000E+00 -0.00000000000E+00  0.00000000000E+00  0.93800000000E+00  0.93800000000E+00 0. -1.
         11    1    1    2    0    0 -0.18374103078E-02 -0.22058320398E-01  0.17992763821E+00  0.18128475305E+00  0.51100000000E-03 0.  1.
    9000002    1    1    2    0    0  0.27908382364E-01  0.29557418034E+00  0.59010946374E-01  0.98563140457E+00  0.93800000000E+00 0. -1.
         22    1    1    2    0    0 -0.26070972056E-01 -0.27351585994E+00  0.37610613828E+01  0.37710838424E+01  0.00000000000E+00 0.  1.
</event>
<event>
 5    1  0.3428566E+002  0.1587339E+01  0.7818608E-02  0.3367221E+00
         11   -1    0    0    0    0  0.00000000000E+00  0.00000000000E+00  0.39999999674E+01  0.40000000000E+01  0.51100000000E-03 0.  1.
    9000002   -1    0    0    0    0 -0.00000000000E+00 -0.00000000000E+00  0.00000000000E+00  0.93800000000E+00  0.93800000000E+00 0.  1.
         11    1    1    2    0    0 -0.73268848291E-01 -0.32687945878E-01  0.96911395994E+00  0.97242940844E+00  0.51100000000E-03 0.  1.
    9000002    1    1    2    0    0 -0.91535721146E-03 -0.22741599182E+00  0.43699425289E-01  0.96616381167E+00  0.93800000000E+00 0.  1.
         22    1    1    2    0    0  0.74184205503E-01  0.26010393769E+00  0.29871865821E+01  0.29994067799E+01  0.00000000000E+00 0.  1.
</event>
<event>
 5    1  0.3428566E+002  0.1599672E+01  0.7818608E-02  0.3353719E+00
         11   -1    0    0    0    0  0.00000000000E+00  0.00000000000E+00  0.39999999674E+01  0.40000000000E+01  0.51100000000E-03 0. -1.
    9000002   -1    0    0    0    0 -0.00000000000E+00 -0.00000000000E+00  0.00000000000E+00  0.93800000000E+00  0.93800000000E+00 0. -1.
         11    1    1    2    0    0 -0.11000170659E-01 -0.94355316972E-01  0.84864177473E+00  0.85394206626E+00  0.51100000000E-03 0. -1.
    9000002    1    1    2    0    0  0.40664608834E-01  0.43282663485E+00  0.12808193141E+00  0.10417492440E+01  0.93800000000E+00 0. -1.
         22    1    1    2    0    0 -0.29664438175E-01 -0.33847131788E+00  0.30232762612E+01  0.30423086897E+01  0.00000000000E+00 0. -1.
</event>
<event>
 5    1  0.3428566E+002  0.1588232E+01  0.7818608E-02  0.3366236E+00
         11   -1    0    0    0    0  0.00000000000E+00  0.00000000000E+00  0.39999999674E+01  0.40000000000E+01  0.51100000000E-03 0. -1.
    9000002   -1    0    0    0    0 -0.00000000000E+00 -0.00000000000E+00  0.00000000000E+00  0.93800000000E+00  0.93800000000E+00 0.  1.
         11    1    1    2    0    0 -0.62804611264E-01 -0.28473042553E-01  0.48128753667E+00  0.48620272256E+00  0.51100000000E-03 0. -1.
    9000002    1    1    2    0    0 -0.23448995364E-01 -0.19898448898E+00  0.35204915191E-01  0.95980626602E+00  0.93800000000E+00 0.  1.
         22    1    1    2    0    0  0.86253606628E-01  0.22745753154E+00  0.34835075155E+01  0.34919910114E+01  0.00000000000E+00 0. -1.
</event>
<event>
 5    1  0.3428566E+002  0.1599669E+01  0.7818608E-02  0.3353723E+00
         11   -1    0    0    0    0  0.00000000000E+00  0.00000000000E+00  0.39999999674E+01  0.40000000000E+01  0.51100000000E-03 0. -1.
    9000002   -1    0    0    0    0 -0.00000000000E+00 -0.00000000000E+00  0.00000000000E+00  0.93800000000E+00  0.93800000000E+00 0.  1.
         11    1    1    2    0    0 -0.27584105267E+00 -0.41990134054E-01  0.20831353587E+01  0.21017384807E+01  0.51100000000E-03 0. -1.
    9000002    1    1    2    0    0  0.50909592684E+00  0.82083882363E-01  0.18253115612E+00  0.10858536040E+01  0.93800000000E+00 0.  1.
         22    1    1    2    0    0 -0.23325487417E+00 -0.40093748309E-01  0.17343334525E+01  0.17504079152E+01  0.00000000000E+00 0. -1.
</event>
<event>
 5    1  0.3428566E+002  0.1599275E+01  0.7818608E-02  0.3354151E+00
         11   -1    0    0    0    0  0.00000000000E+00  0.00000000000E+00  0.39999999674E+01  0.40000000000E+01  0.51100000000E-03 0.  1.
    9000002   -1    0    0    0    0 -0.00000000000E+00 -0.00000000000E+00  0.00000000000E+00  0.93800000000E+00  0.93800000000E+00 0.  1.
         11    1    1    2    0    0 -0.63985916640E+00 -0.15804913245E+00  0.25236112372E+01  0.26082586565E+01  0.51100000000E-03 0.  1.
    9000002    1    1    2    0    0  0.85711970079E+00  0.18647920333E+00  0.58389907917E+00  0.14107483154E+01  0.93800000000E+00 0.  1.
         22    1    1    2    0    0 -0.21726053439E+00 -0.28430070886E-01  0.89248965094E+00  0.91899302814E+00  0.00000000000E+00 0.  1.
</event>
<event>
 5    1  0.3428566E+002  0.1599677E+01  0.7818608E-02  0.3353714E+00
         11   -1    0    0    0    0  0.00000000000E+00  0.00000000000E+00  0.39999999674E+01  0.40000000000E+01  0.51100000000E-03 0.  1.
    9000002   -1    0    0    0    0 -0.00000000000E+00 -0.00000000000E+00  0.00000000000E+00  0.93800000000E+00  0.93800000000E+00 0. -1.
         11    1    1    2    0    0 -0.65499838959E-01  0.11045774327E+00  0.15234077122E+01  0.15288107995E+01  0.51100000000E-03 0.  1.
    9000002    1    1    2    0    0  0.16749740589E+00 -0.28461494093E+00  0.72972534405E-01  0.99711084457E+00  0.93800000000E+00 0. -1.
         22    1    1    2    0    0 -0.10199756693E+00  0.17415719765E+00  0.24036197207E+01  0.24120783559E+01  0.00000000000E+00 0.  1.
</event>
<event>
 5    1  0.3428566E+002  0.1370683E+01  0.7818608E-02  0.3655049E+00
         11   -1    0    0    0    0  0.00000000000E+00  0.00000000000E+00  0.39999999674E+01  0.40000000000E+01  0.51100000000E-03 0. -1.
    9000002   -1    0    0    0    0 -0.00000000000E+00 -0.00000000000E+00  0.00000000000E+00  0.93800000000E+00  0.93800000000E+00 0. -1.
         11    1    1    2    0    0 -0.14792751445E+00 -0.68183085865E+00  0.27439784829E+01  0.28312884072E+01  0.51100000000E-03 0. -1.
    9000002    1    1    2    0    0  0.43535699264E+00  0.29712515117E+00  0.44533973474E+00  0.11644700708E+01  0.93800000000E+00 0. -1.
         22    1    1    2    0    0 -0.28742947819E+00  0.38470570748E+00  0.81068174973E+00  0.94224152193E+00  0.00000000000E+00 0. -1.
</event>
<event>
 5    1  0.3428566E+002  0.1598567E+01  0.7818608E-02  0.3354920E+00
         11   -1    0    0    0    0  0.00000000000E+00  0.00000000000E+00  0.39999999674E+01  0.40000000000E+01  0.51100000000E-03 0.  1.
    9000002   -1    0    0    0    0 -0.00000000000E+00 -0.00000000000E+00  0.00000000000E+00  0.93800000000E+00  0.93800000000E+00 0. -1.
         11    1    1    2    0    0 -0.55222499660E+00  0.42353137232E+00  0.23302569296E+01  0.24319598865E+01  0.51100000000E-03 0.  1.
    9000002    1    1    2    0    0  0.73085402636E+00 -0.59357401360E+00  0.69342179593E+00  0.14990515350E+01  0.93800000000E+00 0. -1.
         22    1    1    2    0    0 -0.17862902976E+00  0.17004264128E+00  0.97632124179E+00  0.10069885785E+01  0.00000000000E+00 0.  1.
</event>
<event>
 5    1  0.3428566E+002  0.1599609E+01  0.7818608E-02  0.3353788E+00
         11   -1    0    0    0    0  0.00000000000E+00  0.00000000000E+00  0.39999999674E+01  0.40000000000E+01  0.51100000000E-03 0.  1.
    9000002   -1    0    0    0    0 -0.00000000000E+00 -0.00000000000E+00  0.00000000000E+00  0.93800000000E+00  0.93800000000E+00 0.  1.
         11    1    1    2    0    0 -0.23414467744E-01  0.59535682438E-02  0.44324193052E+00  0.44390016035E+00  0.51100000000E-03 0.  1.
    9000002    1    1    2    0    0  0.25073147909E+00 -0.15892118775E-01  0.41985342775E-01  0.97196995996E+00  0.93800000000E+00 0.  1.
         22    1    1    2    0    0 -0.22731701135E+00  0.99385505313E-02  0.35147726941E+01  0.35221298797E+01  0.00000000000E+00 0.  1.
</event>
<event>
 5    1  0.3428566E+002  0.1599666E+01  0.7818608E-02  0.3353726E+00
         11   -1    0    0    0    0  0.00000000000E+00  0.00000000000E+00  0.39999999674E+01  0.40000000000E+01  0.51100000000E-03 0. -1.
    9000002   -1    0    0    0    0 -0.00000000000E+00 -0.00000000000E+00  0.00000000000E+00  0.93800000000E+00  0.93800000000E+00 0. -1.
         11    1    1    2    0    0 -0.52133366331E-01 -0.15885879851E+00  0.16018598572E+01  0.16105617868E+01  0.51100000000E-03 0. -1.
    9000002    1    1    2    0    0  0.12972964596E+00  0.39424527594E+00  0.11643115056E+00  0.10323077697E+01  0.93800000000E+00 0. -1.
         22    1    1    2    0    0 -0.77596279626E-01 -0.23538647743E+00  0.22817089596E+01  0.22951304435E+01  0.00000000000E+00 0. -1.
</event>
<event>
 5    1  0.3428566E+002  0.1583418E+01  0.7818608E-02  0.3371560E+00
         11   -1    0    0    0    0  0.00000000000E+00  0.00000000000E+00  0.39999999674E+01  0.40000000000E+01  0.51100000000E-03 0.  1.
    9000002   -1    0    0    0    0 -0.00000000000E+00 -0.00000000000E+00  0.00000000000E+00  0.93800000000E+00  0.93800000000E+00 0.  1.
         11    1    1    2    0    0  0.60242696638E-01  0.68126056078E-01  0.68457875477E+00  0.69059298767E+00  0.51100000000E-03 0.  1.
    9000002    1    1    2    0    0 -0.21401370587E-01  0.19220196912E+00  0.37006256985E-01  0.95844304925E+00  0.93800000000E+00 0.  1.
         22    1    1    2    0    0 -0.38841326051E-01 -0.26032802520E+00  0.32784149556E+01  0.32889639631E+01  0.00000000000E+00 0.  1.
</event>
<event>
 5    1  0.3428566E+002  0.1589408E+01  0.7818608E-02  0.3364941E+00
         11   -1    0    0    0    0  0.00000000000E+00  0.00000000000E+00  0.39999999674E+01  0.40000000000E+01  0.51100000000E-03 0.  1.
    9000002   -1    0    0    0    0 -0.00000000000E+00 -0.00000000000E+00  0.00000000000E+00  0.93800000000E+00  0.93800000000E+00 0. -1.
         11    1    1    2    0    0  0.60667059111E-01 -0.34052745337E-01  0.53658956224E+00  0.54108104841E+00  0.51100000000E-03 0.  1.
    9000002    1    1    2    0    0 -0.48213387466E-01 -0.21796029903E+00  0.40840953473E-01  0.96506124477E+00  0.93800000000E+00 0. -1.
         22    1    1    2    0    0 -0.12453671645E-01  0.25201304437E+00  0.34225694516E+01  0.34318577068E+01  0.00000000000E+00 0.  1.
</event>
<event>
 5    1  0.3428566E+002  0.1599660E+01  0.7818608E-02  0.3353733E+00
         11   -1    0    0    0    0  0.00000000000E+00  0.00000000000E+00  0.39999999674E+01  0.40000000000E+01  0.51100000000E-03 0. -1.
    9000002   -1    0    0    0    0 -0.00000000000E+00 -0.00000000000E+00  0.00000000000E+00  0.93800000000E+00  0.93800000000E+00 0.  1.
         11    1    1    2    0    0  0.14545138051E-01  0.10368268123E-01  0.24087897059E+00  0.24154089016E+00  0.51100000000E-03 0. -1.
    9000002    1    1    2    0    0 -0.23508660081E+00 -0.20764663907E+00  0.65731494332E-01  0.99123532319E+00  0.93800000000E+00 0.  1.
         22    1    1    2    0    0  0.22054146275E+00  0.19727837095E+00  0.36933895024E+01  0.37052237866E+01  0.00000000000E+00 0. -1.
</event>
<event>
 5    1  0.3428566E+002  0.1599670E+01  0.7818608E-02  0.3353722E+00
         11   -1    0    0    0    0  0.00000000000E+00  0.00000000000E+00  0.39999999674E+01  0.40000000000E+01  0.51100000000E-03 0.  1.
    9000002   -1    0    0    0    0 -0.00000000000E+00 -0.00000000000E+00  0.00000000000E+00  0.93800000000E+00  0.93800000000E+00 0.  1.
         11    1    1    2    0    0 -0.50980606353E-01 -0.33432068104E-02  0.67050227673E+00  0.67244610451E+00  0.51100000000E-03 0.  1.
    9000002    1    1    2    0    0  0.31126936043E+00  0.26620312532E-01  0.65190766881E-01  0.99080325588E+00  0.93800000000E+00 0.  1.
         22    1    1    2    0    0 -0.26028875407E+00 -0.23277105722E-01  0.32643069238E+01  0.32747506396E+01  0.00000000000E+00 0.  1.
</event>
<event>
 5    1  0.3428566E+002  0.1599524E+01  0.7818608E-02  0.3353880E+00
         11   -1    0    0    0    0  0.00000000000E+00  0.00000000000E+00  0.39999999674E+01  0.40000000000E+01  0.51100000000E-03 0. -1.
    9000002   -1    0    0    0    0 -0.00000000000E+00 -0.00000000000E+00  0.00000000000E+00  0.93800000000E+00  0.93800000000E+00 0. -1.
         11    1    1    2    0    0 -0.46103992655E-01 -0.26155362328E+00  0.20572141128E+01  0.20742868758E+01  0.51100000000E-03 0. -1.
    9000002    1    1    2    0    0  0.58750926714E-01  0.49233928880E+00  0.16831769016E+00  0.10742553195E+01  0.93800000000E+00 0. -1.
         22    1    1    2    0    0 -0.12646934059E-01 -0.23078566552E+00  0.17744681644E+01  0.17894578047E+01  0.00000000000E+00 0. -1.
</event>
<event>
 5    1  0.3428566E+002  0.1580662E+01  0.7818608E-02  0.3374624E+00
         11   -1    0    0    0    0  0.00000000000E+00  0.00000000000E+00  0.39999999674E+01  0.40000000000E+01  0.51100000000E-03 0.  1.
    9000002   -1    0    0    0    0 -0.00000000000E+00 -0.00000000000E+00  0.00000000000E+00  0.93800000000E+00  0.93800000000E+00 0. -1.
         11    1    1    2    0    0  0.16366389747E-02  0.56659738157E-01  0.13846224990E+00  0.14961637706E+00  0.51100000000E-03 0.  1.
    9000002    1    1    2    0    0  0.15256720179E+00  0.13755229696E+00  0.42360496337E-01  0.96116377226E+00  0.93800000000E+00 0. -1.
         22    1    1    2    0    0 -0.15420384077E+00 -0.19421203512E+00  0.38191772211E+01  0.38272198507E+01  0.00000000000E+00 0.  1.
</event>
<event>
 5    1  0.3428566E+002  0.1599671E+01  0.7818608E-02  0.3353721E+00
         11   -1    0    0    0    0  0.00000000000E+00  0.00000000000E+00  0.39999999674E+01  0.40000000000E+01  0.51100000000E-03 0. -1.
    9000002   -1    0    0    0    0 -0.00000000000E+00 -0.00000000000E+00  0.00000000000E+00  0.93800000000E+00  0.93800000000E+00 0. -1.
         11    1    1    2    0    0 -0.47150214657E-01 -0.26439281897E-01  0.72033905995E+00  0.72236472836E+00  0.51100000000E-03 0. -1.
    9000002    1    1    2    0    0  0.25124931150E+00  0.13439304560E+00  0.54092272754E-01  0.98181346559E+00  0.93800000000E+00 0. -1.
         22    1    1    2    0    0 -0.20409909684E+00 -0.10795376370E+00  0.32255686347E+01  0.32338218061E+01  0.00000000000E+00 0. -1.
</event>
<event>
 5    1  0.3428566E+002  0.1538887E+01  0.7818608E-02  0.3422486E+00
         11   -1    0    0    0    0  0.00000000000E+00  0.00000000000E+00  0.39999999674E+01  0.40000000000E+01  0.51100000000E-03 0.  1.
    9000002   -1    0    0    0    0 -0.00000000000E+00 -0.00000000000E+00  0.00000000000E+00  0.93800000000E+00  0.93800000000E+00 0. -1.
         11    1    1    2    0    0  0.67623880620E-01  0.18097476622E+00  0.45193375101E+00  0.49149692945E+00  0.51100000000E-03 0.  1.
    9000002    1    1    2    0    0 -0.10991537356E+00  0.26275884536E-01  0.54303097795E-01  0.94634276976E+00  0.93800000000E+00 0. -1.
         22    1    1    2    0    0  0.42291492938E-01 -0.20725065076E+00  0.34937631186E+01  0.35001603008E+01  0.00000000000E+00 0.  1.
</event>
<event>
 5    1  0.3428566E+002  0.1599658E+01  0.7818608E-02  0.3353735E+00
         11   -1    0    0    0    0  0.00000000000E+00  0.00000000000E+00  0.39999999674E+01  0.40000000000E+01  0.51100000000E-03 0. -1.
    9000002   -1    0    0    0    0 -0.00000000000E+00 -0.00000000000E+00  0.00000000000E+00  0.93800000000E+00  0.93800000000E+00 0. -1.
         11    1    1    2    0    0 -0.59582532914E-02 -0.16676003695E+00  0.12469265437E+01  0.12580423193E+01  0.51100000000E-03 0. -1.
    9000002    1    1    2    0    0  0.14361606777E-01  0.52441901793E+00  0.18922708838E+00  0.10912710264E+01  0.93800000000E+00 0. -1.
         22    1    1    2    0    0 -0.84033534853E-02 -0.35765898098E+00  0.25638463353E+01  0.25886866543E+01  0.00000000000E+00 0. -1.
</event>
<event>
 5    1  0.3428566E+002  0.1599677E+01  0.7818608E-02  0.3353714E+00
         11   -1    0    0    0    0  0.00000000000E+00  0.00000000000E+00  0.39999999674E+01  0.40000000000E+01  0.51100000000E-03 0. -1.
    9000002   -1    0    0    0    0 -0.00000000000E+00 -0.00000000000E+00  0.00000000000E+00  0.93800000000E+00  0.93800000000E+00 0. -1.
         11    1    1    2    0    0 -0.37462869214E-01 -0.82018418055E-01  0.11685272798E+01  0.11720011741E+01  0.51100000000E-03 0.  1.
    9000002    1    1    2    0    0  0.12695893661E+00  0.27618652652E+00  0.61662528040E-01  0.98794930861E+00  0.93800000000E+00 0. -1.
         22    1    1    2    0    0 -0.89496067399E-01 -0.19416810846E+00  0.27698101595E+01  0.27780495173E+01  0.00000000000E+00 0. -1.
</event>
<event>
 5    1  0.3428566E+002  0.1565708E+01  0.7818608E-02  0.3391445E+00
         11   -1    0    0    0    0  0.00000000000E+00  0.00000000000E+00  0.39999999674E+01  0.40000000000E+01  0.51100000000E-03 0. -1.
    9000002   -1    0    0    0    0 -0.00000000000E+00 -0.00000000000E+00  0.00000000000E+00  0.93800000000E+00  0.93800000000E+00 0. -1.
         11    1    1    2    0    0  0.33316826435E-01  0.50658851279E-03  0.86545410702E-02  0.34430070545E-01  0.51100000000E-03 0. -1.
    9000002    1    1    2    0    0 -0.12769127101E+00  0.21078816633E+00  0.66719830741E-01  0.97212769098E+00  0.93800000000E+00 0. -1.
         22    1    1    2    0    0  0.94374444578E-01 -0.21129475484E+00  0.39246255955E+01  0.39314422385E+01  0.00000000000E+00 0. -1.
</event>
<event>
 5    1  0.3428566E+002  0.1527641E+01  0.7818608E-02  0.3435849E+00
         11   -1    0    0    0    0  0.00000000000E+00  0.00000000000E+00  0.39999999674E+01  0.40000000000E+01  0.51100000000E-03 0.  1.
    9000002   -1    0    0    0    0 -0.00000000000E+00 -0.00000000000E+00  0.00000000000E+00  0.93800000000E+00  0.93800000000E+00 0. -1.
         11    1    1    2    0    0  0.74907874578E-01  0.20101319510E+00  0.23191146005E+01  0.23290148745E+01  0.51100000000E-03 0.  1.
    9000002    1    1    2    0    0 -0.12221317709E+00  0.19755187016E+00  0.92590174566E-01  0.97076245420E+00  0.93800000000E+00 0. -1.
         22    1    1    2    0    0  0.47305302514E-01 -0.39856506526E+00  0.15882951923E+01  0.16382226713E+01  0.00000000000E+00 0. -1.
</event>
<event>
 5    1  0.3428566E+002  0.1598820E+01  0.7818608E-02  0.3354645E+00
         11   -1    0    0    0    0  0.00000000000E+00  0.00000000000E+00  0.39999999674E+01  0.40000000000E+01  0.51100000000E-03 0. -1.
    9000002   -1    0    0    0    0 -0.00000000000E+00 -0.00000000000E+00  0.00000000000E+00  0.93800000000E+00  0.93800000000E+00 0. -1.
         11    1    1    2    0    0 -0.76458193572E-01  0.23801402697E-01  0.74966795189E+00  0.75393279631E+00  0.51100000000E-03 0. -1.
    9000002    1    1    2    0    0  0.50443117695E+00 -0.35360779509E-01  0.17598578077E+00  0.10800537913E+01  0.93800000000E+00 0. -1.
         22    1    1    2    0    0 -0.42797298338E+00  0.11559376811E-01  0.30743462347E+01  0.31040134124E+01  0.00000000000E+00 0. -1.
</event>
<event>
 5    1  0.3428566E+002  0.1599674E+01  0.7818608E-02  0.3353718E+00
         11   -1    0    0    0    0  0.00000000000E+00  0.00000000000E+00  0.39999999674E+01  0.40000000000E+01  0.51100000000E-03 0.  1.
    9000002   -1    0    0    0    0 -0.00000000000E+00 -0.00000000000E+00  0.00000000000E+00  0.93800000000E+00  0.93800000000E+00 0. -1.
         11    1    1    2    0    0 -0.79961250741E-01  0.24324039063E-01  0.10431831184E+01  0.10465260342E+01  0.51100000000E-03 0.  1.
    9000002    1    1    2    0    0  0.30111827661E+00 -0.98870980847E-01  0.67121402958E-01  0.99236937181E+00  0.93800000000E+00 0. -1.
         22    1    1    2    0    0 -0.22115702587E+00  0.74546941784E-01  0.28896954460E+01  0.28991045940E+01  0.00000000000E+00 0.  1.
</event>
<event>
 5    1  0.3428566E+002  0.1599673E+01  0.7818608E-02  0.3353718E+00
         11   -1    0    0    0    0  0.00000000000E+00  0.00000000000E+00  0.39999999674E+01  0.40000000000E+01  0.51100000000E-03 0.  1.
    9000002   -1    0    0    0    0 -0.00000000000E+00 -0.00000000000E+00  0.00000000000E+00  0.93800000000E+00  0.93800000000E+00 0. -1.
         11    1    1    2    0    0 -0.15271943115E-01 -0.10070920270E+00  0.12232376067E+01  0.12274714169E+01  0.51100000000E-03 0.  1.
    9000002    1    1    2    0    0  0.43325665227E-01  0.31996893923E+00  0.69708642369E-01  0.99446494667E+00  0.93800000000E+00 0. -1.
         22    1    1    2    0    0 -0.28053722112E-01 -0.21925973652E+00  0.27070537183E+01  0.27160636364E+01  0.00000000000E+00 0.  1.
</event>
<event>
 5    1  0.3428566E+002  0.1599672E+01  0.7818608E-02  0.3353720E+00
         11   -1    0    0    0    0  0.00000000000E+00  0.00000000000E+00  0.39999999674E+01  0.40000000000E+01  0.51100000000E-03 0.  1.
    9000002   -1    0    0    0    0 -0.00000000000E+00 -0.00000000000E+00  0.00000000000E+00  0.93800000000E+00  0.93800000000E+00 0. -1.
         11    1    1    2    0    0  0.32447896685E+00 -0.38601339002E-02  0.23137966598E+01  0.23364410424E+01  0.51100000000E-03 0.  1.
    9000002    1    1    2    0    0 -0.53470493065E+00  0.20330048444E-02  0.19692372805E+00  0.10975137587E+01  0.93800000000E+00 0. -1.
         22    1    1    2    0    0  0.21022596380E+00  0.18271290558E-02  0.14892795795E+01  0.15040451989E+01  0.00000000000E+00 0.  1.
</event>
<event>
 5    1  0.3428566E+002  0.1509375E+01  0.7818608E-02  0.3458007E+00
         11   -1    0    0    0    0  0.00000000000E+00  0.00000000000E+00  0.39999999674E+01  0.40000000000E+01  0.51100000000E-03 0.  1.
    9000002   -1    0    0    0    0 -0.00000000000E+00 -0.00000000000E+00  0.00000000000E+00  0.93800000000E+00  0.93800000000E+00 0. -1.
         11    1    1    2    0    0  0.11306343185E+00 -0.26777678295E+00  0.28314521429E+01  0.28463325954E+01  0.51100000000E-03 0.  1.
    9000002    1    1    2    0    0 -0.27991189790E+00 -0.57721696143E-01  0.12823245321E+00  0.98892367089E+00  0.93800000000E+00 0. -1.
         22    1    1    2    0    0  0.16684846605E+00  0.32549847910E+00  0.10403153712E+01  0.11027437337E+01  0.00000000000E+00 0. -1.
</event>
<event>
 5    1  0.3428566E+002  0.1595777E+01  0.7818608E-02  0.3357959E+00
         11   -1    0    0    0    0  0.00000000000E+00  0.00000000000E+00  0.39999999674E+01  0.40000000000E+01  0.51100000000E-03 0. -1.
    9000002   -1    0    0    0    0 -0.00000000000E+00 -0.00000000000E+00  0.00000000000E+00  0.93800000000E+00  0.93800000000E+00 0. -1.
         11    1    1    2    0    0  0.57208621014E-01 -0.10594186551E+00  0.79959294517E+00  0.80860722497E+00  0.51100000000E-03 0. -1.
    9000002    1    1    2    0    0 -0.28197445951E+00  0.22070515964E+00  0.89212950554E-01  0.10079798182E+01  0.93800000000E+00 0. -1.
         22    1    1    2    0    0  0.22476583850E+00 -0.11476329413E+00  0.31111940716E+01  0.31214129569E+01  0.00000000000E+00 0. -1.
</event>
<event>
 5    1  0.3428566E+002  0.1599677E+01  0.7818608E-02  0.3353715E+00
         11   -1    0    0    0    0  0.00000000000E+00  0.00000000000E+00  0.39999999674E+01  0.40000000000E+01  0.51100000000E-03 0.  1.
    9000002   -1    0    0    0    0 -0.00000000000E+00 -0.00000000000E+00  0.00000000000E+00  0.93800000000E+00  0.93800000000E+00 0. -1.
         11    1    1    2    0    0  0.78992205158E-03  0.51506438022E-01  0.74219262118E+00  0.74397828274E+00  0.51100000000E-03 0.  1.
    9000002    1    1    2    0    0 -0.41505571633E-02 -0.27112194540E+00  0.48924619392E-01  0.97763078654E+00  0.93800000000E+00 0. -1.
         22    1    1    2    0    0  0.33606351117E-02  0.21961550738E+00  0.32088827268E+01  0.32163909307E+01  0.00000000000E+00 0.  1.
</event>
<event>
 5    1  0.3428566E+002  0.1599466E+01  0.7818608E-02  0.3353943E+00
         11   -1    0    0    0    0  0.00000000000E+00  0.00000000000E+00  0.39999999674E+01  0.40000000000E+01  0.51100000000E-03 0. -1.
    9000002   -1    0    0    0    0 -0.00000000000E+00 -0.00000000000E+00  0.00000000000E+00  0.93800000000E+00  0.93800000000E+00 0.  1.
         11    1    1    2    0    0  0.50442938726E-01  0.53994795493E-01  0.82487912803E+00  0.82818220518E+00  0.51100000000E-03 0. -1.
    9000002    1    1    2    0    0 -0.18668298846E+00 -0.21740396353E+00  0.54877022811E-01  0.98232912467E+00  0.93800000000E+00 0.  1.
         22    1    1    2    0    0  0.13624004974E+00  0.16340916804E+00  0.31202438165E+01  0.31274886701E+01  0.00000000000E+00 0. -1.
</event>
<event>
 5    1  0.3428566E+002  0.1599604E+01  0.7818608E-02  0.3353793E+00
         11   -1    0    0    0    0  0.00000000000E+00  0.00000000000E+00  0.39999999674E+01  0.40000000000E+01  0.51100000000E-03 0.  1.
    9000002   -1    0    0    0    0 -0.00000000000E+00 -0.00000000000E+00  0.00000000000E+00  0.93800000000E+00  0.93800000000E+00 0. -1.
         11    1    1    2    0    0  0.25968389502E-01 -0.35915254264E-01  0.65363186612E+00  0.65513291802E+00  0.51100000000E-03 0.  1.
    9000002    1    1    2    0    0 -0.17714080998E+00  0.17587495614E+00  0.41446915112E-01  0.97153111815E+00  0.93800000000E+00 0. -1.
         22    1    1    2    0    0  0.15117242048E+00 -0.13995970188E+00  0.33049211861E+01  0.33113359638E+01  0.00000000000E+00 0.  1.
</event>
<event>
 5    1  0.3428566E+002  0.1589137E+01  0.7818608E-02  0.3365239E+00
         11   -1    0    0    0    0  0.00000000000E+00  0.00000000000E+00  0.39999999674E+01  0.40000000000E+01  0.51100000000E-03 0. -1.
    9000002   -1    0    0    0    0 -0.00000000000E+00 -0.00000000000E+00  0.00000000000E+00  0.93800000000E+00  0.93800000000E+00 0.  1.
         11    1    1    2    0    0  0.26722776825E-01  0.25530664664E-01  0.14763801898E+00  0.15219450518E+00  0.51100000000E-03 0. -1.
    9000002    1    1    2    0    0  0.21286988797E+00  0.16749266491E+00  0.56994448938E-01  0.97798760177E+00  0.93800000000E+00 0.  1.
         22    1    1    2    0    0 -0.23959266479E+00 -0.19302332957E+00  0.37953674994E+01  0.38078178930E+01  0.00000000000E+00 0. -1.
</event>
<event>
 5    1  0.3428566E+002  0.1599647E+01  0.7818608E-02  0.3353746E+00
         11   -1    0    0    0    0  0.00000000000E+00  0.00000000000E+00  0.39999999674E+01  0.40000000000E+01  0.51100000000E-03 0.  1.
    9000002   -1    0    0    0    0 -0.00000000000E+00 -0.00000000000E+00  0.00000000000E+00  0.93800000000E+00  0.93800000000E+00 0.  1.
         11    1    1    2    0    0  0.10426989986E+00  0.16365344125E-01  0.12106410171E+01  0.12152332986E+01  0.51100000000E-03 0.  1.
    9000002    1    1    2    0    0 -0.32817405958E+00 -0.36228423543E-01  0.72961674530E-01  0.99708480984E+00  0.93800000000E+00 0.  1.
         22    1    1    2    0    0  0.22390415973E+00  0.19863079418E-01  0.27163972757E+01  0.27256818916E+01  0.00000000000E+00 0.  1.
</event>
<event>
 5    1  0.3428566E+002  0.1599676E+01  0.7818608E-02  0.3353716E+00
         11   -1    0    0    0    0  0.00000000000E+00  0.00000000000E+00  0.39999999674E+01  0.40000000000E+01  0.51100000000E-03 0. -1.
    9000002   -1    0    0    0    0 -0.00000000000E+00 -0.00000000000E+00  0.00000000000E+00  0.93800000000E+00  0.93800000000E+00 0. -1.
         11    1    1    2    0    0 -0.48735530571E-01  0.15414971515E+00  0.16433369375E+01  0.16512703709E+01  0.51100000000E-03 0. -1.
    9000002    1    1    2    0    0  0.11683420842E+00 -0.36889327709E+00  0.10083287450E+00  0.10196782584E+01  0.93800000000E+00 0. -1.
         22    1    1    2    0    0 -0.68098677851E-01  0.21474356194E+00  0.22558301554E+01  0.22670513707E+01  0.00000000000E+00 0.  1.
</event>
<event>
 5    1  0.3428566E+002  0.1599664E+01  0.7818608E-02  0.3353728E+00
         11   -1    0    0    0    0  0.00000000000E+00  0.00000000000E+00  0.39999999674E+01  0.40000000000E+01  0.51100000000E-03 0. -1.
    9000002   -1    0    0    0    0 -0.00000000000E+00 -0.00000000000E+00  0.00000000000E+00  0.93800000000E+00  0.93800000000E+00 0. -1.
         11    1    1    2    0    0  0.39282303968E-01 -0.69215612762E-01  0.98195981274E+00  0.98517979852E+00  0.51100000000E-03 0. -1.
    9000002    1    1    2    0    0 -0.15280194078E+00  0.26350605012E+00  0.61933907717E-01  0.98816176838E+00  0.93800000000E+00 0. -1.
         22    1    1    2    0    0  0.11351963681E+00 -0.19429043736E+00  0.29561062469E+01  0.29646584331E+01  0.00000000000E+00 0. -1.
</event>
<event>
 5    1  0.3428566E+002  0.1599659E+01  0.7818608E-02  0.3353734E+00
         11   -1    0    0    0    0  0.00000000000E+00  0.00000000000E+00  0.39999999674E+01  0.40000000000E+01  0.51100000000E-03 0. -1.
    9000002   -1    0    0    0    0 -0.00000000000E+00 -0.00000000000E+00  0.00000000000E+00  0.93800000000E+00  0.93800000000E+00 0. -1.
         11    1    1    2    0    0 -0.33071553329E+00 -0.17447247938E+00  0.19349080066E+01  0.19707061337E+01  0.51100000000E-03 0. -1.
    9000002    1    1    2    0    0  0.61512958437E+00  0.33355870561E+00  0.34993434243E+00  0.12214515380E+01  0.93800000000E+00 0. -1.
         22    1    1    2    0    0 -0.28441405107E+00 -0.15908622623E+00  0.17151576183E+01  0.17458423283E+01  0.00000000000E+00 0. -1.
</event>
<event>
 5    1  0.3428566E+002  0.1599677E+01  0.7818608E-02  0.3353714E+00
         11   -1    0    0    0    0  0.00000000000E+00  0.00000000000E+00  0.39999999674E+01  0.40000000000E+01  0.51100000000E-03 0.  1.
    9000002   -1    0    0    0    0 -0.00000000000E+00 -0.00000000000E+00  0.00000000000E+00  0.93800000000E+00  0.93800000000E+00 0. -1.
         11    1    1    2    0    0  0.22205264276E+00  0.35668235511E+00  0.23477862097E+01  0.23850849096E+01  0.51100000000E-03 0.  1.
    9000002    1    1    2    0    0 -0.34889737808E+00 -0.56139585685E+00  0.30911788210E+00  0.11883991558E+01  0.93800000000E+00 0. -1.
         22    1    1    2    0    0  0.12684473532E+00  0.20471350174E+00  0.13430958756E+01  0.13645159346E+01  0.00000000000E+00 0.  1.
</event>
<event>
 5    1  0.3428566E+002  0.1599665E+01  0.7818608E-02  0.3353727E+00
         11   -1    0    0    0    0  0.00000000000E+00  0.00000000000E+00  0.39999999674E+01  0.40000000000E+01  0.51100000000E-03 0. -1.
    9000002   -1    0    0    0    0 -0.00000000000E+00 -0.00000000000E+00  0.00000000000E+00  0.93800000000E+00  0.93800000000E+00 0. -1.
         11    1    1    2    0    0 -0.61539665069E-01  0.29390215173E-01  0.69616522722E+00  0.69949781975E+00  0.51100000000E-03 0. -1.
    9000002    1    1    2    0    0  0.35655257945E+00 -0.17755278852E+00  0.10700298798E+00  0.10246698854E+01  0.93800000000E+00 0. -1.
         22    1    1    2    0    0 -0.29501291438E+00  0.14816257334E+00  0.31968317522E+01  0.32138322948E+01  0.00000000000E+00 0. -1.
</event>
<event>
 5    1  0.3428566E+002  0.1599677E+01  0.7818608E-02  0.3353715E+00
         11   -1    0    0    0    0  0.00000000000E+00  0.00000000000E+00  0.39999999674E+01  0.40000000000E+01  0.51100000000E-03 0. -1.
    9000002   -1    0    0    0    0 -0.00000000000E+00 -0.00000000000E+00  0.00000000000E+00  0.93800000000E+00  0.93800000000E+00 0. -1.
         11    1    1    2    0    0  0.12465698532E-01  0.32872208537E-01  0.52770460917E+00  0.52887464620E+00  0.51100000000E-03 0. -1.
    9000002    1    1    2    0    0 -0.94885467058E-01 -0.24359897341E+00  0.45441121855E-01  0.97480901066E+00  0.93800000000E+00 0. -1.
         22    1    1    2    0    0  0.82419768525E-01  0.21072676487E+00  0.34268542363E+01  0.34343163431E+01  0.00000000000E+00 0. -1.
</event>
<event>
 5    1  0.3428566E+002  0.1599670E+01  0.7818608E-02  0.3353722E+00
         11   -1    0    0    0    0  0.00000000000E+00  0.00000000000E+00  0.39999999674E+01  0.40000000000E+01  0.51100000000E-03 0.  1.
    9000002   -1    0    0    0    0 -0.00000000000E+00 -0.00000000000E+00  0.00000000000E+00  0.93800000000E+00  0.93800000000E+00 0. -1.
         11    1    1    2    0    0  0.15731714801E+00  0.79642012451E-01  0.77503414423E+00  0.79483943098E+00  0.51100000000E-03 0.  1.
    9000002    1    1    2    0    0 -0.72225909193E+00 -0.35252939190E+00  0.47641842878E+00  0.13239160424E+01  0.93800000000E+00 0. -1.
         22    1    1    2    0    0  0.56494194393E+00  0.27288737945E+00  0.27485473944E+01  0.28192445266E+01  0.00000000000E+00 0.  1.
</event>
<event>
 5    1  0.3428566E+002  0.1599676E+01  0.7818608E-02  0.3353715E+00
         11   -1    0    0    0    0  0.00000000000E+00  0.00000000000E+00  0.39999999674E+01  0.40000000000E+01  0.51100000000E-03 0. -1.
    9000002   -1    0    0    0    0 -0.00000000000E+00 -0.00000000000E+00  0.00000000000E+00  0.93800000000E+00  0.93800000000E+00 0. -1.
         11    1    1    2    0    0 -0.10529456684E+00  0.33352819082E-02  0.10846422058E+01  0.10897463217E+01  0.51100000000E-03 0. -1.
    9000002    1    1    2    0    0  0.37793005821E+00 -0.15290620512E-01  0.96240065368E-01  0.10159582089E+01  0.93800000000E+00 0. -1.
         22    1    1    2    0    0 -0.27263549137E+00  0.11955338604E-01  0.28191176962E+01  0.28322954695E+01  0.00000000000E+00 0. -1.
</event>
<event>
 5    1  0.3428566E+002  0.1599006E+01  0.7818608E-02  0.3354443E+00
         11   -1    0    0    0    0  0.00000000000E+00  0.00000000000E+00  0.39999999674E+01  0.40000000000E+01  0.51100000000E-03 0.  1.
    9000002   -1    0    0    0    0 -0.00000000000E+00 -0.00000000000E+00  0.00000000000E+00  0.93800000000E+00  0.93800000000E+00 0.  1.
         11    1    1    2    0    0 -0.42044602315E+00 -0.24590437160E-01  0.20923636096E+01  0.21343301721E+01  0.51100000000E-03 0.  1.
    9000002    1    1    2    0    0  0.68611244891E+00  0.20795951745E-01  0.33627327493E+00  0.12100026775E+01  0.93800000000E+00 0.  1.
         22    1    1    2    0    0 -0.26566642576E+00  0.37944854155E-02  0.15713630829E+01  0.15936671503E+01  0.00000000000E+00 0.  1.
</event>
<event>
 5    1  0.3428566E+002  0.1598438E+01  0.7818608E-02  0.3355060E+00
         11   -1    0    0    0    0  0.00000000000E+00  0.00000000000E+00  0.39999999674E+01  0.40000000000E+01  0.51100000000E-03 0. -1.
    9000002   -1    0    0    0    0 -0.00000000000E+00 -0.00000000000E+00  0.00000000000E+00  0.93800000000E+00  0.93800000000E+00 0. -1.
         11    1    1    2    0    0 -0.68075729684E-01 -0.51512174759E-01  0.85605324936E+00  0.86029950365E+00  0.51100000000E-03 0. -1.
    9000002    1    1    2    0    0  0.16240556720E+00  0.29387840676E+00  0.76467079168E-01  0.99921534236E+00  0.93800000000E+00 0. -1.
         22    1    1    2    0    0 -0.94329837512E-01 -0.24236623201E+00  0.30674796388E+01  0.30784851540E+01  0.00000000000E+00 0. -1.
</event>
<event>
 5    1  0.3428566E+002  0.1591841E+01  0.7818608E-02  0.3362267E+00
         11   -1    0    0    0    0  0.00000000000E+00  0.00000000000E+00  0.39999999674E+01  0.40000000000E+01  0.51100000000E-03 0.  1.
    9000002   -1    0    0    0    0 -0.00000000000E+00 -0.00000000000E+00  0.00000000000E+00  0.93800000000E+00  0.93800000000E+00 0. -1.
         11    1    1    2    0    0  0.82402976442E-01  0.15009486639E-01  0.93621329760E+00  0.93995273017E+00  0.51100000000E-03 0.  1.
    9000002    1    1    2    0    0 -0.14894904498E+00  0.26307124818E+00  0.67148131010E-01  0.98779814290E+00  0.93800000000E+00 0. -1.
         22    1    1    2    0    0  0.66546068534E-01 -0.27808073482E+00  0.29966385387E+01  0.30102491269E+01  0.00000000000E+00 0.  1.
</event>
<event>
 5    1  0.3428566E+002  0.1599551E+01  0.7818608E-02  0.3353850E+00
         11   -1    0    0    0    0  0.00000000000E+00  0.00000000000E+00  0.39999999674E+01  0.40000000000E+01  0.51100000000E-03 0.  1.
    9000002   -1    0    0    0    0 -0.00000000000E+00 -0.00000000000E+00  0.00000000000E+00  0.93800000000E+00  0.93800000000E+00 0.  1.
         11    1    1    2    0    0  0.60913876255E+00  0.20486378539E+00  0.22511834756E+01  0.23411207796E+01  0.51100000000E-03 0.  1.
    9000002    1    1    2    0    0 -0.90376794082E+00 -0.30972702774E+00  0.71712148883E+00  0.15188267025E+01  0.93800000000E+00 0.  1.
         22    1    1    2    0    0  0.29462917827E+00  0.10486324234E+00  0.10316950029E+01  0.10780525179E+01  0.00000000000E+00 0.  1.
</event>
<event>
 5    1  0.3428566E+002  0.1594311E+01  0.7818608E-02  0.3359561E+00
         11   -1    0    0    0    0  0.00000000000E+00  0.00000000000E+00  0.39999999674E+01  0.40000000000E+01  0.51100000000E-03 0. -1.
    9000002   -1    0    0    0    0 -0.00000000000E+00 -0.00000000000E+00  0.00000000000E+00  0.93800000000E+00  0.93800000000E+00 0. -1.
         11    1    1    2    0    0  0.67672517583E-01  0.83615753439E-01  0.41248870541E+00  0.42628436175E+00  0.51100000000E-03 0. -1.
    9000002    1    1    2    0    0 -0.52748396107E+00 -0.26128427776E+00  0.24646879658E+00  0.11345041519E+01  0.93800000000E+00 0. -1.
         22    1    1    2    0    0  0.45981144349E+00  0.17766852432E+00  0.33410424654E+01  0.33772114864E+01  0.00000000000E+00 0. -1.
</event>
<event>
 5    1  0.3428566E+002  0.1488284E+01  0.7818608E-02  0.3484321E+00
         11   -1    0    0    0    0  0.00000000000E+00  0.00000000000E+00  0.39999999674E+01  0.40000000000E+01  0.51100000000E-03 0.  1.
    9000002   -1    0    0    0    0 -0.00000000000E+00 -0.00000000000E+00  0.00000000000E+00  0.93800000000E+00  0.93800000000E+00 0.  1.
         11    1    1    2    0    0  0.10622442637E+00  0.35933159806E+00  0.12055458586E+01  0.12624357031E+01  0.51100000000E-03 0.  1.
    9000002    1    1    2    0    0 -0.12210202913E+00  0.21655486518E-01  0.96807810386E-01  0.95110126578E+00  0.93800000000E+00 0.  1.
         22    1    1    2    0    0  0.15877602759E-01 -0.38098708458E+00  0.26976462983E+01  0.27244630311E+01  0.00000000000E+00 0.  1.
</event>
<event>
 5    1  0.3428566E+002  0.1582103E+01  0.7818608E-02  0.3373020E+00
         11   -1    0    0    0    0  0.00000000000E+00  0.00000000000E+00  0.39999999674E+01  0.40000000000E+01  0.51100000000E-03 0.  1.
    9000002   -1    0    0    0    0 -0.00000000000E+00 -0.00000000000E+00  0.00000000000E+00  0.93800000000E+00  0.93800000000E+00 0. -1.
         11    1    1    2    0    0  0.69743009530E-01  0.50125503203E-01  0.49602672048E+00  0.50340780884E+00  0.51100000000E-03 0.  1.
    9000002    1    1    2    0    0  0.14154014430E+00  0.73115439014E-01  0.29882631898E-01  0.95190149257E+00  0.93800000000E+00 0. -1.
         22    1    1    2    0    0 -0.21128315383E+00 -0.12324094222E+00  0.34740906150E+01  0.34826906986E+01  0.00000000000E+00 0.  1.
</event>
<event>
 5    1  0.3428566E+002  0.1599677E+01  0.7818608E-02  0.3353714E+00
         11   -1    0    0    0    0  0.00000000000E+00  0.00000000000E+00  0.39999999674E+01  0.40000000000E+01  0.51100000000E-03 0. -1.
    9000002   -1    0    0    0    0 -0.00000000000E+00 -0.00000000000E+00  0.00000000000E+00  0.93800000000E+00  0.93800000000E+00 0.  1.
         11    1    1    2    0    0  0.28929079661E-01 -0.37557568790E-01  0.53446052215E+00  0.53655919848E+00  0.51100000000E-03 0.  1.
    9000002    1    1    2    0    0 -0.21228090674E+00  0.27667306108E+00  0.81530335121E-01  0.10040430079E+01  0.93800000000E+00 0.  1.
         22    1    1    2    0    0  0.18335182707E+00 -0.23911549229E+00  0.33840091101E+01  0.33973977937E+01  0.00000000000E+00 0. -1.
</event>
<event>
 5    1  0.3428566E+002  0.1591365E+01  0.7818608E-02  0.3362789E+00
         11   -1    0    0    0    0  0.00000000000E+00  0.00000000000E+00  0.39999999674E+01  0.40000000000E+01  0.51100000000E-03 0. -1.
    9000002   -1    0    0    0    0 -0.00000000000E+00 -0.00000000000E+00  0.00000000000E+00  0.93800000000E+00  0.93800000000E+00 0. -1.
         11    1    1    2    0    0  0.59911831550E-01 -0.44865723582E-01  0.13811070915E+01  0.13831339125E+01  0.51100000000E-03 0. -1.
    9000002    1    1    2    0    0 -0.18219392243E+00 -0.17087300136E+00  0.47824274967E-01  0.97186592143E+00  0.93800000000E+00 0. -1.
         22    1    1    2    0    0  0.12228209088E+00  0.21573872494E+00  0.25710686009E+01  0.25830001661E+01  0.00000000000E+00 0. -1.
</event>
<event>
 5    1  0.3428566E+002  0.1599670E+01  0.7818608E-02  0.3353722E+00
         11   -1    0    0    0    0  0.00000000000E+00  0.00000000000E+00  0.39999999674E+01  0.40000000000E+01  0.51100000000E-03 0. -1.
    9000002   -1    0    0    0    0 -0.00000000000E+00 -0.00000000000E+00  0.00000000000E+00  0.93800000000E+00  0.93800000000E+00 0. -1.
         11    1    1    2    0    0 -0.30372255929E+00  0.91071520945E-01  0.23175014937E+01  0.23390927406E+01  0.51100000000E-03 0. -1.
    9000002    1    1    2    0    0  0.50163973885E+00 -0.15439702405E+00  0.18940243958E+00  0.10914202457E+01  0.93800000000E+00 0. -1.
         22    1    1    2    0    0 -0.19791717955E+00  0.63325503109E-01  0.14930960341E+01  0.15074870137E+01  0.00000000000E+00 0. -1.
</event>
<event>
 5    1  0.3428566E+002  0.1599676E+01  0.7818608E-02  0.3353715E+00
         11   -1    0    0    0    0  0.00000000000E+00  0.00000000000E+00  0.39999999674E+01  0.40000000000E+01  0.51100000000E-03 0. -1.
    9000002   -1    0    0    0    0 -0.00000000000E+00 -0.00000000000E+00  0.00000000000E+00  0.93800000000E+00  0.93800000000E+00 0.  1.
         11    1    1    2    0    0 -0.25895993485E-01 -0.62211143912E-01  0.92325810276E+00  0.92571411048E+00  0.51100000000E-03 0. -1.
    9000002    1    1    2    0    0  0.11360948476E+00  0.26592338968E+00  0.55730817357E-01  0.98314408314E+00  0.93800000000E+00 0.  1.
         22    1    1    2    0    0 -0.87713491275E-01 -0.20371224576E+00  0.30210110472E+01  0.30291418064E+01  0.00000000000E+00 0. -1.
</event>
<event>
 5    1  0.3428566E+002  0.1579742E+01  0.7818608E-02  0.3375649E+00
         11   -1    0    0    0    0  0.00000000000E+00  0.00000000000E+00  0.39999999674E+01  0.40000000000E+01  0.51100000000E-03 0. -1.
    9000002   -1    0    0    0    0 -0.00000000000E+00 -0.00000000000E+00  0.00000000000E+00  0.93800000000E+00  0.93800000000E+00 0.  1.
         11    1    1    2    0    0 -0.79446794516E-01  0.11611277105E+00  0.20489032292E+01  0.20537279938E+01  0.51100000000E-03 0. -1.
    9000002    1    1    2    0    0  0.86459303978E-01  0.97201735304E-01  0.25953072421E-01  0.94733360046E+00  0.93800000000E+00 0.  1.
         22    1    1    2    0    0 -0.70125094612E-02 -0.21331450635E+00  0.19251436657E+01  0.19369384057E+01  0.00000000000E+00 0.  1.
</event>
<event>
 5    1  0.3428566E+002  0.1597338E+01  0.7818608E-02  0.3356258E+00
         11   -1    0    0    0    0  0.00000000000E+00  0.00000000000E+00  0.39999999674E+01  0.40000000000E+01  0.51100000000E-03 0.  1.
    9000002   -1    0    0    0    0 -0.00000000000E+00 -0.00000000000E+00  0.00000000000E+00  0.93800000000E+00  0.93800000000E+00 0. -1.
         11    1    1    2    0    0 -0.18554334166E-01  0.16244368746E-01  0.32125869616E+00  0.32220421135E+00  0.51100000000E-03 0.  1.
    9000002    1    1    2    0    0  0.22776717936E+00  0.19134691086E+00  0.60850468396E-01  0.98592003114E+00  0.93800000000E+00 0. -1.
         22    1    1    2    0    0 -0.20921284520E+00 -0.20759127961E+00  0.36178908028E+01  0.36298757575E+01  0.00000000000E+00 0.  1.
</event>
<event>
 5    1  0.3428566E+002  0.1548759E+01  0.7818608E-02  0.3410928E+00
         11   -1    0    0    0    0  0.00000000000E+00  0.00000000000E+00  0.39999999674E+01  0.40000000000E+01  0.51100000000E-03 0.  1.
    9000002   -1    0    0    0    0 -0.00000000000E+00 -0.00000000000E+00  0.00000000000E+00  0.93800000000E+00  0.93800000000E+00 0.  1.
         11    1    1    2    0    0 -0.17496889150E+00  0.11998112910E+00  0.31821945943E+01  0.31892588922E+01  0.51100000000E-03 0.  1.
    9000002    1    1    2    0    0  0.44999509875E+00 -0.18572692621E+00  0.20872346524E+00  0.10772184388E+01  0.93800000000E+00 0.  1.
         22    1    1    2    0    0 -0.27502620725E+00  0.65745797116E-01  0.60908190782E+00  0.67152266897E+00  0.00000000000E+00 0.  1.
</event>
<event>
 5    1  0.3428566E+002  0.1588835E+01  0.7818608E-02  0.3365571E+00
         11   -1    0    0    0    0  0.00000000000E+00  0.00000000000E+00  0.39999999674E+01  0.40000000000E+01  0.51100000000E-03 0. -1.
    9000002   -1    0    0    0    0 -0.00000000000E+00 -0.00000000000E+00  0.00000000000E+00  0.93800000000E+00  0.93800000000E+00 0. -1.
         11    1    1    2    0    0  0.12871425775E+00  0.80772132248E-01  0.64302494500E+00  0.66073658784E+00  0.51100000000E-03 0. -1.
    9000002    1    1    2    0    0 -0.32055784129E+00 -0.15491577657E+00  0.93862673415E-01  0.10076757558E+01  0.93800000000E+00 0. -1.
         22    1    1    2    0    0  0.19184358355E+00  0.74143644322E-01  0.32631123489E+01  0.32695876563E+01  0.00000000000E+00 0. -1.
</event>
<event>
 5    1  0.3428566E+002  0.1599386E+01  0.7818608E-02  0.3354030E+00
         11   -1    0    0    0    0  0.00000000000E+00  0.00000000000E+00  0.39999999674E+01  0.40000000000E+01  0.51100000000E-03 0. -1.
    9000002   -1    0    0    0    0 -0.00000000000E+00 -0.00000000000E+00  0.00000000000E+00  0.93800000000E+00  0.93800000000E+00 0.  1.
         11    1    1    2    0    0 -0.13145615806E+00  0.65101604318E-02  0.14630980442E+01  0.14690062122E+01  0.51100000000E-03 0. -1.
    9000002    1    1    2    0    0  0.40049592963E+00 -0.20434978893E-02  0.10844265278E+00  0.10256729374E+01  0.93800000000E+00 0.  1.
         22    1    1    2    0    0 -0.26903977157E+00 -0.44666625425E-02  0.24284592704E+01  0.24433208504E+01  0.00000000000E+00 0. -1.
</event>
<event>
 5    1  0.3428566E+002  0.1599674E+01  0.7818608E-02  0.3353718E+00
         11   -1    0    0    0    0  0.00000000000E+00  0.00000000000E+00  0.39999999674E+01  0.40000000000E+01  0.51100000000E-03 0. -1.
    9000002   -1    0    0    0    0 -0.00000000000E+00 -0.00000000000E+00  0.00000000000E+00  0.93800000000E+00  0.93800000000E+00 0. -1.
         11    1    1    2    0    0  0.36517410901E-01  0.10234580473E-01  0.30632340131E+00  0.30866252647E+00  0.51100000000E-03 0. -1.
    9000002    1    1    2    0    0 -0.45367953103E+00 -0.14186487721E+00  0.15405961494E+00  0.10627930773E+01  0.93800000000E+00 0. -1.
         22    1    1    2    0    0  0.41716212013E+00  0.13163029673E+00  0.35396169511E+01  0.35665443962E+01  0.00000000000E+00 0. -1.
</event>
<event>
 5    1  0.3428566E+002  0.1599502E+01  0.7818608E-02  0.3353904E+00
         11   -1    0    0    0    0  0.00000000000E+00  0.00000000000E+00  0.39999999674E+01  0.40000000000E+01  0.51100000000E-03 0. -1.
    9000002   -1    0    0    0    0 -0.00000000000E+00 -0.00000000000E+00  0.00000000000E+00  0.93800000000E+00  0.93800000000E+00 0. -1.
         11    1    1    2    0    0 -0.44429328827E+00 -0.78750843443E+00  0.23374101223E+01  0.25062027853E+01  0.51100000000E-03 0. -1.
    9000002    1    1    2    0    0  0.54370616209E+00  0.97148734288E+00  0.10794882266E+01  0.18123307864E+01  0.93800000000E+00 0. -1.
         22    1    1    2    0    0 -0.99412873823E-01 -0.18397890845E+00  0.58310161851E+00  0.61946642826E+00  0.00000000000E+00 0.  1.
</event>
<event>
 5    1  0.3428566E+002  0.1571122E+01  0.7818608E-02  0.3385315E+00
         11   -1    0    0    0    0  0.00000000000E+00  0.00000000000E+00  0.39999999674E+01  0.40000000000E+01  0.51100000000E-03 0.  1.
    9000002   -1    0    0    0    0 -0.00000000000E+00 -0.00000000000E+00  0.00000000000E+00  0.93800000000E+00  0.93800000000E+00 0.  1.
         11    1    1    2    0    0  0.71928983733E-01 -0.38771226961E-01  0.17448403796E+00  0.19267051504E+00  0.51100000000E-03 0.  1.
    9000002    1    1    2    0    0 -0.83593900081E-01 -0.28870147983E+00  0.82969887294E-01  0.98846572363E+00  0.93800000000E+00 0.  1.
         22    1    1    2    0    0  0.11664916348E-01  0.32747270679E+00  0.37425460421E+01  0.37568637613E+01  0.00000000000E+00 0.  1.
</event>
<event>
 5    1  0.3428566E+002  0.1588254E+01  0.7818608E-02  0.3366211E+00
         11   -1    0    0    0    0  0.00000000000E+00  0.00000000000E+00  0.39999999674E+01  0.40000000000E+01  0.51100000000E-03 0.  1.
    9000002   -1    0    0    0    0 -0.00000000000E+00 -0.00000000000E+00  0.00000000000E+00  0.93800000000E+00  0.93800000000E+00 0.  1.
         11    1    1    2    0    0  0.65766048198E-01  0.48845342295E-01  0.17954019893E+01  0.17972700422E+01  0.51100000000E-03 0.  1.
    9000002    1    1    2    0    0 -0.13923364233E+00  0.17473764075E+00  0.41781796878E-01  0.96514712288E+00  0.93800000000E+00 0.  1.
         22    1    1    2    0    0  0.73467594128E-01 -0.22358298304E+00  0.21628161812E+01  0.21755828349E+01  0.00000000000E+00 0.  1.
</event>
<event>
 5    1  0.3428566E+002  0.1596815E+01  0.7818608E-02  0.3356828E+00
         11   -1    0    0    0    0  0.00000000000E+00  0.00000000000E+00  0.39999999674E+01  0.40000000000E+01  0.51100000000E-03 0. -1.
    9000002   -1    0    0    0    0 -0.00000000000E+00 -0.00000000000E+00  0.00000000000E+00  0.93800000000E+00  0.93800000000E+00 0.  1.
         11    1    1    2    0    0 -0.12267072203E+00  0.84204584610E-01  0.95548766347E+00  0.96700333726E+00  0.51100000000E-03 0. -1.
    9000002    1    1    2    0    0  0.28489778878E+00 -0.26990853891E+00  0.10616075463E+00  0.10223167196E+01  0.93800000000E+00 0.  1.
         22    1    1    2    0    0 -0.16222706675E+00  0.18570395430E+00  0.29383515493E+01  0.29486799431E+01  0.00000000000E+00 0. -1.
</event>
<event>
 5    1  0.3428566E+002  0.1599676E+01  0.7818608E-02  0.3353716E+00
         11   -1    0    0    0    0  0.00000000000E+00  0.00000000000E+00  0.39999999674E+01  0.40000000000E+01  0.51100000000E-03 0.  1.
    9000002   -1    0    0    0    0 -0.00000000000E+00 -0.00000000000E+00  0.00000000000E+00  0.93800000000E+00  0.93800000000E+00 0.  1.
         11    1    1    2    0    0  0.19612687355E+00  0.20316155617E+00  0.18077640815E+01  0.18296862037E+01  0.51100000000E-03 0.  1.
    9000002    1    1    2    0    0 -0.40914174618E+00 -0.41977336212E+00  0.23903963357E+00  0.11316318264E+01  0.93800000000E+00 0.  1.
         22    1    1    2    0    0  0.21301487263E+00  0.21661180595E+00  0.19531962523E+01  0.19766819699E+01  0.00000000000E+00 0.  1.
</event>
<event>
 5    1  0.3428566E+002  0.1599674E+01  0.7818608E-02  0.3353718E+00
         11   -1    0    0    0    0  0.00000000000E+00  0.00000000000E+00  0.39999999674E+01  0.40000000000E+01  0.51100000000E-03 0.  1.
    9000002   -1    0    0    0    0 -0.00000000000E+00 -0.00000000000E+00  0.00000000000E+00  0.93800000000E+00  0.93800000000E+00 0.  1.
         11    1    1    2    0    0  0.15002151823E-01  0.23195448291E-01  0.43972166543E+00  0.44058880779E+00  0.51100000000E-03 0.  1.
    9000002    1    1    2    0    0 -0.14694582735E+00 -0.21048381816E+00  0.43799835792E-01  0.97347775501E+00  0.93800000000E+00 0.  1.
         22    1    1    2    0    0  0.13194367553E+00  0.18728836987E+00  0.35164784661E+01  0.35239334372E+01  0.00000000000E+00 0.  1.
</event>
<event>
 5    1  0.3428566E+002  0.1599554E+01  0.7818608E-02  0.3353848E+00
         11   -1    0    0    0    0  0.00000000000E+00  0.00000000000E+00  0.39999999674E+01  0.40000000000E+01  0.51100000000E-03 0. -1.
    9000002   -1    0    0    0    0 -0.00000000000E+00 -0.00000000000E+00  0.00000000000E+00  0.93800000000E+00  0.93800000000E+00 0.  1.
         11    1    1    2    0    0 -0.37857603210E+00 -0.98582912278E-01  0.22952310941E+01  0.23283308268E+01  0.51100000000E-03 0. -1.
    9000002    1    1    2    0    0  0.60314706320E+00  0.17798379603E+00  0.27780749559E+00  0.11629641508E+01  0.93800000000E+00 0.  1.
         22    1    1    2    0    0 -0.22457103110E+00 -0.79400883757E-01  0.14269613777E+01  0.14467050224E+01  0.00000000000E+00 0. -1.
</event>
<event>
 5    1  0.3428566E+002  0.1599603E+01  0.7818608E-02  0.3353794E+00
         11   -1    0    0    0    0  0.00000000000E+00  0.00000000000E+00  0.39999999674E+01  0.40000000000E+01  0.51100000000E-03 0. -1.
    9000002   -1    0    0    0    0 -0.00000000000E+00 -0.00000000000E+00  0.00000000000E+00  0.93800000000E+00  0.93800000000E+00 0.  1.
         11    1    1    2    0    0  0.15099765908E-01  0.18724798568E-01  0.26045706878E+00  0.26156598940E+00  0.51100000000E-03 0.  1.
    9000002    1    1    2    0    0 -0.17240153643E+00 -0.23016120119E+00  0.55162708013E-01  0.98264102940E+00  0.93800000000E+00 0.  1.
         22    1    1    2    0    0  0.15730177052E+00  0.21143640262E+00  0.36843801906E+01  0.36937929812E+01  0.00000000000E+00 0. -1.
</event>
<event>
 5    1  0.3428566E+002  0.1574331E+01  0.7818608E-02  0.3381704E+00
         11   -1    0    0    0    0  0.00000000000E+00  0.00000000000E+00  0.39999999674E+01  0.40000000000E+01  0.51100000000E-03 0. -1.
    9000002   -1    0    0    0    0 -0.00000000000E+00 -0.00000000000E+00  0.00000000000E+00  0.93800000000E+00  0.93800000000E+00 0.  1.
         11    1    1    2    0    0 -0.79449268186E-01 -0.78600857074E-01  0.38184136538E+00  0.39786099380E+00  0.51100000000E-03 0. -1.
    9000002    1    1    2    0    0  0.14986276992E+00 -0.15647553245E+00  0.50469136918E-01  0.96402000801E+00  0.93800000000E+00 0.  1.
         22    1    1    2    0    0 -0.70413501730E-01  0.23507638952E+00  0.35676894651E+01  0.35761189982E+01  0.00000000000E+00 0. -1.
</event>
<event>
 5    1  0.3428566E+002  0.1598380E+01  0.7818608E-02  0.3355123E+00
         11   -1    0    0    0    0  0.00000000000E+00  0.00000000000E+00  0.39999999674E+01  0.40000000000E+01  0.51100000000E-03 0.  1.
    9000002   -1    0    0    0    0 -0.00000000000E+00 -0.00000000000E+00  0.00000000000E+00  0.93800000000E+00  0.93800000000E+00 0. -1.
         11    1    1    2    0    0  0.94997157111E-01 -0.22873439973E-01  0.17445950635E+01  0.17473293481E+01  0.51100000000E-03 0.  1.
    9000002    1    1    2    0    0 -0.30652983878E+00  0.20349039990E-01  0.64020804020E-01  0.98909923104E+00  0.93800000000E+00 0. -1.
         22    1    1    2    0    0  0.21153268167E+00  0.25243999828E-02  0.21913840999E+01  0.22015714209E+01  0.00000000000E+00 0.  1.
</event>
<event>
 5    1  0.3428566E+002  0.1599673E+01  0.7818608E-02  0.3353718E+00
         11   -1    0    0    0    0  0.00000000000E+00  0.00000000000E+00  0.39999999674E+01  0.40000000000E+01  0.51100000000E-03 0. -1.
    9000002   -1    0    0    0    0 -0.00000000000E+00 -0.00000000000E+00  0.00000000000E+00  0.93800000000E+00  0.93800000000E+00 0.  1.
         11    1    1    2    0    0  0.10480024077E-01  0.14719168317E-02  0.15560308888E+00  0.15596339261E+00  0.51100000000E-03 0. -1.
    9000002    1    1    2    0    0 -0.26482801957E+00 -0.16764379889E-01  0.46835895592E-01  0.97593674257E+00  0.93800000000E+00 0.  1.
         22    1    1    2    0    0  0.25434799550E+00  0.15292463057E-01  0.37975609829E+01  0.38060998648E+01  0.00000000000E+00 0. -1.
</event>
<event>
 5    1  0.3428566E+002  0.1599676E+01  0.7818608E-02  0.3353715E+00
         11   -1    0    0    0    0  0.00000000000E+00  0.00000000000E+00  0.39999999674E+01  0.40000000000E+01  0.51100000000E-03 0. -1.
    9000002   -1    0    0    0    0 -0.00000000000E+00 -0.00000000000E+00  0.00000000000E+00  0.93800000000E+00  0.93800000000E+00 0. -1.
         11    1    1    2    0    0 -0.49515201131E-01 -0.29964594200E-01  0.76353406914E+00  0.76572460317E+00  0.51100000000E-03 0. -1.
    9000002    1    1    2    0    0  0.25882253674E+00  0.15326314865E+00  0.60364416736E-01  0.98689744202E+00  0.93800000000E+00 0. -1.
         22    1    1    2    0    0 -0.20930733561E+00 -0.12329855445E+00  0.31761014815E+01  0.31853779548E+01  0.00000000000E+00 0. -1.
</event>
<event>
 5    1  0.3428566E+002  0.1583087E+01  0.7818608E-02  0.3371927E+00
         11   -1    0    0    0    0  0.00000000000E+00  0.00000000000E+00  0.39999999674E+01  0.40000000000E+01  0.51100000000E-03 0. -1.
    9000002   -1    0    0    0    0 -0.00000000000E+00 -0.00000000000E+00  0.00000000000E+00  0.93800000000E+00  0.93800000000E+00 0. -1.
         11    1    1    2    0    0 -0.15542472690E-01  0.13971184699E+00  0.10833673115E+01  0.10924495235E+01  0.51100000000E-03 0. -1.
    9000002    1    1    2    0    0 -0.35896130219E+00 -0.22467560528E+00  0.13551688196E+00  0.10380468050E+01  0.93800000000E+00 0. -1.
         22    1    1    2    0    0  0.37450377488E+00  0.84963758283E-01  0.27811157739E+01  0.28075036715E+01  0.00000000000E+00 0. -1.
</event>
<event>
 5    1  0.3428566E+002  0.1599436E+01  0.7818608E-02  0.3353976E+00
         11   -1    0    0    0    0  0.00000000000E+00  0.00000000000E+00  0.39999999674E+01  0.40000000000E+01  0.51100000000E-03 0. -1.
    9000002   -1    0    0    0    0 -0.00000000000E+00 -0.00000000000E+00  0.00000000000E+00  0.93800000000E+00  0.93800000000E+00 0.  1.
         11    1    1    2    0    0  0.28650426662E-01  0.82613165101E-01  0.11640786412E+01  0.11673581824E+01  0.51100000000E-03 0. -1.
    9000002    1    1    2    0    0 -0.87296318138E-01 -0.33505146202E+00  0.80541246609E-01  0.10031007037E+01  0.93800000000E+00 0.  1.
         22    1    1    2    0    0  0.58645891476E-01  0.25243829692E+00  0.27553800795E+01  0.27675411139E+01  0.00000000000E+00 0. -1.
</event>
<event>
 5    1  0.3428566E+002  0.1599647E+01  0.7818608E-02  0.3353746E+00
         11   -1    0    0    0    0  0.00000000000E+00  0.00000000000E+00  0.39999999674E+01  0.40000000000E+01  0.51100000000E-03 0. -1.
    9000002   -1    0    0    0    0 -0.00000000000E+00 -0.00000000000E+00  0.00000000000E+00  0.93800000000E+00  0.93800000000E+00 0.  1.
         11    1    1    2    0    0 -0.15156425240E+00 -0.82105235848E-01  0.17912478748E+01  0.17995227708E+01  0.51100000000E-03 0. -1.
    9000002    1    1    2    0    0  0.32277936950E+00  0.19101480080E+00  0.94618737548E-01  0.10146279520E+01  0.93800000000E+00 0.  1.
         22    1    1    2    0    0 -0.17121511710E+00 -0.10890956495E+00  0.21141333550E+01  0.21238492772E+01  0.00000000000E+00 0. -1.
</event>
<event>
 5    1  0.3428566E+002  0.1599668E+01  0.7818608E-02  0.3353724E+00
         11   -1    0    0    0    0  0.00000000000E+00  0.00000000000E+00  0.39999999674E+01  0.40000000000E+01  0.51100000000E-03 0.  1.
    9000002   -1    0    0    0    0 -0.00000000000E+00 -0.00000000000E+00  0.00000000000E+00  0.93800000000E+00  0.93800000000E+00 0. -1.
         11    1    1    2    0    0  0.27000963012E-01 -0.70208724028E-02  0.22026728100E+00  0.22202765786E+00  0.51100000000E-03 0.  1.
    9000002    1    1    2    0    0 -0.48797219897E+00  0.10007653189E+00  0.16981555386E+00  0.10755526494E+01  0.93800000000E+00 0. -1.
         22    1    1    2    0    0  0.46097123595E+00 -0.93055659489E-01  0.36099171325E+01  0.36404196928E+01  0.00000000000E+00 0.  1.
</event>
<event>
 5    1  0.3428566E+002  0.1599669E+01  0.7818608E-02  0.3353723E+00
         11   -1    0    0    0    0  0.00000000000E+00  0.00000000000E+00  0.39999999674E+01  0.40000000000E+01  0.51100000000E-03 0. -1.
    9000002   -1    0    0    0    0 -0.00000000000E+00 -0.00000000000E+00  0.00000000000E+00  0.93800000000E+00  0.93800000000E+00 0. -1.
         11    1    1    2    0    0 -0.46255880265E-01 -0.90223754218E-01  0.10061413145E+01  0.10112371325E+01  0.51100000000E-03 0. -1.
    9000002    1    1    2    0    0  0.16848154508E+00  0.35407732514E+00  0.10361512058E+00  0.10219280192E+01  0.93800000000E+00 0. -1.
         22    1    1    2    0    0 -0.12222566482E+00 -0.26385357092E+00  0.28902435323E+01  0.29048348483E+01  0.00000000000E+00 0. -1.
</event>
<event>
 5    1  0.3428566E+002  0.1488878E+01  0.7818608E-02  0.3483568E+00
         11   -1    0    0    0    0  0.00000000000E+00  0.00000000000E+00  0.39999999674E+01  0.40000000000E+01  0.51100000000E-03 0. -1.
    9000002   -1    0    0    0    0 -0.00000000000E+00 -0.00000000000E+00  0.00000000000E+00  0.93800000000E+00  0.93800000000E+00 0.  1.
         11    1    1    2    0    0 -0.40350505273E+00  0.25422061681E+00  0.21223991981E+01  0.21753213709E+01  0.51100000000E-03 0. -1.
    9000002    1    1    2    0    0  0.49013697149E-01 -0.22545015726E+00  0.12459718436E+00  0.97396025292E+00  0.93800000000E+00 0.  1.
         22    1    1    2    0    0  0.35449135558E+00 -0.28770459548E-01  0.17530035849E+01  0.17887183762E+01  0.00000000000E+00 0. -1.
</event>
<event>
 5    1  0.3638703E+002  0.1592052E+01  0.7818608E-02  0.3362036E+00
         11   -1    0    0    0    0  0.00000000000E+00  0.00000000000E+00  0.39999999674E+01  0.40000000000E+01  0.51100000000E-03 0.  1.
    9000002   -1    0    0    0    0 -0.00000000000E+00 -0.00000000000E+00  0.00000000000E+00  0.93800000000E+00  0.93800000000E+00 0. -1.
         11    1    1    2    0    0 -0.36693790196E-01  0.25274427729E-01  0.13345421166E+01  0.13352857946E+01  0.51100000000E-03 0.  1.
    9000002    1    1    2    0    0 -0.17007031188E+00  0.21528894680E-01  0.25107328126E-01  0.95386675286E+00  0.93800000000E+00 0. -1.
         22    1    1    2    0    0  0.20676410207E+00 -0.46803322409E-01  0.26403505226E+01  0.26488474526E+01  0.00000000000E+00 0.  1.
</event>
<event>
 5    1  0.3428566E+002  0.1599598E+01  0.7818608E-02  0.3353799E+00
         11   -1    0    0    0    0  0.00000000000E+00  0.00000000000E+00  0.39999999674E+01  0.40000000000E+01  0.51100000000E-03 0. -1.
    9000002   -1    0    0    0    0 -0.00000000000E+00 -0.00000000000E+00  0.00000000000E+00  0.93800000000E+00  0.93800000000E+00 0.  1.
         11    1    1    2    0    0 -0.19750563559E+00 -0.61039961120E-01  0.18983179884E+01  0.19095407299E+01  0.51100000000E-03 0. -1.
    9000002    1    1    2    0    0  0.39659748535E+00  0.10451527722E+00  0.11367875256E+00  0.10300387698E+01  0.93800000000E+00 0.  1.
         22    1    1    2    0    0 -0.19909184976E+00 -0.43475316105E-01  0.19880032264E+01  0.19984205002E+01  0.00000000000E+00 0. -1.
</event>
<event>
 5    1  0.3428566E+002  0.1599673E+01  0.7818608E-02  0.3353718E+00
         11   -1    0    0    0    0  0.00000000000E+00  0.00000000000E+00  0.39999999674E+01  0.40000000000E+01  0.51100000000E-03 0. -1.
    9000002   -1    0    0    0    0 -0.00000000000E+00 -0.00000000000E+00  0.00000000000E+00  0.93800000000E+00  0.93800000000E+00 0. -1.
         11    1    1    2    0    0  0.10530815855E+00  0.38434730150E+00  0.21163618167E+01  0.21535552597E+01  0.51100000000E-03 0. -1.
    9000002    1    1    2    0    0 -0.18447597177E+00 -0.66198306137E+00  0.33636853765E+00  0.12104712929E+01  0.93800000000E+00 0. -1.
         22    1    1    2    0    0  0.79167813216E-01  0.27763575987E+00  0.15472696130E+01  0.15739734474E+01  0.00000000000E+00 0. -1.
</event>
<event>
 5    1  0.3428566E+002  0.1599675E+01  0.7818608E-02  0.3353717E+00
         11   -1    0    0    0    0  0.00000000000E+00  0.00000000000E+00  0.39999999674E+01  0.40000000000E+01  0.51100000000E-03 0. -1.
    9000002   -1    0    0    0    0 -0.00000000000E+00 -0.00000000000E+00  0.00000000000E+00  0.93800000000E+00  0.93800000000E+00 0. -1.
         11    1    1    2    0    0  0.71403777158E-02 -0.66974790504E-02  0.13445255611E+00  0.13480946623E+00  0.51100000000E-03 0. -1.
    9000002    1    1    2    0    0 -0.21133707084E+00  0.18308710026E+00  0.52064200626E-01  0.98017290555E+00  0.93800000000E+00 0. -1.
         22    1    1    2    0    0  0.20419669312E+00 -0.17638962121E+00  0.38134832106E+01  0.38230176282E+01  0.00000000000E+00 0. -1.
</event>
<event>
 5    1  0.3428566E+002  0.1599401E+01  0.7818608E-02  0.3354014E+00
         11   -1    0    0    0    0  0.00000000000E+00  0.00000000000E+00  0.39999999674E+01  0.40000000000E+01  0.51100000000E-03 0. -1.
    9000002   -1    0    0    0    0 -0.00000000000E+00 -0.00000000000E+00  0.00000000000E+00  0.93800000000E+00  0.93800000000E+00 0. -1.
         11    1    1    2    0    0  0.21715974588E+00  0.62459476357E-01  0.18574189048E+01  0.18711132489E+01  0.51100000000E-03 0. -1.
    9000002    1    1    2    0    0 -0.41417367753E+00 -0.11452489017E+00  0.12528539073E+00  0.10393248841E+01  0.93800000000E+00 0. -1.
         22    1    1    2    0    0  0.19701393165E+00  0.52065413809E-01  0.20172956719E+01  0.20275618669E+01  0.00000000000E+00 0.  1.
</event>
<event>
 5    1  0.3428566E+002  0.1599583E+01  0.7818608E-02  0.3353817E+00
         11   -1    0    0    0    0  0.00000000000E+00  0.00000000000E+00  0.39999999674E+01  0.40000000000E+01  0.51100000000E-03 0. -1.
    9000002   -1    0    0    0    0 -0.00000000000E+00 -0.00000000000E+00  0.00000000000E+00  0.93800000000E+00  0.93800000000E+00 0.  1.
         11    1    1    2    0    0 -0.35384402068E-02 -0.16369723558E+00  0.15866117134E+01  0.15950380233E+01  0.51100000000E-03 0. -1.
    9000002    1    1    2    0    0 -0.17773405774E-01  0.39211851245E+00  0.10390477240E+00  0.10221120406E+01  0.93800000000E+00 0.  1.
         22    1    1    2    0    0  0.21311845981E-01 -0.22842127687E+00  0.23094834816E+01  0.23208499361E+01  0.00000000000E+00 0. -1.
</event>
<event>
 5    1  0.3428566E+002  0.1599628E+01  0.7818608E-02  0.3353767E+00
         11   -1    0    0    0    0  0.00000000000E+00  0.00000000000E+00  0.39999999674E+01  0.40000000000E+01  0.51100000000E-03 0.  1.
    9000002   -1    0    0    0    0 -0.00000000000E+00 -0.00000000000E+00  0.00000000000E+00  0.93800000000E+00  0.93800000000E+00 0.  1.
         11    1    1    2    0    0 -0.16746259619E-01  0.27652986416E-03  0.15874831851E+00  0.15963020839E+00  0.51100000000E-03 0.  1.
    9000002    1    1    2    0    0  0.34688521549E+00 -0.53428100174E-01  0.82644208463E-01  0.10049169019E+01  0.93800000000E+00 0.  1.
         22    1    1    2    0    0 -0.33013895587E+00  0.53151570310E-01  0.37586074404E+01  0.37734528897E+01  0.00000000000E+00 0.  1.
</event>
<event>
 5    1  0.3428566E+002  0.1578252E+01  0.7818608E-02  0.3377312E+00
         11   -1    0    0    0    0  0.00000000000E+00  0.00000000000E+00  0.39999999674E+01  0.40000000000E+01  0.51100000000E-03 0. -1.
    9000002   -1    0    0    0    0 -0.00000000000E+00 -0.00000000000E+00  0.00000000000E+00  0.93800000000E+00  0.93800000000E+00 0. -1.
         11    1    1    2    0    0 -0.99734084482E-02  0.72686347207E-01  0.25866772008E+01  0.25877175225E+01  0.51100000000E-03 0. -1.
    9000002    1    1    2    0    0 -0.78232727828E-01 -0.34440680244E+00  0.10115806293E+00  0.10073794513E+01  0.93800000000E+00 0. -1.
         22    1    1    2    0    0  0.88206136276E-01  0.27172045523E+00  0.13121647037E+01  0.13429030262E+01  0.00000000000E+00 0. -1.
</event>
<event>
 5    1  0.3428566E+002  0.1598993E+01  0.7818608E-02  0.3354457E+00
         11   -1    0    0    0    0  0.00000000000E+00  0.00000000000E+00  0.39999999674E+01  0.40000000000E+01  0.51100000000E-03 0.  1.
    9000002   -1    0    0    0    0 -0.00000000000E+00 -0.00000000000E+00  0.00000000000E+00  0.93800000000E+00  0.93800000000E+00 0.  1.
         11    1    1    2    0    0 -0.15880708400E-01 -0.36770863796E-02  0.24982575785E+00  0.25035752090E+00  0.51100000000E-03 0.  1.
    9000002    1    1    2    0    0  0.55171428528E-01  0.19994604595E+00  0.29008455812E-01  0.96109718464E+00  0.93800000000E+00 0.  1.
         22    1    1    2    0    0 -0.39290720128E-01 -0.19626895957E+00  0.37211657537E+01  0.37265452945E+01  0.00000000000E+00 0.  1.
</event>
<event>
 5    1  0.3428566E+002  0.1599676E+01  0.7818608E-02  0.3353715E+00
         11   -1    0    0    0    0  0.00000000000E+00  0.00000000000E+00  0.39999999674E+01  0.40000000000E+01  0.51100000000E-03 0. -1.
    9000002   -1    0    0    0    0 -0.00000000000E+00 -0.00000000000E+00  0.00000000000E+00  0.93800000000E+00  0.93800000000E+00 0.  1.
         11    1    1    2    0    0  0.45094895740E-01  0.12208697585E+00  0.13082886187E+01  0.13147464205E+01  0.51100000000E-03 0. -1.
    9000002    1    1    2    0    0 -0.13574748477E+00 -0.36729469935E+00  0.10331674294E+00  0.10216903274E+01  0.93800000000E+00 0.  1.
         22    1    1    2    0    0  0.90652589035E-01  0.24520772349E+00  0.25883946057E+01  0.26015632521E+01  0.00000000000E+00 0. -1.
</event>
<event>
 5    1  0.3428566E+002  0.1599305E+01  0.7818608E-02  0.3354118E+00
         11   -1    0    0    0    0  0.00000000000E+00  0.00000000000E+00  0.39999999674E+01  0.40000000000E+01  0.51100000000E-03 0. -1.
    9000002   -1    0    0    0    0 -0.00000000000E+00 -0.00000000000E+00  0.00000000000E+00  0.93800000000E+00  0.93800000000E+00 0.  1.
         11    1    1    2    0    0  0.10117058393E+00 -0.36332794739E-01  0.96863183655E+00  0.97457860377E+00  0.51100000000E-03 0. -1.
    9000002    1    1    2    0    0 -0.34278711213E+00  0.99516024130E-01  0.85793993615E-01  0.10072790342E+01  0.93800000000E+00 0.  1.
         22    1    1    2    0    0  0.24161652820E+00 -0.63183229390E-01  0.29455741372E+01  0.29561423621E+01  0.00000000000E+00 0. -1.
</event>
<event>
 5    1  0.3428566E+002  0.1598332E+01  0.7818608E-02  0.3355175E+00
         11   -1    0    0    0    0  0.00000000000E+00  0.00000000000E+00  0.39999999674E+01  0.40000000000E+01  0.51100000000E-03 0. -1.
    9000002   -1    0    0    0    0 -0.00000000000E+00 -0.00000000000E+00  0.00000000000E+00  0.93800000000E+00  0.93800000000E+00 0.  1.
         11    1    1    2    0    0  0.10967033054E-02 -0.57606711746E-01  0.93790472094E+00  0.93967295517E+00  0.51100000000E-03 0. -1.
    9000002    1    1    2    0    0  0.15326072923E+00  0.24829449357E+00  0.57803231812E-01  0.98403466416E+00  0.93800000000E+00 0.  1.
         22    1    1    2    0    0 -0.15435743254E+00 -0.19068778183E+00  0.30042920146E+01  0.30142923807E+01  0.00000000000E+00 0. -1.
</event>
<event>
 5    1  0.3428566E+002  0.1599622E+01  0.7818608E-02  0.3353774E+00
         11   -1    0    0    0    0  0.00000000000E+00  0.00000000000E+00  0.39999999674E+01  0.40000000000E+01  0.51100000000E-03 0.  1.
    9000002   -1    0    0    0    0 -0.00000000000E+00 -0.00000000000E+00  0.00000000000E+00  0.93800000000E+00  0.93800000000E+00 0. -1.
         11    1    1    2    0    0 -0.10289532598E-01  0.37367604998E-01  0.48944025979E+00  0.49097275017E+00  0.51100000000E-03 0.  1.
    9000002    1    1    2    0    0  0.11845155574E+00 -0.32952784020E+00  0.82263288394E-01  0.10046047069E+01  0.93800000000E+00 0. -1.
         22    1    1    2    0    0 -0.10816202314E+00  0.29216023521E+00  0.34282964192E+01  0.34424225429E+01  0.00000000000E+00 0.  1.
</event>
<event>
 5    1  0.3428566E+002  0.1588900E+01  0.7818608E-02  0.3365499E+00
         11   -1    0    0    0    0  0.00000000000E+00  0.00000000000E+00  0.39999999674E+01  0.40000000000E+01  0.51100000000E-03 0.  1.
    9000002   -1    0    0    0    0 -0.00000000000E+00 -0.00000000000E+00  0.00000000000E+00  0.93800000000E+00  0.93800000000E+00 0. -1.
         11    1    1    2    0    0 -0.17948850463E+00  0.46515127642E-01  0.10435564996E+01  0.10599010375E+01  0.51100000000E-03 0.  1.
    9000002    1    1    2    0    0  0.42679068636E+00  0.16475549137E+00  0.15173208246E+00  0.10545905778E+01  0.93800000000E+00 0. -1.
         22    1    1    2    0    0 -0.24730218173E+00 -0.21127061901E+00  0.28047113853E+01  0.28235083847E+01  0.00000000000E+00 0.  1.
</event>
<event>
 5    1  0.3428566E+002  0.1599380E+01  0.7818608E-02  0.3354036E+00
         11   -1    0    0    0    0  0.00000000000E+00  0.00000000000E+00  0.39999999674E+01  0.40000000000E+01  0.51100000000E-03 0.  1.
    9000002   -1    0    0    0    0 -0.00000000000E+00 -0.00000000000E+00  0.00000000000E+00  0.93800000000E+00  0.93800000000E+00 0.  1.
         11    1    1    2    0    0  0.51265144177E-01 -0.17773220814E+00  0.17094593241E+01  0.17194383660E+01  0.51100000000E-03 0.  1.
    9000002    1    1    2    0    0 -0.13388525339E+00  0.36155992523E+00  0.10033039592E+00  0.10190981449E+01  0.93800000000E+00 0.  1.
         22    1    1    2    0    0  0.82620109210E-01 -0.18382771709E+00  0.21902102474E+01  0.21994634890E+01  0.00000000000E+00 0.  1.
</event>
<event>
 5    1  0.3428566E+002  0.1599350E+01  0.7818608E-02  0.3354069E+00
         11   -1    0    0    0    0  0.00000000000E+00  0.00000000000E+00  0.39999999674E+01  0.40000000000E+01  0.51100000000E-03 0.  1.
    9000002   -1    0    0    0    0 -0.00000000000E+00 -0.00000000000E+00  0.00000000000E+00  0.93800000000E+00  0.93800000000E+00 0.  1.
         11    1    1    2    0    0  0.32492703582E-01  0.10691652713E+00  0.12829476711E+01  0.12878050735E+01  0.51100000000E-03 0.  1.
    9000002    1    1    2    0    0 -0.15310894816E+00 -0.29523606924E+00  0.74285087927E-01  0.99798244517E+00  0.93800000000E+00 0.  1.
         22    1    1    2    0    0  0.12061624458E+00  0.18831954211E+00  0.26427672083E+01  0.26522124813E+01  0.00000000000E+00 0.  1.
</event>
<event>
 5    1  0.3428566E+002  0.1599325E+01  0.7818608E-02  0.3354096E+00
         11   -1    0    0    0    0  0.00000000000E+00  0.00000000000E+00  0.39999999674E+01  0.40000000000E+01  0.51100000000E-03 0.  1.
    9000002   -1    0    0    0    0 -0.00000000000E+00 -0.00000000000E+00  0.00000000000E+00  0.93800000000E+00  0.93800000000E+00 0. -1.
         11    1    1    2    0    0  0.13264820848E+00  0.23644029637E-01  0.10484644214E+01  0.10570867946E+01  0.51100000000E-03 0.  1.
    9000002    1    1    2    0    0 -0.44397274789E+00 -0.28187563716E-01  0.13461651168E+00  0.10468390253E+01  0.93800000000E+00 0. -1.
         22    1    1    2    0    0  0.31132453941E+00  0.45435340793E-02  0.28169190343E+01  0.28340741801E+01  0.00000000000E+00 0.  1.
</event>
<event>
 5    1  0.3428566E+002  0.1589382E+01  0.7818608E-02  0.3364969E+00
         11   -1    0    0    0    0  0.00000000000E+00  0.00000000000E+00  0.39999999674E+01  0.40000000000E+01  0.51100000000E-03 0.  1.
    9000002   -1    0    0    0    0 -0.00000000000E+00 -0.00000000000E+00  0.00000000000E+00  0.93800000000E+00  0.93800000000E+00 0.  1.
         11    1    1    2    0    0 -0.11867935127E+00  0.21480779467E+00  0.20197167737E+01  0.20345720150E+01  0.51100000000E-03 0.  1.
    9000002    1    1    2    0    0 -0.42066648665E-02 -0.38197232259E+00  0.10671449001E+00  0.10184068606E+01  0.93800000000E+00 0.  1.
         22    1    1    2    0    0  0.12288601613E+00  0.16716452792E+00  0.18735687036E+01  0.18850211245E+01  0.00000000000E+00 0.  1.
</event>
<event>
 5    1  0.3428566E+002  0.1564317E+01  0.7818608E-02  0.3393027E+00
         11   -1    0    0    0    0  0.00000000000E+00  0.00000000000E+00  0.39999999674E+01  0.40000000000E+01  0.51100000000E-03 0.  1.
    9000002   -1    0    0    0    0 -0.00000000000E+00 -0.00000000000E+00  0.00000000000E+00  0.93800000000E+00  0.93800000000E+00 0.  1.
         11    1    1    2    0    0 -0.53953646415E+00  0.33006956260E+00  0.90133037073E+00  0.11011095362E+01  0.51100000000E-03 0.  1.
    9000002    1    1    2    0    0  0.92827894985E+00 -0.70170246937E+00  0.13736734574E+01  0.20300026925E+01  0.93800000000E+00 0.  1.
         22    1    1    2    0    0 -0.38874248570E+00  0.37163290677E+00  0.17249961393E+01  0.18068877713E+01  0.00000000000E+00 0.  1.
</event>
<event>
 5    1  0.3428566E+002  0.1597691E+01  0.7818608E-02  0.3355873E+00
         11   -1    0    0    0    0  0.00000000000E+00  0.00000000000E+00  0.39999999674E+01  0.40000000000E+01  0.51100000000E-03 0. -1.
    9000002   -1    0    0    0    0 -0.00000000000E+00 -0.00000000000E+00  0.00000000000E+00  0.93800000000E+00  0.93800000000E+00 0.  1.
         11    1    1    2    0    0  0.13748713551E-01 -0.20589938286E-01  0.67798027215E+00  0.67843237189E+00  0.51100000000E-03 0. -1.
    9000002    1    1    2    0    0 -0.25252989522E+00 -0.40927821275E-01  0.45018021854E-01  0.97330214056E+00  0.93800000000E+00 0.  1.
         22    1    1    2    0    0  0.23878118167E+00  0.61517759561E-01  0.32770016734E+01  0.32862654875E+01  0.00000000000E+00 0. -1.
</event>
<event>
 5    1  0.3428566E+002  0.1590426E+01  0.7818608E-02  0.3363821E+00
         11   -1    0    0    0    0  0.00000000000E+00  0.00000000000E+00  0.39999999674E+01  0.40000000000E+01  0.51100000000E-03 0.  1.
    9000002   -1    0    0    0    0 -0.00000000000E+00 -0.00000000000E+00  0.00000000000E+00  0.93800000000E+00  0.93800000000E+00 0.  1.
         11    1    1    2    0    0  0.75818918742E-01 -0.65706757638E-02  0.27824934708E+00  0.28846948277E+00  0.51100000000E-03 0.  1.
    9000002    1    1    2    0    0 -0.26431552484E+00 -0.16977938033E+00  0.73256354163E-01  0.99191644209E+00  0.93800000000E+00 0.  1.
         22    1    1    2    0    0  0.18849660609E+00  0.17635005609E+00  0.36484942661E+01  0.36576140751E+01  0.00000000000E+00 0.  1.
</event>
<event>
 5    1  0.3428566E+002  0.1599524E+01  0.7818608E-02  0.3353880E+00
         11   -1    0    0    0    0  0.00000000000E+00  0.00000000000E+00  0.39999999674E+01  0.40000000000E+01  0.51100000000E-03 0. -1.
    9000002   -1    0    0    0    0 -0.00000000000E+00 -0.00000000000E+00  0.00000000000E+00  0.93800000000E+00  0.93800000000E+00 0.  1.
         11    1    1    2    0    0  0.10099799247E-01 -0.33611159725E-01  0.63138316082E+00  0.63235802588E+00  0.51100000000E-03 0. -1.
    9000002    1    1    2    0    0 -0.90165306338E-01  0.27266750047E+00  0.55076389287E-01  0.98252468515E+00  0.93800000000E+00 0.  1.
         22    1    1    2    0    0  0.80065507092E-01 -0.23905634075E+00  0.33135404173E+01  0.33231172890E+01  0.00000000000E+00 0. -1.
</event>
<event>
 5    1  0.3428566E+002  0.1598539E+01  0.7818608E-02  0.3354950E+00
         11   -1    0    0    0    0  0.00000000000E+00  0.00000000000E+00  0.39999999674E+01  0.40000000000E+01  0.51100000000E-03 0. -1.
    9000002   -1    0    0    0    0 -0.00000000000E+00 -0.00000000000E+00  0.00000000000E+00  0.93800000000E+00  0.93800000000E+00 0. -1.
         11    1    1    2    0    0 -0.15328599663E-03 -0.54728822673E-02  0.13101616641E-01  0.14208779557E-01  0.51100000000E-03 0. -1.
    9000002    1    1    2    0    0 -0.31764574390E-01  0.21958500632E+00  0.33494426857E-01  0.96446484634E+00  0.93800000000E+00 0. -1.
         22    1    1    2    0    0  0.31917860386E-01 -0.21411212406E+00  0.39534039239E+01  0.39593263741E+01  0.00000000000E+00 0. -1.
</event>
<event>
 5    1  0.3428566E+002  0.1599630E+01  0.7818608E-02  0.3353765E+00
         11   -1    0    0    0    0  0.00000000000E+00  0.00000000000E+00  0.39999999674E+01  0.40000000000E+01  0.51100000000E-03 0.  1.
    9000002   -1    0    0    0    0 -0.00000000000E+00 -0.00000000000E+00  0.00000000000E+00  0.93800000000E+00  0.93800000000E+00 0.  1.
         11    1    1    2    0    0  0.41735299212E-03 -0.22512180771E-01  0.34102542047E+00  0.34176830016E+00  0.51100000000E-03 0.  1.
    9000002    1    1    2    0    0 -0.18793582066E-01  0.31113831068E+00  0.64925637898E-01  0.99056528586E+00  0.93800000000E+00 0.  1.
         22    1    1    2    0    0  0.18376229074E-01 -0.28862612991E+00  0.35940489090E+01  0.36056664140E+01  0.00000000000E+00 0.  1.
</event>
<event>
 5    1  0.3428566E+002  0.1596957E+01  0.7818608E-02  0.3356673E+00
         11   -1    0    0    0    0  0.00000000000E+00  0.00000000000E+00  0.39999999674E+01  0.40000000000E+01  0.51100000000E-03 0. -1.
    9000002   -1    0    0    0    0 -0.00000000000E+00 -0.00000000000E+00  0.00000000000E+00  0.93800000000E+00  0.93800000000E+00 0. -1.
         11    1    1    2    0    0 -0.55592540005E-01 -0.43243983399E-01  0.38246565296E+00  0.38889691361E+00  0.51100000000E-03 0. -1.
    9000002    1    1    2    0    0  0.36525644506E+00  0.11495812294E+00  0.10093185013E+00  0.10181644656E+01  0.93800000000E+00 0. -1.
         22    1    1    2    0    0 -0.30966390505E+00 -0.71714139544E-01  0.35166024643E+01  0.35309386208E+01  0.00000000000E+00 0. -1.
</event>
<event>
 5    1  0.3428566E+002  0.1597419E+01  0.7818608E-02  0.3356169E+00
         11   -1    0    0    0    0  0.00000000000E+00  0.00000000000E+00  0.39999999674E+01  0.40000000000E+01  0.51100000000E-03 0.  1.
    9000002   -1    0    0    0    0 -0.00000000000E+00 -0.00000000000E+00  0.00000000000E+00  0.93800000000E+00  0.93800000000E+00 0.  1.
         11    1    1    2    0    0  0.13890308543E-01 -0.35004678471E-01  0.21118004569E+00  0.21451233299E+00  0.51100000000E-03 0.  1.
    9000002    1    1    2    0    0  0.12359044304E+00  0.35444099218E+00  0.96601897569E-01  0.10149280473E+01  0.93800000000E+00 0.  1.
         22    1    1    2    0    0 -0.13748075158E+00 -0.31943631371E+00  0.36922180241E+01  0.37085596197E+01  0.00000000000E+00 0.  1.
</event>
<event>
 5    1  0.3428566E+002  0.1599664E+01  0.7818608E-02  0.3353728E+00
         11   -1    0    0    0    0  0.00000000000E+00  0.00000000000E+00  0.39999999674E+01  0.40000000000E+01  0.51100000000E-03 0. -1.
    9000002   -1    0    0    0    0 -0.00000000000E+00 -0.00000000000E+00  0.00000000000E+00  0.93800000000E+00  0.93800000000E+00 0.  1.
         11    1    1    2    0    0  0.14111474257E+00 -0.62971265480E-02  0.12814771664E+01  0.12892389280E+01  0.51100000000E-03 0. -1.
    9000002    1    1    2    0    0 -0.42479392676E+00  0.70848316353E-02  0.12216477315E+00  0.10369514486E+01  0.93800000000E+00 0.  1.
         22    1    1    2    0    0  0.28367918419E+00 -0.78770508725E-03  0.25963580278E+01  0.26118096233E+01  0.00000000000E+00 0. -1.
</event>
<event>
 5    1  0.3428566E+002  0.1599460E+01  0.7818608E-02  0.3353950E+00
         11   -1    0    0    0    0  0.00000000000E+00  0.00000000000E+00  0.39999999674E+01  0.40000000000E+01  0.51100000000E-03 0.  1.
    9000002   -1    0    0    0    0 -0.00000000000E+00 -0.00000000000E+00  0.00000000000E+00  0.93800000000E+00  0.93800000000E+00 0.  1.
         11    1    1    2    0    0 -0.66421535382E-01 -0.43157453277E-01  0.76336493103E+00  0.76746378754E+00  0.51100000000E-03 0.  1.
    9000002    1    1    2    0    0  0.30746882847E+00  0.15760661402E+00  0.80178364565E-01  0.10028207693E+01  0.93800000000E+00 0.  1.
         22    1    1    2    0    0 -0.24104729309E+00 -0.11444916074E+00  0.31564566718E+01  0.31677154431E+01  0.00000000000E+00 0.  1.
</event>
<event>
 5    1  0.3428566E+002  0.1594979E+01  0.7818608E-02  0.3358831E+00
         11   -1    0    0    0    0  0.00000000000E+00  0.00000000000E+00  0.39999999674E+01  0.40000000000E+01  0.51100000000E-03 0.  1.
    9000002   -1    0    0    0    0 -0.00000000000E+00 -0.00000000000E+00  0.00000000000E+00  0.93800000000E+00  0.93800000000E+00 0.  1.
         11    1    1    2    0    0 -0.30935654064E-01 -0.17265255121E-02  0.26076380812E+00  0.26259859164E+00  0.51100000000E-03 0.  1.
    9000002    1    1    2    0    0 -0.10944862007E+00  0.25214296743E+00  0.53931473163E-01  0.97893190788E+00  0.93800000000E+00 0.  1.
         22    1    1    2    0    0  0.14038427414E+00 -0.25041644192E+00  0.36853046861E+01  0.36964695005E+01  0.00000000000E+00 0.  1.
</event>
<event>
 5    1  0.3428566E+002  0.1599641E+01  0.7818608E-02  0.3353753E+00
         11   -1    0    0    0    0  0.00000000000E+00  0.00000000000E+00  0.39999999674E+01  0.40000000000E+01  0.51100000000E-03 0.  1.
    9000002   -1    0    0    0    0 -0.00000000000E+00 -0.00000000000E+00  0.00000000000E+00  0.93800000000E+00  0.93800000000E+00 0. -1.
         11    1    1    2    0    0  0.19380359116E-02 -0.47971153422E-01  0.59076434034E+00  0.59271220207E+00  0.51100000000E-03 0.  1.
    9000002    1    1    2    0    0 -0.14471070910E-01  0.28615767556E+00  0.54727678462E-01  0.98231092123E+00  0.93800000000E+00 0. -1.
         22    1    1    2    0    0  0.12533034998E-01 -0.23818652214E+00  0.33545079486E+01  0.33629768767E+01  0.00000000000E+00 0.  1.
</event>
<event>
 5    1  0.3428566E+002  0.1599298E+01  0.7818608E-02  0.3354125E+00
         11   -1    0    0    0    0  0.00000000000E+00  0.00000000000E+00  0.39999999674E+01  0.40000000000E+01  0.51100000000E-03 0. -1.
    9000002   -1    0    0    0    0 -0.00000000000E+00 -0.00000000000E+00  0.00000000000E+00  0.93800000000E+00  0.93800000000E+00 0.  1.
         11    1    1    2    0    0  0.60317457023E-01 -0.63439468753E-01  0.83012978335E+00  0.83473258002E+00  0.51100000000E-03 0. -1.
    9000002    1    1    2    0    0 -0.34424402091E+00  0.23187362823E+00  0.11674733544E+00  0.10323484226E+01  0.93800000000E+00 0.  1.
         22    1    1    2    0    0  0.28392656389E+00 -0.16843415947E+00  0.30531228486E+01  0.30709189973E+01  0.00000000000E+00 0. -1.
</event>
<event>
 5    1  0.3428566E+002  0.1599656E+01  0.7818608E-02  0.3353737E+00
         11   -1    0    0    0    0  0.00000000000E+00  0.00000000000E+00  0.39999999674E+01  0.40000000000E+01  0.51100000000E-03 0. -1.
    9000002   -1    0    0    0    0 -0.00000000000E+00 -0.00000000000E+00  0.00000000000E+00  0.93800000000E+00  0.93800000000E+00 0. -1.
         11    1    1    2    0    0 -0.20828205148E-01  0.49951599222E-01  0.71189152287E+00  0.71394592081E+00  0.51100000000E-03 0. -1.
    9000002    1    1    2    0    0  0.93612257069E-01 -0.26850348427E+00  0.53880850682E-01  0.98163359855E+00  0.93800000000E+00 0. -1.
         22    1    1    2    0    0 -0.72784051921E-01  0.21855188505E+00  0.32342275938E+01  0.32424204806E+01  0.00000000000E+00 0. -1.
</event>
<event>
 5    1  0.3428566E+002  0.1598712E+01  0.7818608E-02  0.3354762E+00
         11   -1    0    0    0    0  0.00000000000E+00  0.00000000000E+00  0.39999999674E+01  0.40000000000E+01  0.51100000000E-03 0.  1.
    9000002   -1    0    0    0    0 -0.00000000000E+00 -0.00000000000E+00  0.00000000000E+00  0.93800000000E+00  0.93800000000E+00 0.  1.
         11    1    1    2    0    0 -0.14305986664E-01  0.20120732494E-01  0.34198375989E+00  0.34287411434E+00  0.51100000000E-03 0.  1.
    9000002    1    1    2    0    0  0.39971880393E+00 -0.25125680119E+00  0.15275226240E+00  0.10611702766E+01  0.93800000000E+00 0.  1.
         22    1    1    2    0    0 -0.38541281727E+00  0.23113606870E+00  0.35052639451E+01  0.35339556090E+01  0.00000000000E+00 0.  1.
</event>
<event>
 5    1  0.3428566E+002  0.1599656E+01  0.7818608E-02  0.3353737E+00
         11   -1    0    0    0    0  0.00000000000E+00  0.00000000000E+00  0.39999999674E+01  0.40000000000E+01  0.51100000000E-03 0. -1.
    9000002   -1    0    0    0    0 -0.00000000000E+00 -0.00000000000E+00  0.00000000000E+00  0.93800000000E+00  0.93800000000E+00 0.  1.
         11    1    1    2    0    0  0.40962374427E+00 -0.15853547730E+00  0.25464384867E+01  0.25840422475E+01  0.51100000000E-03 0. -1.
    9000002    1    1    2    0    0 -0.59825835646E+00  0.23808521170E+00  0.29215669367E+00  0.11746476760E+01  0.93800000000E+00 0.  1.
         22    1    1    2    0    0  0.18863461219E+00 -0.79549734401E-01  0.11614047870E+01  0.11793100764E+01  0.00000000000E+00 0. -1.
</event>
<event>
 5    1  0.3428566E+002  0.1599675E+01  0.7818608E-02  0.3353716E+00
         11   -1    0    0    0    0  0.00000000000E+00  0.00000000000E+00  0.39999999674E+01  0.40000000000E+01  0.51100000000E-03 0.  1.
    9000002   -1    0    0    0    0 -0.00000000000E+00 -0.00000000000E+00  0.00000000000E+00  0.93800000000E+00  0.93800000000E+00 0.  1.
         11    1    1    2    0    0 -0.19919137820E+00 -0.12156422608E+00  0.17826464004E+01  0.17978552546E+01  0.51100000000E-03 0.  1.
    9000002    1    1    2    0    0  0.42785438040E+00  0.25769239079E+00  0.17075883584E+00  0.10763211970E+01  0.93800000000E+00 0.  1.
         22    1    1    2    0    0 -0.22866300220E+00 -0.13612816471E+00  0.20465947311E+01  0.20638235484E+01  0.00000000000E+00 0.  1.
</event>
<event>
 5    1  0.3428566E+002  0.1599674E+01  0.7818608E-02  0.3353717E+00
         11   -1    0    0    0    0  0.00000000000E+00  0.00000000000E+00  0.39999999674E+01  0.40000000000E+01  0.51100000000E-03 0. -1.
    9000002   -1    0    0    0    0 -0.00000000000E+00 -0.00000000000E+00  0.00000000000E+00  0.93800000000E+00  0.93800000000E+00 0.  1.
         11    1    1    2    0    0  0.28787130491E+00 -0.48874874546E-02  0.17948520933E+01  0.18177975887E+01  0.51100000000E-03 0. -1.
    9000002    1    1    2    0    0 -0.60477126975E+00  0.93932758145E-02  0.25551237957E+00  0.11449747152E+01  0.93800000000E+00 0.  1.
         22    1    1    2    0    0  0.31689996484E+00 -0.45057883599E-02  0.19496354945E+01  0.19752276961E+01  0.00000000000E+00 0. -1.
</event>
<event>
 5    1  0.3428566E+002  0.1599670E+01  0.7818608E-02  0.3353721E+00
         11   -1    0    0    0    0  0.00000000000E+00  0.00000000000E+00  0.39999999674E+01  0.40000000000E+01  0.51100000000E-03 0. -1.
    9000002   -1    0    0    0    0 -0.00000000000E+00 -0.00000000000E+00  0.00000000000E+00  0.93800000000E+00  0.93800000000E+00 0. -1.
         11    1    1    2    0    0  0.71425061145E-01 -0.52193901741E-01  0.11806327558E+01  0.11839424429E+01  0.51100000000E-03 0. -1.
    9000002    1    1    2    0    0 -0.23835183654E+00  0.18364122225E+00  0.60407680797E-01  0.98692896623E+00  0.93800000000E+00 0. -1.
         22    1    1    2    0    0  0.16692677539E+00 -0.13144732051E+00  0.27589595307E+01  0.27671285909E+01  0.00000000000E+00 0. -1.
</event>
<event>
 5    1  0.3428566E+002  0.1546872E+01  0.7818608E-02  0.3413126E+00
         11   -1    0    0    0    0  0.00000000000E+00  0.00000000000E+00  0.39999999674E+01  0.40000000000E+01  0.51100000000E-03 0. -1.
    9000002   -1    0    0    0    0 -0.00000000000E+00 -0.00000000000E+00  0.00000000000E+00  0.93800000000E+00  0.93800000000E+00 0. -1.
         11    1    1    2    0    0  0.18387615440E+00  0.59650807903E-01  0.91097504456E+00  0.93125960504E+00  0.51100000000E-03 0. -1.
    9000002    1    1    2    0    0  0.18755772113E+00 -0.27364083061E-01  0.64292430515E-01  0.95911636855E+00  0.93800000000E+00 0. -1.
         22    1    1    2    0    0 -0.37143387553E+00 -0.32286724842E-01  0.30247324923E+01  0.30476240264E+01  0.00000000000E+00 0. -1.
</event>
<event>
 5    1  0.3428566E+002  0.1599663E+01  0.7818608E-02  0.3353729E+00
         11   -1    0    0    0    0  0.00000000000E+00  0.00000000000E+00  0.39999999674E+01  0.40000000000E+01  0.51100000000E-03 0.  1.
    9000002   -1    0    0    0    0 -0.00000000000E+00 -0.00000000000E+00  0.00000000000E+00  0.93800000000E+00  0.93800000000E+00 0. -1.
         11    1    1    2    0    0  0.28483570255E+00 -0.30830424703E+00  0.25042580333E+01  0.25391911004E+01  0.51100000000E-03 0.  1.
    9000002    1    1    2    0    0 -0.42481830731E+00  0.45281399334E+00  0.27021873280E+00  0.11568808367E+01  0.93800000000E+00 0. -1.
         22    1    1    2    0    0  0.13998260476E+00 -0.14450974631E+00  0.12255232013E+01  0.12419280629E+01  0.00000000000E+00 0.  1.
</event>
<event>
 5    1  0.3428566E+002  0.1599302E+01  0.7818608E-02  0.3354122E+00
         11   -1    0    0    0    0  0.00000000000E+00  0.00000000000E+00  0.39999999674E+01  0.40000000000E+01  0.51100000000E-03 0. -1.
    9000002   -1    0    0    0    0 -0.00000000000E+00 -0.00000000000E+00  0.00000000000E+00  0.93800000000E+00  0.93800000000E+00 0.  1.
         11    1    1    2    0    0  0.37736654722E-01 -0.88903862108E-01  0.14282251668E+01  0.14314871079E+01  0.51100000000E-03 0. -1.
    9000002    1    1    2    0    0 -0.93221531158E-01  0.30566485289E+00  0.68551828117E-01  0.99330992611E+00  0.93800000000E+00 0.  1.
         22    1    1    2    0    0  0.55484876435E-01 -0.21676099078E+00  0.25032229724E+01  0.25132029660E+01  0.00000000000E+00 0. -1.
</event>
<event>
 5    1  0.3428566E+002  0.1598419E+01  0.7818608E-02  0.3355081E+00
         11   -1    0    0    0    0  0.00000000000E+00  0.00000000000E+00  0.39999999674E+01  0.40000000000E+01  0.51100000000E-03 0. -1.
    9000002   -1    0    0    0    0 -0.00000000000E+00 -0.00000000000E+00  0.00000000000E+00  0.93800000000E+00  0.93800000000E+00 0. -1.
         11    1    1    2    0    0  0.11196992991E+00 -0.78727290824E-01  0.12938871347E+01  0.13011070017E+01  0.51100000000E-03 0. -1.
    9000002    1    1    2    0    0 -0.22083802456E+00  0.26708484839E+00  0.81511705412E-01  0.10032905399E+01  0.93800000000E+00 0. -1.
         22    1    1    2    0    0  0.10886809464E+00 -0.18835755756E+00  0.26246011273E+01  0.26336024584E+01  0.00000000000E+00 0. -1.
</event>
<event>
 5    1  0.3428566E+002  0.1599675E+01  0.7818608E-02  0.3353717E+00
         11   -1    0    0    0    0  0.00000000000E+00  0.00000000000E+00  0.39999999674E+01  0.40000000000E+01  0.51100000000E-03 0. -1.
    9000002   -1    0    0    0    0 -0.00000000000E+00 -0.00000000000E+00  0.00000000000E+00  0.93800000000E+00  0.93800000000E+00 0.  1.
         11    1    1    2    0    0  0.23471578638E-02  0.77040615562E-01  0.10511099641E+01  0.10539322480E+01  0.51100000000E-03 0. -1.
    9000002    1    1    2    0    0 -0.14341664558E-01 -0.29134479231E+00  0.56721477806E-01  0.98394552562E+00  0.93800000000E+00 0.  1.
         22    1    1    2    0    0  0.11994506694E-01  0.21430417675E+00  0.28921685254E+01  0.29001222264E+01  0.00000000000E+00 0. -1.
</event>
<event>
 5    1  0.3428566E+002  0.1595932E+01  0.7818608E-02  0.3357791E+00
         11   -1    0    0    0    0  0.00000000000E+00  0.00000000000E+00  0.39999999674E+01  0.40000000000E+01  0.51100000000E-03 0. -1.
    9000002   -1    0    0    0    0 -0.00000000000E+00 -0.00000000000E+00  0.00000000000E+00  0.93800000000E+00  0.93800000000E+00 0. -1.
         11    1    1    2    0    0  0.64057950333E-01  0.17699862798E-01  0.38062407077E+00  0.38638277720E+00  0.51100000000E-03 0. -1.
    9000002    1    1    2    0    0 -0.31715008085E+00  0.11091015026E+00  0.78572808490E-01  0.99945131020E+00  0.93800000000E+00 0. -1.
         22    1    1    2    0    0  0.25309213052E+00 -0.12861001306E+00  0.35408030881E+01  0.35521659126E+01  0.00000000000E+00 0. -1.
</event>
<event>
 5    1  0.3428566E+002  0.1599392E+01  0.7818608E-02  0.3354023E+00
         11   -1    0    0    0    0  0.00000000000E+00  0.00000000000E+00  0.39999999674E+01  0.40000000000E+01  0.51100000000E-03 0.  1.
    9000002   -1    0    0    0    0 -0.00000000000E+00 -0.00000000000E+00  0.00000000000E+00  0.93800000000E+00  0.93800000000E+00 0.  1.
         11    1    1    2    0    0 -0.19187424792E-01  0.91711818610E-02  0.49731611114E+00  0.49777087437E+00  0.51100000000E-03 0.  1.
    9000002    1    1    2    0    0  0.24882699080E+00 -0.25568659419E-01  0.41781813849E-01  0.97167810908E+00  0.93800000000E+00 0.  1.
         22    1    1    2    0    0 -0.22963956601E+00  0.16397477558E-01  0.34609020424E+01  0.34685510166E+01  0.00000000000E+00 0.  1.
</event>
<event>
 5    1  0.3428566E+002  0.1599637E+01  0.7818608E-02  0.3353757E+00
         11   -1    0    0    0    0  0.00000000000E+00  0.00000000000E+00  0.39999999674E+01  0.40000000000E+01  0.51100000000E-03 0.  1.
    9000002   -1    0    0    0    0 -0.00000000000E+00 -0.00000000000E+00  0.00000000000E+00  0.93800000000E+00  0.93800000000E+00 0. -1.
         11    1    1    2    0    0  0.47493321150E-02 -0.29516969969E-01  0.34500042460E+00  0.34629375069E+00  0.51100000000E-03 0.  1.
    9000002    1    1    2    0    0 -0.10152034001E+00  0.32463301565E+00  0.77522334910E-01  0.10007730445E+01  0.93800000000E+00 0. -1.
         22    1    1    2    0    0  0.96771007893E-01 -0.29511604568E+00  0.35774772079E+01  0.35909332048E+01  0.00000000000E+00 0.  1.
</event>
<event>
 5    1  0.3428566E+002  0.1599657E+01  0.7818608E-02  0.3353736E+00
         11   -1    0    0    0    0  0.00000000000E+00  0.00000000000E+00  0.39999999674E+01  0.40000000000E+01  0.51100000000E-03 0.  1.
    9000002   -1    0    0    0    0 -0.00000000000E+00 -0.00000000000E+00  0.00000000000E+00  0.93800000000E+00  0.93800000000E+00 0. -1.
         11    1    1    2    0    0 -0.48867086501E-01  0.26347298656E+00  0.16733066904E+01  0.16946272593E+01  0.51100000000E-03 0.  1.
    9000002    1    1    2    0    0  0.10166251469E+00 -0.58243277914E+00  0.24345786502E+00  0.11351999565E+01  0.93800000000E+00 0. -1.
         22    1    1    2    0    0 -0.52795428189E-01  0.31895979258E+00  0.20832354119E+01  0.21081727842E+01  0.00000000000E+00 0.  1.
</event>
<event>
 5    1  0.3428566E+002  0.1588492E+01  0.7818608E-02  0.3365950E+00
         11   -1    0    0    0    0  0.00000000000E+00  0.00000000000E+00  0.39999999674E+01  0.40000000000E+01  0.51100000000E-03 0.  1.
    9000002   -1    0    0    0    0 -0.00000000000E+00 -0.00000000000E+00  0.00000000000E+00  0.93800000000E+00  0.93800000000E+00 0.  1.
         11    1    1    2    0    0  0.61307400384E-01 -0.25117407694E-02  0.35689763836E+00  0.36213407955E+00  0.51100000000E-03 0.  1.
    9000002    1    1    2    0    0  0.92399057437E-01 -0.21548525839E+00  0.45015771054E-01  0.96790593657E+00  0.93800000000E+00 0.  1.
         22    1    1    2    0    0 -0.15370645782E+00  0.21799699916E+00  0.35980865580E+01  0.36079599839E+01  0.00000000000E+00 0.  1.
</event>
<event>
 5    1  0.3428566E+002  0.1460737E+01  0.7818608E-02  0.3519928E+00
         11   -1    0    0    0    0  0.00000000000E+00  0.00000000000E+00  0.39999999674E+01  0.40000000000E+01  0.51100000000E-03 0. -1.
    9000002   -1    0    0    0    0 -0.00000000000E+00 -0.00000000000E+00  0.00000000000E+00  0.93800000000E+00  0.93800000000E+00 0.  1.
         11    1    1    2    0    0 -0.20665635493E+00  0.23286067196E+00  0.36668584268E+00  0.48102984307E+00  0.51100000000E-03 0. -1.
    9000002    1    1    2    0    0 -0.41526609036E-01 -0.13557363195E+00  0.14640573395E+00  0.95988713288E+00  0.93800000000E+00 0.  1.
         22    1    1    2    0    0  0.24818296396E+00 -0.97287040010E-01  0.34869083907E+01  0.34970830241E+01  0.00000000000E+00 0. -1.
</event>
<event>
 5    1  0.3428566E+002  0.1598593E+01  0.7818608E-02  0.3354891E+00
         11   -1    0    0    0    0  0.00000000000E+00  0.00000000000E+00  0.39999999674E+01  0.40000000000E+01  0.51100000000E-03 0. -1.
    9000002   -1    0    0    0    0 -0.00000000000E+00 -0.00000000000E+00  0.00000000000E+00  0.93800000000E+00  0.93800000000E+00 0. -1.
         11    1    1    2    0    0  0.76397189888E-02 -0.29140910615E-01  0.54292340302E+00  0.54375880742E+00  0.51100000000E-03 0. -1.
    9000002    1    1    2    0    0 -0.14924019291E+00  0.38162838560E+00  0.11431306224E+00  0.10299632693E+01  0.93800000000E+00 0. -1.
         22    1    1    2    0    0  0.14160047392E+00 -0.35248747499E+00  0.33427635021E+01  0.33642779233E+01  0.00000000000E+00 0. -1.
</event>
<event>
 5    1  0.3428566E+002  0.1599522E+01  0.7818608E-02  0.3353883E+00
         11   -1    0    0    0    0  0.00000000000E+00  0.00000000000E+00  0.39999999674E+01  0.40000000000E+01  0.51100000000E-03 0. -1.
    9000002   -1    0    0    0    0 -0.00000000000E+00 -0.00000000000E+00  0.00000000000E+00  0.93800000000E+00  0.93800000000E+00 0. -1.
         11    1    1    2    0    0 -0.21454626464E+00 -0.11687839793E-02  0.20080291236E+01  0.20194585136E+01  0.51100000000E-03 0. -1.
    9000002    1    1    2    0    0  0.41582005177E+00 -0.26692274771E-01  0.11749705886E+00  0.10330868075E+01  0.93800000000E+00 0. -1.
         22    1    1    2    0    0 -0.20127378713E+00  0.27861058751E-01  0.18744737849E+01  0.18854546789E+01  0.00000000000E+00 0. -1.
</event>
<event>
 5    1  0.3428566E+002  0.1599532E+01  0.7818608E-02  0.3353872E+00
         11   -1    0    0    0    0  0.00000000000E+00  0.00000000000E+00  0.39999999674E+01  0.40000000000E+01  0.51100000000E-03 0.  1.
    9000002   -1    0    0    0    0 -0.00000000000E+00 -0.00000000000E+00  0.00000000000E+00  0.93800000000E+00  0.93800000000E+00 0. -1.
         11    1    1    2    0    0  0.17410551836E-01  0.13608949896E+00  0.94973513392E+00  0.95959395828E+00  0.51100000000E-03 0.  1.
    9000002    1    1    2    0    0 -0.20284560509E-01 -0.55286737757E+00  0.21167373197E+00  0.11093798130E+01  0.93800000000E+00 0. -1.
         22    1    1    2    0    0  0.28740086730E-02  0.41677787861E+00  0.28385911015E+01  0.28690262288E+01  0.00000000000E+00 0.  1.
</event>
<event>
 5    1  0.3428566E+002  0.1573530E+01  0.7818608E-02  0.3382604E+00
         11   -1    0    0    0    0  0.00000000000E+00  0.00000000000E+00  0.39999999674E+01  0.40000000000E+01  0.51100000000E-03 0. -1.
    9000002   -1    0    0    0    0 -0.00000000000E+00 -0.00000000000E+00  0.00000000000E+00  0.93800000000E+00  0.93800000000E+00 0.  1.
         11    1    1    2    0    0  0.27064198514E-01 -0.85886942994E-01  0.48190559408E+00  0.49024718311E+00  0.51100000000E-03 0. -1.
    9000002    1    1    2    0    0  0.26735208108E+00 -0.22067592534E+00  0.10186612102E+00  0.10051844139E+01  0.93800000000E+00 0.  1.
         22    1    1    2    0    0 -0.29441627959E+00  0.30656286833E+00  0.34162282523E+01  0.34425684030E+01  0.00000000000E+00 0. -1.
</event>
<event>
 5    1  0.3428566E+002  0.1589492E+01  0.7818608E-02  0.3364848E+00
         11   -1    0    0    0    0  0.00000000000E+00  0.00000000000E+00  0.39999999674E+01  0.40000000000E+01  0.51100000000E-03 0. -1.
    9000002   -1    0    0    0    0 -0.00000000000E+00 -0.00000000000E+00  0.00000000000E+00  0.93800000000E+00  0.93800000000E+00 0. -1.
         11    1    1    2    0    0  0.26217044965E+00  0.12540829651E+00  0.18773341020E+01  0.18996958118E+01  0.51100000000E-03 0. -1.
    9000002    1    1    2    0    0 -0.31283639567E+00 -0.36571389209E+00  0.16714751345E+00  0.10674247292E+01  0.93800000000E+00 0. -1.
         22    1    1    2    0    0  0.50665946025E-01  0.24030559558E+00  0.19555183519E+01  0.19708794590E+01  0.00000000000E+00 0. -1.
</event>
<event>
 5    1  0.3428566E+002  0.1596673E+01  0.7818608E-02  0.3356982E+00
         11   -1    0    0    0    0  0.00000000000E+00  0.00000000000E+00  0.39999999674E+01  0.40000000000E+01  0.51100000000E-03 0. -1.
    9000002   -1    0    0    0    0 -0.00000000000E+00 -0.00000000000E+00  0.00000000000E+00  0.93800000000E+00  0.93800000000E+00 0. -1.
         11    1    1    2    0    0  0.73262124592E-02  0.75685189865E-01  0.65817227150E+00  0.66255031616E+00  0.51100000000E-03 0. -1.
    9000002    1    1    2    0    0  0.14125632252E+00 -0.22424360219E+00  0.49028751414E-01  0.97595407691E+00  0.93800000000E+00 0. -1.
         22    1    1    2    0    0 -0.14858253498E+00  0.14855841233E+00  0.32927989444E+01  0.32994956069E+01  0.00000000000E+00 0. -1.
</event>
<event>
 5    1  0.3428566E+002  0.1599660E+01  0.7818608E-02  0.3353733E+00
         11   -1    0    0    0    0  0.00000000000E+00  0.00000000000E+00  0.39999999674E+01  0.40000000000E+01  0.51100000000E-03 0.  1.
    9000002   -1    0    0    0    0 -0.00000000000E+00 -0.00000000000E+00  0.00000000000E+00  0.93800000000E+00  0.93800000000E+00 0.  1.
         11    1    1    2    0    0 -0.27181887748E-01  0.28691368089E-02  0.44516080462E+00  0.44599942832E+00  0.51100000000E-03 0.  1.
    9000002    1    1    2    0    0  0.26272486559E+00 -0.73707851831E-02  0.45947956813E-01  0.97520966885E+00  0.93800000000E+00 0.  1.
         22    1    1    2    0    0 -0.23554297785E+00  0.45016483743E-02  0.35088912059E+01  0.35167909028E+01  0.00000000000E+00 0.  1.
</event>
<event>
 5    1  0.3428566E+002  0.1561898E+01  0.7818608E-02  0.3395786E+00
         11   -1    0    0    0    0  0.00000000000E+00  0.00000000000E+00  0.39999999674E+01  0.40000000000E+01  0.51100000000E-03 0.  1.
    9000002   -1    0    0    0    0 -0.00000000000E+00 -0.00000000000E+00  0.00000000000E+00  0.93800000000E+00  0.93800000000E+00 0. -1.
         11    1    1    2    0    0 -0.75607205601E-01  0.47649627966E-01  0.13776106578E+00  0.16421117182E+00  0.51100000000E-03 0.  1.
    9000002    1    1    2    0    0  0.12936809761E+00  0.19765631358E+00  0.66306999242E-01  0.96955904468E+00  0.93800000000E+00 0. -1.
         22    1    1    2    0    0 -0.53760892009E-01 -0.24530594155E+00  0.37959319023E+01  0.38042297835E+01  0.00000000000E+00 0.  1.
</event>
<event>
 5    1  0.3428566E+002  0.1599677E+01  0.7818608E-02  0.3353714E+00
         11   -1    0    0    0    0  0.00000000000E+00  0.00000000000E+00  0.39999999674E+01  0.40000000000E+01  0.51100000000E-03 0. -1.
    9000002   -1    0    0    0    0 -0.00000000000E+00 -0.00000000000E+00  0.00000000000E+00  0.93800000000E+00  0.93800000000E+00 0. -1.
         11    1    1    2    0    0  0.19142723689E+00 -0.61490711012E-01  0.19422940412E+01  0.19526730136E+01  0.51100000000E-03 0. -1.
    9000002    1    1    2    0    0 -0.38243573815E+00  0.12195369860E+00  0.10870533993E+00  0.10260558705E+01  0.93800000000E+00 0. -1.
         22    1    1    2    0    0  0.19100850126E+00 -0.60462987585E-01  0.19490005863E+01  0.19592711159E+01  0.00000000000E+00 0. -1.
</event>
<event>
 5    1  0.3428566E+002  0.1595268E+01  0.7818608E-02  0.3358516E+00
         11   -1    0    0    0    0  0.00000000000E+00  0.00000000000E+00  0.39999999674E+01  0.40000000000E+01  0.51100000000E-03 0.  1.
    9000002   -1    0    0    0    0 -0.00000000000E+00 -0.00000000000E+00  0.00000000000E+00  0.93800000000E+00  0.93800000000E+00 0.  1.
         11    1    1    2    0    0 -0.83360812995E-01  0.45425851447E-02  0.16626158606E+01  0.16647106119E+01  0.51100000000E-03 0.  1.
    9000002    1    1    2    0    0  0.29015250732E+00 -0.17218656640E+00  0.79756518842E-01  0.10000208965E+01  0.93800000000E+00 0.  1.
         22    1    1    2    0    0 -0.20679169433E+00  0.16764398125E+00  0.22576275879E+01  0.22732684916E+01  0.00000000000E+00 0. -1.
</event>
<event>
 5    1  0.3428566E+002  0.1593804E+01  0.7818608E-02  0.3360116E+00
         11   -1    0    0    0    0  0.00000000000E+00  0.00000000000E+00  0.39999999674E+01  0.40000000000E+01  0.51100000000E-03 0. -1.
    9000002   -1    0    0    0    0 -0.00000000000E+00 -0.00000000000E+00  0.00000000000E+00  0.93800000000E+00  0.93800000000E+00 0. -1.
         11    1    1    2    0    0 -0.39436430390E-01 -0.14275379967E+00  0.59744873500E+00  0.61553158443E+00  0.51100000000E-03 0. -1.
    9000002    1    1    2    0    0  0.12180636200E-03  0.55200500967E+00  0.21611908396E+00  0.11096220095E+01  0.93800000000E+00 0. -1.
         22    1    1    2    0    0  0.39314624028E-01 -0.40925121001E+00  0.31864321484E+01  0.32128464061E+01  0.00000000000E+00 0. -1.
</event>
<event>
 5    1  0.3428566E+002  0.1598361E+01  0.7818608E-02  0.3355144E+00
         11   -1    0    0    0    0  0.00000000000E+00  0.00000000000E+00  0.39999999674E+01  0.40000000000E+01  0.51100000000E-03 0.  1.
    9000002   -1    0    0    0    0 -0.00000000000E+00 -0.00000000000E+00  0.00000000000E+00  0.93800000000E+00  0.93800000000E+00 0. -1.
         11    1    1    2    0    0 -0.30908888327E-01  0.10692919305E-02  0.37913775547E+00  0.38039742574E+00  0.51100000000E-03 0.  1.
    9000002    1    1    2    0    0  0.18385748371E+00  0.21837694753E+00  0.55315677373E-01  0.98203660303E+00  0.93800000000E+00 0. -1.
         22    1    1    2    0    0 -0.15294859538E+00 -0.21944623946E+00  0.35655465345E+01  0.35755659712E+01  0.00000000000E+00 0.  1.
</event>
<event>
 5    1  0.3428566E+002  0.1555856E+01  0.7818608E-02  0.3402714E+00
         11   -1    0    0    0    0  0.00000000000E+00  0.00000000000E+00  0.39999999674E+01  0.40000000000E+01  0.51100000000E-03 0. -1.
    9000002   -1    0    0    0    0 -0.00000000000E+00 -0.00000000000E+00  0.00000000000E+00  0.93800000000E+00  0.93800000000E+00 0.  1.
         11    1    1    2    0    0 -0.34713058817E-01 -0.28906222095E+00  0.25345412450E+01  0.25512078605E+01  0.51100000000E-03 0. -1.
    9000002    1    1    2    0    0  0.11231043556E+00  0.78368508887E-01  0.45334787922E-01  0.94902818721E+00  0.93800000000E+00 0.  1.
         22    1    1    2    0    0 -0.77597376747E-01  0.21069371207E+00  0.14201239345E+01  0.14377639522E+01  0.00000000000E+00 0. -1.
</event>
<event>
 5    1  0.3428566E+002  0.1599676E+01  0.7818608E-02  0.3353716E+00
         11   -1    0    0    0    0  0.00000000000E+00  0.00000000000E+00  0.39999999674E+01  0.40000000000E+01  0.51100000000E-03 0.  1.
    9000002   -1    0    0    0    0 -0.00000000000E+00 -0.00000000000E+00  0.00000000000E+00  0.93800000000E+00  0.93800000000E+00 0.  1.
         11    1    1    2    0    0  0.13255694177E+00 -0.30039140867E-01  0.14819070319E+01  0.14881271469E+01  0.51100000000E-03 0.  1.
    9000002    1    1    2    0    0 -0.34893210558E+00  0.75827029849E-01  0.85560994786E-01  0.10073073198E+01  0.93800000000E+00 0.  1.
         22    1    1    2    0    0  0.21637516380E+00 -0.45787888982E-01  0.24325319406E+01  0.24425655333E+01  0.00000000000E+00 0.  1.
</event>
<event>
 5    1  0.3428566E+002  0.1595551E+01  0.7818608E-02  0.3358206E+00
         11   -1    0    0    0    0  0.00000000000E+00  0.00000000000E+00  0.39999999674E+01  0.40000000000E+01  0.51100000000E-03 0.  1.
    9000002   -1    0    0    0    0 -0.00000000000E+00 -0.00000000000E+00  0.00000000000E+00  0.93800000000E+00  0.93800000000E+00 0.  1.
         11    1    1    2    0    0  0.20672757562E+00  0.26905078669E+00  0.20218837772E+01  0.20501558199E+01  0.51100000000E-03 0.  1.
    9000002    1    1    2    0    0 -0.26129485805E+00 -0.57179115536E+00  0.28174376449E+00  0.11638056870E+01  0.93800000000E+00 0.  1.
         22    1    1    2    0    0  0.54567282430E-01  0.30274036867E+00  0.16963724257E+01  0.17240384932E+01  0.00000000000E+00 0.  1.
</event>
<event>
 5    1  0.3428566E+002  0.1599216E+01  0.7818608E-02  0.3354214E+00
         11   -1    0    0    0    0  0.00000000000E+00  0.00000000000E+00  0.39999999674E+01  0.40000000000E+01  0.51100000000E-03 0.  1.
    9000002   -1    0    0    0    0 -0.00000000000E+00 -0.00000000000E+00  0.00000000000E+00  0.93800000000E+00  0.93800000000E+00 0. -1.
         11    1    1    2    0    0 -0.11169579301E+00  0.11485904706E+00  0.12721186560E+01  0.12821679637E+01  0.51100000000E-03 0.  1.
    9000002    1    1    2    0    0  0.38689870878E+00 -0.29276683029E+00  0.16116328807E+00  0.10682792861E+01  0.93800000000E+00 0. -1.
         22    1    1    2    0    0 -0.27520291578E+00  0.17790778323E+00  0.25667180233E+01  0.25875527502E+01  0.00000000000E+00 0.  1.
</event>
<event>
 5    1  0.3428566E+002  0.1599676E+01  0.7818608E-02  0.3353715E+00
         11   -1    0    0    0    0  0.00000000000E+00  0.00000000000E+00  0.39999999674E+01  0.40000000000E+01  0.51100000000E-03 0.  1.
    9000002   -1    0    0    0    0 -0.00000000000E+00 -0.00000000000E+00  0.00000000000E+00  0.93800000000E+00  0.93800000000E+00 0.  1.
         11    1    1    2    0    0  0.32085707221E-01 -0.69709360643E-01  0.92504856323E+00  0.92822626176E+00  0.51100000000E-03 0.  1.
    9000002    1    1    2    0    0 -0.13661495554E+00  0.29955255004E+00  0.72520029154E-01  0.99674396459E+00  0.93800000000E+00 0.  1.
         22    1    1    2    0    0  0.10452924832E+00 -0.22984318940E+00  0.30024313750E+01  0.30130297736E+01  0.00000000000E+00 0.  1.
</event>
<event>
 5    1  0.3428566E+002  0.1599676E+01  0.7818608E-02  0.3353716E+00
         11   -1    0    0    0    0  0.00000000000E+00  0.00000000000E+00  0.39999999674E+01  0.40000000000E+01  0.51100000000E-03 0.  1.
    9000002   -1    0    0    0    0 -0.00000000000E+00 -0.00000000000E+00  0.00000000000E+00  0.93800000000E+00  0.93800000000E+00 0. -1.
         11    1    1    2    0    0 -0.29189740016E-01  0.66282752780E-02  0.42240337137E+00  0.42346291954E+00  0.51100000000E-03 0.  1.
    9000002    1    1    2    0    0  0.26559765026E+00 -0.62434540011E-01  0.49541746880E-01  0.97813013873E+00  0.93800000000E+00 0. -1.
         22    1    1    2    0    0 -0.23640791025E+00  0.55806264734E-01  0.35280548491E+01  0.35364069417E+01  0.00000000000E+00 0.  1.
</event>
<event>
 5    1  0.3428566E+002  0.1473364E+01  0.7818608E-02  0.3503427E+00
         11   -1    0    0    0    0  0.00000000000E+00  0.00000000000E+00  0.39999999674E+01  0.40000000000E+01  0.51100000000E-03 0.  1.
    9000002   -1    0    0    0    0 -0.00000000000E+00 -0.00000000000E+00  0.00000000000E+00  0.93800000000E+00  0.93800000000E+00 0. -1.
         11    1    1    2    0    0 -0.30363829293E+00 -0.77893400042E-01  0.27427381728E+01  0.27605935123E+01  0.51100000000E-03 0.  1.
    9000002    1    1    2    0    0 -0.64889093197E-01 -0.14354336952E+00  0.11641283435E+00  0.95823339607E+00  0.93800000000E+00 0. -1.
         22    1    1    2    0    0  0.36852738613E+00  0.22143676957E+00  0.11408489602E+01  0.12191730916E+01  0.00000000000E+00 0.  1.
</event>
<event>
 5    1  0.3428566E+002  0.1599089E+01  0.7818608E-02  0.3354353E+00
         11   -1    0    0    0    0  0.00000000000E+00  0.00000000000E+00  0.39999999674E+01  0.40000000000E+01  0.51100000000E-03 0. -1.
    9000002   -1    0    0    0    0 -0.00000000000E+00 -0.00000000000E+00  0.00000000000E+00  0.93800000000E+00  0.93800000000E+00 0. -1.
         11    1    1    2    0    0 -0.52007389832E-01  0.49818099356E-01  0.64830943610E+00  0.65229747637E+00  0.51100000000E-03 0. -1.
    9000002    1    1    2    0    0  0.29231217171E+00 -0.17186071601E+00  0.77476622682E-01  0.10004144834E+01  0.93800000000E+00 0. -1.
         22    1    1    2    0    0 -0.24030478188E+00  0.12204261665E+00  0.32742139086E+01  0.32852880403E+01  0.00000000000E+00 0. -1.
</event>
<event>
 5    1  0.3428566E+002  0.1598519E+01  0.7818608E-02  0.3354973E+00
         11   -1    0    0    0    0  0.00000000000E+00  0.00000000000E+00  0.39999999674E+01  0.40000000000E+01  0.51100000000E-03 0.  1.
    9000002   -1    0    0    0    0 -0.00000000000E+00 -0.00000000000E+00  0.00000000000E+00  0.93800000000E+00  0.93800000000E+00 0.  1.
         11    1    1    2    0    0 -0.23006125481E+00 -0.39559400734E-01  0.15558505846E+01  0.15732655306E+01  0.51100000000E-03 0.  1.
    9000002    1    1    2    0    0  0.47758979171E+00  0.54918362538E-01  0.15873455065E+00  0.10659027598E+01  0.93800000000E+00 0.  1.
         22    1    1    2    0    0 -0.24752853690E+00 -0.15358961804E-01  0.22854148321E+01  0.22988317096E+01  0.00000000000E+00 0.  1.
</event>
<event>
 5    1  0.3428566E+002  0.1599567E+01  0.7818608E-02  0.3353834E+00
         11   -1    0    0    0    0  0.00000000000E+00  0.00000000000E+00  0.39999999674E+01  0.40000000000E+01  0.51100000000E-03 0.  1.
    9000002   -1    0    0    0    0 -0.00000000000E+00 -0.00000000000E+00  0.00000000000E+00  0.93800000000E+00  0.93800000000E+00 0. -1.
         11    1    1    2    0    0  0.92312809839E-01  0.32339037935E-01  0.11326739992E+01  0.11368896682E+01  0.51100000000E-03 0.  1.
    9000002    1    1    2    0    0 -0.28113206301E+00 -0.11095550945E+00  0.61037569997E-01  0.98737832004E+00  0.93800000000E+00 0. -1.
         22    1    1    2    0    0  0.18881925317E+00  0.78616471519E-01  0.28062883982E+01  0.28137320117E+01  0.00000000000E+00 0.  1.
</event>
<event>
 5    1  0.3428566E+002  0.1591156E+01  0.7818608E-02  0.3363019E+00
         11   -1    0    0    0    0  0.00000000000E+00  0.00000000000E+00  0.39999999674E+01  0.40000000000E+01  0.51100000000E-03 0.  1.
    9000002   -1    0    0    0    0 -0.00000000000E+00 -0.00000000000E+00  0.00000000000E+00  0.93800000000E+00  0.93800000000E+00 0. -1.
         11    1    1    2    0    0 -0.16823899760E+00  0.25552459014E-01  0.18549546494E+01  0.18627437561E+01  0.51100000000E-03 0.  1.
    9000002    1    1    2    0    0  0.29986005884E+00  0.17356421118E+00  0.87335243493E-01  0.10037489901E+01  0.93800000000E+00 0. -1.
         22    1    1    2    0    0 -0.13162106124E+00 -0.19911667019E+00  0.20577100744E+01  0.20715072538E+01  0.00000000000E+00 0. -1.
</event>
<event>
 5    1  0.3428566E+002  0.1599599E+01  0.7818608E-02  0.3353799E+00
         11   -1    0    0    0    0  0.00000000000E+00  0.00000000000E+00  0.39999999674E+01  0.40000000000E+01  0.51100000000E-03 0. -1.
    9000002   -1    0    0    0    0 -0.00000000000E+00 -0.00000000000E+00  0.00000000000E+00  0.93800000000E+00  0.93800000000E+00 0.  1.
         11    1    1    2    0    0  0.18157742979E-01 -0.13600065302E-01  0.26839832750E+00  0.26935587748E+00  0.51100000000E-03 0. -1.
    9000002    1    1    2    0    0 -0.21630293678E+00  0.14049228582E+00  0.44279333517E-01  0.97382221283E+00  0.93800000000E+00 0.  1.
         22    1    1    2    0    0  0.19814519380E+00 -0.12689222051E+00  0.36873223063E+01  0.36948219097E+01  0.00000000000E+00 0. -1.
</event>
<event>
 5    1  0.3428566E+002  0.1599676E+01  0.7818608E-02  0.3353715E+00
         11   -1    0    0    0    0  0.00000000000E+00  0.00000000000E+00  0.39999999674E+01  0.40000000000E+01  0.51100000000E-03 0.  1.
    9000002   -1    0    0    0    0 -0.00000000000E+00 -0.00000000000E+00  0.00000000000E+00  0.93800000000E+00  0.93800000000E+00 0.  1.
         11    1    1    2    0    0  0.36128197684E+00 -0.14840013820E+00  0.24427373332E+01  0.24737649864E+01  0.51100000000E-03 0.  1.
    9000002    1    1    2    0    0 -0.55324406395E+00  0.22779781606E+00  0.24966619689E+00  0.11402403471E+01  0.93800000000E+00 0.  1.
         22    1    1    2    0    0  0.19196208711E+00 -0.79397677860E-01  0.13075964373E+01  0.13239946665E+01  0.00000000000E+00 0.  1.
</event>
<event>
 5    1  0.3428566E+002  0.1594529E+01  0.7818608E-02  0.3359323E+00
         11   -1    0    0    0    0  0.00000000000E+00  0.00000000000E+00  0.39999999674E+01  0.40000000000E+01  0.51100000000E-03 0. -1.
    9000002   -1    0    0    0    0 -0.00000000000E+00 -0.00000000000E+00  0.00000000000E+00  0.93800000000E+00  0.93800000000E+00 0. -1.
         11    1    1    2    0    0  0.70565271017E-01  0.37561456108E-01  0.38060405702E+00  0.38890876796E+00  0.51100000000E-03 0. -1.
    9000002    1    1    2    0    0 -0.21936394864E+00 -0.23369104739E+00  0.72754974628E-01  0.99391616041E+00  0.93800000000E+00 0. -1.
         22    1    1    2    0    0  0.14879867762E+00  0.19612959128E+00  0.35466409357E+01  0.35551750716E+01  0.00000000000E+00 0. -1.
</event>
<event>
 5    1  0.3428566E+002  0.1599671E+01  0.7818608E-02  0.3353720E+00
         11   -1    0    0    0    0  0.00000000000E+00  0.00000000000E+00  0.39999999674E+01  0.40000000000E+01  0.51100000000E-03 0. -1.
    9000002   -1    0    0    0    0 -0.00000000000E+00 -0.00000000000E+00  0.00000000000E+00  0.93800000000E+00  0.93800000000E+00 0.  1.
         11    1    1    2    0    0  0.30797680250E-01 -0.27996914239E+00  0.21788866837E+01  0.21970158532E+01  0.51100000000E-03 0. -1.
    9000002    1    1    2    0    0 -0.56024912750E-01  0.49660252879E+00  0.17096773058E+00  0.10764881919E+01  0.93800000000E+00 0.  1.
         22    1    1    2    0    0  0.25227232500E-01 -0.21663338640E+00  0.16501455531E+01  0.16644959549E+01  0.00000000000E+00 0. -1.
</event>
<event>
 5    1  0.3428566E+002  0.1599141E+01  0.7818608E-02  0.3354296E+00
         11   -1    0    0    0    0  0.00000000000E+00  0.00000000000E+00  0.39999999674E+01  0.40000000000E+01  0.51100000000E-03 0. -1.
    9000002   -1    0    0    0    0 -0.00000000000E+00 -0.00000000000E+00  0.00000000000E+00  0.93800000000E+00  0.93800000000E+00 0.  1.
         11    1    1    2    0    0 -0.32487876426E-01 -0.27640621412E-01  0.33101192378E+00  0.33374933838E+00  0.51100000000E-03 0. -1.
    9000002    1    1    2    0    0  0.23775245444E+00  0.43676100148E+00  0.16968570804E+00  0.10751388941E+01  0.93800000000E+00 0.  1.
         22    1    1    2    0    0 -0.20526457801E+00 -0.40912038007E+00  0.34993023355E+01  0.35291117676E+01  0.00000000000E+00 0. -1.
</event>
<event>
 5    1  0.3428566E+002  0.1599676E+01  0.7818608E-02  0.3353715E+00
         11   -1    0    0    0    0  0.00000000000E+00  0.00000000000E+00  0.39999999674E+01  0.40000000000E+01  0.51100000000E-03 0.  1.
    9000002   -1    0    0    0    0 -0.00000000000E+00 -0.00000000000E+00  0.00000000000E+00  0.93800000000E+00  0.93800000000E+00 0. -1.
         11    1    1    2    0    0  0.29718950581E-01  0.61734112699E-01  0.83011892222E+00  0.83294177638E+00  0.51100000000E-03 0.  1.
    9000002    1    1    2    0    0 -0.14372412324E+00 -0.29259684992E+00  0.71073970240E-01  0.99557272433E+00  0.93800000000E+00 0. -1.
         22    1    1    2    0    0  0.11400517266E+00  0.23086273722E+00  0.30988070749E+01  0.31094854993E+01  0.00000000000E+00 0.  1.
</event>
<event>
 5    1  0.3428566E+002  0.1599649E+01  0.7818608E-02  0.3353745E+00
         11   -1    0    0    0    0  0.00000000000E+00  0.00000000000E+00  0.39999999674E+01  0.40000000000E+01  0.51100000000E-03 0. -1.
    9000002   -1    0    0    0    0 -0.00000000000E+00 -0.00000000000E+00  0.00000000000E+00  0.93800000000E+00  0.93800000000E+00 0.  1.
         11    1    1    2    0    0 -0.71156081479E-02 -0.28256608433E-02  0.14793087224E+00  0.14812974152E+00  0.51100000000E-03 0. -1.
    9000002    1    1    2    0    0  0.23574148790E+00  0.12030323812E+00  0.46607238476E-01  0.97573723558E+00  0.93800000000E+00 0.  1.
         22    1    1    2    0    0 -0.22862587975E+00 -0.11747757728E+00  0.38054618566E+01  0.38141330229E+01  0.00000000000E+00 0. -1.
</event>
<event>
 5    1  0.4093701E+002  0.1580012E+01  0.7818608E-02  0.3375347E+00
         11   -1    0    0    0    0  0.00000000000E+00  0.00000000000E+00  0.39999999674E+01  0.40000000000E+01  0.51100000000E-03 0. -1.
    9000002   -1    0    0    0    0 -0.00000000000E+00 -0.00000000000E+00  0.00000000000E+00  0.93800000000E+00  0.93800000000E+00 0. -1.
         11    1    1    2    0    0  0.53599940334E-01 -0.13283840838E+00  0.12019235877E+01  0.12104294974E+01  0.51100000000E-03 0. -1.
    9000002    1    1    2    0    0 -0.88317421879E-01 -0.65571315584E-01  0.22500618072E-01  0.94469563471E+00  0.93800000000E+00 0. -1.
         22    1    1    2    0    0  0.34717481544E-01  0.19840972397E+00  0.27755757616E+01  0.27828748679E+01  0.00000000000E+00 0. -1.
</event>
<event>
 5    1  0.3428566E+002  0.1577435E+01  0.7818608E-02  0.3378225E+00
         11   -1    0    0    0    0  0.00000000000E+00  0.00000000000E+00  0.39999999674E+01  0.40000000000E+01  0.51100000000E-03 0. -1.
    9000002   -1    0    0    0    0 -0.00000000000E+00 -0.00000000000E+00  0.00000000000E+00  0.93800000000E+00  0.93800000000E+00 0.  1.
         11    1    1    2    0    0  0.66443411024E-01  0.14900213659E+00  0.11992595249E+01  0.12103057601E+01  0.51100000000E-03 0. -1.
    9000002    1    1    2    0    0 -0.38506291536E+00  0.26836054401E-01  0.11888454879E+00  0.10212595941E+01  0.93800000000E+00 0.  1.
         22    1    1    2    0    0  0.31861950434E+00 -0.17583819099E+00  0.26818558936E+01  0.27064346458E+01  0.00000000000E+00 0. -1.
</event>
<event>
 5    1  0.3428566E+002  0.1596859E+01  0.7818608E-02  0.3356779E+00
         11   -1    0    0    0    0  0.00000000000E+00  0.00000000000E+00  0.39999999674E+01  0.40000000000E+01  0.51100000000E-03 0. -1.
    9000002   -1    0    0    0    0 -0.00000000000E+00 -0.00000000000E+00  0.00000000000E+00  0.93800000000E+00  0.93800000000E+00 0.  1.
         11    1    1    2    0    0 -0.32817972067E+00  0.61729843072E-03  0.20833610471E+01  0.21090509296E+01  0.51100000000E-03 0. -1.
    9000002    1    1    2    0    0  0.55142542520E+00  0.10548804515E+00  0.22088119198E+00  0.11152713698E+01  0.93800000000E+00 0.  1.
         22    1    1    2    0    0 -0.22324570453E+00 -0.10610534358E+00  0.16957577283E+01  0.17136777006E+01  0.00000000000E+00 0. -1.
</event>
<event>
 5    1  0.3428566E+002  0.1599661E+01  0.7818608E-02  0.3353732E+00
         11   -1    0    0    0    0  0.00000000000E+00  0.00000000000E+00  0.39999999674E+01  0.40000000000E+01  0.51100000000E-03 0.  1.
    9000002   -1    0    0    0    0 -0.00000000000E+00 -0.00000000000E+00  0.00000000000E+00  0.93800000000E+00  0.93800000000E+00 0.  1.
         11    1    1    2    0    0  0.73550515762E-01  0.16360728513E-01  0.41192847173E+00  0.41876327292E+00  0.51100000000E-03 0.  1.
    9000002    1    1    2    0    0 -0.65902287930E+00 -0.11909935746E+00  0.31803184904E+00  0.11956103334E+01  0.93800000000E+00 0.  1.
         22    1    1    2    0    0  0.58547236353E+00  0.10273862895E+00  0.32700396466E+01  0.33236263937E+01  0.00000000000E+00 0.  1.
</event>
<event>
 5    1  0.3428566E+002  0.1599553E+01  0.7818608E-02  0.3353849E+00
         11   -1    0    0    0    0  0.00000000000E+00  0.00000000000E+00  0.39999999674E+01  0.40000000000E+01  0.51100000000E-03 0.  1.
    9000002   -1    0    0    0    0 -0.00000000000E+00 -0.00000000000E+00  0.00000000000E+00  0.93800000000E+00  0.93800000000E+00 0. -1.
         11    1    1    2    0    0 -0.22813620555E-01 -0.49782160805E-02  0.24185339833E+00  0.24297854087E+00  0.51100000000E-03 0.  1.
    9000002    1    1    2    0    0  0.29562335751E+00  0.92288508964E-02  0.58431808225E-01  0.98525967004E+00  0.93800000000E+00 0. -1.
         22    1    1    2    0    0 -0.27280973696E+00 -0.42506348159E-02  0.36997147608E+01  0.37097617891E+01  0.00000000000E+00 0.  1.
</event>
<event>
 5    1  0.4832550E+002  0.1574588E+01  0.7818608E-02  0.3381415E+00
         11   -1    0    0    0    0  0.00000000000E+00  0.00000000000E+00  0.39999999674E+01  0.40000000000E+01  0.51100000000E-03 0.  1.
    9000002   -1    0    0    0    0 -0.00000000000E+00 -0.00000000000E+00  0.00000000000E+00  0.93800000000E+00  0.93800000000E+00 0.  1.
         11    1    1    2    0    0 -0.19129051790E-01 -0.10525139332E+00  0.41818647939E+00  0.43165260231E+00  0.51100000000E-03 0.  1.
    9000002    1    1    2    0    0 -0.57589898376E-01 -0.90590663930E-01  0.26166761033E-01  0.94448502591E+00  0.93800000000E+00 0.  1.
         22    1    1    2    0    0  0.76718950167E-01  0.19584205725E+00  0.35556467269E+01  0.35618623718E+01  0.00000000000E+00 0.  1.
</event>
<event>
 5    1  0.3428566E+002  0.1589643E+01  0.7818608E-02  0.3364682E+00
         11   -1    0    0    0    0  0.00000000000E+00  0.00000000000E+00  0.39999999674E+01  0.40000000000E+01  0.51100000000E-03 0. -1.
    9000002   -1    0    0    0    0 -0.00000000000E+00 -0.00000000000E+00  0.00000000000E+00  0.93800000000E+00  0.93800000000E+00 0. -1.
         11    1    1    2    0    0  0.12340262961E+00  0.23642619940E-01  0.11939128829E+01  0.12005063164E+01  0.51100000000E-03 0. -1.
    9000002    1    1    2    0    0 -0.78902365997E-01 -0.23851774162E+00  0.49643537400E-01  0.97232956205E+00  0.93800000000E+00 0. -1.
         22    1    1    2    0    0 -0.44500263609E-01  0.21487512168E+00  0.27564435470E+01  0.27651641216E+01  0.00000000000E+00 0.  1.
</event>
<event>
 5    1  0.3428566E+002  0.1599676E+01  0.7818608E-02  0.3353715E+00
         11   -1    0    0    0    0  0.00000000000E+00  0.00000000000E+00  0.39999999674E+01  0.40000000000E+01  0.51100000000E-03 0. -1.
    9000002   -1    0    0    0    0 -0.00000000000E+00 -0.00000000000E+00  0.00000000000E+00  0.93800000000E+00  0.93800000000E+00 0.  1.
         11    1    1    2    0    0 -0.50307310885E-03 -0.17134846088E+00  0.13398255793E+01  0.13507380916E+01  0.51100000000E-03 0. -1.
    9000002    1    1    2    0    0  0.45359066719E-02  0.49031240173E+00  0.16432280013E+00  0.10711082151E+01  0.93800000000E+00 0.  1.
         22    1    1    2    0    0 -0.40328335630E-02 -0.31896394085E+00  0.24958515880E+01  0.25161536933E+01  0.00000000000E+00 0. -1.
</event>
<event>
 5    1  0.3428566E+002  0.1599672E+01  0.7818608E-02  0.3353719E+00
         11   -1    0    0    0    0  0.00000000000E+00  0.00000000000E+00  0.39999999674E+01  0.40000000000E+01  0.51100000000E-03 0. -1.
    9000002   -1    0    0    0    0 -0.00000000000E+00 -0.00000000000E+00  0.00000000000E+00  0.93800000000E+00  0.93800000000E+00 0.  1.
         11    1    1    2    0    0  0.33442169475E-01  0.47740610653E-01  0.58228200983E+00  0.58519239972E+00  0.51100000000E-03 0. -1.
    9000002    1    1    2    0    0 -0.23461166526E+00 -0.31343447633E+00  0.10328582100E+00  0.10216632348E+01  0.93800000000E+00 0.  1.
         22    1    1    2    0    0  0.20116949578E+00  0.26569386567E+00  0.33144321365E+01  0.33311443655E+01  0.00000000000E+00 0. -1.
</event>
<event>
 5    1  0.3428566E+002  0.1596025E+01  0.7818608E-02  0.3357689E+00
         11   -1    0    0    0    0  0.00000000000E+00  0.00000000000E+00  0.39999999674E+01  0.40000000000E+01  0.51100000000E-03 0. -1.
    9000002   -1    0    0    0    0 -0.00000000000E+00 -0.00000000000E+00  0.00000000000E+00  0.93800000000E+00  0.93800000000E+00 0.  1.
         11    1    1    2    0    0 -0.40045133178E-01  0.66410820405E-01  0.15402275476E+01  0.15421787086E+01  0.51100000000E-03 0. -1.
    9000002    1    1    2    0    0  0.16218898979E+00 -0.33853151972E+00  0.97750746211E-01  0.10150409187E+01  0.93800000000E+00 0.  1.
         22    1    1    2    0    0 -0.12214385661E+00  0.27212069931E+00  0.23620216736E+01  0.23807803727E+01  0.00000000000E+00 0. -1.
</event>
<event>
 5    1  0.3428566E+002  0.1599675E+01  0.7818608E-02  0.3353717E+00
         11   -1    0    0    0    0  0.00000000000E+00  0.00000000000E+00  0.39999999674E+01  0.40000000000E+01  0.51100000000E-03 0.  1.
    9000002   -1    0    0    0    0 -0.00000000000E+00 -0.00000000000E+00  0.00000000000E+00  0.93800000000E+00  0.93800000000E+00 0.  1.
         11    1    1    2    0    0 -0.45950917130E-02  0.89844308649E-02  0.16774497526E+00  0.16804901878E+00  0.51100000000E-03 0.  1.
    9000002    1    1    2    0    0  0.12197364399E+00 -0.21055933578E+00  0.39316486747E-01  0.96984668368E+00  0.93800000000E+00 0.  1.
         22    1    1    2    0    0 -0.11737855228E+00  0.20157490492E+00  0.37929385054E+01  0.38001042975E+01  0.00000000000E+00 0.  1.
</event>
<event>
 5    1  0.3428566E+002  0.1599667E+01  0.7818608E-02  0.3353725E+00
         11   -1    0    0    0    0  0.00000000000E+00  0.00000000000E+00  0.39999999674E+01  0.40000000000E+01  0.51100000000E-03 0. -1.
    9000002   -1    0    0    0    0 -0.00000000000E+00 -0.00000000000E+00  0.00000000000E+00  0.93800000000E+00  0.93800000000E+00 0.  1.
         11    1    1    2    0    0 -0.88992879430E-01 -0.46465203743E-01  0.86959128385E+00  0.87536735707E+00  0.51100000000E-03 0. -1.
    9000002    1    1    2    0    0  0.40305798640E+00  0.19487685608E+00  0.13609304859E+00  0.10482356831E+01  0.93800000000E+00 0.  1.
         22    1    1    2    0    0 -0.31406510697E+00 -0.14841165234E+00  0.29943156349E+01  0.30143969598E+01  0.00000000000E+00 0. -1.
</event>
<event>
 5    1  0.3428566E+002  0.1599607E+01  0.7818608E-02  0.3353790E+00
         11   -1    0    0    0    0  0.00000000000E+00  0.00000000000E+00  0.39999999674E+01  0.40000000000E+01  0.51100000000E-03 0. -1.
    9000002   -1    0    0    0    0 -0.00000000000E+00 -0.00000000000E+00  0.00000000000E+00  0.93800000000E+00  0.93800000000E+00 0.  1.
         11    1    1    2    0    0 -0.12801647743E+00  0.13427313972E+00  0.17951705518E+01  0.18047313001E+01  0.51100000000E-03 0. -1.
    9000002    1    1    2    0    0  0.28354457122E+00 -0.31095283390E+00  0.11983879499E+00  0.10350335867E+01  0.93800000000E+00 0.  1.
         22    1    1    2    0    0 -0.15552809380E+00  0.17667969418E+00  0.20849906206E+01  0.20982351132E+01  0.00000000000E+00 0. -1.
</event>
<event>
 5    1  0.3428566E+002  0.1599676E+01  0.7818608E-02  0.3353715E+00
         11   -1    0    0    0    0  0.00000000000E+00  0.00000000000E+00  0.39999999674E+01  0.40000000000E+01  0.51100000000E-03 0.  1.
    9000002   -1    0    0    0    0 -0.00000000000E+00 -0.00000000000E+00  0.00000000000E+00  0.93800000000E+00  0.93800000000E+00 0. -1.
         11    1    1    2    0    0 -0.11204542932E+00  0.12280923357E+00  0.16902633762E+01  0.16984189201E+01  0.51100000000E-03 0.  1.
    9000002    1    1    2    0    0  0.25680518272E+00 -0.28520758251E+00  0.99150519188E-01  0.10183158117E+01  0.93800000000E+00 0. -1.
         22    1    1    2    0    0 -0.14475975340E+00  0.16239834895E+00  0.22105860720E+01  0.22212652682E+01  0.00000000000E+00 0.  1.
</event>
<event>
 5    1  0.3428566E+002  0.1470091E+01  0.7818608E-02  0.3507675E+00
         11   -1    0    0    0    0  0.00000000000E+00  0.00000000000E+00  0.39999999674E+01  0.40000000000E+01  0.51100000000E-03 0.  1.
    9000002   -1    0    0    0    0 -0.00000000000E+00 -0.00000000000E+00  0.00000000000E+00  0.93800000000E+00  0.93800000000E+00 0. -1.
         11    1    1    2    0    0 -0.43342713054E-02 -0.83706482512E-01 -0.69015811182E-02  0.84103829076E-01  0.51100000000E-03 0.  1.
    9000002    1    1    2    0    0 -0.27560252410E+00 -0.21888920755E+00  0.19610339545E+00  0.10208671697E+01  0.93800000000E+00 0. -1.
         22    1    1    2    0    0  0.27993679541E+00  0.30259569006E+00  0.38107981530E+01  0.38330290012E+01  0.00000000000E+00 0.  1.
</event>
<event>
 5    1  0.3428566E+002  0.1599673E+01  0.7818608E-02  0.3353719E+00
         11   -1    0    0    0    0  0.00000000000E+00  0.00000000000E+00  0.39999999674E+01  0.40000000000E+01  0.51100000000E-03 0. -1.
    9000002   -1    0    0    0    0 -0.00000000000E+00 -0.00000000000E+00  0.00000000000E+00  0.93800000000E+00  0.93800000000E+00 0. -1.
         11    1    1    2    0    0  0.23712201859E-01  0.30037545790E-01  0.56797748477E+00  0.56926549782E+00  0.51100000000E-03 0. -1.
    9000002    1    1    2    0    0 -0.16918239698E+00 -0.22002548598E+00  0.51290650665E-01  0.97954511319E+00  0.93800000000E+00 0. -1.
         22    1    1    2    0    0  0.14547019512E+00  0.18998794019E+00  0.33807318319E+01  0.33891893890E+01  0.00000000000E+00 0. -1.
</event>
<event>
 5    1  0.3428566E+002  0.1599675E+01  0.7818608E-02  0.3353716E+00
         11   -1    0    0    0    0  0.00000000000E+00  0.00000000000E+00  0.39999999674E+01  0.40000000000E+01  0.51100000000E-03 0. -1.
    9000002   -1    0    0    0    0 -0.00000000000E+00 -0.00000000000E+00  0.00000000000E+00  0.93800000000E+00  0.93800000000E+00 0. -1.
         11    1    1    2    0    0  0.38359134769E-01  0.30388789355E-01  0.65947554198E+00  0.66128900893E+00  0.51100000000E-03 0. -1.
    9000002    1    1    2    0    0 -0.22882518051E+00 -0.18903390786E+00  0.58753336779E-01  0.98559156659E+00  0.93800000000E+00 0. -1.
         22    1    1    2    0    0  0.19046604574E+00  0.15864511850E+00  0.32817710886E+01  0.32911194245E+01  0.00000000000E+00 0. -1.
</event>
<event>
 5    1  0.3428566E+002  0.1597268E+01  0.7818608E-02  0.3356334E+00
         11   -1    0    0    0    0  0.00000000000E+00  0.00000000000E+00  0.39999999674E+01  0.40000000000E+01  0.51100000000E-03 0.  1.
    9000002   -1    0    0    0    0 -0.00000000000E+00 -0.00000000000E+00  0.00000000000E+00  0.93800000000E+00  0.93800000000E+00 0. -1.
         11    1    1    2    0    0 -0.59592828730E-02 -0.29137406958E-02  0.21853025766E-01  0.22843353373E-01  0.51100000000E-03 0.  1.
    9000002    1    1    2    0    0 -0.31716787544E+00 -0.24746613504E+00  0.11120367962E+00  0.10266670383E+01  0.93800000000E+00 0. -1.
         22    1    1    2    0    0  0.32312715831E+00  0.25037987574E+00  0.38669432620E+01  0.38884896083E+01  0.00000000000E+00 0.  1.
</event>
<event>
 5    1  0.3428566E+002  0.1599493E+01  0.7818608E-02  0.3353913E+00
         11   -1    0    0    0    0  0.00000000000E+00  0.00000000000E+00  0.39999999674E+01  0.40000000000E+01  0.51100000000E-03 0. -1.
    9000002   -1    0    0    0    0 -0.00000000000E+00 -0.00000000000E+00  0.00000000000E+00  0.93800000000E+00  0.93800000000E+00 0.  1.
         11    1    1    2    0    0 -0.10899155001E-01  0.57026363878E-01  0.94834098518E+00  0.95011666812E+00  0.51100000000E-03 0. -1.
    9000002    1    1    2    0    0  0.42044904226E-01 -0.29493070377E+00  0.59339601240E-01  0.98595998006E+00  0.93800000000E+00 0.  1.
         22    1    1    2    0    0 -0.31145749225E-01  0.23790433989E+00  0.29923193809E+01  0.30019233518E+01  0.00000000000E+00 0. -1.
</event>
<event>
 5    1  0.3428566E+002  0.1599657E+01  0.7818608E-02  0.3353735E+00
         11   -1    0    0    0    0  0.00000000000E+00  0.00000000000E+00  0.39999999674E+01  0.40000000000E+01  0.51100000000E-03 0.  1.
    9000002   -1    0    0    0    0 -0.00000000000E+00 -0.00000000000E+00  0.00000000000E+00  0.93800000000E+00  0.93800000000E+00 0. -1.
         11    1    1    2    0    0 -0.11786032088E-01 -0.32624948395E-01  0.50125739983E+00  0.50245650540E+00  0.51100000000E-03 0.  1.
    9000002    1    1    2    0    0  0.11736704541E+00  0.24406553844E+00  0.48817304056E-01  0.97753267955E+00  0.93800000000E+00 0. -1.
         22    1    1    2    0    0 -0.10558101333E+00 -0.21144059005E+00  0.34499252635E+01  0.34580108151E+01  0.00000000000E+00 0.  1.
</event>
<event>
 5    1  0.3428566E+002  0.1593062E+01  0.7818608E-02  0.3360929E+00
         11   -1    0    0    0    0  0.00000000000E+00  0.00000000000E+00  0.39999999674E+01  0.40000000000E+01  0.51100000000E-03 0. -1.
    9000002   -1    0    0    0    0 -0.00000000000E+00 -0.00000000000E+00  0.00000000000E+00  0.93800000000E+00  0.93800000000E+00 0.  1.
         11    1    1    2    0    0 -0.20457565444E+00  0.32701722743E+00  0.20413087713E+01  0.20774342893E+01  0.51100000000E-03 0. -1.
    9000002    1    1    2    0    0  0.19642048707E+00 -0.57967622861E+00  0.26873947511E+00  0.11518118089E+01  0.93800000000E+00 0.  1.
         22    1    1    2    0    0  0.81551673754E-02  0.25265900117E+00  0.16899517209E+01  0.17087539017E+01  0.00000000000E+00 0. -1.
</event>
<event>
 5    1  0.3428566E+002  0.1599671E+01  0.7818608E-02  0.3353720E+00
         11   -1    0    0    0    0  0.00000000000E+00  0.00000000000E+00  0.39999999674E+01  0.40000000000E+01  0.51100000000E-03 0.  1.
    9000002   -1    0    0    0    0 -0.00000000000E+00 -0.00000000000E+00  0.00000000000E+00  0.93800000000E+00  0.93800000000E+00 0.  1.
         11    1    1    2    0    0  0.30836460148E-01 -0.65358221292E-01  0.94974323347E+00  0.95248887396E+00  0.51100000000E-03 0.  1.
    9000002    1    1    2    0    0 -0.13139397649E+00  0.26179347277E+00  0.57205511187E-01  0.98433564903E+00  0.93800000000E+00 0.  1.
         22    1    1    2    0    0  0.10055751634E+00 -0.19643525148E+00  0.29930512227E+01  0.30011754770E+01  0.00000000000E+00 0.  1.
</event>
<event>
 5    1  0.3428566E+002  0.1534052E+01  0.7818608E-02  0.3428207E+00
         11   -1    0    0    0    0  0.00000000000E+00  0.00000000000E+00  0.39999999674E+01  0.40000000000E+01  0.51100000000E-03 0. -1.
    9000002   -1    0    0    0    0 -0.00000000000E+00 -0.00000000000E+00  0.00000000000E+00  0.93800000000E+00  0.93800000000E+00 0. -1.
         11    1    1    2    0    0  0.33989255504E+00  0.17018273283E+00  0.22593925919E+01  0.22911447481E+01  0.51100000000E-03 0. -1.
    9000002    1    1    2    0    0 -0.95536326888E-01 -0.10821168250E+00  0.63778588569E-01  0.95118277231E+00  0.93800000000E+00 0. -1.
         22    1    1    2    0    0 -0.24435622815E+00 -0.61971050329E-01  0.16768287869E+01  0.16956724796E+01  0.00000000000E+00 0.  1.
</event>
<event>
 5    1  0.3428566E+002  0.1598665E+01  0.7818608E-02  0.3354814E+00
         11   -1    0    0    0    0  0.00000000000E+00  0.00000000000E+00  0.39999999674E+01  0.40000000000E+01  0.51100000000E-03 0.  1.
    9000002   -1    0    0    0    0 -0.00000000000E+00 -0.00000000000E+00  0.00000000000E+00  0.93800000000E+00  0.93800000000E+00 0.  1.
         11    1    1    2    0    0  0.14975053162E+00  0.11780132653E-01  0.12626734140E+01  0.12715771329E+01  0.51100000000E-03 0.  1.
    9000002    1    1    2    0    0 -0.35952434519E+00  0.20954590992E-02  0.87584262887E-01  0.10083536824E+01  0.93800000000E+00 0.  1.
         22    1    1    2    0    0  0.20977381357E+00 -0.13875591752E-01  0.26497422905E+01  0.26580691847E+01  0.00000000000E+00 0.  1.
</event>
<event>
 5    1  0.3428566E+002  0.1599677E+01  0.7818608E-02  0.3353714E+00
         11   -1    0    0    0    0  0.00000000000E+00  0.00000000000E+00  0.39999999674E+01  0.40000000000E+01  0.51100000000E-03 0.  1.
    9000002   -1    0    0    0    0 -0.00000000000E+00 -0.00000000000E+00  0.00000000000E+00  0.93800000000E+00  0.93800000000E+00 0. -1.
         11    1    1    2    0    0  0.12567051608E+00  0.11856707570E+00  0.11506112307E+01  0.11635109348E+01  0.51100000000E-03 0.  1.
    9000002    1    1    2    0    0 -0.41267897692E+00 -0.38835534293E+00  0.22251826341E+00  0.11182496090E+01  0.93800000000E+00 0. -1.
         22    1    1    2    0    0  0.28700846085E+00  0.26978826723E+00  0.26268704732E+01  0.26562394562E+01  0.00000000000E+00 0.  1.
</event>
<event>
 5    1  0.3428566E+002  0.1599677E+01  0.7818608E-02  0.3353714E+00
         11   -1    0    0    0    0  0.00000000000E+00  0.00000000000E+00  0.39999999674E+01  0.40000000000E+01  0.51100000000E-03 0. -1.
    9000002   -1    0    0    0    0 -0.00000000000E+00 -0.00000000000E+00  0.00000000000E+00  0.93800000000E+00  0.93800000000E+00 0. -1.
         11    1    1    2    0    0  0.11143680127E-01  0.12484091215E+00  0.12608155660E+01  0.12670302236E+01  0.51100000000E-03 0.  1.
    9000002    1    1    2    0    0 -0.34267701673E-01 -0.38650087960E+00  0.10140048986E+00  0.10201388458E+01  0.93800000000E+00 0. -1.
         22    1    1    2    0    0  0.23124021545E-01  0.26165996745E+00  0.26377839115E+01  0.26508309306E+01  0.00000000000E+00 0. -1.
</event>
<event>
 5    1  0.3428566E+002  0.1599145E+01  0.7818608E-02  0.3354292E+00
         11   -1    0    0    0    0  0.00000000000E+00  0.00000000000E+00  0.39999999674E+01  0.40000000000E+01  0.51100000000E-03 0. -1.
    9000002   -1    0    0    0    0 -0.00000000000E+00 -0.00000000000E+00  0.00000000000E+00  0.93800000000E+00  0.93800000000E+00 0.  1.
         11    1    1    2    0    0  0.63222559276E-01 -0.16323834885E-01  0.11747191222E+01  0.11765325481E+01  0.51100000000E-03 0. -1.
    9000002    1    1    2    0    0 -0.22662987459E+00  0.13917614482E+00  0.47454742676E-01  0.97612860421E+00  0.93800000000E+00 0.  1.
         22    1    1    2    0    0  0.16340731532E+00 -0.12285230994E+00  0.27778261025E+01  0.27853388477E+01  0.00000000000E+00 0. -1.
</event>
<event>
 5    1  0.3428566E+002  0.1599674E+01  0.7818608E-02  0.3353718E+00
         11   -1    0    0    0    0  0.00000000000E+00  0.00000000000E+00  0.39999999674E+01  0.40000000000E+01  0.51100000000E-03 0.  1.
    9000002   -1    0    0    0    0 -0.00000000000E+00 -0.00000000000E+00  0.00000000000E+00  0.93800000000E+00  0.93800000000E+00 0.  1.
         11    1    1    2    0    0 -0.92824661164E-01 -0.10483670660E-01  0.10781998893E+01  0.10822391544E+01  0.51100000000E-03 0.  1.
    9000002    1    1    2    0    0  0.34225752988E+00  0.43469337704E-01  0.79769841326E-01  0.10026150945E+01  0.93800000000E+00 0.  1.
         22    1    1    2    0    0 -0.24943286872E+00 -0.32985667044E-01  0.28420302368E+01  0.28531457511E+01  0.00000000000E+00 0.  1.
</event>
<event>
 5    1  0.3428566E+002  0.1599668E+01  0.7818608E-02  0.3353724E+00
         11   -1    0    0    0    0  0.00000000000E+00  0.00000000000E+00  0.39999999674E+01  0.40000000000E+01  0.51100000000E-03 0. -1.
    9000002   -1    0    0    0    0 -0.00000000000E+00 -0.00000000000E+00  0.00000000000E+00  0.93800000000E+00  0.93800000000E+00 0.  1.
         11    1    1    2    0    0  0.13636310806E+00 -0.17433421150E-02  0.14764468004E+01  0.14827317195E+01  0.51100000000E-03 0. -1.
    9000002    1    1    2    0    0 -0.36463798997E+00 -0.40883044334E-02  0.89317979517E-01  0.10103461186E+01  0.93800000000E+00 0.  1.
         22    1    1    2    0    0  0.22827488191E+00  0.58316465484E-02  0.24342351874E+01  0.24449221619E+01  0.00000000000E+00 0. -1.
</event>
<event>
 5    1  0.3428566E+002  0.1577286E+01  0.7818608E-02  0.3378391E+00
         11   -1    0    0    0    0  0.00000000000E+00  0.00000000000E+00  0.39999999674E+01  0.40000000000E+01  0.51100000000E-03 0. -1.
    9000002   -1    0    0    0    0 -0.00000000000E+00 -0.00000000000E+00  0.00000000000E+00  0.93800000000E+00  0.93800000000E+00 0.  1.
         11    1    1    2    0    0 -0.91488314043E-01  0.89863419069E-01  0.14120207431E+01  0.14178322841E+01  0.51100000000E-03 0. -1.
    9000002    1    1    2    0    0  0.15881034218E+00  0.22126548109E+00  0.66855364361E-01  0.97902644379E+00  0.93800000000E+00 0.  1.
         22    1    1    2    0    0 -0.67322028140E-01 -0.31112890016E+00  0.25211238599E+01  0.25411412721E+01  0.00000000000E+00 0. -1.
</event>
<event>
 5    1  0.3428566E+002  0.1599514E+01  0.7818608E-02  0.3353891E+00
         11   -1    0    0    0    0  0.00000000000E+00  0.00000000000E+00  0.39999999674E+01  0.40000000000E+01  0.51100000000E-03 0.  1.
    9000002   -1    0    0    0    0 -0.00000000000E+00 -0.00000000000E+00  0.00000000000E+00  0.93800000000E+00  0.93800000000E+00 0.  1.
         11    1    1    2    0    0  0.10025135469E+00  0.33004352079E+00  0.16389963572E+01  0.16748995133E+01  0.51100000000E-03 0.  1.
    9000002    1    1    2    0    0 -0.19933823303E+00 -0.70174914791E+00  0.38366781376E+00  0.12486923516E+01  0.93800000000E+00 0.  1.
         22    1    1    2    0    0  0.99086878339E-01  0.37170562713E+00  0.19773357964E+01  0.20144081351E+01  0.00000000000E+00 0.  1.
</event>
<event>
 5    1  0.3428566E+002  0.1586632E+01  0.7818608E-02  0.3368001E+00
         11   -1    0    0    0    0  0.00000000000E+00  0.00000000000E+00  0.39999999674E+01  0.40000000000E+01  0.51100000000E-03 0. -1.
    9000002   -1    0    0    0    0 -0.00000000000E+00 -0.00000000000E+00  0.00000000000E+00  0.93800000000E+00  0.93800000000E+00 0.  1.
         11    1    1    2    0    0  0.41810087673E-01 -0.42595852387E-01  0.65248696538E-01  0.88431575768E-01  0.51100000000E-03 0. -1.
    9000002    1    1    2    0    0 -0.64936934204E+00  0.57994531345E+00  0.59246808419E+00  0.14102764054E+01  0.93800000000E+00 0.  1.
         22    1    1    2    0    0  0.60755925437E+00 -0.53734946106E+00  0.33422831866E+01  0.34392920188E+01  0.00000000000E+00 0. -1.
</event>
<event>
 5    1  0.3428566E+002  0.1590424E+01  0.7818608E-02  0.3363823E+00
         11   -1    0    0    0    0  0.00000000000E+00  0.00000000000E+00  0.39999999674E+01  0.40000000000E+01  0.51100000000E-03 0. -1.
    9000002   -1    0    0    0    0 -0.00000000000E+00 -0.00000000000E+00  0.00000000000E+00  0.93800000000E+00  0.93800000000E+00 0.  1.
         11    1    1    2    0    0 -0.13155767027E+00  0.27247807761E+00  0.18592664446E+01  0.18837260142E+01  0.51100000000E-03 0. -1.
    9000002    1    1    2    0    0  0.47389416670E-01 -0.47843486068E+00  0.16597677506E+00  0.10670229438E+01  0.93800000000E+00 0.  1.
         22    1    1    2    0    0  0.84168253597E-01  0.20595678307E+00  0.19747567477E+01  0.19872510420E+01  0.00000000000E+00 0. -1.
</event>
<event>
 5    1  0.3428566E+002  0.1591183E+01  0.7818608E-02  0.3362989E+00
         11   -1    0    0    0    0  0.00000000000E+00  0.00000000000E+00  0.39999999674E+01  0.40000000000E+01  0.51100000000E-03 0.  1.
    9000002   -1    0    0    0    0 -0.00000000000E+00 -0.00000000000E+00  0.00000000000E+00  0.93800000000E+00  0.93800000000E+00 0.  1.
         11    1    1    2    0    0  0.51853606203E-02  0.59293017045E-01  0.15665713053E+01  0.15677016507E+01  0.51100000000E-03 0.  1.
    9000002    1    1    2    0    0  0.25732464706E+00 -0.10868376887E+00  0.58565330316E-01  0.98046011317E+00  0.93800000000E+00 0.  1.
         22    1    1    2    0    0 -0.26251000768E+00  0.49390751824E-01  0.23748633317E+01  0.23898382361E+01  0.00000000000E+00 0.  1.
</event>
<event>
 5    1  0.3428566E+002  0.1599301E+01  0.7818608E-02  0.3354123E+00
         11   -1    0    0    0    0  0.00000000000E+00  0.00000000000E+00  0.39999999674E+01  0.40000000000E+01  0.51100000000E-03 0. -1.
    9000002   -1    0    0    0    0 -0.00000000000E+00 -0.00000000000E+00  0.00000000000E+00  0.93800000000E+00  0.93800000000E+00 0. -1.
         11    1    1    2    0    0 -0.28670505658E-01 -0.16060241397E-01  0.53414847244E+00  0.53515865029E+00  0.51100000000E-03 0. -1.
    9000002    1    1    2    0    0  0.23598659997E+00  0.32274343635E-02  0.37248493505E-01  0.96795224157E+00  0.93800000000E+00 0. -1.
         22    1    1    2    0    0 -0.20731609431E+00  0.12832807033E-01  0.34286030014E+01  0.34348891081E+01  0.00000000000E+00 0. -1.
</event>
<event>
 5    1  0.3428566E+002  0.1592346E+01  0.7818608E-02  0.3361713E+00
         11   -1    0    0    0    0  0.00000000000E+00  0.00000000000E+00  0.39999999674E+01  0.40000000000E+01  0.51100000000E-03 0. -1.
    9000002   -1    0    0    0    0 -0.00000000000E+00 -0.00000000000E+00  0.00000000000E+00  0.93800000000E+00  0.93800000000E+00 0. -1.
         11    1    1    2    0    0 -0.27098185281E-01 -0.47397728069E-02  0.34416791665E+00  0.34526597437E+00  0.51100000000E-03 0. -1.
    9000002    1    1    2    0    0 -0.66958751095E-01 -0.49001357186E+00  0.17388953676E+00  0.10745596056E+01  0.93800000000E+00 0. -1.
         22    1    1    2    0    0  0.94056936376E-01  0.49475334467E+00  0.34819425140E+01  0.35181744200E+01  0.00000000000E+00 0. -1.
</event>
<event>
 5    1  0.3428566E+002  0.1599626E+01  0.7818608E-02  0.3353769E+00
         11   -1    0    0    0    0  0.00000000000E+00  0.00000000000E+00  0.39999999674E+01  0.40000000000E+01  0.51100000000E-03 0. -1.
    9000002   -1    0    0    0    0 -0.00000000000E+00 -0.00000000000E+00  0.00000000000E+00  0.93800000000E+00  0.93800000000E+00 0. -1.
         11    1    1    2    0    0 -0.43870780072E-02  0.10228344351E-01  0.21126455078E+00  0.21155811736E+00  0.51100000000E-03 0. -1.
    9000002    1    1    2    0    0  0.14559210007E+00 -0.22494543972E+00  0.47801742131E-01  0.97669161817E+00  0.93800000000E+00 0. -1.
         22    1    1    2    0    0 -0.14120502206E+00  0.21471709537E+00  0.37409336744E+01  0.37497502645E+01  0.00000000000E+00 0. -1.
</event>
<event>
 5    1  0.3428566E+002  0.1599590E+01  0.7818608E-02  0.3353808E+00
         11   -1    0    0    0    0  0.00000000000E+00  0.00000000000E+00  0.39999999674E+01  0.40000000000E+01  0.51100000000E-03 0. -1.
    9000002   -1    0    0    0    0 -0.00000000000E+00 -0.00000000000E+00  0.00000000000E+00  0.93800000000E+00  0.93800000000E+00 0. -1.
         11    1    1    2    0    0 -0.56652178071E-03  0.38089307833E-02  0.30024912361E-01  0.30275161171E-01  0.51100000000E-03 0. -1.
    9000002    1    1    2    0    0  0.45406920567E-01 -0.25506244194E+00  0.44684240795E-01  0.97414543016E+00  0.93800000000E+00 0. -1.
         22    1    1    2    0    0 -0.44840398786E-01  0.25125351116E+00  0.39252908142E+01  0.39335794087E+01  0.00000000000E+00 0. -1.
</event>
<event>
 5    1  0.3428566E+002  0.1599019E+01  0.7818608E-02  0.3354429E+00
         11   -1    0    0    0    0  0.00000000000E+00  0.00000000000E+00  0.39999999674E+01  0.40000000000E+01  0.51100000000E-03 0. -1.
    9000002   -1    0    0    0    0 -0.00000000000E+00 -0.00000000000E+00  0.00000000000E+00  0.93800000000E+00  0.93800000000E+00 0. -1.
         11    1    1    2    0    0  0.51704945166E-01  0.69895525202E-01  0.11394089894E+01  0.11427212661E+01  0.51100000000E-03 0. -1.
    9000002    1    1    2    0    0 -0.13525202119E+00 -0.32682537632E+00  0.84451631751E-01  0.10060238635E+01  0.93800000000E+00 0. -1.
         22    1    1    2    0    0  0.83547076028E-01  0.25692985112E+00  0.27761393462E+01  0.27892548704E+01  0.00000000000E+00 0. -1.
</event>
<event>
 5    1  0.3428566E+002  0.1598843E+01  0.7818608E-02  0.3354620E+00
         11   -1    0    0    0    0  0.00000000000E+00  0.00000000000E+00  0.39999999674E+01  0.40000000000E+01  0.51100000000E-03 0. -1.
    9000002   -1    0    0    0    0 -0.00000000000E+00 -0.00000000000E+00  0.00000000000E+00  0.93800000000E+00  0.93800000000E+00 0. -1.
         11    1    1    2    0    0  0.15563229209E-01  0.61371022574E-01  0.52816282436E+00  0.53194440186E+00  0.51100000000E-03 0. -1.
    9000002    1    1    2    0    0 -0.15399092518E-01 -0.31138221611E+00  0.65570102118E-01  0.99062578952E+00  0.93800000000E+00 0. -1.
         22    1    1    2    0    0 -0.16413669026E-03  0.25001119354E+00  0.34062670409E+01  0.34154298086E+01  0.00000000000E+00 0. -1.
</event>
<event>
 5    1  0.3428566E+002  0.1599421E+01  0.7818608E-02  0.3353992E+00
         11   -1    0    0    0    0  0.00000000000E+00  0.00000000000E+00  0.39999999674E+01  0.40000000000E+01  0.51100000000E-03 0. -1.
    9000002   -1    0    0    0    0 -0.00000000000E+00 -0.00000000000E+00  0.00000000000E+00  0.93800000000E+00  0.93800000000E+00 0. -1.
         11    1    1    2    0    0 -0.10574575966E+00  0.49231375290E-01  0.73428357155E+00  0.74349076562E+00  0.51100000000E-03 0. -1.
    9000002    1    1    2    0    0  0.59888349272E+00 -0.28654823473E+00  0.31236036999E+00  0.11908754466E+01  0.93800000000E+00 0. -1.
         22    1    1    2    0    0 -0.49313773306E+00  0.23731685944E+00  0.29533560258E+01  0.30036337877E+01  0.00000000000E+00 0. -1.
</event>
<event>
 5    1  0.3428566E+002  0.1526431E+01  0.7818608E-02  0.3437299E+00
         11   -1    0    0    0    0  0.00000000000E+00  0.00000000000E+00  0.39999999674E+01  0.40000000000E+01  0.51100000000E-03 0.  1.
    9000002   -1    0    0    0    0 -0.00000000000E+00 -0.00000000000E+00  0.00000000000E+00  0.93800000000E+00  0.93800000000E+00 0. -1.
         11    1    1    2    0    0 -0.17257390499E+00  0.13858861146E+00  0.28370839580E+00  0.35983228160E+00  0.51100000000E-03 0.  1.
    9000002    1    1    2    0    0  0.42737640716E+00 -0.23323002437E+00  0.23034746048E+00  0.10816426352E+01  0.93800000000E+00 0. -1.
         22    1    1    2    0    0 -0.25480250217E+00  0.94641412908E-01  0.34859441111E+01  0.34965250832E+01  0.00000000000E+00 0.  1.
</event>
<event>
 5    1  0.3428566E+002  0.1599677E+01  0.7818608E-02  0.3353714E+00
         11   -1    0    0    0    0  0.00000000000E+00  0.00000000000E+00  0.39999999674E+01  0.40000000000E+01  0.51100000000E-03 0.  1.
    9000002   -1    0    0    0    0 -0.00000000000E+00 -0.00000000000E+00  0.00000000000E+00  0.93800000000E+00  0.93800000000E+00 0.  1.
         11    1    1    2    0    0  0.98319464689E-01  0.25339717437E-01  0.12226629396E+01  0.12268715268E+01  0.51100000000E-03 0.  1.
    9000002    1    1    2    0    0 -0.31657560669E+00 -0.82539322992E-01  0.71592724291E-01  0.99599315899E+00  0.93800000000E+00 0.  1.
         22    1    1    2    0    0  0.21825614200E+00  0.57199605555E-01  0.27057443035E+01  0.27151353142E+01  0.00000000000E+00 0.  1.
</event>
<event>
 5    1  0.3428566E+002  0.1407538E+01  0.7818608E-02  0.3594868E+00
         11   -1    0    0    0    0  0.00000000000E+00  0.00000000000E+00  0.39999999674E+01  0.40000000000E+01  0.51100000000E-03 0. -1.
    9000002   -1    0    0    0    0 -0.00000000000E+00 -0.00000000000E+00  0.00000000000E+00  0.93800000000E+00  0.93800000000E+00 0. -1.
         11    1    1    2    0    0  0.59144973547E+00  0.14880983429E+00  0.10815260957E+01  0.12416344523E+01  0.51100000000E-03 0. -1.
    9000002    1    1    2    0    0 -0.35255118603E+00 -0.26773293138E+00  0.32176315323E+00  0.10859782632E+01  0.93800000000E+00 0. -1.
         22    1    1    2    0    0 -0.23889854945E+00  0.11892309709E+00  0.25967107184E+01  0.26103872845E+01  0.00000000000E+00 0. -1.
</event>
<event>
 5    1  0.3428566E+002  0.1599676E+01  0.7818608E-02  0.3353716E+00
         11   -1    0    0    0    0  0.00000000000E+00  0.00000000000E+00  0.39999999674E+01  0.40000000000E+01  0.51100000000E-03 0.  1.
    9000002   -1    0    0    0    0 -0.00000000000E+00 -0.00000000000E+00  0.00000000000E+00  0.93800000000E+00  0.93800000000E+00 0. -1.
         11    1    1    2    0    0 -0.28154956407E-01  0.33892247293E-01  0.64213574926E+00  0.64364584019E+00  0.51100000000E-03 0.  1.
    9000002    1    1    2    0    0  0.17934648591E+00 -0.20888569500E+00  0.50456213723E-01  0.97887089296E+00  0.93800000000E+00 0. -1.
         22    1    1    2    0    0 -0.15119152950E+00  0.17499344770E+00  0.33074080044E+01  0.33154832668E+01  0.00000000000E+00 0.  1.
</event>
<event>
 5    1  0.3428566E+002  0.1599676E+01  0.7818608E-02  0.3353715E+00
         11   -1    0    0    0    0  0.00000000000E+00  0.00000000000E+00  0.39999999674E+01  0.40000000000E+01  0.51100000000E-03 0. -1.
    9000002   -1    0    0    0    0 -0.00000000000E+00 -0.00000000000E+00  0.00000000000E+00  0.93800000000E+00  0.93800000000E+00 0.  1.
         11    1    1    2    0    0 -0.35061762738E-01  0.10407041183E+00  0.88438971941E+00  0.89118203233E+00  0.51100000000E-03 0. -1.
    9000002    1    1    2    0    0  0.14842229666E+00 -0.45370477791E+00  0.15542057716E+00  0.10638969684E+01  0.93800000000E+00 0.  1.
         22    1    1    2    0    0 -0.11336053392E+00  0.34963436608E+00  0.29601896708E+01  0.29829209992E+01  0.00000000000E+00 0. -1.
</event>
<event>
 5    1  0.3428566E+002  0.1599677E+01  0.7818608E-02  0.3353714E+00
         11   -1    0    0    0    0  0.00000000000E+00  0.00000000000E+00  0.39999999674E+01  0.40000000000E+01  0.51100000000E-03 0.  1.
    9000002   -1    0    0    0    0 -0.00000000000E+00 -0.00000000000E+00  0.00000000000E+00  0.93800000000E+00  0.93800000000E+00 0.  1.
         11    1    1    2    0    0 -0.62755984918E-02  0.59183631935E-01  0.80690673492E+00  0.80909877358E+00  0.51100000000E-03 0. -1.
    9000002    1    1    2    0    0  0.33155653549E-01 -0.28844576895E+00  0.56188387845E-01  0.98351481632E+00  0.93800000000E+00 0.  1.
         22    1    1    2    0    0 -0.26880055057E-01  0.22926213701E+00  0.31369048446E+01  0.31453864101E+01  0.00000000000E+00 0.  1.
</event>
<event>
 5    1  0.3428566E+002  0.1595120E+01  0.7818608E-02  0.3358677E+00
         11   -1    0    0    0    0  0.00000000000E+00  0.00000000000E+00  0.39999999674E+01  0.40000000000E+01  0.51100000000E-03 0.  1.
    9000002   -1    0    0    0    0 -0.00000000000E+00 -0.00000000000E+00  0.00000000000E+00  0.93800000000E+00  0.93800000000E+00 0. -1.
         11    1    1    2    0    0 -0.62297205630E-01  0.13055941765E+00  0.16149800178E+01  0.16214460899E+01  0.51100000000E-03 0.  1.
    9000002    1    1    2    0    0 -0.42369395362E-01 -0.33110858584E+00  0.78226632397E-01  0.99869488198E+00  0.93800000000E+00 0. -1.
         22    1    1    2    0    0  0.10466660099E+00  0.20054916819E+00  0.23067933171E+01  0.23178590281E+01  0.00000000000E+00 0.  1.
</event>
<event>
 5    1  0.3428566E+002  0.1599568E+01  0.7818608E-02  0.3353833E+00
         11   -1    0    0    0    0  0.00000000000E+00  0.00000000000E+00  0.39999999674E+01  0.40000000000E+01  0.51100000000E-03 0. -1.
    9000002   -1    0    0    0    0 -0.00000000000E+00 -0.00000000000E+00  0.00000000000E+00  0.93800000000E+00  0.93800000000E+00 0.  1.
         11    1    1    2    0    0 -0.13428722670E-01 -0.38601731066E-01  0.52650827463E+00  0.52809246218E+00  0.51100000000E-03 0. -1.
    9000002    1    1    2    0    0  0.16049481057E+00  0.26666826282E+00  0.64778651579E-01  0.99040942055E+00  0.93800000000E+00 0.  1.
         22    1    1    2    0    0 -0.14706608790E+00 -0.22806653175E+00  0.34087130411E+01  0.34194981173E+01  0.00000000000E+00 0. -1.
</event>
<event>
 5    1  0.3680360E+002  0.1581945E+01  0.7818608E-02  0.3373196E+00
         11   -1    0    0    0    0  0.00000000000E+00  0.00000000000E+00  0.39999999674E+01  0.40000000000E+01  0.51100000000E-03 0. -1.
    9000002   -1    0    0    0    0 -0.00000000000E+00 -0.00000000000E+00  0.00000000000E+00  0.93800000000E+00  0.93800000000E+00 0.  1.
         11    1    1    2    0    0  0.92776487763E-01 -0.43668225919E-01  0.60056776687E+00  0.60925880737E+00  0.51100000000E-03 0. -1.
    9000002    1    1    2    0    0  0.25165977989E-01 -0.12334893724E+00  0.23581077293E-01  0.94670394209E+00  0.93800000000E+00 0.  1.
         22    1    1    2    0    0 -0.11794246575E+00  0.16701716316E+00  0.33758511232E+01  0.33820372505E+01  0.00000000000E+00 0. -1.
</event>
<event>
 5    1  0.3428566E+002  0.1581849E+01  0.7818608E-02  0.3373302E+00
         11   -1    0    0    0    0  0.00000000000E+00  0.00000000000E+00  0.39999999674E+01  0.40000000000E+01  0.51100000000E-03 0.  1.
    9000002   -1    0    0    0    0 -0.00000000000E+00 -0.00000000000E+00  0.00000000000E+00  0.93800000000E+00  0.93800000000E+00 0. -1.
         11    1    1    2    0    0  0.31100903605E-01 -0.11622900033E+00  0.10809305414E+01  0.10876063365E+01  0.51100000000E-03 0.  1.
    9000002    1    1    2    0    0  0.22084484657E+00  0.22082463801E-01  0.46248051415E-01  0.96500930758E+00  0.93800000000E+00 0. -1.
         22    1    1    2    0    0 -0.25194575018E+00  0.94146536526E-01  0.28728213746E+01  0.28853843560E+01  0.00000000000E+00 0.  1.
</event>
<event>
 5    1  0.3428566E+002  0.1599676E+01  0.7818608E-02  0.3353715E+00
         11   -1    0    0    0    0  0.00000000000E+00  0.00000000000E+00  0.39999999674E+01  0.40000000000E+01  0.51100000000E-03 0. -1.
    9000002   -1    0    0    0    0 -0.00000000000E+00 -0.00000000000E+00  0.00000000000E+00  0.93800000000E+00  0.93800000000E+00 0.  1.
         11    1    1    2    0    0  0.32132344659E-01 -0.44394715615E-01  0.60017944723E+00  0.60267653708E+00  0.51100000000E-03 0. -1.
    9000002    1    1    2    0    0 -0.21036047158E+00  0.29289453892E+00  0.87296597700E-01  0.10087137527E+01  0.93800000000E+00 0.  1.
         22    1    1    2    0    0  0.17822812692E+00 -0.24849982331E+00  0.33125239224E+01  0.33266097102E+01  0.00000000000E+00 0. -1.
</event>
<event>
 5    1  0.3428566E+002  0.1599550E+01  0.7818608E-02  0.3353852E+00
         11   -1    0    0    0    0  0.00000000000E+00  0.00000000000E+00  0.39999999674E+01  0.40000000000E+01  0.51100000000E-03 0. -1.
    9000002   -1    0    0    0    0 -0.00000000000E+00 -0.00000000000E+00  0.00000000000E+00  0.93800000000E+00  0.93800000000E+00 0.  1.
         11    1    1    2    0    0  0.28880774915E-01  0.72103304225E-01  0.84097799589E+00  0.84455742039E+00  0.51100000000E-03 0. -1.
    9000002    1    1    2    0    0 -0.18384269777E+00 -0.32043748764E+00  0.91815931689E-01  0.10123005909E+01  0.93800000000E+00 0.  1.
         22    1    1    2    0    0  0.15496192286E+00  0.24833418341E+00  0.30672060398E+01  0.30811419887E+01  0.00000000000E+00 0. -1.
</event>
<event>
 5    1  0.3428566E+002  0.1599677E+01  0.7818608E-02  0.3353714E+00
         11   -1    0    0    0    0  0.00000000000E+00  0.00000000000E+00  0.39999999674E+01  0.40000000000E+01  0.51100000000E-03 0.  1.
    9000002   -1    0    0    0    0 -0.00000000000E+00 -0.00000000000E+00  0.00000000000E+00  0.93800000000E+00  0.93800000000E+00 0.  1.
         11    1    1    2    0    0 -0.32227907519E-01  0.71494549498E-01  0.88730126428E+00  0.89076029511E+00  0.51100000000E-03 0. -1.
    9000002    1    1    2    0    0  0.14160487173E+00 -0.31364019173E+00  0.79352593225E-01  0.10022788752E+01  0.93800000000E+00 0.  1.
         22    1    1    2    0    0 -0.10937696421E+00  0.24214564223E+00  0.30333461099E+01  0.30449608297E+01  0.00000000000E+00 0.  1.
</event>
<event>
 5    1  0.3428566E+002  0.1575523E+01  0.7818608E-02  0.3380366E+00
         11   -1    0    0    0    0  0.00000000000E+00  0.00000000000E+00  0.39999999674E+01  0.40000000000E+01  0.51100000000E-03 0.  1.
    9000002   -1    0    0    0    0 -0.00000000000E+00 -0.00000000000E+00  0.00000000000E+00  0.93800000000E+00  0.93800000000E+00 0. -1.
         11    1    1    2    0    0 -0.75131369828E-01 -0.51206658855E-01  0.27287880676E+01  0.27303024418E+01  0.51100000000E-03 0.  1.
    9000002    1    1    2    0    0  0.47195910132E-01 -0.17004060714E+00  0.38770123166E-01  0.95524257886E+00  0.93800000000E+00 0. -1.
         22    1    1    2    0    0  0.27935459696E-01  0.22124726599E+00  0.12324417766E+01  0.12524549794E+01  0.00000000000E+00 0. -1.
</event>
<event>
 5    1  0.3428566E+002  0.1599600E+01  0.7818608E-02  0.3353797E+00
         11   -1    0    0    0    0  0.00000000000E+00  0.00000000000E+00  0.39999999674E+01  0.40000000000E+01  0.51100000000E-03 0.  1.
    9000002   -1    0    0    0    0 -0.00000000000E+00 -0.00000000000E+00  0.00000000000E+00  0.93800000000E+00  0.93800000000E+00 0.  1.
         11    1    1    2    0    0 -0.26301219369E-01 -0.37529651684E-01  0.48781188724E+00  0.48996012833E+00  0.51100000000E-03 0.  1.
    9000002    1    1    2    0    0  0.18814847984E+00  0.25195429892E+00  0.66116102976E-01  0.99151205655E+00  0.93800000000E+00 0.  1.
         22    1    1    2    0    0 -0.16184726047E+00 -0.21442464724E+00  0.34460719771E+01  0.34565278151E+01  0.00000000000E+00 0.  1.
</event>
<event>
 5    1  0.3428566E+002  0.1598729E+01  0.7818608E-02  0.3354744E+00
         11   -1    0    0    0    0  0.00000000000E+00  0.00000000000E+00  0.39999999674E+01  0.40000000000E+01  0.51100000000E-03 0. -1.
    9000002   -1    0    0    0    0 -0.00000000000E+00 -0.00000000000E+00  0.00000000000E+00  0.93800000000E+00  0.93800000000E+00 0. -1.
         11    1    1    2    0    0 -0.58952284740E-01  0.34724768745E-01  0.56024742310E+00  0.56440997303E+00  0.51100000000E-03 0. -1.
    9000002    1    1    2    0    0  0.23445430031E+00 -0.21039036157E+00  0.67042907668E-01  0.99175182110E+00  0.93800000000E+00 0. -1.
         22    1    1    2    0    0 -0.17550201557E+00  0.17566559283E+00  0.33727096366E+01  0.33818382059E+01  0.00000000000E+00 0. -1.
</event>
<event>
 5    1  0.3428566E+002  0.1599107E+01  0.7818608E-02  0.3354334E+00
         11   -1    0    0    0    0  0.00000000000E+00  0.00000000000E+00  0.39999999674E+01  0.40000000000E+01  0.51100000000E-03 0. -1.
    9000002   -1    0    0    0    0 -0.00000000000E+00 -0.00000000000E+00  0.00000000000E+00  0.93800000000E+00  0.93800000000E+00 0. -1.
         11    1    1    2    0    0  0.79492725325E-02  0.17289019570E-01  0.14589113242E+00  0.14712778382E+00  0.51100000000E-03 0. -1.
    9000002    1    1    2    0    0 -0.17138305600E+00 -0.17789329111E+00  0.40959996746E-01  0.97084493934E+00  0.93800000000E+00 0. -1.
         22    1    1    2    0    0  0.16343378346E+00  0.16060427154E+00  0.38131488382E+01  0.38200272768E+01  0.00000000000E+00 0. -1.
</event>
<event>
 5    1  0.3428566E+002  0.1564822E+01  0.7818608E-02  0.3392452E+00
         11   -1    0    0    0    0  0.00000000000E+00  0.00000000000E+00  0.39999999674E+01  0.40000000000E+01  0.51100000000E-03 0.  1.
    9000002   -1    0    0    0    0 -0.00000000000E+00 -0.00000000000E+00  0.00000000000E+00  0.93800000000E+00  0.93800000000E+00 0. -1.
         11    1    1    2    0    0 -0.27968367391E-01  0.17983470858E+00  0.73930857258E+00  0.76138044275E+00  0.51100000000E-03 0.  1.
    9000002    1    1    2    0    0 -0.17489509539E+00 -0.78083966381E-01  0.50786492276E-01  0.95870155314E+00  0.93800000000E+00 0. -1.
         22    1    1    2    0    0  0.20286346278E+00 -0.10175074220E+00  0.32099049025E+01  0.32179180041E+01  0.00000000000E+00 0.  1.
</event>
<event>
 5    1  0.3428566E+002  0.1599571E+01  0.7818608E-02  0.3353829E+00
         11   -1    0    0    0    0  0.00000000000E+00  0.00000000000E+00  0.39999999674E+01  0.40000000000E+01  0.51100000000E-03 0.  1.
    9000002   -1    0    0    0    0 -0.00000000000E+00 -0.00000000000E+00  0.00000000000E+00  0.93800000000E+00  0.93800000000E+00 0.  1.
         11    1    1    2    0    0  0.15439680749E-01  0.23012734413E-01  0.34829687237E+00  0.34939797096E+00  0.51100000000E-03 0.  1.
    9000002    1    1    2    0    0 -0.17750074366E+00 -0.18173663556E+00  0.42964339849E-01  0.97274079446E+00  0.93800000000E+00 0.  1.
         22    1    1    2    0    0  0.16206106291E+00  0.15872390115E+00  0.36087387551E+01  0.36158612346E+01  0.00000000000E+00 0.  1.
</event>
<event>
 5    1  0.3428566E+002  0.1599647E+01  0.7818608E-02  0.3353747E+00
         11   -1    0    0    0    0  0.00000000000E+00  0.00000000000E+00  0.39999999674E+01  0.40000000000E+01  0.51100000000E-03 0. -1.
    9000002   -1    0    0    0    0 -0.00000000000E+00 -0.00000000000E+00  0.00000000000E+00  0.93800000000E+00  0.93800000000E+00 0.  1.
         11    1    1    2    0    0  0.70120611080E-01  0.51000041401E-02  0.73568216318E+00  0.73903411050E+00  0.51100000000E-03 0. -1.
    9000002    1    1    2    0    0 -0.39846473891E+00 -0.29455525195E-01  0.10770070205E+00  0.10252244717E+01  0.93800000000E+00 0.  1.
         22    1    1    2    0    0  0.32834412783E+00  0.24355521055E-01  0.31566171021E+01  0.31737414178E+01  0.00000000000E+00 0. -1.
</event>
<event>
 5    1  0.3428566E+002  0.1599677E+01  0.7818608E-02  0.3353714E+00
         11   -1    0    0    0    0  0.00000000000E+00  0.00000000000E+00  0.39999999674E+01  0.40000000000E+01  0.51100000000E-03 0. -1.
    9000002   -1    0    0    0    0 -0.00000000000E+00 -0.00000000000E+00  0.00000000000E+00  0.93800000000E+00  0.93800000000E+00 0. -1.
         11    1    1    2    0    0  0.23316044441E+00  0.44943176283E+00  0.23855569447E+01  0.24386953274E+01  0.51100000000E-03 0. -1.
    9000002    1    1    2    0    0 -0.35000397369E+00 -0.67506717990E+00  0.42050355229E+00  0.12786264961E+01  0.93800000000E+00 0. -1.
         22    1    1    2    0    0  0.11684352928E+00  0.22563541708E+00  0.11939394704E+01  0.12206781765E+01  0.00000000000E+00 0. -1.
</event>
<event>
 5    1  0.3428566E+002  0.1599648E+01  0.7818608E-02  0.3353746E+00
         11   -1    0    0    0    0  0.00000000000E+00  0.00000000000E+00  0.39999999674E+01  0.40000000000E+01  0.51100000000E-03 0.  1.
    9000002   -1    0    0    0    0 -0.00000000000E+00 -0.00000000000E+00  0.00000000000E+00  0.93800000000E+00  0.93800000000E+00 0.  1.
         11    1    1    2    0    0 -0.10422010512E-02  0.31783755665E-01  0.49934653553E+00  0.50035838853E+00  0.51100000000E-03 0.  1.
    9000002    1    1    2    0    0  0.36615382113E-01 -0.23307156354E+00  0.36960080971E-01  0.96792204620E+00  0.93800000000E+00 0.  1.
         22    1    1    2    0    0 -0.35573181062E-01  0.20128780788E+00  0.34636933509E+01  0.34697195653E+01  0.00000000000E+00 0.  1.
</event>
<event>
 5    1  0.3428566E+002  0.1599141E+01  0.7818608E-02  0.3354296E+00
         11   -1    0    0    0    0  0.00000000000E+00  0.00000000000E+00  0.39999999674E+01  0.40000000000E+01  0.51100000000E-03 0. -1.
    9000002   -1    0    0    0    0 -0.00000000000E+00 -0.00000000000E+00  0.00000000000E+00  0.93800000000E+00  0.93800000000E+00 0.  1.
         11    1    1    2    0    0 -0.12871685423E-02  0.11919002688E-01  0.71493960926E-01  0.72493910074E-01  0.51100000000E-03 0. -1.
    9000002    1    1    2    0    0 -0.22873396242E-02 -0.25380185741E+00  0.43216947559E-01  0.97269333261E+00  0.93800000000E+00 0.  1.
         22    1    1    2    0    0  0.35745081665E-02  0.24188285472E+00  0.38852890589E+01  0.38928127573E+01  0.00000000000E+00 0. -1.
</event>
<event>
 5    1  0.3428566E+002  0.1599675E+01  0.7818608E-02  0.3353716E+00
         11   -1    0    0    0    0  0.00000000000E+00  0.00000000000E+00  0.39999999674E+01  0.40000000000E+01  0.51100000000E-03 0. -1.
    9000002   -1    0    0    0    0 -0.00000000000E+00 -0.00000000000E+00  0.00000000000E+00  0.93800000000E+00  0.93800000000E+00 0.  1.
         11    1    1    2    0    0 -0.17062521315E-01  0.84303767771E-02  0.14575818063E+00  0.14699628984E+00  0.51100000000E-03 0.  1.
    9000002    1    1    2    0    0  0.45646477695E+00 -0.22072319363E+00  0.17619597324E+00  0.10807256089E+01  0.93800000000E+00 0.  1.
         22    1    1    2    0    0 -0.43940225563E+00  0.21229281685E+00  0.36780458135E+01  0.37102781012E+01  0.00000000000E+00 0. -1.
</event>
